<LesHouchesEvents version="3.0">
<header>
<!--
#*********************************************************************
#                                                                    *
#                        MadGraph5_aMC@NLO                           *
#                                                                    *
#                           Going Beyond                             *
#                                                                    *
#                   http://madgraph.hep.uiuc.edu                     *
#                   http://madgraph.phys.ucl.ac.be                   *
#                   http://amcatnlo.cern.ch                          *
#                                                                    *
#                     The MadGraph5_aMC@NLO team                     *
#                                                                    *
#....................................................................*
#                                                                    *
# This file contains all the information necessary to reproduce      *
# the events generated:                                              *
#                                                                    *
# 1. software version                                                *
# 2. proc_card          : code generation info including model       *
# 3. param_card         : model primary parameters in the LH format  *
# 4. run_card           : running parameters (collider and cuts)     *
# 5. pythia_card        : present only if pythia has been run        *
# 6. pgs_card           : present only if pgs has been run           *
# 7. delphes_cards      : present only if delphes has been run       *
#                                                                    *
#                                                                    *
#*********************************************************************
-->
<MGVersion>
#5.2.2.3
</MGVersion>
<MG5ProcCard>
#************************************************************
#*                     MadGraph5_aMC@NLO                    *
#*                                                          *
#*                *                       *                 *
#*                  *        * *        *                   *
#*                    * * * * 5 * * * *                     *
#*                  *        * *        *                   *
#*                *                       *                 *
#*                                                          *
#*                                                          *
#*         VERSION 2.2.3                 2015-02-10         *
#*                                                          *
#*    The MadGraph5_aMC@NLO Development Team - Find us at   *
#*    https://server06.fynu.ucl.ac.be/projects/madgraph     *
#*                                                          *
#************************************************************
#*                                                          *
#*               Command File for MadGraph5_aMC@NLO         *
#*                                                          *
#*     run as ./bin/mg5_aMC  filename                       *
#*                                                          *
#************************************************************
set group_subprocesses Auto
set ignore_six_quark_processes False
set loop_optimized_output True
set gauge unitary
set complex_mass_scheme False
import model sm
define p = g u c d s u~ c~ d~ s~
define j = g u c d s u~ c~ d~ s~
define l+ = e+ mu+
define l- = e- mu-
define vl = ve vm vt
define vl~ = ve~ vm~ vt~
import model Zprime_UFO
generate p p > zph, zph > j j
add process p p > zph, zph > b b~
output Dijet_signal
</MG5ProcCard>
<MGProcCard>
#*********************************************************************
#                        MadGraph/MadEvent                           *
#                   http://madgraph.hep.uiuc.edu                     *
#                                                                    *
#                          proc_card.dat                             *
#*********************************************************************
#                                                                    *
#            This Files is generated by MADGRAPH 5                   *
#                                                                    *
# WARNING: This Files is generated for MADEVENT (compatibility issue)*
#          This files is NOT a valid MG4 proc_card.dat               *
#          Running this in MG4 will NEVER reproduce the result of MG5*
#                                                                    *
#*********************************************************************
#*********************************************************************
# Process(es) requested : mg2 input                                  *
#*********************************************************************
# Begin PROCESS # This is TAG. Do not modify this line
p p > zph , zph > j j           #Process
# Be carefull the coupling are here in MG5 convention
          
end_coup           # End the couplings input

done               # this tells MG there are no more procs
# End PROCESS  # This is TAG. Do not modify this line
#*********************************************************************
# Model information                                                  *
#*********************************************************************
# Begin MODEL  # This is TAG. Do not modify this line
Zprime_UFO
# End   MODEL  # This is TAG. Do not modify this line
#*********************************************************************
# Start multiparticle definitions                                    *
#*********************************************************************
# Begin MULTIPARTICLES # This is TAG. Do not modify this line

# End  MULTIPARTICLES # This is TAG. Do not modify this line
</MGProcCard>
<MGRunCard>
#*********************************************************************
#                       MadGraph5_aMC@NLO                            *
#                                                                    *
#                     run_card.dat MadEvent                          *
#                                                                    *
#  This file is used to set the parameters of the run.               *
#                                                                    *
#  Some notation/conventions:                                        *
#                                                                    *
#   Lines starting with a '# ' are info or comments                  *
#                                                                    *
#   mind the format:   value    = variable     ! comment             *
#*********************************************************************
#
#*******************                                                 
# Running parameters
#*******************                                                 
#                                                                    
#*********************************************************************
# Tag name for the run (one word)                                    *
#*********************************************************************
  tag_1     = run_tag ! name of the run 
#*********************************************************************
# Run to generate the grid pack                                      *
#*********************************************************************
  .false.     = gridpack  !True = setting up the grid pack
#*********************************************************************
# Number of events and rnd seed                                      *
# Warning: Do not generate more than 1M events in a single run       *
# If you want to run Pythia, avoid more than 50k events in a run.    *
#*********************************************************************
  2000 = nevents ! Number of unweighted events requested 
 1128 = iseed   ! rnd seed (0=assigned automatically=default))
#*********************************************************************
# Collider type and energy                                           *
# lpp: 0=No PDF, 1=proton, -1=antiproton, 2=photon from proton,      *
#                                         3=photon from electron     *
#*********************************************************************
        1     = lpp1    ! beam 1 type 
        1     = lpp2    ! beam 2 type
     4000     = ebeam1  ! beam 1 total energy in GeV
     4000     = ebeam2  ! beam 2 total energy in GeV
#*********************************************************************
# Beam polarization from -100 (left-handed) to 100 (right-handed)    *
#*********************************************************************
        0     = polbeam1 ! beam polarization for beam 1
        0     = polbeam2 ! beam polarization for beam 2
#*********************************************************************
# PDF CHOICE: this automatically fixes also alpha_s and its evol.    *
#*********************************************************************
 'nn23lo1'    = pdlabel     ! PDF set                                     
 230000    = lhaid     ! if pdlabel=lhapdf, this is the lhapdf number
#*********************************************************************
# Renormalization and factorization scales                           *
#*********************************************************************
 F        = fixed_ren_scale  ! if .true. use fixed ren scale
 F        = fixed_fac_scale  ! if .true. use fixed fac scale
 91.1880  = scale            ! fixed ren scale
 91.1880  = dsqrt_q2fact1    ! fixed fact scale for pdf1
 91.1880  = dsqrt_q2fact2    ! fixed fact scale for pdf2
 1        = scalefact        ! scale factor for event-by-event scales
#*********************************************************************
# Matching - Warning! ickkw > 1 is still beta
#*********************************************************************
 0        = ickkw            ! 0 no matching, 1 MLM, 2 CKKW matching
 1        = highestmult      ! for ickkw=2, highest mult group
 1        = ktscheme         ! for ickkw=1, 1 Durham kT, 2 Pythia pTE
 1        = alpsfact         ! scale factor for QCD emission vx
 F        = chcluster        ! cluster only according to channel diag
 T        = pdfwgt           ! for ickkw=1, perform pdf reweighting
 5        = asrwgtflavor     ! highest quark flavor for a_s reweight
 T        = clusinfo         ! include clustering tag in output
 3.0      = lhe_version       ! Change the way clustering information pass to shower.        
#*********************************************************************
#**********************************************************
#
#**********************************************************
# Automatic ptj and mjj cuts if xqcut > 0
# (turn off for VBF and single top processes)
#**********************************************************
   T  = auto_ptj_mjj  ! Automatic setting of ptj and mjj
#**********************************************************
#                                                                    
#**********************************
# BW cutoff (M+/-bwcutoff*Gamma)
#**********************************
  15  = bwcutoff      ! (M+/-bwcutoff*Gamma)
#**********************************************************
# Apply pt/E/eta/dr/mij cuts on decay products or not
# (note that etmiss/ptll/ptheavy/ht/sorted cuts always apply)
#**********************************************************
   T  = cut_decays    ! Cut decay products 
#*************************************************************
# Number of helicities to sum per event (0 = all helicities)
# 0 gives more stable result, but longer run time (needed for
# long decay chains e.g.).
# Use >=2 if most helicities contribute, e.g. pure QCD.
#*************************************************************
   0  = nhel          ! Number of helicities used per event
#*******************                                                 
# Standard Cuts
#*******************                                                 
#                                                                    
#*********************************************************************
# Minimum and maximum pt's (for max, -1 means no cut)                *
#*********************************************************************
 20  = ptj       ! minimum pt for the jets 
  0  = ptb       ! minimum pt for the b 
 10  = pta       ! minimum pt for the photons 
 10  = ptl       ! minimum pt for the charged leptons 
  0  = misset    ! minimum missing Et (sum of neutrino's momenta)
  0  = ptheavy   ! minimum pt for one heavy final state
 1.0 = ptonium   ! minimum pt for the quarkonium states
 -1  = ptjmax    ! maximum pt for the jets
 -1  = ptbmax    ! maximum pt for the b
 -1  = ptamax    ! maximum pt for the photons
 -1  = ptlmax    ! maximum pt for the charged leptons
 -1  = missetmax ! maximum missing Et (sum of neutrino's momenta)
#*********************************************************************
# Minimum and maximum E's (in the center of mass frame)              *
#*********************************************************************
  0  = ej     ! minimum E for the jets 
  0  = eb     ! minimum E for the b 
  0  = ea     ! minimum E for the photons 
  0  = el     ! minimum E for the charged leptons 
 -1   = ejmax ! maximum E for the jets
 -1   = ebmax ! maximum E for the b
 -1   = eamax ! maximum E for the photons
 -1   = elmax ! maximum E for the charged leptons
#*********************************************************************
# Maximum and minimum absolute rapidity (for max, -1 means no cut)   *
#*********************************************************************
   5  = etaj    ! max rap for the jets 
  -1  = etab    ! max rap for the b
 2.5  = etaa    ! max rap for the photons 
 2.5  = etal    ! max rap for the charged leptons 
 0.6  = etaonium ! max rap for the quarkonium states
   0  = etajmin ! min rap for the jets
   0  = etabmin ! min rap for the b
   0  = etaamin ! min rap for the photons
   0  = etalmin ! main rap for the charged leptons
#*********************************************************************
# Minimum and maximum DeltaR distance                                *
#*********************************************************************
 0.4 = drjj    ! min distance between jets 
 0   = drbb    ! min distance between b's 
 0.4 = drll    ! min distance between leptons 
 0.4 = draa    ! min distance between gammas 
 0   = drbj    ! min distance between b and jet 
 0.4 = draj    ! min distance between gamma and jet 
 0.4 = drjl    ! min distance between jet and lepton 
 0   = drab    ! min distance between gamma and b 
 0   = drbl    ! min distance between b and lepton 
 0.4 = dral    ! min distance between gamma and lepton 
 -1  = drjjmax ! max distance between jets
 -1  = drbbmax ! max distance between b's
 -1  = drllmax ! max distance between leptons
 -1  = draamax ! max distance between gammas
 -1  = drbjmax ! max distance between b and jet
 -1  = drajmax ! max distance between gamma and jet
 -1  = drjlmax ! max distance between jet and lepton
 -1  = drabmax ! max distance between gamma and b
 -1  = drblmax ! max distance between b and lepton
 -1  = dralmax ! maxdistance between gamma and lepton
#*********************************************************************
# Minimum and maximum invariant mass for pairs                       *
# WARNING: for four lepton final state mmll cut require to have      *
#          different lepton masses for each flavor!                  *           
#*********************************************************************
 0   = mmjj    ! min invariant mass of a jet pair 
 0   = mmbb    ! min invariant mass of a b pair 
 0   = mmaa    ! min invariant mass of gamma gamma pair
 0   = mmll    ! min invariant mass of l+l- (same flavour) lepton pair
 -1  = mmjjmax ! max invariant mass of a jet pair
 -1  = mmbbmax ! max invariant mass of a b pair
 -1  = mmaamax ! max invariant mass of gamma gamma pair
 -1  = mmllmax ! max invariant mass of l+l- (same flavour) lepton pair
#*********************************************************************
# Minimum and maximum invariant mass for all letpons                 *
#*********************************************************************
 0   = mmnl    ! min invariant mass for all letpons (l+- and vl) 
 -1  = mmnlmax ! max invariant mass for all letpons (l+- and vl) 
#*********************************************************************
# Minimum and maximum pt for 4-momenta sum of leptons                *
#*********************************************************************
 0   = ptllmin  ! Minimum pt for 4-momenta sum of leptons(l and vl)
 -1  = ptllmax  ! Maximum pt for 4-momenta sum of leptons(l and vl)
#*********************************************************************
# Inclusive cuts                                                     *
#*********************************************************************
 0  = xptj ! minimum pt for at least one jet  
 0  = xptb ! minimum pt for at least one b 
 0  = xpta ! minimum pt for at least one photon 
 0  = xptl ! minimum pt for at least one charged lepton 
#*********************************************************************
# Control the pt's of the jets sorted by pt                          *
#*********************************************************************
 0   = ptj1min ! minimum pt for the leading jet in pt
 0   = ptj2min ! minimum pt for the second jet in pt
 0   = ptj3min ! minimum pt for the third jet in pt
 0   = ptj4min ! minimum pt for the fourth jet in pt
 -1  = ptj1max ! maximum pt for the leading jet in pt 
 -1  = ptj2max ! maximum pt for the second jet in pt
 -1  = ptj3max ! maximum pt for the third jet in pt
 -1  = ptj4max ! maximum pt for the fourth jet in pt
 0   = cutuse  ! reject event if fails any (0) / all (1) jet pt cuts
#*********************************************************************
# Control the pt's of leptons sorted by pt                           *
#*********************************************************************
 0   = ptl1min ! minimum pt for the leading lepton in pt
 0   = ptl2min ! minimum pt for the second lepton in pt
 0   = ptl3min ! minimum pt for the third lepton in pt
 0   = ptl4min ! minimum pt for the fourth lepton in pt
 -1  = ptl1max ! maximum pt for the leading lepton in pt 
 -1  = ptl2max ! maximum pt for the second lepton in pt
 -1  = ptl3max ! maximum pt for the third lepton in pt
 -1  = ptl4max ! maximum pt for the fourth lepton in pt
#*********************************************************************
# Control the Ht(k)=Sum of k leading jets                            *
#*********************************************************************
 0   = htjmin ! minimum jet HT=Sum(jet pt)
 -1  = htjmax ! maximum jet HT=Sum(jet pt)
 0   = ihtmin  !inclusive Ht for all partons (including b)
 -1  = ihtmax  !inclusive Ht for all partons (including b)
 0   = ht2min ! minimum Ht for the two leading jets
 0   = ht3min ! minimum Ht for the three leading jets
 0   = ht4min ! minimum Ht for the four leading jets
 -1  = ht2max ! maximum Ht for the two leading jets
 -1  = ht3max ! maximum Ht for the three leading jets
 -1  = ht4max ! maximum Ht for the four leading jets
#***********************************************************************
# Photon-isolation cuts, according to hep-ph/9801442                   *
# When ptgmin=0, all the other parameters are ignored                  *
# When ptgmin>0, pta and draj are not going to be used                 *
#***********************************************************************
   0 = ptgmin ! Min photon transverse momentum
 0.4 = R0gamma ! Radius of isolation code
 1.0 = xn ! n parameter of eq.(3.4) in hep-ph/9801442
 1.0 = epsgamma ! epsilon_gamma parameter of eq.(3.4) in hep-ph/9801442
 .true. = isoEM ! isolate photons from EM energy (photons and leptons)
#*********************************************************************
# WBF cuts                                                           *
#*********************************************************************
 0   = xetamin ! minimum rapidity for two jets in the WBF case  
 0   = deltaeta ! minimum rapidity for two jets in the WBF case 
#*********************************************************************
# KT DURHAM CUT                                                      *
#*********************************************************************
 -1    =  ktdurham        
 0.4  =  dparameter 
#*********************************************************************
# maximal pdg code for quark to be considered as a light jet         *
# (otherwise b cuts are applied)                                     *
#*********************************************************************
 4 = maxjetflavor    ! Maximum jet pdg code
#*********************************************************************
# Jet measure cuts                                                   *
#*********************************************************************
 0   = xqcut   ! minimum kt jet measure between partons
#*********************************************************************
#
#*********************************************************************
# Store info for systematics studies                                 *
# WARNING: If use_syst is T, matched Pythia output is                *
#          meaningful ONLY if plotted taking matchscale              *
#          reweighting into account!                                 *
#*********************************************************************
   F  = use_syst      ! Enable systematics studies
#
#**************************************
# Parameter of the systematics study
#  will be used by SysCalc (if installed)
#**************************************                                  
#
0.5 1 2 = sys_scalefact  # factorization/renormalization scale factor
0.5 1 2 = sys_alpsfact  # \alpha_s emission scale factors
30 50 = sys_matchscale # variation of merging scale
# PDF sets and number of members (0 or none for all members).
CT10nlo.LHgrid = sys_pdf # matching scales
# MSTW2008nlo68cl.LHgrid 1  = sys_pdf
</MGRunCard>
<slha>
######################################################################
## PARAM_CARD AUTOMATICALY GENERATED BY MG5 FOLLOWING UFO MODEL   ####
######################################################################
##                                                                  ##
##  Width set on Auto will be computed following the information    ##
##        present in the decay.py files of the model.               ##
##        See  arXiv:1402.1178 for more details.                    ##
##                                                                  ##
######################################################################

###################################
## INFORMATION FOR CKMBLOCK
###################################
Block ckmblock 
    1 2.277360e-01 # cabi 

###################################
## INFORMATION FOR FRBLOCK
###################################
Block frblock 
    1 4.000000e-01 # gz 

###################################
## INFORMATION FOR MASS
###################################
Block mass 
    1 5.040000e-03 # MD 
    2 2.550000e-03 # MU 
    3 1.010000e-01 # MS 
    4 1.270000e+00 # MC 
    5 4.700000e+00 # MB 
    6 1.720000e+02 # MT 
   11 5.110000e-04 # Me 
   13 1.056600e-01 # MM 
   15 1.777000e+00 # MTA 
   23 9.118760e+01 # MZ 
   25 1.200000e+02 # MH 
  10030 3.900000e+03 # MZph 
  10031 3.000000e+02 # MZpl 
## Dependent parameters, given by model restrictions.
## Those values should be edited following the 
## analytical expression. MG5 ignores those values 
## but they are important for interfacing the output of MG5
## to external program such as Pythia.
  12 0.000000 # ve : 0.0 
  14 0.000000 # vm : 0.0 
  16 0.000000 # vt : 0.0 
  21 0.000000 # g : 0.0 
  22 0.000000 # a : 0.0 
  24 79.824360 # w+ : cmath.sqrt(MZ__exp__2/2. + cmath.sqrt(MZ__exp__4/4. - (aEW*cmath.pi*MZ__exp__2)/(Gf*sqrt__2))) 

###################################
## INFORMATION FOR SMINPUTS
###################################
Block sminputs 
    1 1.279000e+02 # aEWM1 
    2 1.166370e-05 # Gf 
    3 1.184000e-01 # aS 

###################################
## INFORMATION FOR YUKAWA
###################################
Block yukawa 
    1 5.040000e-03 # ymdo 
    2 2.550000e-03 # ymup 
    3 1.010000e-01 # yms 
    4 1.270000e+00 # ymc 
    5 4.700000e+00 # ymb 
    6 1.720000e+02 # ymt 
   11 5.110000e-04 # yme 
   13 1.056600e-01 # ymm 
   15 1.777000e+00 # ymtau 

###################################
## INFORMATION FOR DECAY
###################################
DECAY   6 1.508336e+00 # WT 
DECAY  23 2.495200e+00 # WZ 
DECAY  24 2.085000e+00 # WW 
DECAY  25 5.753088e-03 # WH 
## Dependent parameters, given by model restrictions.
## Those values should be edited following the 
## analytical expression. MG5 ignores those values 
## but they are important for interfacing the output of MG5
## to external program such as Pythia.
DECAY  1 0.000000 # d : 0.0 
DECAY  2 0.000000 # u : 0.0 
DECAY  3 0.000000 # s : 0.0 
DECAY  4 0.000000 # c : 0.0 
DECAY  5 0.000000 # b : 0.0 
DECAY  11 0.000000 # e- : 0.0 
DECAY  12 0.000000 # ve : 0.0 
DECAY  13 0.000000 # mu- : 0.0 
DECAY  14 0.000000 # vm : 0.0 
DECAY  15 0.000000 # ta- : 0.0 
DECAY  16 0.000000 # vt : 0.0 
DECAY  21 0.000000 # g : 0.0 
DECAY  22 0.000000 # a : 0.0 
DECAY  10030 0.308725 # zph : (gz__exp__2*MZph*(5 + cmath.sqrt(1 - (4*MT__exp__2)/MZph__exp__2)))/(144.*cmath.pi) 
DECAY  10031 0.132629 # zpl : (5*gz__exp__2*MZpl)/(144.*cmath.pi) 
#===========================================================
# QUANTUM NUMBERS OF NEW STATE(S) (NON SM PDG CODE)
#===========================================================

Block QNUMBERS 10030  # zph 
        1 0  # 3 times electric charge
        2 3  # number of spin states (2S+1)
        3 1  # colour rep (1: singlet, 3: triplet, 8: octet)
        4 0  # Particle/Antiparticle distinction (0=own anti)
Block QNUMBERS 10031  # zpl 
        1 0  # 3 times electric charge
        2 3  # number of spin states (2S+1)
        3 1  # colour rep (1: singlet, 3: triplet, 8: octet)
        4 0  # Particle/Antiparticle distinction (0=own anti)
</slha>
## END BANNER##
<MGGenerationInfo>
#  Number of Events        :         3801
#  Integrated weight (pb)  :  0.93160E-05
#  Max wgt                 :  0.38730E-08
#  Average wgt             :  0.24509E-08
</MGGenerationInfo>
</header>
<init>
     2212     2212  0.40000000000E+04  0.40000000000E+04 0 0  247000  247000 2   1
  0.93124874420E-05  0.19014827836E-07  0.38729690000E-08   0
</init>
<event>
 5   0  0.3769985E-08  0.3899889E+04  0.7818609E-02  0.8025052E-01
        2   -1    0    0  501    0  0.00000000000E+00  0.00000000000E+00  0.26109922305E+04  0.26109922305E+04  0.25500000920E-02 0.  1.
       -2   -1    0    0    0  501  0.00000000000E+00  0.00000000000E+00 -0.14562601426E+04  0.14562601426E+04  0.25500000920E-02 0. -1.
    10030    2    1    2    0    0  0.00000000000E+00  0.00000000000E+00  0.11547320879E+04  0.40672523731E+04  0.38998891871E+04 0.  0.
        1    1    3    3  502    0  0.89971041858E+03 -0.13871510848E+04  0.16554681222E+04  0.23397097411E+04  0.50400001928E-02 0.  1.
       -1    1    3    3    0  502 -0.89971041858E+03  0.13871510848E+04 -0.50073603430E+03  0.17275426320E+04  0.50400001928E-02 0. -1.
</event>
<event>
 5   0  0.3769985E-08  0.3910129E+04  0.7818609E-02  0.8022926E-01
        2   -1    0    0  501    0  0.00000000000E+00  0.00000000000E+00  0.20940915512E+04  0.20940915512E+04  0.25500000920E-02 0. -1.
       -2   -1    0    0    0  501  0.00000000000E+00  0.00000000000E+00 -0.18252678416E+04  0.18252678416E+04  0.25500000920E-02 0.  1.
    10030    2    1    2    0    0  0.00000000000E+00  0.00000000000E+00  0.26882370964E+03  0.39193593928E+04  0.39101293921E+04 0.  0.
        1    1    3    3  502    0 -0.17598552276E+04  0.84864274909E+03  0.63583692926E+02  0.19548216859E+04  0.50400001928E-02 0.  1.
       -1    1    3    3    0  502  0.17598552276E+04 -0.84864274909E+03  0.20524001671E+03  0.19645377070E+04  0.50400001928E-02 0. -1.
</event>
<event>
 5   0  0.3690572E-08  0.3895557E+04  0.7818609E-02  0.8025954E-01
        2   -1    0    0  501    0  0.00000000000E+00  0.00000000000E+00  0.19188292304E+04  0.19188292304E+04  0.25500000920E-02 0.  1.
       -2   -1    0    0    0  501  0.00000000000E+00  0.00000000000E+00 -0.19771645265E+04  0.19771645265E+04  0.25500000920E-02 0. -1.
    10030    2    1    2    0    0  0.00000000000E+00  0.00000000000E+00 -0.58335296087E+02  0.38959937569E+04  0.38955570009E+04 0.  0.
        3    1    3    3  502    0  0.92150842095E+03  0.79097348947E+03  0.14938373672E+04  0.19251926970E+04  0.10100000352E+00 0.  1.
       -3    1    3    3    0  502 -0.92150842095E+03 -0.79097348947E+03 -0.15521726633E+04  0.19708010599E+04  0.10100000352E+00 0. -1.
</event>
<event>
 5   0  0.3769985E-08  0.3903699E+04  0.7818609E-02  0.8024260E-01
        2   -1    0    0  501    0  0.00000000000E+00  0.00000000000E+00  0.16076999856E+04  0.16076999856E+04  0.25500000920E-02 0.  1.
       -2   -1    0    0    0  501  0.00000000000E+00  0.00000000000E+00 -0.23696690033E+04  0.23696690033E+04  0.25500000920E-02 0. -1.
    10030    2    1    2    0    0  0.00000000000E+00  0.00000000000E+00 -0.76196901771E+03  0.39773689888E+04  0.39036991802E+04 0.  0.
        1    1    3    3  502    0 -0.62177084034E+02  0.96731320636E+03 -0.21071096990E+04  0.23193689040E+04  0.50400001928E-02 0. -1.
       -1    1    3    3    0  502  0.62177084034E+02 -0.96731320636E+03  0.13451406813E+04  0.16580000849E+04  0.50400001928E-02 0.  1.
</event>
<event>
 5   0  0.3690572E-08  0.3898984E+04  0.7818609E-02  0.8025241E-01
       -2   -1    0    0    0  501  0.00000000000E+00  0.00000000000E+00  0.14744753154E+04  0.14744753154E+04  0.25500000920E-02 0.  1.
        2   -1    0    0  501    0  0.00000000000E+00  0.00000000000E+00 -0.25775395608E+04  0.25775395608E+04  0.25500000920E-02 0. -1.
    10030    2    1    2    0    0  0.00000000000E+00  0.00000000000E+00 -0.11030642454E+04  0.40520148762E+04  0.38989836916E+04 0.  0.
        3    1    3    3  502    0 -0.10594916353E+04  0.13524238496E+04  0.40601367958E+03  0.17653384697E+04  0.10100000352E+00 0.  1.
       -3    1    3    3    0  502  0.10594916353E+04 -0.13524238496E+04 -0.15090779250E+04  0.22866764065E+04  0.10100000352E+00 0. -1.
</event>
<event>
 5   0  0.1164500E-08  0.3897910E+04  0.7818609E-02  0.8025464E-01
       -1   -1    0    0    0  501  0.00000000000E+00  0.00000000000E+00  0.28207786690E+04  0.28207786690E+04  0.50400001928E-02 0. -1.
        1   -1    0    0  501    0  0.00000000000E+00  0.00000000000E+00 -0.13465878200E+04  0.13465878200E+04  0.50400001928E-02 0.  1.
    10030    2    1    2    0    0  0.00000000000E+00  0.00000000000E+00  0.14741908490E+04  0.41673664890E+04  0.38979103112E+04 0.  0.
        1    1    3    3  502    0 -0.14344652301E+04 -0.31715569494E+03 -0.63211869227E+03  0.15993286943E+04  0.50400001928E-02 0.  1.
       -1    1    3    3    0  502  0.14344652301E+04  0.31715569494E+03  0.21063095413E+04  0.25680377947E+04  0.50400001928E-02 0. -1.
</event>
<event>
 5   0  0.1164500E-08  0.3889645E+04  0.7818609E-02  0.8027186E-01
       -1   -1    0    0    0  501  0.00000000000E+00  0.00000000000E+00  0.20263556369E+04  0.20263556369E+04  0.50400001928E-02 0. -1.
        1   -1    0    0  501    0  0.00000000000E+00  0.00000000000E+00 -0.18665701817E+04  0.18665701817E+04  0.50400001928E-02 0.  1.
    10030    2    1    2    0    0  0.00000000000E+00  0.00000000000E+00  0.15978545528E+03  0.38929258186E+04  0.38896452329E+04 0.  0.
        3    1    3    3  502    0  0.43620550369E+03 -0.18822302741E+04  0.30204604541E+03  0.19555812102E+04  0.10100000352E+00 0.  1.
       -3    1    3    3    0  502 -0.43620550369E+03  0.18822302741E+04 -0.14226059013E+03  0.19373446084E+04  0.10100000352E+00 0. -1.
</event>
<event>
 5   0  0.3769985E-08  0.3901109E+04  0.7818609E-02  0.8024799E-01
       -2   -1    0    0    0  501  0.00000000000E+00  0.00000000000E+00  0.18856803415E+04  0.18856803415E+04  0.25500000920E-02 0.  1.
        2   -1    0    0  501    0  0.00000000000E+00  0.00000000000E+00 -0.20176606523E+04  0.20176606523E+04  0.25500000920E-02 0. -1.
    10030    2    1    2    0    0  0.00000000000E+00  0.00000000000E+00 -0.13198031077E+03  0.39033409938E+04  0.39011090873E+04 0.  0.
        1    1    3    3  502    0 -0.15819546814E+04 -0.19037396958E+03  0.10597491605E+04  0.19136068419E+04  0.50400001928E-02 0.  1.
       -1    1    3    3    0  502  0.15819546814E+04  0.19037396958E+03 -0.11917294713E+04  0.19897341518E+04  0.50400001928E-02 0. -1.
</event>
<event>
 5   0  0.1164500E-08  0.3897336E+04  0.7818609E-02  0.8025584E-01
       -1   -1    0    0    0  501  0.00000000000E+00  0.00000000000E+00  0.21540969670E+04  0.21540969670E+04  0.50400001928E-02 0.  1.
        1   -1    0    0  501    0  0.00000000000E+00  0.00000000000E+00 -0.17628299837E+04  0.17628299837E+04  0.50400001928E-02 0. -1.
    10030    2    1    2    0    0  0.00000000000E+00  0.00000000000E+00  0.39126698335E+03  0.39169269507E+04  0.38973358702E+04 0.  0.
        2    1    3    3  502    0 -0.11208832599E+04  0.14903406559E+04 -0.37272863341E+03  0.19016890354E+04  0.25500000920E-02 0. -1.
       -2    1    3    3    0  502  0.11208832599E+04 -0.14903406559E+04  0.76399561676E+03  0.20152379154E+04  0.25500000920E-02 0.  1.
</event>
<event>
 5   0  0.3769985E-08  0.3923542E+04  0.7818609E-02  0.8020151E-01
        2   -1    0    0  501    0  0.00000000000E+00  0.00000000000E+00  0.12271920887E+04  0.12271920887E+04  0.25500000920E-02 0.  1.
       -2   -1    0    0    0  501  0.00000000000E+00  0.00000000000E+00 -0.31360578159E+04  0.31360578159E+04  0.25500000920E-02 0. -1.
    10030    2    1    2    0    0  0.00000000000E+00  0.00000000000E+00 -0.19088657273E+04  0.43632499046E+04  0.39235419414E+04 0.  0.
        1    1    3    3  502    0  0.17245432620E+04  0.92568926861E+03 -0.80692010127E+03  0.21170900156E+04  0.50400001928E-02 0.  1.
       -1    1    3    3    0  502 -0.17245432620E+04 -0.92568926861E+03 -0.11019456260E+04  0.22461598890E+04  0.50400001928E-02 0. -1.
</event>
<event>
 5   0  0.1164500E-08  0.3908186E+04  0.7818609E-02  0.8023329E-01
        1   -1    0    0  501    0  0.00000000000E+00  0.00000000000E+00  0.23342602294E+04  0.23342602294E+04  0.50400001928E-02 0. -1.
       -1   -1    0    0    0  501  0.00000000000E+00  0.00000000000E+00 -0.16358415551E+04  0.16358415551E+04  0.50400001928E-02 0.  1.
    10030    2    1    2    0    0  0.00000000000E+00  0.00000000000E+00  0.69841867430E+03  0.39701017844E+04  0.39081862205E+04 0.  0.
        2    1    3    3  502    0 -0.69351753959E+03  0.49125165789E+03 -0.14382651478E+04  0.16705991154E+04  0.25500000920E-02 0.  1.
       -2    1    3    3    0  502  0.69351753959E+03 -0.49125165789E+03  0.21366838221E+04  0.22995026690E+04  0.25500000920E-02 0. -1.
</event>
<event>
 5   0  0.3669347E-08  0.3903639E+04  0.7818609E-02  0.8024273E-01
        2   -1    0    0  501    0  0.00000000000E+00  0.00000000000E+00  0.19508733731E+04  0.19508733731E+04  0.25500000920E-02 0.  1.
       -2   -1    0    0    0  501  0.00000000000E+00  0.00000000000E+00 -0.19527657225E+04  0.19527657225E+04  0.25500000920E-02 0. -1.
    10030    2    1    2    0    0  0.00000000000E+00  0.00000000000E+00 -0.18923493497E+01  0.39036390956E+04  0.39036386369E+04 0.  0.
        5    1    3    3  502    0 -0.54187488582E+03 -0.16987703193E+03 -0.18683215476E+04  0.19527247868E+04  0.46999998093E+01 0. -1.
       -5    1    3    3    0  502  0.54187488582E+03  0.16987703193E+03  0.18664291983E+04  0.19509143087E+04  0.46999998093E+01 0.  1.
</event>
<event>
 5   0  0.1164500E-08  0.3924975E+04  0.7818609E-02  0.8019855E-01
        1   -1    0    0  501    0  0.00000000000E+00  0.00000000000E+00  0.18620090523E+04  0.18620090523E+04  0.50400001928E-02 0.  1.
       -1   -1    0    0    0  501  0.00000000000E+00  0.00000000000E+00 -0.20683880964E+04  0.20683880964E+04  0.50400001928E-02 0. -1.
    10030    2    1    2    0    0  0.00000000000E+00  0.00000000000E+00 -0.20637904414E+03  0.39303971487E+04  0.39249750873E+04 0.  0.
        5    1    3    3  502    0  0.11889747920E+04  0.67621065788E+03 -0.15124051643E+04  0.20391942970E+04  0.46999998093E+01 0. -1.
       -5    1    3    3    0  502 -0.11889747920E+04 -0.67621065788E+03  0.13060261201E+04  0.18912028517E+04  0.46999998093E+01 0.  1.
</event>
<event>
 5   0  0.1164500E-08  0.3896397E+04  0.7818609E-02  0.8025779E-01
       -1   -1    0    0    0  501  0.00000000000E+00  0.00000000000E+00  0.30459826016E+04  0.30459826016E+04  0.50400001928E-02 0.  1.
        1   -1    0    0  501    0  0.00000000000E+00  0.00000000000E+00 -0.12460603274E+04  0.12460603274E+04  0.50400001928E-02 0. -1.
    10030    2    1    2    0    0  0.00000000000E+00  0.00000000000E+00  0.17999222742E+04  0.42920429290E+04  0.38963973502E+04 0.  0.
        1    1    3    3  502    0 -0.14674062052E+04 -0.56887571060E+03  0.21648537420E+04  0.26764701137E+04  0.50400001928E-02 0.  1.
       -1    1    3    3    0  502  0.14674062052E+04  0.56887571060E+03 -0.36493146780E+03  0.16155728153E+04  0.50400001928E-02 0. -1.
</event>
<event>
 5   0  0.1164500E-08  0.3906037E+04  0.7818609E-02  0.8023775E-01
       -1   -1    0    0    0  501  0.00000000000E+00  0.00000000000E+00  0.18849304977E+04  0.18849304977E+04  0.50400001928E-02 0. -1.
        1   -1    0    0  501    0  0.00000000000E+00  0.00000000000E+00 -0.20235657827E+04  0.20235657827E+04  0.50400001928E-02 0.  1.
    10030    2    1    2    0    0  0.00000000000E+00  0.00000000000E+00 -0.13863528500E+03  0.39084962804E+04  0.39060367934E+04 0.  0.
        3    1    3    3  502    0  0.10763163689E+03  0.41993930845E+03 -0.19748137582E+04  0.20218365369E+04  0.10100000352E+00 0.  1.
       -3    1    3    3    0  502 -0.10763163689E+03 -0.41993930845E+03  0.18361784732E+04  0.18866597435E+04  0.10100000352E+00 0. -1.
</event>
<event>
 5   0  0.1164500E-08  0.3914320E+04  0.7818609E-02  0.8022058E-01
       -1   -1    0    0    0  501  0.00000000000E+00  0.00000000000E+00  0.15899424352E+04  0.15899424352E+04  0.50400001928E-02 0.  1.
        1   -1    0    0  501    0  0.00000000000E+00  0.00000000000E+00 -0.24091910337E+04  0.24091910337E+04  0.50400001928E-02 0. -1.
    10030    2    1    2    0    0  0.00000000000E+00  0.00000000000E+00 -0.81924859855E+03  0.39991334689E+04  0.39143198944E+04 0.  0.
        3    1    3    3  502    0  0.87990529555E+03  0.15390560238E+04  0.43752739165E+03  0.18260221801E+04  0.10100000352E+00 0.  1.
       -3    1    3    3    0  502 -0.87990529555E+03 -0.15390560238E+04 -0.12567759902E+04  0.21731112888E+04  0.10100000352E+00 0. -1.
</event>
<event>
 5   0  0.3769985E-08  0.3902871E+04  0.7818609E-02  0.8024432E-01
        2   -1    0    0  501    0  0.00000000000E+00  0.00000000000E+00  0.18797314715E+04  0.18797314715E+04  0.25500000920E-02 0. -1.
       -2   -1    0    0    0  501  0.00000000000E+00  0.00000000000E+00 -0.20258743625E+04  0.20258743625E+04  0.25500000920E-02 0.  1.
    10030    2    1    2    0    0  0.00000000000E+00  0.00000000000E+00 -0.14614289096E+03  0.39056058340E+04  0.39028706340E+04 0.  0.
        1    1    3    3  502    0  0.16224159489E+03 -0.64934097565E+02  0.18718855312E+04  0.18800250568E+04  0.50400001928E-02 0. -1.
       -1    1    3    3    0  502 -0.16224159489E+03  0.64934097565E+02 -0.20180284222E+04  0.20255807772E+04  0.50400001928E-02 0.  1.
</event>
<event>
 5   0  0.1164500E-08  0.3887944E+04  0.7818609E-02  0.8027541E-01
       -1   -1    0    0    0  501  0.00000000000E+00  0.00000000000E+00  0.11551746251E+04  0.11551746251E+04  0.50400001928E-02 0. -1.
        1   -1    0    0  501    0  0.00000000000E+00  0.00000000000E+00 -0.32713906783E+04  0.32713906784E+04  0.50400001928E-02 0.  1.
    10030    2    1    2    0    0  0.00000000000E+00  0.00000000000E+00 -0.21162160533E+04  0.44265653034E+04  0.38879441870E+04 0.  0.
        4    1    3    3  502    0 -0.18087521979E+04  0.26017798651E+03 -0.18131119005E+04  0.25742287146E+04  0.12699999809E+01 0.  1.
       -4    1    3    3    0  502  0.18087521979E+04 -0.26017798651E+03 -0.30310415276E+03  0.18523365889E+04  0.12699999809E+01 0. -1.
</event>
<event>
 5   0  0.1164500E-08  0.3901517E+04  0.7818609E-02  0.8024714E-01
        1   -1    0    0  501    0  0.00000000000E+00  0.00000000000E+00  0.24497484680E+04  0.24497484680E+04  0.50400001928E-02 0. -1.
       -1   -1    0    0    0  501  0.00000000000E+00  0.00000000000E+00 -0.15534078220E+04  0.15534078220E+04  0.50400001928E-02 0.  1.
    10030    2    1    2    0    0  0.00000000000E+00  0.00000000000E+00  0.89634064605E+03  0.40031562900E+04  0.39015168497E+04 0.  0.
        1    1    3    3  502    0 -0.29054641670E+03  0.15411293894E+04  0.16385496185E+04  0.22681141654E+04  0.50400001928E-02 0. -1.
       -1    1    3    3    0  502  0.29054641670E+03 -0.15411293894E+04 -0.74220897244E+03  0.17350421245E+04  0.50400001928E-02 0.  1.
</event>
<event>
 5   0  0.3872969E-08  0.3896236E+04  0.7818609E-02  0.8025813E-01
        2   -1    0    0  501    0  0.00000000000E+00  0.00000000000E+00  0.14950420680E+04  0.14950420680E+04  0.25500000920E-02 0. -1.
       -2   -1    0    0    0  501  0.00000000000E+00  0.00000000000E+00 -0.25384991672E+04  0.25384991672E+04  0.25500000920E-02 0.  1.
    10030    2    1    2    0    0  0.00000000000E+00  0.00000000000E+00 -0.10434570991E+04  0.40335412352E+04  0.38962356421E+04 0.  0.
        2    1    3    3  502    0 -0.13164681917E+04  0.23105269997E+02 -0.20081338385E+04  0.24012962889E+04  0.25500000920E-02 0.  1.
       -2    1    3    3    0  502  0.13164681917E+04 -0.23105269997E+02  0.96467673942E+03  0.16322449464E+04  0.25500000920E-02 0. -1.
</event>
<event>
 5   0  0.1164500E-08  0.3901405E+04  0.7818609E-02  0.8024737E-01
        1   -1    0    0  501    0  0.00000000000E+00  0.00000000000E+00  0.15340717529E+04  0.15340717529E+04  0.50400001928E-02 0.  1.
       -1   -1    0    0    0  501  0.00000000000E+00  0.00000000000E+00 -0.24804842653E+04  0.24804842654E+04  0.50400001928E-02 0. -1.
    10030    2    1    2    0    0  0.00000000000E+00  0.00000000000E+00 -0.94641251243E+03  0.40145560183E+04  0.39014053084E+04 0.  0.
        3    1    3    3  502    0  0.15801886034E+03 -0.11390087971E+04 -0.20946380152E+04  0.23895228446E+04  0.10100000352E+00 0. -1.
       -3    1    3    3    0  502 -0.15801886034E+03  0.11390087971E+04  0.11482255028E+04  0.16250331737E+04  0.10100000352E+00 0.  1.
</event>
<event>
 5   0  0.3690572E-08  0.3913679E+04  0.7818609E-02  0.8022190E-01
        2   -1    0    0  501    0  0.00000000000E+00  0.00000000000E+00  0.25418051183E+04  0.25418051183E+04  0.25500000920E-02 0.  1.
       -2   -1    0    0    0  501  0.00000000000E+00  0.00000000000E+00 -0.15064964791E+04  0.15064964791E+04  0.25500000920E-02 0. -1.
    10030    2    1    2    0    0  0.00000000000E+00  0.00000000000E+00  0.10353086392E+04  0.40483015974E+04  0.39136788122E+04 0.  0.
        3    1    3    3  502    0  0.23861044969E+03  0.16489889303E+02 -0.14913196195E+04  0.15103777941E+04  0.10100000352E+00 0. -1.
       -3    1    3    3    0  502 -0.23861044969E+03 -0.16489889303E+02  0.25266282588E+04  0.25379238033E+04  0.10100000352E+00 0.  1.
</event>
<event>
 5   0  0.1164500E-08  0.3880682E+04  0.7818609E-02  0.8029059E-01
       -1   -1    0    0    0  501  0.00000000000E+00  0.00000000000E+00  0.33451517320E+04  0.33451517320E+04  0.50400001928E-02 0. -1.
        1   -1    0    0  501    0  0.00000000000E+00  0.00000000000E+00 -0.11254867898E+04  0.11254867898E+04  0.50400001928E-02 0.  1.
    10030    2    1    2    0    0  0.00000000000E+00  0.00000000000E+00  0.22196649423E+04  0.44706385218E+04  0.38806824577E+04 0.  0.
        1    1    3    3  502    0 -0.72671994794E+03 -0.74291616487E+03  0.29974921896E+04  0.31725393201E+04  0.50400001928E-02 0. -1.
       -1    1    3    3    0  502  0.72671994794E+03  0.74291616487E+03 -0.77782724738E+03  0.12980992017E+04  0.50400001928E-02 0.  1.
</event>
<event>
 5   0  0.3872969E-08  0.3895648E+04  0.7818609E-02  0.8025935E-01
       -2   -1    0    0    0  501  0.00000000000E+00  0.00000000000E+00  0.17762685867E+04  0.17762685867E+04  0.25500000920E-02 0. -1.
        2   -1    0    0  501    0  0.00000000000E+00  0.00000000000E+00 -0.21359487288E+04  0.21359487288E+04  0.25500000920E-02 0.  1.
    10030    2    1    2    0    0  0.00000000000E+00  0.00000000000E+00 -0.35968014204E+03  0.39122173155E+04  0.38956481514E+04 0.  0.
        2    1    3    3  502    0  0.87731373376E+03 -0.10142957321E+04  0.12388052682E+04  0.18256817116E+04  0.25500000920E-02 0. -1.
       -2    1    3    3    0  502 -0.87731373376E+03  0.10142957321E+04 -0.15984854102E+04  0.20865356039E+04  0.25500000920E-02 0.  1.
</event>
<event>
 5   0  0.1164500E-08  0.3878439E+04  0.7818609E-02  0.8029528E-01
        1   -1    0    0  501    0  0.00000000000E+00  0.00000000000E+00  0.26834341236E+04  0.26834341236E+04  0.50400001928E-02 0. -1.
       -1   -1    0    0    0  501  0.00000000000E+00  0.00000000000E+00 -0.14014030716E+04  0.14014030716E+04  0.50400001928E-02 0.  1.
    10030    2    1    2    0    0  0.00000000000E+00  0.00000000000E+00  0.12820310521E+04  0.40848371952E+04  0.38784392857E+04 0.  0.
        2    1    3    3  502    0 -0.12443023040E+03  0.19223558232E+04  0.40636311363E+03  0.19687726566E+04  0.25500000920E-02 0.  1.
       -2    1    3    3    0  502  0.12443023040E+03 -0.19223558232E+04  0.87566793843E+03  0.21160645386E+04  0.25500000920E-02 0. -1.
</event>
<event>
 5   0  0.3690572E-08  0.3894744E+04  0.7818609E-02  0.8026123E-01
       -2   -1    0    0    0  501  0.00000000000E+00  0.00000000000E+00  0.20654918919E+04  0.20654918919E+04  0.25500000920E-02 0.  1.
        2   -1    0    0  501    0  0.00000000000E+00  0.00000000000E+00 -0.18360068536E+04  0.18360068536E+04  0.25500000920E-02 0. -1.
    10030    2    1    2    0    0  0.00000000000E+00  0.00000000000E+00  0.22948503830E+03  0.39014987455E+04  0.38947437757E+04 0.  0.
        3    1    3    3  502    0  0.12540935976E+04 -0.19174333987E+03 -0.13652301071E+04  0.18636978069E+04  0.10100000352E+00 0. -1.
       -3    1    3    3    0  502 -0.12540935976E+04  0.19174333987E+03  0.15947151454E+04  0.20378009385E+04  0.10100000352E+00 0.  1.
</event>
<event>
 5   0  0.3669347E-08  0.3910910E+04  0.7818609E-02  0.8022764E-01
        2   -1    0    0  501    0  0.00000000000E+00  0.00000000000E+00  0.18933166989E+04  0.18933166989E+04  0.25500000920E-02 0.  1.
       -2   -1    0    0    0  501  0.00000000000E+00  0.00000000000E+00 -0.20196324245E+04  0.20196324245E+04  0.25500000920E-02 0. -1.
    10030    2    1    2    0    0  0.00000000000E+00  0.00000000000E+00 -0.12631572560E+03  0.39129491233E+04  0.39109097636E+04 0.  0.
        5    1    3    3  502    0 -0.15158382125E+04 -0.82715037206E+03 -0.98115387008E+03  0.19861088166E+04  0.46999998093E+01 0. -1.
       -5    1    3    3    0  502  0.15158382125E+04  0.82715037206E+03  0.85483814448E+03  0.19268403068E+04  0.46999998093E+01 0.  1.
</event>
<event>
 5   0  0.1164500E-08  0.3906303E+04  0.7818609E-02  0.8023720E-01
       -1   -1    0    0    0  501  0.00000000000E+00  0.00000000000E+00  0.28649130199E+04  0.28649130199E+04  0.50400001928E-02 0. -1.
        1   -1    0    0  501    0  0.00000000000E+00  0.00000000000E+00 -0.13315591858E+04  0.13315591858E+04  0.50400001928E-02 0.  1.
    10030    2    1    2    0    0  0.00000000000E+00  0.00000000000E+00  0.15333538341E+04  0.41964722057E+04  0.39063032387E+04 0.  0.
        2    1    3    3  502    0  0.12165107623E+04 -0.96155929459E+03  0.20424550580E+04  0.25643941537E+04  0.25500000920E-02 0. -1.
       -2    1    3    3    0  502 -0.12165107623E+04  0.96155929459E+03 -0.50910122383E+03  0.16320780520E+04  0.25500000920E-02 0.  1.
</event>
<event>
 5   0  0.3690572E-08  0.3900903E+04  0.7818609E-02  0.8024841E-01
        2   -1    0    0  501    0  0.00000000000E+00  0.00000000000E+00  0.24835067684E+04  0.24835067684E+04  0.25500000920E-02 0. -1.
       -2   -1    0    0    0  501  0.00000000000E+00  0.00000000000E+00 -0.15318104332E+04  0.15318104332E+04  0.25500000920E-02 0.  1.
    10030    2    1    2    0    0  0.00000000000E+00  0.00000000000E+00  0.95169633526E+03  0.40153172016E+04  0.39009032691E+04 0.  0.
        3    1    3    3  502    0 -0.47119285756E+03 -0.16214387671E+04 -0.52909393486E+03  0.17694707646E+04  0.10100000352E+00 0.  1.
       -3    1    3    3    0  502  0.47119285756E+03  0.16214387671E+04  0.14807902701E+04  0.22458464371E+04  0.10100000352E+00 0. -1.
</event>
<event>
 5   0  0.3769985E-08  0.3825348E+04  0.7818609E-02  0.8040737E-01
       -2   -1    0    0    0  501  0.00000000000E+00  0.00000000000E+00  0.15095034000E+04  0.15095034000E+04  0.25500000920E-02 0.  1.
        2   -1    0    0  501    0  0.00000000000E+00  0.00000000000E+00 -0.24235266289E+04  0.24235266289E+04  0.25500000920E-02 0. -1.
    10030    2    1    2    0    0  0.00000000000E+00  0.00000000000E+00 -0.91402322885E+03  0.39330300289E+04  0.38253479247E+04 0.  0.
        1    1    3    3  502    0 -0.98825367915E+03  0.48033145823E+03  0.11526117195E+04  0.15924438515E+04  0.50400001928E-02 0.  1.
       -1    1    3    3    0  502  0.98825367915E+03 -0.48033145823E+03 -0.20666349484E+04  0.23405861774E+04  0.50400001928E-02 0. -1.
</event>
<event>
 5   0  0.1164500E-08  0.3898560E+04  0.7818609E-02  0.8025329E-01
        1   -1    0    0  501    0  0.00000000000E+00  0.00000000000E+00  0.20790589707E+04  0.20790589707E+04  0.50400001928E-02 0. -1.
       -1   -1    0    0    0  501  0.00000000000E+00  0.00000000000E+00 -0.18276022386E+04  0.18276022386E+04  0.50400001928E-02 0.  1.
    10030    2    1    2    0    0  0.00000000000E+00  0.00000000000E+00  0.25145673210E+03  0.39066612092E+04  0.38985601593E+04 0.  0.
        5    1    3    3  502    0  0.19425463926E+04 -0.10439896227E+03  0.18385044946E+01  0.19453562915E+04  0.46999998093E+01 0.  1.
       -5    1    3    3    0  502 -0.19425463926E+04  0.10439896227E+03  0.24961822761E+03  0.19613049177E+04  0.46999998093E+01 0. -1.
</event>
<event>
 5   0  0.3690572E-08  0.3895690E+04  0.7818609E-02  0.8025926E-01
       -2   -1    0    0    0  501  0.00000000000E+00  0.00000000000E+00  0.27173142162E+04  0.27173142162E+04  0.25500000920E-02 0. -1.
        2   -1    0    0  501    0  0.00000000000E+00  0.00000000000E+00 -0.13962683109E+04  0.13962683109E+04  0.25500000920E-02 0.  1.
    10030    2    1    2    0    0  0.00000000000E+00  0.00000000000E+00  0.13210459054E+04  0.41135825271E+04  0.38956897878E+04 0.  0.
        3    1    3    3  502    0  0.58919515178E+03  0.13948364203E+03 -0.12943752294E+04  0.14289905031E+04  0.10100000352E+00 0.  1.
       -3    1    3    3    0  502 -0.58919515178E+03 -0.13948364203E+03  0.26154211347E+04  0.26845920240E+04  0.10100000352E+00 0. -1.
</event>
<event>
 5   0  0.1164500E-08  0.3902833E+04  0.7818609E-02  0.8024440E-01
        1   -1    0    0  501    0  0.00000000000E+00  0.00000000000E+00  0.12476971929E+04  0.12476971929E+04  0.50400001928E-02 0.  1.
       -1   -1    0    0    0  501  0.00000000000E+00  0.00000000000E+00 -0.30520438605E+04  0.30520438605E+04  0.50400001928E-02 0. -1.
    10030    2    1    2    0    0  0.00000000000E+00  0.00000000000E+00 -0.18043466676E+04  0.42997410534E+04  0.39028331030E+04 0.  0.
        4    1    3    3  502    0 -0.15244811323E+04 -0.92019470042E+03 -0.22728986629E+02  0.17808198194E+04  0.12699999809E+01 0.  1.
       -4    1    3    3    0  502  0.15244811323E+04  0.92019470042E+03 -0.17816176810E+04  0.25189212341E+04  0.12699999809E+01 0. -1.
</event>
<event>
 5   0  0.1164500E-08  0.3901187E+04  0.7818609E-02  0.8024782E-01
        1   -1    0    0  501    0  0.00000000000E+00  0.00000000000E+00  0.18159533115E+04  0.18159533115E+04  0.50400001928E-02 0.  1.
       -1   -1    0    0    0  501  0.00000000000E+00  0.00000000000E+00 -0.20952160075E+04  0.20952160075E+04  0.50400001928E-02 0. -1.
    10030    2    1    2    0    0  0.00000000000E+00  0.00000000000E+00 -0.27926269600E+03  0.39111693190E+04  0.39011867154E+04 0.  0.
        1    1    3    3  502    0  0.11644362453E+04  0.15199431397E+04  0.23371318609E+03  0.19289273627E+04  0.50400001928E-02 0. -1.
       -1    1    3    3    0  502 -0.11644362453E+04 -0.15199431397E+04 -0.51297588210E+03  0.19822419562E+04  0.50400001928E-02 0.  1.
</event>
<event>
 5   0  0.1164500E-08  0.3923090E+04  0.7818609E-02  0.8020244E-01
       -1   -1    0    0    0  501  0.00000000000E+00  0.00000000000E+00  0.17231355899E+04  0.17231355900E+04  0.50400001928E-02 0. -1.
        1   -1    0    0  501    0  0.00000000000E+00  0.00000000000E+00 -0.22329407675E+04  0.22329407675E+04  0.50400001928E-02 0.  1.
    10030    2    1    2    0    0  0.00000000000E+00  0.00000000000E+00 -0.50980517758E+03  0.39560763575E+04  0.39230904689E+04 0.  0.
        5    1    3    3  502    0 -0.11845483688E+04  0.15634833562E+04 -0.25328478402E+03  0.19778296981E+04  0.46999998093E+01 0. -1.
       -5    1    3    3    0  502  0.11845483688E+04 -0.15634833562E+04 -0.25652039356E+03  0.19782466594E+04  0.46999998093E+01 0.  1.
</event>
<event>
 5   0  0.3724293E-08  0.3897882E+04  0.7818609E-02  0.8025470E-01
       -2   -1    0    0    0  501  0.00000000000E+00  0.00000000000E+00  0.15792603094E+04  0.15792603094E+04  0.25500000920E-02 0.  1.
        2   -1    0    0  501    0  0.00000000000E+00  0.00000000000E+00 -0.24051586779E+04  0.24051586779E+04  0.25500000920E-02 0. -1.
    10030    2    1    2    0    0  0.00000000000E+00  0.00000000000E+00 -0.82589836844E+03  0.39844189873E+04  0.38978823163E+04 0.  0.
        4    1    3    3  502    0 -0.20193365439E+03 -0.11885638250E+04  0.11523568583E+04  0.16677497140E+04  0.12699999809E+01 0.  1.
       -4    1    3    3    0  502  0.20193365439E+03  0.11885638250E+04 -0.19782552267E+04  0.23166692733E+04  0.12699999809E+01 0. -1.
</event>
<event>
 5   0  0.3724293E-08  0.3944067E+04  0.7818609E-02  0.8015926E-01
        2   -1    0    0  501    0  0.00000000000E+00  0.00000000000E+00  0.12870794565E+04  0.12870794565E+04  0.25500000920E-02 0. -1.
       -2   -1    0    0    0  501  0.00000000000E+00  0.00000000000E+00 -0.30215035990E+04  0.30215035990E+04  0.25500000920E-02 0.  1.
    10030    2    1    2    0    0  0.00000000000E+00  0.00000000000E+00 -0.17344241425E+04  0.43085830554E+04  0.39440665359E+04 0.  0.
        4    1    3    3  502    0  0.58831699272E+03  0.10034424859E+04  0.87241552664E+03  0.14540028096E+04  0.12699999809E+01 0. -1.
       -4    1    3    3    0  502 -0.58831699272E+03 -0.10034424859E+04 -0.26068396691E+04  0.28545802458E+04  0.12699999809E+01 0.  1.
</event>
<event>
 5   0  0.1164500E-08  0.3918457E+04  0.7818609E-02  0.8021202E-01
       -1   -1    0    0    0  501  0.00000000000E+00  0.00000000000E+00  0.17816125074E+04  0.17816125074E+04  0.50400001928E-02 0. -1.
        1   -1    0    0  501    0  0.00000000000E+00  0.00000000000E+00 -0.21545512099E+04  0.21545512099E+04  0.50400001928E-02 0.  1.
    10030    2    1    2    0    0  0.00000000000E+00  0.00000000000E+00 -0.37293870244E+03  0.39361637173E+04  0.39184565244E+04 0.  0.
        2    1    3    3  502    0 -0.38135578884E+02  0.74217554729E+03  0.16345371426E+04  0.17955474196E+04  0.25500000920E-02 0. -1.
       -2    1    3    3    0  502  0.38135578884E+02 -0.74217554729E+03 -0.20074758451E+04  0.21406162977E+04  0.25500000920E-02 0.  1.
</event>
<event>
 5   0  0.1164500E-08  0.3892098E+04  0.7818609E-02  0.8026675E-01
       -1   -1    0    0    0  501  0.00000000000E+00  0.00000000000E+00  0.30234767421E+04  0.30234767421E+04  0.50400001928E-02 0. -1.
        1   -1    0    0  501    0  0.00000000000E+00  0.00000000000E+00 -0.12525669527E+04  0.12525669527E+04  0.50400001928E-02 0.  1.
    10030    2    1    2    0    0  0.00000000000E+00  0.00000000000E+00  0.17709097894E+04  0.42760436949E+04  0.38920981742E+04 0.  0.
        5    1    3    3  502    0  0.31055021071E+03  0.18348893985E+04  0.26026327614E+03  0.18791007426E+04  0.46999998093E+01 0.  1.
       -5    1    3    3    0  502 -0.31055021071E+03 -0.18348893985E+04  0.15106465133E+04  0.23969429522E+04  0.46999998093E+01 0. -1.
</event>
<event>
 5   0  0.1164500E-08  0.3897369E+04  0.7818609E-02  0.8025577E-01
       -1   -1    0    0    0  501  0.00000000000E+00  0.00000000000E+00  0.15212182261E+04  0.15212182261E+04  0.50400001928E-02 0.  1.
        1   -1    0    0  501    0  0.00000000000E+00  0.00000000000E+00 -0.24962695565E+04  0.24962695565E+04  0.50400001928E-02 0. -1.
    10030    2    1    2    0    0  0.00000000000E+00  0.00000000000E+00 -0.97505133037E+03  0.40174877826E+04  0.38973687261E+04 0.  0.
        5    1    3    3  502    0 -0.17449762215E+04 -0.56588968014E+03 -0.11651876866E+04  0.21732136523E+04  0.46999998093E+01 0. -1.
       -5    1    3    3    0  502  0.17449762215E+04  0.56588968014E+03  0.19013635622E+03  0.18442741303E+04  0.46999998093E+01 0.  1.
</event>
<event>
 5   0  0.3872969E-08  0.3897929E+04  0.7818609E-02  0.8025460E-01
        2   -1    0    0  501    0  0.00000000000E+00  0.00000000000E+00  0.17713135130E+04  0.17713135130E+04  0.25500000920E-02 0. -1.
       -2   -1    0    0    0  501  0.00000000000E+00  0.00000000000E+00 -0.21444330960E+04  0.21444330960E+04  0.25500000920E-02 0.  1.
    10030    2    1    2    0    0  0.00000000000E+00  0.00000000000E+00 -0.37311958299E+03  0.39157466090E+04  0.38979293583E+04 0.  0.
        2    1    3    3  502    0  0.54843376931E+03  0.18450107352E+04  0.12081119197E+03  0.19285848585E+04  0.25500000920E-02 0. -1.
       -2    1    3    3    0  502 -0.54843376931E+03 -0.18450107352E+04 -0.49393077497E+03  0.19871617505E+04  0.25500000920E-02 0.  1.
</event>
<event>
 5   0  0.3690572E-08  0.3901835E+04  0.7818609E-02  0.8024648E-01
        2   -1    0    0  501    0  0.00000000000E+00  0.00000000000E+00  0.27464162203E+04  0.27464162203E+04  0.25500000920E-02 0. -1.
       -2   -1    0    0    0  501  0.00000000000E+00  0.00000000000E+00 -0.13858349041E+04  0.13858349041E+04  0.25500000920E-02 0.  1.
    10030    2    1    2    0    0  0.00000000000E+00  0.00000000000E+00  0.13605813162E+04  0.41322511244E+04  0.39018351884E+04 0.  0.
        3    1    3    3  502    0 -0.16801884909E+04 -0.48549657127E+03  0.15958292516E+04  0.23675749822E+04  0.10100000352E+00 0. -1.
       -3    1    3    3    0  502  0.16801884909E+04  0.48549657127E+03 -0.23524793545E+03  0.17646761422E+04  0.10100000352E+00 0.  1.
</event>
<event>
 5   0  0.3769985E-08  0.3901542E+04  0.7818609E-02  0.8024708E-01
        2   -1    0    0  501    0  0.00000000000E+00  0.00000000000E+00  0.29500942861E+04  0.29500942861E+04  0.25500000920E-02 0. -1.
       -2   -1    0    0    0  501  0.00000000000E+00  0.00000000000E+00 -0.12899615755E+04  0.12899615755E+04  0.25500000920E-02 0.  1.
    10030    2    1    2    0    0  0.00000000000E+00  0.00000000000E+00  0.16601327106E+04  0.42400558616E+04  0.39015423992E+04 0.  0.
        1    1    3    3  502    0 -0.13481423936E+04  0.94079194011E+03  0.19713915296E+04  0.25668973394E+04  0.50400001928E-02 0. -1.
       -1    1    3    3    0  502  0.13481423936E+04 -0.94079194011E+03 -0.31125881904E+03  0.16731585222E+04  0.50400001928E-02 0.  1.
</event>
<event>
 5   0  0.3872969E-08  0.3897019E+04  0.7818609E-02  0.8025649E-01
       -2   -1    0    0    0  501  0.00000000000E+00  0.00000000000E+00  0.20793510458E+04  0.20793510458E+04  0.25500000920E-02 0.  1.
        2   -1    0    0  501    0  0.00000000000E+00  0.00000000000E+00 -0.18259012010E+04  0.18259012010E+04  0.25500000920E-02 0. -1.
    10030    2    1    2    0    0  0.00000000000E+00  0.00000000000E+00  0.25344984479E+03  0.39052522467E+04  0.38970191540E+04 0.  0.
        2    1    3    3  502    0  0.40439142345E+03 -0.11662229093E+04 -0.13841344140E+04  0.18545717494E+04  0.25500000920E-02 0. -1.
       -2    1    3    3    0  502 -0.40439142345E+03  0.11662229093E+04  0.16375842588E+04  0.20506804973E+04  0.25500000920E-02 0.  1.
</event>
<event>
 5   0  0.3690572E-08  0.3877098E+04  0.7818609E-02  0.8029809E-01
        2   -1    0    0  501    0  0.00000000000E+00  0.00000000000E+00  0.20736227232E+04  0.20736227232E+04  0.25500000920E-02 0.  1.
       -2   -1    0    0    0  501  0.00000000000E+00  0.00000000000E+00 -0.18122736533E+04  0.18122736533E+04  0.25500000920E-02 0. -1.
    10030    2    1    2    0    0  0.00000000000E+00  0.00000000000E+00  0.26134906994E+03  0.38858963765E+04  0.38770977951E+04 0.  0.
        3    1    3    3  502    0 -0.16039731851E+04  0.24607652774E+03 -0.93224533427E+03  0.18714606620E+04  0.10100000352E+00 0. -1.
       -3    1    3    3    0  502  0.16039731851E+04 -0.24607652774E+03  0.11935944042E+04  0.20144357145E+04  0.10100000352E+00 0.  1.
</event>
<event>
 5   0  0.1164500E-08  0.3898510E+04  0.7818609E-02  0.8025339E-01
        1   -1    0    0  501    0  0.00000000000E+00  0.00000000000E+00  0.29914718750E+04  0.29914718750E+04  0.50400001928E-02 0. -1.
       -1   -1    0    0    0  501  0.00000000000E+00  0.00000000000E+00 -0.12701422592E+04  0.12701422592E+04  0.50400001928E-02 0.  1.
    10030    2    1    2    0    0  0.00000000000E+00  0.00000000000E+00  0.17213296158E+04  0.42616141342E+04  0.38985098926E+04 0.  0.
        5    1    3    3  502    0  0.72080948541E+03 -0.75950482025E+03  0.26579262986E+04  0.28567478336E+04  0.46999998093E+01 0. -1.
       -5    1    3    3    0  502 -0.72080948541E+03  0.75950482025E+03 -0.93659668280E+03  0.14048663006E+04  0.46999998093E+01 0.  1.
</event>
<event>
 5   0  0.3669347E-08  0.3896211E+04  0.7818609E-02  0.8025818E-01
        2   -1    0    0  501    0  0.00000000000E+00  0.00000000000E+00  0.18610666762E+04  0.18610666762E+04  0.25500000920E-02 0. -1.
       -2   -1    0    0    0  501  0.00000000000E+00  0.00000000000E+00 -0.20392151884E+04  0.20392151884E+04  0.25500000920E-02 0.  1.
    10030    2    1    2    0    0  0.00000000000E+00  0.00000000000E+00 -0.17814851221E+03  0.39002818647E+04  0.38962112021E+04 0.  0.
        5    1    3    3  502    0  0.78010242073E+03 -0.13857202189E+04 -0.12155556970E+04  0.20015938785E+04  0.46999998093E+01 0.  1.
       -5    1    3    3    0  502 -0.78010242073E+03  0.13857202189E+04  0.10374071848E+04  0.18986879862E+04  0.46999998093E+01 0. -1.
</event>
<event>
 5   0  0.1164500E-08  0.3896598E+04  0.7818609E-02  0.8025737E-01
       -1   -1    0    0    0  501  0.00000000000E+00  0.00000000000E+00  0.20373134674E+04  0.20373134675E+04  0.50400001928E-02 0. -1.
        1   -1    0    0  501    0  0.00000000000E+00  0.00000000000E+00 -0.18631738439E+04  0.18631738439E+04  0.50400001928E-02 0.  1.
    10030    2    1    2    0    0  0.00000000000E+00  0.00000000000E+00  0.17413962359E+03  0.39004873113E+04  0.38965980877E+04 0.  0.
        5    1    3    3  502    0  0.15812701105E+04  0.61024081369E+03  0.10487774405E+04  0.19931796765E+04  0.46999998093E+01 0. -1.
       -5    1    3    3    0  502 -0.15812701105E+04 -0.61024081369E+03 -0.87463781686E+03  0.19073076348E+04  0.46999998093E+01 0.  1.
</event>
<event>
 5   0  0.1164500E-08  0.3896434E+04  0.7818609E-02  0.8025771E-01
       -1   -1    0    0    0  501  0.00000000000E+00  0.00000000000E+00  0.19305493211E+04  0.19305493211E+04  0.50400001928E-02 0.  1.
        1   -1    0    0  501    0  0.00000000000E+00  0.00000000000E+00 -0.19660465152E+04  0.19660465152E+04  0.50400001928E-02 0. -1.
    10030    2    1    2    0    0  0.00000000000E+00  0.00000000000E+00 -0.35497194122E+02  0.38965958363E+04  0.38964341468E+04 0.  0.
        3    1    3    3  502    0  0.14249281503E+04 -0.11611402958E+04 -0.66343995850E+03  0.19541800349E+04  0.10100000352E+00 0.  1.
       -3    1    3    3    0  502 -0.14249281503E+04  0.11611402958E+04  0.62794276438E+03  0.19424158014E+04  0.10100000352E+00 0. -1.
</event>
<event>
 5   0  0.3690572E-08  0.3910976E+04  0.7818609E-02  0.8022750E-01
        2   -1    0    0  501    0  0.00000000000E+00  0.00000000000E+00  0.21842621257E+04  0.21842621257E+04  0.25500000920E-02 0.  1.
       -2   -1    0    0    0  501  0.00000000000E+00  0.00000000000E+00 -0.17506753951E+04  0.17506753951E+04  0.25500000920E-02 0. -1.
    10030    2    1    2    0    0  0.00000000000E+00  0.00000000000E+00  0.43358673059E+03  0.39349375209E+04  0.39109763283E+04 0.  0.
        3    1    3    3  502    0 -0.41898722263E+03 -0.17969128623E+04  0.86844026384E+03  0.20392730640E+04  0.10100000352E+00 0.  1.
       -3    1    3    3    0  502  0.41898722263E+03  0.17969128623E+04 -0.43485353325E+03  0.18956644569E+04  0.10100000352E+00 0. -1.
</event>
<event>
 5   0  0.1164500E-08  0.3913492E+04  0.7818609E-02  0.8022229E-01
       -1   -1    0    0    0  501  0.00000000000E+00  0.00000000000E+00  0.26593707972E+04  0.26593707972E+04  0.50400001928E-02 0.  1.
        1   -1    0    0  501    0  0.00000000000E+00  0.00000000000E+00 -0.14397594077E+04  0.14397594077E+04  0.50400001928E-02 0. -1.
    10030    2    1    2    0    0  0.00000000000E+00  0.00000000000E+00  0.12196113895E+04  0.40991302050E+04  0.39134915991E+04 0.  0.
        1    1    3    3  502    0 -0.16921606500E+04  0.15386712395E+03  0.16262885285E+04  0.23519985406E+04  0.50400001928E-02 0.  1.
       -1    1    3    3    0  502  0.16921606500E+04 -0.15386712395E+03 -0.40667713900E+03  0.17471316643E+04  0.50400001928E-02 0. -1.
</event>
<event>
 5   0  0.1164500E-08  0.3895393E+04  0.7818609E-02  0.8025988E-01
        1   -1    0    0  501    0  0.00000000000E+00  0.00000000000E+00  0.10289289216E+04  0.10289289216E+04  0.50400001928E-02 0.  1.
       -1   -1    0    0    0  501  0.00000000000E+00  0.00000000000E+00 -0.36868642860E+04  0.36868642860E+04  0.50400001928E-02 0. -1.
    10030    2    1    2    0    0  0.00000000000E+00  0.00000000000E+00 -0.26579353644E+04  0.47157932076E+04  0.38953928140E+04 0.  0.
        5    1    3    3  502    0  0.39233912577E+03 -0.42634536999E+03  0.92217672896E+03  0.10890970451E+04  0.46999998093E+01 0.  1.
       -5    1    3    3    0  502 -0.39233912577E+03  0.42634536999E+03 -0.35801120934E+04  0.36266961625E+04  0.46999998093E+01 0. -1.
</event>
<event>
 5   0  0.1164500E-08  0.3905841E+04  0.7818609E-02  0.8023815E-01
        1   -1    0    0  501    0  0.00000000000E+00  0.00000000000E+00  0.29671181040E+04  0.29671181040E+04  0.50400001928E-02 0. -1.
       -1   -1    0    0    0  501  0.00000000000E+00  0.00000000000E+00 -0.12853883812E+04  0.12853883812E+04  0.50400001928E-02 0.  1.
    10030    2    1    2    0    0  0.00000000000E+00  0.00000000000E+00  0.16817297228E+04  0.42525064852E+04  0.39058413366E+04 0.  0.
        4    1    3    3  502    0 -0.12347353797E+04  0.82066536884E+03 -0.54311195317E+03  0.15789348663E+04  0.12699999809E+01 0.  1.
       -4    1    3    3    0  502  0.12347353797E+04 -0.82066536884E+03  0.22248416760E+04  0.26735716189E+04  0.12699999809E+01 0. -1.
</event>
<event>
 5   0  0.1164500E-08  0.3898798E+04  0.7818609E-02  0.8025279E-01
       -1   -1    0    0    0  501  0.00000000000E+00  0.00000000000E+00  0.26144115898E+04  0.26144115898E+04  0.50400001928E-02 0.  1.
        1   -1    0    0  501    0  0.00000000000E+00  0.00000000000E+00 -0.14535420228E+04  0.14535420228E+04  0.50400001928E-02 0. -1.
    10030    2    1    2    0    0  0.00000000000E+00  0.00000000000E+00  0.11608695671E+04  0.40679536126E+04  0.38987983332E+04 0.  0.
        5    1    3    3  502    0  0.16253600075E+04  0.70886521252E+03  0.14254168156E+04  0.22751088396E+04  0.46999998093E+01 0.  1.
       -5    1    3    3    0  502 -0.16253600075E+04 -0.70886521252E+03 -0.26454724855E+03  0.17928447731E+04  0.46999998093E+01 0. -1.
</event>
<event>
 5   0  0.3724293E-08  0.3898094E+04  0.7818609E-02  0.8025426E-01
       -2   -1    0    0    0  501  0.00000000000E+00  0.00000000000E+00  0.25588662083E+04  0.25588662083E+04  0.25500000920E-02 0.  1.
        2   -1    0    0  501    0  0.00000000000E+00  0.00000000000E+00 -0.14845573252E+04  0.14845573252E+04  0.25500000920E-02 0. -1.
    10030    2    1    2    0    0  0.00000000000E+00  0.00000000000E+00  0.10743088832E+04  0.40434235335E+04  0.38980936745E+04 0.  0.
        4    1    3    3  502    0 -0.15053905187E+04 -0.10002755485E+04 -0.21944339488E+03  0.18206891012E+04  0.12699999809E+01 0. -1.
       -4    1    3    3    0  502  0.15053905187E+04  0.10002755485E+04  0.12937522780E+04  0.22227344323E+04  0.12699999809E+01 0.  1.
</event>
<event>
 5   0  0.3769985E-08  0.3899260E+04  0.7818609E-02  0.8025183E-01
       -2   -1    0    0    0  501  0.00000000000E+00  0.00000000000E+00  0.17997998995E+04  0.17997998995E+04  0.25500000920E-02 0. -1.
        2   -1    0    0  501    0  0.00000000000E+00  0.00000000000E+00 -0.21119335681E+04  0.21119335681E+04  0.25500000920E-02 0.  1.
    10030    2    1    2    0    0  0.00000000000E+00  0.00000000000E+00 -0.31213366857E+03  0.39117334676E+04  0.38992603523E+04 0.  0.
        1    1    3    3  502    0  0.12912805911E+04  0.18876421609E+03  0.12970210041E+04  0.18399187426E+04  0.50400001928E-02 0. -1.
       -1    1    3    3    0  502 -0.12912805911E+04 -0.18876421609E+03 -0.16091546727E+04  0.20718147250E+04  0.50400001928E-02 0.  1.
</event>
<event>
 5   0  0.1164500E-08  0.3900082E+04  0.7818609E-02  0.8025012E-01
        1   -1    0    0  501    0  0.00000000000E+00  0.00000000000E+00  0.12479686589E+04  0.12479686589E+04  0.50400001928E-02 0.  1.
       -1   -1    0    0    0  501  0.00000000000E+00  0.00000000000E+00 -0.30470789992E+04  0.30470789992E+04  0.50400001928E-02 0. -1.
    10030    2    1    2    0    0  0.00000000000E+00  0.00000000000E+00 -0.17991103403E+04  0.42950476581E+04  0.39000815848E+04 0.  0.
        4    1    3    3  502    0  0.10838874296E+04 -0.16162899917E+04 -0.76265966158E+03  0.20901810136E+04  0.12699999809E+01 0.  1.
       -4    1    3    3    0  502 -0.10838874296E+04  0.16162899917E+04 -0.10364506788E+04  0.22048666444E+04  0.12699999809E+01 0. -1.
</event>
<event>
 5   0  0.3872969E-08  0.3907692E+04  0.7818609E-02  0.8023431E-01
        2   -1    0    0  501    0  0.00000000000E+00  0.00000000000E+00  0.18166018303E+04  0.18166018303E+04  0.25500000920E-02 0.  1.
       -2   -1    0    0    0  501  0.00000000000E+00  0.00000000000E+00 -0.21014584958E+04  0.21014584958E+04  0.25500000920E-02 0. -1.
    10030    2    1    2    0    0  0.00000000000E+00  0.00000000000E+00 -0.28485666552E+03  0.39180603261E+04  0.39076915691E+04 0.  0.
        2    1    3    3  502    0  0.16961613093E+04  0.91962610159E+03 -0.45120325730E+03  0.19814791781E+04  0.25500000920E-02 0. -1.
       -2    1    3    3    0  502 -0.16961613093E+04 -0.91962610159E+03  0.16634659178E+03  0.19365811479E+04  0.25500000920E-02 0.  1.
</event>
<event>
 5   0  0.1164500E-08  0.3908527E+04  0.7818609E-02  0.8023258E-01
        1   -1    0    0  501    0  0.00000000000E+00  0.00000000000E+00  0.20003101838E+04  0.20003101838E+04  0.50400001928E-02 0. -1.
       -1   -1    0    0    0  501  0.00000000000E+00  0.00000000000E+00 -0.19092763723E+04  0.19092763723E+04  0.50400001928E-02 0.  1.
    10030    2    1    2    0    0  0.00000000000E+00  0.00000000000E+00  0.91033811561E+02  0.39095865561E+04  0.39085265619E+04 0.  0.
        5    1    3    3  502    0  0.53822626516E+03  0.16086170676E+04  0.10162369445E+04  0.19773962679E+04  0.46999998093E+01 0. -1.
       -5    1    3    3    0  502 -0.53822626516E+03 -0.16086170676E+04 -0.92520313296E+03  0.19321902883E+04  0.46999998093E+01 0.  1.
</event>
<event>
 5   0  0.3872969E-08  0.3893519E+04  0.7818609E-02  0.8026379E-01
       -2   -1    0    0    0  501  0.00000000000E+00  0.00000000000E+00  0.27130959172E+04  0.27130959172E+04  0.25500000920E-02 0. -1.
        2   -1    0    0  501    0  0.00000000000E+00  0.00000000000E+00 -0.13968808948E+04  0.13968808948E+04  0.25500000920E-02 0.  1.
    10030    2    1    2    0    0  0.00000000000E+00  0.00000000000E+00  0.13162150224E+04  0.41099768119E+04  0.38935186412E+04 0.  0.
        2    1    3    3  502    0 -0.11986562990E+03  0.70229522167E+03 -0.12543213568E+04  0.14425354116E+04  0.25500000920E-02 0.  1.
       -2    1    3    3    0  502  0.11986562990E+03 -0.70229522167E+03  0.25705363792E+04  0.26674414004E+04  0.25500000920E-02 0. -1.
</event>
<event>
 5   0  0.1164500E-08  0.3889597E+04  0.7818609E-02  0.8027196E-01
       -1   -1    0    0    0  501  0.00000000000E+00  0.00000000000E+00  0.18267175796E+04  0.18267175796E+04  0.50400001928E-02 0.  1.
        1   -1    0    0  501    0  0.00000000000E+00  0.00000000000E+00 -0.20705127272E+04  0.20705127272E+04  0.50400001928E-02 0. -1.
    10030    2    1    2    0    0  0.00000000000E+00  0.00000000000E+00 -0.24379514756E+03  0.38972303068E+04  0.38895974073E+04 0.  0.
        4    1    3    3  502    0  0.34300478501E+03 -0.15606991544E+04 -0.12325882477E+04  0.20180955216E+04  0.12699999809E+01 0. -1.
       -4    1    3    3    0  502 -0.34300478501E+03  0.15606991544E+04  0.98879310018E+03  0.18791347852E+04  0.12699999809E+01 0.  1.
</event>
<event>
 5   0  0.1164500E-08  0.3903692E+04  0.7818609E-02  0.8024262E-01
       -1   -1    0    0    0  501  0.00000000000E+00  0.00000000000E+00  0.23239499288E+04  0.23239499288E+04  0.50400001928E-02 0.  1.
        1   -1    0    0  501    0  0.00000000000E+00  0.00000000000E+00 -0.16393224568E+04  0.16393224568E+04  0.50400001928E-02 0. -1.
    10030    2    1    2    0    0  0.00000000000E+00  0.00000000000E+00  0.68462747195E+03  0.39632723856E+04  0.39036922557E+04 0.  0.
        4    1    3    3  502    0  0.16555480941E+04 -0.48147979509E+03  0.12711759604E+04  0.21420906190E+04  0.12699999809E+01 0.  1.
       -4    1    3    3    0  502 -0.16555480941E+04  0.48147979509E+03 -0.58654848848E+03  0.18211817666E+04  0.12699999809E+01 0. -1.
</event>
<event>
 5   0  0.1164500E-08  0.3972539E+04  0.7818609E-02  0.8010109E-01
        1   -1    0    0  501    0  0.00000000000E+00  0.00000000000E+00  0.30064829484E+04  0.30064829484E+04  0.50400001928E-02 0. -1.
       -1   -1    0    0    0  501  0.00000000000E+00  0.00000000000E+00 -0.13122534153E+04  0.13122534153E+04  0.50400001928E-02 0.  1.
    10030    2    1    2    0    0  0.00000000000E+00  0.00000000000E+00  0.16942295331E+04  0.43187363638E+04  0.39725394987E+04 0.  0.
        4    1    3    3  502    0  0.12945948181E+04  0.11985734145E+04 -0.14494049100E+03  0.17701873720E+04  0.12699999809E+01 0.  1.
       -4    1    3    3    0  502 -0.12945948181E+04 -0.11985734145E+04  0.18391700241E+04  0.25485489918E+04  0.12699999809E+01 0. -1.
</event>
<event>
 5   0  0.3724293E-08  0.3895562E+04  0.7818609E-02  0.8025953E-01
        2   -1    0    0  501    0  0.00000000000E+00  0.00000000000E+00  0.22824709893E+04  0.22824709893E+04  0.25500000920E-02 0.  1.
       -2   -1    0    0    0  501  0.00000000000E+00  0.00000000000E+00 -0.16621679212E+04  0.16621679212E+04  0.25500000920E-02 0. -1.
    10030    2    1    2    0    0  0.00000000000E+00  0.00000000000E+00  0.62030306810E+03  0.39446389105E+04  0.38955616075E+04 0.  0.
        4    1    3    3  502    0  0.38446227013E+03  0.84122970918E+03  0.20459144364E+04  0.22452719556E+04  0.12699999809E+01 0.  1.
       -4    1    3    3    0  502 -0.38446227013E+03 -0.84122970918E+03 -0.14256113683E+04  0.16993669548E+04  0.12699999809E+01 0. -1.
</event>
<event>
 5   0  0.3669347E-08  0.3907215E+04  0.7818609E-02  0.8023530E-01
        2   -1    0    0  501    0  0.00000000000E+00  0.00000000000E+00  0.14047249900E+04  0.14047249900E+04  0.25500000920E-02 0.  1.
       -2   -1    0    0    0  501  0.00000000000E+00  0.00000000000E+00 -0.27169608667E+04  0.27169608667E+04  0.25500000920E-02 0. -1.
    10030    2    1    2    0    0  0.00000000000E+00  0.00000000000E+00 -0.13122358767E+04  0.41216858567E+04  0.39072152878E+04 0.  0.
        5    1    3    3  502    0  0.43511318586E+03  0.93167702319E+03 -0.24083851377E+04  0.26187185075E+04  0.46999998093E+01 0. -1.
       -5    1    3    3    0  502 -0.43511318586E+03 -0.93167702319E+03  0.10961492610E+04  0.15029673491E+04  0.46999998093E+01 0.  1.
</event>
<event>
 5   0  0.3669347E-08  0.3900666E+04  0.7818609E-02  0.8024891E-01
        2   -1    0    0  501    0  0.00000000000E+00  0.00000000000E+00  0.15928108569E+04  0.15928108569E+04  0.25500000920E-02 0. -1.
       -2   -1    0    0    0  501  0.00000000000E+00  0.00000000000E+00 -0.23881042166E+04  0.23881042166E+04  0.25500000920E-02 0.  1.
    10030    2    1    2    0    0  0.00000000000E+00  0.00000000000E+00 -0.79529335975E+03  0.39809150735E+04  0.39006657501E+04 0.  0.
        5    1    3    3  502    0  0.15111866560E+04  0.65189498123E+03 -0.14656579498E+04  0.22038211116E+04  0.46999998093E+01 0.  1.
       -5    1    3    3    0  502 -0.15111866560E+04 -0.65189498123E+03  0.67036459005E+03  0.17770939619E+04  0.46999998093E+01 0. -1.
</event>
<event>
 5   0  0.3724293E-08  0.3902753E+04  0.7818609E-02  0.8024457E-01
       -2   -1    0    0    0  501  0.00000000000E+00  0.00000000000E+00  0.18021675502E+04  0.18021675502E+04  0.25500000920E-02 0.  1.
        2   -1    0    0  501    0  0.00000000000E+00  0.00000000000E+00 -0.21129392479E+04  0.21129392479E+04  0.25500000920E-02 0. -1.
    10030    2    1    2    0    0  0.00000000000E+00  0.00000000000E+00 -0.31077169772E+03  0.39151067982E+04  0.39027531555E+04 0.  0.
        4    1    3    3  502    0 -0.68755239315E+03  0.36622278887E+02 -0.19870348997E+04  0.21029452656E+04  0.12699999809E+01 0. -1.
       -4    1    3    3    0  502  0.68755239315E+03 -0.36622278887E+02  0.16762632020E+04  0.18121615325E+04  0.12699999809E+01 0.  1.
</event>
<event>
 5   0  0.1164500E-08  0.3871357E+04  0.7818609E-02  0.8031013E-01
       -1   -1    0    0    0  501  0.00000000000E+00  0.00000000000E+00  0.15204936924E+04  0.15204936924E+04  0.50400001928E-02 0.  1.
        1   -1    0    0  501    0  0.00000000000E+00  0.00000000000E+00 -0.24642330253E+04  0.24642330253E+04  0.50400001928E-02 0. -1.
    10030    2    1    2    0    0  0.00000000000E+00  0.00000000000E+00 -0.94373933291E+03  0.39847267178E+04  0.38713567502E+04 0.  0.
        1    1    3    3  502    0  0.38447191673E+03 -0.94147718282E+03  0.12233752696E+04  0.15908629705E+04  0.50400001928E-02 0.  1.
       -1    1    3    3    0  502 -0.38447191673E+03  0.94147718282E+03 -0.21671146025E+04  0.23938637473E+04  0.50400001928E-02 0. -1.
</event>
<event>
 5   0  0.1164500E-08  0.3905411E+04  0.7818609E-02  0.8023905E-01
        1   -1    0    0  501    0  0.00000000000E+00  0.00000000000E+00  0.23250582736E+04  0.23250582736E+04  0.50400001928E-02 0.  1.
       -1   -1    0    0    0  501  0.00000000000E+00  0.00000000000E+00 -0.16399838012E+04  0.16399838012E+04  0.50400001928E-02 0. -1.
    10030    2    1    2    0    0  0.00000000000E+00  0.00000000000E+00  0.68507447242E+03  0.39650420748E+04  0.39054105574E+04 0.  0.
        2    1    3    3  502    0  0.80210455047E+03 -0.67090794843E+03 -0.13317544585E+04  0.16932392397E+04  0.25500000920E-02 0. -1.
       -2    1    3    3    0  502 -0.80210455047E+03  0.67090794843E+03  0.20168289309E+04  0.22718028351E+04  0.25500000920E-02 0.  1.
</event>
<event>
 5   0  0.3872969E-08  0.3892582E+04  0.7818609E-02  0.8026574E-01
       -2   -1    0    0    0  501  0.00000000000E+00  0.00000000000E+00  0.20841467159E+04  0.20841467159E+04  0.25500000920E-02 0.  1.
        2   -1    0    0  501    0  0.00000000000E+00  0.00000000000E+00 -0.18175535179E+04  0.18175535179E+04  0.25500000920E-02 0. -1.
    10030    2    1    2    0    0  0.00000000000E+00  0.00000000000E+00  0.26659319800E+03  0.39017002338E+04  0.38925817629E+04 0.  0.
        2    1    3    3  502    0 -0.13164253511E+04  0.12775964800E+04 -0.51847251369E+03  0.19063164004E+04  0.25500000920E-02 0. -1.
       -2    1    3    3    0  502  0.13164253511E+04 -0.12775964800E+04  0.78506571169E+03  0.19953838334E+04  0.25500000920E-02 0.  1.
</event>
<event>
 5   0  0.1164500E-08  0.3868651E+04  0.7818609E-02  0.8031581E-01
        1   -1    0    0  501    0  0.00000000000E+00  0.00000000000E+00  0.33630641473E+04  0.33630641473E+04  0.50400001928E-02 0.  1.
       -1   -1    0    0    0  501  0.00000000000E+00  0.00000000000E+00 -0.11125614877E+04  0.11125614877E+04  0.50400001928E-02 0. -1.
    10030    2    1    2    0    0  0.00000000000E+00  0.00000000000E+00  0.22505026596E+04  0.44756256350E+04  0.38686512641E+04 0.  0.
        2    1    3    3  502    0  0.16169045021E+03 -0.31749382706E+03 -0.10742714728E+04  0.11318150596E+04  0.25500000920E-02 0. -1.
       -2    1    3    3    0  502 -0.16169045021E+03  0.31749382706E+03  0.33247741324E+04  0.33438105753E+04  0.25500000920E-02 0.  1.
</event>
<event>
 5   0  0.3690572E-08  0.3902335E+04  0.7818609E-02  0.8024544E-01
       -2   -1    0    0    0  501  0.00000000000E+00  0.00000000000E+00  0.26323397707E+04  0.26323397707E+04  0.25500000920E-02 0. -1.
        2   -1    0    0  501    0  0.00000000000E+00  0.00000000000E+00 -0.14462623578E+04  0.14462623578E+04  0.25500000920E-02 0.  1.
    10030    2    1    2    0    0  0.00000000000E+00  0.00000000000E+00  0.11860774129E+04  0.40786021285E+04  0.39023346465E+04 0.  0.
        3    1    3    3  502    0 -0.13577594170E+04  0.35078916767E+03  0.20109647877E+04  0.24516408917E+04  0.10100000352E+00 0. -1.
       -3    1    3    3    0  502  0.13577594170E+04 -0.35078916767E+03 -0.82488737478E+03  0.16269612367E+04  0.10100000352E+00 0.  1.
</event>
<event>
 5   0  0.3669347E-08  0.3900323E+04  0.7818609E-02  0.8024962E-01
        2   -1    0    0  501    0  0.00000000000E+00  0.00000000000E+00  0.22260482552E+04  0.22260482553E+04  0.25500000920E-02 0.  1.
       -2   -1    0    0    0  501  0.00000000000E+00  0.00000000000E+00 -0.17084665160E+04  0.17084665160E+04  0.25500000920E-02 0. -1.
    10030    2    1    2    0    0  0.00000000000E+00  0.00000000000E+00  0.51758173923E+03  0.39345147713E+04  0.39003225031E+04 0.  0.
        5    1    3    3  502    0  0.17610293484E+04 -0.77316727910E+03 -0.66674810314E+02  0.19244426798E+04  0.46999998093E+01 0. -1.
       -5    1    3    3    0  502 -0.17610293484E+04  0.77316727910E+03  0.58425654954E+03  0.20100720915E+04  0.46999998093E+01 0.  1.
</event>
<event>
 5   0  0.1164500E-08  0.3925786E+04  0.7818609E-02  0.8019687E-01
       -1   -1    0    0    0  501  0.00000000000E+00  0.00000000000E+00  0.30631285849E+04  0.30631285850E+04  0.50400001928E-02 0. -1.
        1   -1    0    0  501    0  0.00000000000E+00  0.00000000000E+00 -0.12578475762E+04  0.12578475762E+04  0.50400001928E-02 0.  1.
    10030    2    1    2    0    0  0.00000000000E+00  0.00000000000E+00  0.18052810087E+04  0.43209761612E+04  0.39257859678E+04 0.  0.
        5    1    3    3  502    0 -0.14583489247E+04  0.88242557018E+03 -0.16872597770E+03  0.17128768253E+04  0.46999998093E+01 0.  1.
       -5    1    3    3    0  502  0.14583489247E+04 -0.88242557018E+03  0.19740069864E+04  0.26080993359E+04  0.46999998093E+01 0. -1.
</event>
<event>
 5   0  0.1164500E-08  0.3934341E+04  0.7818609E-02  0.8017925E-01
       -1   -1    0    0    0  501  0.00000000000E+00  0.00000000000E+00  0.23523976216E+04  0.23523976216E+04  0.50400001928E-02 0.  1.
        1   -1    0    0  501    0  0.00000000000E+00  0.00000000000E+00 -0.16450277929E+04  0.16450277929E+04  0.50400001928E-02 0. -1.
    10030    2    1    2    0    0  0.00000000000E+00  0.00000000000E+00  0.70736982869E+03  0.39974254145E+04  0.39343408432E+04 0.  0.
        3    1    3    3  502    0  0.16409102779E+04 -0.39436050744E+03  0.13806602961E+04  0.21804425270E+04  0.10100000352E+00 0. -1.
       -3    1    3    3    0  502 -0.16409102779E+04  0.39436050744E+03 -0.67329046739E+03  0.18169828876E+04  0.10100000352E+00 0.  1.
</event>
<event>
 5   0  0.3690572E-08  0.3942948E+04  0.7818609E-02  0.8016156E-01
        2   -1    0    0  501    0  0.00000000000E+00  0.00000000000E+00  0.26675224340E+04  0.26675224340E+04  0.25500000920E-02 0. -1.
       -2   -1    0    0    0  501  0.00000000000E+00  0.00000000000E+00 -0.14570485331E+04  0.14570485331E+04  0.25500000920E-02 0.  1.
    10030    2    1    2    0    0  0.00000000000E+00  0.00000000000E+00  0.12104739008E+04  0.41245709671E+04  0.39429479578E+04 0.  0.
        3    1    3    3  502    0 -0.92090607183E+03 -0.27136731723E+03 -0.11959972679E+04  0.15336615302E+04  0.10100000352E+00 0.  1.
       -3    1    3    3    0  502  0.92090607183E+03  0.27136731723E+03  0.24064711688E+04  0.25909094369E+04  0.10100000352E+00 0. -1.
</event>
<event>
 5   0  0.3769985E-08  0.3892003E+04  0.7818609E-02  0.8026694E-01
       -2   -1    0    0    0  501  0.00000000000E+00  0.00000000000E+00  0.24343456390E+04  0.24343456391E+04  0.25500000920E-02 0. -1.
        2   -1    0    0  501    0  0.00000000000E+00  0.00000000000E+00 -0.15556222244E+04  0.15556222244E+04  0.25500000920E-02 0.  1.
    10030    2    1    2    0    0  0.00000000000E+00  0.00000000000E+00  0.87872341467E+03  0.39899678634E+04  0.38920031747E+04 0.  0.
        1    1    3    3  502    0  0.68355076170E+03  0.16179299257E+04  0.12982953211E+04  0.21841496353E+04  0.50400001928E-02 0. -1.
       -1    1    3    3    0  502 -0.68355076170E+03 -0.16179299257E+04 -0.41957190643E+03  0.18058182282E+04  0.50400001928E-02 0.  1.
</event>
<event>
 5   0  0.3769985E-08  0.3892809E+04  0.7818609E-02  0.8026526E-01
        2   -1    0    0  501    0  0.00000000000E+00  0.00000000000E+00  0.13443059437E+04  0.13443059437E+04  0.25500000920E-02 0. -1.
       -2   -1    0    0    0  501  0.00000000000E+00  0.00000000000E+00 -0.28181757010E+04  0.28181757010E+04  0.25500000920E-02 0.  1.
    10030    2    1    2    0    0  0.00000000000E+00  0.00000000000E+00 -0.14738697573E+04  0.41624816447E+04  0.38928089320E+04 0.  0.
        1    1    3    3  502    0  0.79692631111E+02  0.14003913862E+03  0.13371624909E+04  0.13468353288E+04  0.50400001928E-02 0. -1.
       -1    1    3    3    0  502 -0.79692631111E+02 -0.14003913862E+03 -0.28110322482E+04  0.28156463159E+04  0.50400001928E-02 0.  1.
</event>
<event>
 5   0  0.3872969E-08  0.3900401E+04  0.7818609E-02  0.8024946E-01
       -2   -1    0    0    0  501  0.00000000000E+00  0.00000000000E+00  0.17295196322E+04  0.17295196322E+04  0.25500000920E-02 0.  1.
        2   -1    0    0  501    0  0.00000000000E+00  0.00000000000E+00 -0.21990399692E+04  0.21990399692E+04  0.25500000920E-02 0. -1.
    10030    2    1    2    0    0  0.00000000000E+00  0.00000000000E+00 -0.46952033699E+03  0.39285596014E+04  0.39004014146E+04 0.  0.
        2    1    3    3  502    0 -0.18213906208E+02 -0.38321793644E+03 -0.21606559457E+04  0.21944525169E+04  0.25500000920E-02 0. -1.
       -2    1    3    3    0  502  0.18213906208E+02  0.38321793644E+03  0.16911356087E+04  0.17341070845E+04  0.25500000920E-02 0.  1.
</event>
<event>
 5   0  0.1164500E-08  0.3901840E+04  0.7818609E-02  0.8024647E-01
       -1   -1    0    0    0  501  0.00000000000E+00  0.00000000000E+00  0.32395670508E+04  0.32395670508E+04  0.50400001928E-02 0.  1.
        1   -1    0    0  501    0  0.00000000000E+00  0.00000000000E+00 -0.11748759803E+04  0.11748759803E+04  0.50400001928E-02 0. -1.
    10030    2    1    2    0    0  0.00000000000E+00  0.00000000000E+00  0.20646910705E+04  0.44144430311E+04  0.39018403424E+04 0.  0.
        1    1    3    3  502    0 -0.17789524406E+03  0.13062678130E+04  0.26593657352E+04  0.29681995267E+04  0.50400001928E-02 0.  1.
       -1    1    3    3    0  502  0.17789524406E+03 -0.13062678130E+04 -0.59467466464E+03  0.14462435043E+04  0.50400001928E-02 0. -1.
</event>
<event>
 5   0  0.3769985E-08  0.3894395E+04  0.7818609E-02  0.8026196E-01
        2   -1    0    0  501    0  0.00000000000E+00  0.00000000000E+00  0.19204486897E+04  0.19204486897E+04  0.25500000920E-02 0. -1.
       -2   -1    0    0    0  501  0.00000000000E+00  0.00000000000E+00 -0.19743191375E+04  0.19743191375E+04  0.25500000920E-02 0.  1.
    10030    2    1    2    0    0  0.00000000000E+00  0.00000000000E+00 -0.53870447777E+02  0.38947678273E+04  0.38943952551E+04 0.  0.
        1    1    3    3  502    0  0.55260805728E+03  0.13896143079E+04  0.12202506439E+04  0.19301334730E+04  0.50400001928E-02 0.  1.
       -1    1    3    3    0  502 -0.55260805728E+03 -0.13896143079E+04 -0.12741210917E+04  0.19646343543E+04  0.50400001928E-02 0. -1.
</event>
<event>
 5   0  0.3724293E-08  0.3897026E+04  0.7818609E-02  0.8025648E-01
        2   -1    0    0  501    0  0.00000000000E+00  0.00000000000E+00  0.21112041656E+04  0.21112041656E+04  0.25500000920E-02 0.  1.
       -2   -1    0    0    0  501  0.00000000000E+00  0.00000000000E+00 -0.17983587597E+04  0.17983587597E+04  0.25500000920E-02 0. -1.
    10030    2    1    2    0    0  0.00000000000E+00  0.00000000000E+00  0.31284540598E+03  0.39095629253E+04  0.38970257914E+04 0.  0.
        4    1    3    3  502    0  0.72278471688E+03  0.54787388361E+03  0.18865337452E+04  0.20932259133E+04  0.12699999809E+01 0.  1.
       -4    1    3    3    0  502 -0.72278471688E+03 -0.54787388361E+03 -0.15736883392E+04  0.18163370120E+04  0.12699999809E+01 0. -1.
</event>
<event>
 5   0  0.3690572E-08  0.3891624E+04  0.7818609E-02  0.8026773E-01
        2   -1    0    0  501    0  0.00000000000E+00  0.00000000000E+00  0.29480314462E+04  0.29480314462E+04  0.25500000920E-02 0.  1.
       -2   -1    0    0    0  501  0.00000000000E+00  0.00000000000E+00 -0.12843094949E+04  0.12843094949E+04  0.25500000920E-02 0. -1.
    10030    2    1    2    0    0  0.00000000000E+00  0.00000000000E+00  0.16637219513E+04  0.42323409411E+04  0.38916242252E+04 0.  0.
        3    1    3    3  502    0 -0.16084179562E+04 -0.58605782427E+03 -0.17417550441E+03  0.17207002097E+04  0.10100000352E+00 0.  1.
       -3    1    3    3    0  502  0.16084179562E+04  0.58605782427E+03  0.18378974558E+04  0.25116407313E+04  0.10100000352E+00 0. -1.
</event>
<event>
 5   0  0.1164500E-08  0.3899764E+04  0.7818609E-02  0.8025078E-01
        1   -1    0    0  501    0  0.00000000000E+00  0.00000000000E+00  0.18909134389E+04  0.18909134389E+04  0.50400001928E-02 0. -1.
       -1   -1    0    0    0  501  0.00000000000E+00  0.00000000000E+00 -0.20106891340E+04  0.20106891340E+04  0.50400001928E-02 0.  1.
    10030    2    1    2    0    0  0.00000000000E+00  0.00000000000E+00 -0.11977569504E+03  0.39016025729E+04  0.38997636364E+04 0.  0.
        5    1    3    3  502    0 -0.14672943765E+04  0.41099590365E+03 -0.12770742969E+04  0.19881678173E+04  0.46999998093E+01 0.  1.
       -5    1    3    3    0  502  0.14672943765E+04 -0.41099590365E+03  0.11572986018E+04  0.19134347556E+04  0.46999998093E+01 0. -1.
</event>
<event>
 5   0  0.1164500E-08  0.3903988E+04  0.7818609E-02  0.8024200E-01
       -1   -1    0    0    0  501  0.00000000000E+00  0.00000000000E+00  0.15970840928E+04  0.15970840928E+04  0.50400001928E-02 0. -1.
        1   -1    0    0  501    0  0.00000000000E+00  0.00000000000E+00 -0.23857732551E+04  0.23857732551E+04  0.50400001928E-02 0.  1.
    10030    2    1    2    0    0  0.00000000000E+00  0.00000000000E+00 -0.78868916231E+03  0.39828573479E+04  0.39039879686E+04 0.  0.
        2    1    3    3  502    0 -0.39897001292E+03  0.59028996063E+03  0.14596919786E+04  0.16242906086E+04  0.25500000920E-02 0. -1.
       -2    1    3    3    0  502  0.39897001292E+03 -0.59028996063E+03 -0.22483811409E+04  0.23585667393E+04  0.25500000920E-02 0.  1.
</event>
<event>
 5   0  0.3769985E-08  0.3809763E+04  0.7818609E-02  0.8044063E-01
       -2   -1    0    0    0  501  0.00000000000E+00  0.00000000000E+00  0.12936465930E+04  0.12936465930E+04  0.25500000920E-02 0. -1.
        2   -1    0    0  501    0  0.00000000000E+00  0.00000000000E+00 -0.28049191575E+04  0.28049191575E+04  0.25500000920E-02 0.  1.
    10030    2    1    2    0    0  0.00000000000E+00  0.00000000000E+00 -0.15112725645E+04  0.40985657505E+04  0.38097633059E+04 0.  0.
        1    1    3    3  502    0  0.18206053311E+03 -0.15887778615E+04  0.35781655287E+03  0.16387171252E+04  0.50400001928E-02 0. -1.
       -1    1    3    3    0  502 -0.18206053311E+03  0.15887778615E+04 -0.18690891174E+04  0.24598486253E+04  0.50400001928E-02 0.  1.
</event>
<event>
 5   0  0.3724293E-08  0.3894779E+04  0.7818609E-02  0.8026116E-01
        2   -1    0    0  501    0  0.00000000000E+00  0.00000000000E+00  0.10670280739E+04  0.10670280739E+04  0.25500000920E-02 0. -1.
       -2   -1    0    0    0  501  0.00000000000E+00  0.00000000000E+00 -0.35541010257E+04  0.35541010257E+04  0.25500000920E-02 0.  1.
    10030    2    1    2    0    0  0.00000000000E+00  0.00000000000E+00 -0.24870729519E+04  0.46211290996E+04  0.38947788496E+04 0.  0.
        4    1    3    3  502    0  0.17974728276E+04 -0.29985349895E+03 -0.42881783323E+03  0.18720862784E+04  0.12699999809E+01 0. -1.
       -4    1    3    3    0  502 -0.17974728276E+04  0.29985349895E+03 -0.20582551187E+04  0.27490428212E+04  0.12699999809E+01 0.  1.
</event>
<event>
 5   0  0.3690572E-08  0.3930203E+04  0.7818609E-02  0.8018777E-01
        2   -1    0    0  501    0  0.00000000000E+00  0.00000000000E+00  0.22526197725E+04  0.22526197725E+04  0.25500000920E-02 0. -1.
       -2   -1    0    0    0  501  0.00000000000E+00  0.00000000000E+00 -0.17142816087E+04  0.17142816087E+04  0.25500000920E-02 0.  1.
    10030    2    1    2    0    0  0.00000000000E+00  0.00000000000E+00  0.53833816384E+03  0.39669013812E+04  0.39302033776E+04 0.  0.
        3    1    3    3  502    0 -0.85224903956E+03  0.14224160602E+04  0.13335434064E+04  0.21278942410E+04  0.10100000352E+00 0. -1.
       -3    1    3    3    0  502  0.85224903956E+03 -0.14224160602E+04 -0.79520524257E+03  0.18390071402E+04  0.10100000352E+00 0.  1.
</event>
<event>
 5   0  0.1164500E-08  0.3898228E+04  0.7818609E-02  0.8025398E-01
       -1   -1    0    0    0  501  0.00000000000E+00  0.00000000000E+00  0.18755596602E+04  0.18755596602E+04  0.50400001928E-02 0.  1.
        1   -1    0    0  501    0  0.00000000000E+00  0.00000000000E+00 -0.20255525961E+04  0.20255525961E+04  0.50400001928E-02 0. -1.
    10030    2    1    2    0    0  0.00000000000E+00  0.00000000000E+00 -0.14999293583E+03  0.39011122563E+04  0.38982276685E+04 0.  0.
        3    1    3    3  502    0  0.94833951556E+03 -0.12775163771E+04 -0.12017287107E+04  0.19938775878E+04  0.10100000352E+00 0. -1.
       -3    1    3    3    0  502 -0.94833951556E+03  0.12775163771E+04  0.10517357749E+04  0.19072346686E+04  0.10100000352E+00 0.  1.
</event>
<event>
 5   0  0.3872969E-08  0.3899493E+04  0.7818609E-02  0.8025135E-01
        2   -1    0    0  501    0  0.00000000000E+00  0.00000000000E+00  0.16222554242E+04  0.16222554242E+04  0.25500000920E-02 0. -1.
       -2   -1    0    0    0  501  0.00000000000E+00  0.00000000000E+00 -0.23433489739E+04  0.23433489739E+04  0.25500000920E-02 0.  1.
    10030    2    1    2    0    0  0.00000000000E+00  0.00000000000E+00 -0.72109354969E+03  0.39656043982E+04  0.38994925741E+04 0.  0.
        2    1    3    3  502    0  0.24114171146E+03 -0.13904885169E+04 -0.17286817112E+04  0.22315797317E+04  0.25500000920E-02 0.  1.
       -2    1    3    3    0  502 -0.24114171146E+03  0.13904885169E+04  0.10075881615E+04  0.17340246664E+04  0.25500000920E-02 0. -1.
</event>
<event>
 5   0  0.1164500E-08  0.3894674E+04  0.7818609E-02  0.8026138E-01
        1   -1    0    0  501    0  0.00000000000E+00  0.00000000000E+00  0.12474514580E+04  0.12474514580E+04  0.50400001928E-02 0. -1.
       -1   -1    0    0    0  501  0.00000000000E+00  0.00000000000E+00 -0.30398953817E+04  0.30398953817E+04  0.50400001928E-02 0.  1.
    10030    2    1    2    0    0  0.00000000000E+00  0.00000000000E+00 -0.17924439237E+04  0.42873468397E+04  0.38946742744E+04 0.  0.
        1    1    3    3  502    0 -0.65128006800E+03 -0.16163390387E+04  0.60547282262E+02  0.17436695755E+04  0.50400001928E-02 0. -1.
       -1    1    3    3    0  502  0.65128006800E+03  0.16163390387E+04 -0.18529912059E+04  0.25436772642E+04  0.50400001928E-02 0.  1.
</event>
<event>
 5   0  0.1164500E-08  0.3899299E+04  0.7818609E-02  0.8025175E-01
       -1   -1    0    0    0  501  0.00000000000E+00  0.00000000000E+00  0.20161456116E+04  0.20161456116E+04  0.50400001928E-02 0.  1.
        1   -1    0    0  501    0  0.00000000000E+00  0.00000000000E+00 -0.18853464685E+04  0.18853464685E+04  0.50400001928E-02 0. -1.
    10030    2    1    2    0    0  0.00000000000E+00  0.00000000000E+00  0.13079914311E+03  0.39014920801E+04  0.38992989158E+04 0.  0.
        2    1    3    3  502    0 -0.15861066109E+04  0.32278876534E+03 -0.10220448433E+04  0.19142890142E+04  0.25500000920E-02 0. -1.
       -2    1    3    3    0  502  0.15861066109E+04 -0.32278876534E+03  0.11528439864E+04  0.19872030659E+04  0.25500000920E-02 0.  1.
</event>
<event>
 5   0  0.3669347E-08  0.3902135E+04  0.7818609E-02  0.8024585E-01
       -2   -1    0    0    0  501  0.00000000000E+00  0.00000000000E+00  0.11978916563E+04  0.11978916563E+04  0.25500000920E-02 0. -1.
        2   -1    0    0  501    0  0.00000000000E+00  0.00000000000E+00 -0.31778037265E+04  0.31778037265E+04  0.25500000920E-02 0.  1.
    10030    2    1    2    0    0  0.00000000000E+00  0.00000000000E+00 -0.19799120702E+04  0.43756953828E+04  0.39021350922E+04 0.  0.
        5    1    3    3  502    0 -0.14760680064E+04 -0.11619055094E+04 -0.39888022429E+03  0.19203980566E+04  0.46999998093E+01 0. -1.
       -5    1    3    3    0  502  0.14760680064E+04  0.11619055094E+04 -0.15810318459E+04  0.24552973262E+04  0.46999998093E+01 0.  1.
</event>
<event>
 5   0  0.1164500E-08  0.3899060E+04  0.7818609E-02  0.8025225E-01
       -1   -1    0    0    0  501  0.00000000000E+00  0.00000000000E+00  0.14017663290E+04  0.14017663290E+04  0.50400001928E-02 0.  1.
        1   -1    0    0  501    0  0.00000000000E+00  0.00000000000E+00 -0.27113421840E+04  0.27113421840E+04  0.50400001928E-02 0. -1.
    10030    2    1    2    0    0  0.00000000000E+00  0.00000000000E+00 -0.13095758550E+04  0.41131085130E+04  0.38990604920E+04 0.  0.
        1    1    3    3  502    0 -0.70690256662E+03  0.10886280188E+04  0.87966022756E+03  0.15680001014E+04  0.50400001928E-02 0.  1.
       -1    1    3    3    0  502  0.70690256662E+03 -0.10886280188E+04 -0.21892360825E+04  0.25451084116E+04  0.50400001928E-02 0. -1.
</event>
<event>
 5   0  0.3724293E-08  0.3882845E+04  0.7818609E-02  0.8028607E-01
        2   -1    0    0  501    0  0.00000000000E+00  0.00000000000E+00  0.25373526439E+04  0.25373526439E+04  0.25500000920E-02 0.  1.
       -2   -1    0    0    0  501  0.00000000000E+00  0.00000000000E+00 -0.14854539055E+04  0.14854539055E+04  0.25500000920E-02 0. -1.
    10030    2    1    2    0    0  0.00000000000E+00  0.00000000000E+00  0.10518987384E+04  0.40228065494E+04  0.38828445215E+04 0.  0.
        4    1    3    3  502    0  0.15503702474E+04  0.78411123348E+03 -0.37167602408E+03  0.17766887770E+04  0.12699999809E+01 0. -1.
       -4    1    3    3    0  502 -0.15503702474E+04 -0.78411123348E+03  0.14235747625E+04  0.22461177725E+04  0.12699999809E+01 0.  1.
</event>
<event>
 5   0  0.3690572E-08  0.3894667E+04  0.7818609E-02  0.8026139E-01
       -2   -1    0    0    0  501  0.00000000000E+00  0.00000000000E+00  0.23608175847E+04  0.23608175847E+04  0.25500000920E-02 0. -1.
        2   -1    0    0  501    0  0.00000000000E+00  0.00000000000E+00 -0.16062688378E+04  0.16062688378E+04  0.25500000920E-02 0.  1.
    10030    2    1    2    0    0  0.00000000000E+00  0.00000000000E+00  0.75454874690E+03  0.39670864225E+04  0.38946669783E+04 0.  0.
        3    1    3    3  502    0 -0.29228862133E+03 -0.15967131174E+04  0.14730010183E+04  0.21919528799E+04  0.10100000352E+00 0.  1.
       -3    1    3    3    0  502  0.29228862133E+03  0.15967131174E+04 -0.71845227143E+03  0.17751335426E+04  0.10100000352E+00 0. -1.
</event>
<event>
 5   0  0.3690572E-08  0.3883787E+04  0.7818609E-02  0.8028410E-01
       -2   -1    0    0    0  501  0.00000000000E+00  0.00000000000E+00  0.18631883364E+04  0.18631883364E+04  0.25500000920E-02 0. -1.
        2   -1    0    0  501    0  0.00000000000E+00  0.00000000000E+00 -0.20239234880E+04  0.20239234880E+04  0.25500000920E-02 0.  1.
    10030    2    1    2    0    0  0.00000000000E+00  0.00000000000E+00 -0.16073515162E+03  0.38871118244E+04  0.38837871397E+04 0.  0.
        3    1    3    3  502    0 -0.10499931160E+04 -0.52973460130E+03 -0.16269561695E+04  0.20075085751E+04  0.10100000352E+00 0.  1.
       -3    1    3    3    0  502  0.10499931160E+04  0.52973460130E+03  0.14662210178E+04  0.18796032493E+04  0.10100000352E+00 0. -1.
</event>
<event>
 5   0  0.1164500E-08  0.3898575E+04  0.7818609E-02  0.8025326E-01
        1   -1    0    0  501    0  0.00000000000E+00  0.00000000000E+00  0.19537702390E+04  0.19537702390E+04  0.50400001928E-02 0.  1.
       -1   -1    0    0    0  501  0.00000000000E+00  0.00000000000E+00 -0.19448150127E+04  0.19448150127E+04  0.50400001928E-02 0. -1.
    10030    2    1    2    0    0  0.00000000000E+00  0.00000000000E+00  0.89552263538E+01  0.38985852517E+04  0.38985749664E+04 0.  0.
        5    1    3    3  502    0 -0.53325348827E+03  0.13451740678E+04 -0.13016066290E+04  0.19462924914E+04  0.46999998093E+01 0. -1.
       -5    1    3    3    0  502  0.53325348827E+03 -0.13451740678E+04  0.13105618553E+04  0.19522927603E+04  0.46999998093E+01 0.  1.
</event>
<event>
 5   0  0.3872969E-08  0.3902204E+04  0.7818609E-02  0.8024571E-01
       -2   -1    0    0    0  501  0.00000000000E+00  0.00000000000E+00  0.23643814270E+04  0.23643814270E+04  0.25500000920E-02 0. -1.
        2   -1    0    0  501    0  0.00000000000E+00  0.00000000000E+00 -0.16100616291E+04  0.16100616291E+04  0.25500000920E-02 0.  1.
    10030    2    1    2    0    0  0.00000000000E+00  0.00000000000E+00  0.75431979792E+03  0.39744430561E+04  0.39022044089E+04 0.  0.
        2    1    3    3  502    0 -0.99678949487E+03  0.10635015432E+04 -0.94383715380E+03  0.17365060905E+04  0.25500000920E-02 0.  1.
       -2    1    3    3    0  502  0.99678949487E+03 -0.10635015432E+04  0.16981569517E+04  0.22379369656E+04  0.25500000920E-02 0. -1.
</event>
<event>
 5   0  0.3724293E-08  0.3913959E+04  0.7818609E-02  0.8022132E-01
       -2   -1    0    0    0  501  0.00000000000E+00  0.00000000000E+00  0.19852005005E+04  0.19852005005E+04  0.25500000920E-02 0.  1.
        2   -1    0    0  501    0  0.00000000000E+00  0.00000000000E+00 -0.19291601500E+04  0.19291601501E+04  0.25500000920E-02 0. -1.
    10030    2    1    2    0    0  0.00000000000E+00  0.00000000000E+00  0.56040350402E+02  0.39143606505E+04  0.39139594762E+04 0.  0.
        4    1    3    3  502    0 -0.24426417412E+03  0.14097461462E+02 -0.19138029925E+04  0.19293800124E+04  0.12699999809E+01 0. -1.
       -4    1    3    3    0  502  0.24426417412E+03 -0.14097461462E+02  0.19698433429E+04  0.19849806381E+04  0.12699999809E+01 0.  1.
</event>
<event>
 5   0  0.3724293E-08  0.3903425E+04  0.7818609E-02  0.8024317E-01
        2   -1    0    0  501    0  0.00000000000E+00  0.00000000000E+00  0.12666132343E+04  0.12666132343E+04  0.25500000920E-02 0.  1.
       -2   -1    0    0    0  501  0.00000000000E+00  0.00000000000E+00 -0.30073759689E+04  0.30073759689E+04  0.25500000920E-02 0. -1.
    10030    2    1    2    0    0  0.00000000000E+00  0.00000000000E+00 -0.17407627346E+04  0.42739892032E+04  0.39034252665E+04 0.  0.
        4    1    3    3  502    0 -0.31568584336E+03 -0.19029334514E+04 -0.54489456160E+03  0.20044263439E+04  0.12699999809E+01 0. -1.
       -4    1    3    3    0  502  0.31568584336E+03  0.19029334514E+04 -0.11958681730E+04  0.22695628593E+04  0.12699999809E+01 0.  1.
</event>
<event>
 5   0  0.1164500E-08  0.3907229E+04  0.7818609E-02  0.8023527E-01
       -1   -1    0    0    0  501  0.00000000000E+00  0.00000000000E+00  0.15327418906E+04  0.15327418906E+04  0.50400001928E-02 0.  1.
        1   -1    0    0  501    0  0.00000000000E+00  0.00000000000E+00 -0.24900532967E+04  0.24900532967E+04  0.50400001928E-02 0. -1.
    10030    2    1    2    0    0  0.00000000000E+00  0.00000000000E+00 -0.95731140610E+03  0.40227951873E+04  0.39072286842E+04 0.  0.
        4    1    3    3  502    0  0.15157890066E+04 -0.10447603895E+03 -0.17430155086E+04  0.23122794449E+04  0.12699999809E+01 0. -1.
       -4    1    3    3    0  502 -0.15157890066E+04  0.10447603895E+03  0.78570410249E+03  0.17105157424E+04  0.12699999809E+01 0.  1.
</event>
<event>
 5   0  0.1164500E-08  0.3914951E+04  0.7818609E-02  0.8021927E-01
        1   -1    0    0  501    0  0.00000000000E+00  0.00000000000E+00  0.25244883132E+04  0.25244883132E+04  0.50400001928E-02 0.  1.
       -1   -1    0    0    0  501  0.00000000000E+00  0.00000000000E+00 -0.15178166626E+04  0.15178166626E+04  0.50400001928E-02 0. -1.
    10030    2    1    2    0    0  0.00000000000E+00  0.00000000000E+00  0.10066716506E+04  0.40423049758E+04  0.39149510476E+04 0.  0.
        5    1    3    3  502    0  0.55682210327E+03  0.21526093590E+02 -0.14341854948E+04  0.15386436725E+04  0.46999998093E+01 0. -1.
       -5    1    3    3    0  502 -0.55682210327E+03 -0.21526093590E+02  0.24408571454E+04  0.25036613033E+04  0.46999998093E+01 0.  1.
</event>
<event>
 5   0  0.1164500E-08  0.3805984E+04  0.7818609E-02  0.8044872E-01
        1   -1    0    0  501    0  0.00000000000E+00  0.00000000000E+00  0.27317107971E+04  0.27317107971E+04  0.50400001928E-02 0.  1.
       -1   -1    0    0    0  501  0.00000000000E+00  0.00000000000E+00 -0.13256816530E+04  0.13256816530E+04  0.50400001928E-02 0. -1.
    10030    2    1    2    0    0  0.00000000000E+00  0.00000000000E+00  0.14060291441E+04  0.40573924501E+04  0.38059841750E+04 0.  0.
        1    1    3    3  502    0 -0.14016463089E+04  0.10381994254E+04 -0.10810519953E+03  0.17476147048E+04  0.50400001928E-02 0. -1.
       -1    1    3    3    0  502  0.14016463089E+04 -0.10381994254E+04  0.15141343437E+04  0.23097777453E+04  0.50400001928E-02 0.  1.
</event>
<event>
 5   0  0.1164500E-08  0.3904182E+04  0.7818609E-02  0.8024160E-01
       -1   -1    0    0    0  501  0.00000000000E+00  0.00000000000E+00  0.19919110662E+04  0.19919110662E+04  0.50400001928E-02 0. -1.
        1   -1    0    0  501    0  0.00000000000E+00  0.00000000000E+00 -0.19130670514E+04  0.19130670514E+04  0.50400001928E-02 0.  1.
    10030    2    1    2    0    0  0.00000000000E+00  0.00000000000E+00  0.78844014798E+02  0.39049781176E+04  0.39041820808E+04 0.  0.
        4    1    3    3  502    0  0.94205835917E+03  0.60434541347E+03  0.16391075049E+04  0.19847877358E+04  0.12699999809E+01 0. -1.
       -4    1    3    3    0  502 -0.94205835917E+03 -0.60434541347E+03 -0.15602634901E+04  0.19201903818E+04  0.12699999809E+01 0.  1.
</event>
<event>
 5   0  0.1164500E-08  0.3900217E+04  0.7818609E-02  0.8024984E-01
        1   -1    0    0  501    0  0.00000000000E+00  0.00000000000E+00  0.18143725126E+04  0.18143725126E+04  0.50400001928E-02 0.  1.
       -1   -1    0    0    0  501  0.00000000000E+00  0.00000000000E+00 -0.20959989277E+04  0.20959989277E+04  0.50400001928E-02 0. -1.
    10030    2    1    2    0    0  0.00000000000E+00  0.00000000000E+00 -0.28162641508E+03  0.39103714403E+04  0.39002168354E+04 0.  0.
        1    1    3    3  502    0  0.14283749376E+04  0.78039539415E+03 -0.12176911108E+04  0.20327428699E+04  0.50400001928E-02 0. -1.
       -1    1    3    3    0  502 -0.14283749376E+04 -0.78039539415E+03  0.93606469574E+03  0.18776285704E+04  0.50400001928E-02 0.  1.
</event>
<event>
 5   0  0.3872969E-08  0.3902857E+04  0.7818609E-02  0.8024435E-01
        2   -1    0    0  501    0  0.00000000000E+00  0.00000000000E+00  0.14375532363E+04  0.14375532363E+04  0.25500000920E-02 0. -1.
       -2   -1    0    0    0  501  0.00000000000E+00  0.00000000000E+00 -0.26489964214E+04  0.26489964214E+04  0.25500000920E-02 0.  1.
    10030    2    1    2    0    0  0.00000000000E+00  0.00000000000E+00 -0.12114431851E+04  0.40865496578E+04  0.39028570964E+04 0.  0.
        2    1    3    3  502    0 -0.21058983313E+03 -0.10723538293E+04  0.10870909151E+04  0.15414465513E+04  0.25500000920E-02 0. -1.
       -2    1    3    3    0  502  0.21058983313E+03  0.10723538293E+04 -0.22985341002E+04  0.25451031065E+04  0.25500000920E-02 0.  1.
</event>
<event>
 5   0  0.1164500E-08  0.3896887E+04  0.7818609E-02  0.8025677E-01
       -1   -1    0    0    0  501  0.00000000000E+00  0.00000000000E+00  0.19624353174E+04  0.19624353174E+04  0.50400001928E-02 0.  1.
        1   -1    0    0  501    0  0.00000000000E+00  0.00000000000E+00 -0.19345517715E+04  0.19345517715E+04  0.50400001928E-02 0. -1.
    10030    2    1    2    0    0  0.00000000000E+00  0.00000000000E+00  0.27883545859E+02  0.38969870889E+04  0.38968873321E+04 0.  0.
        4    1    3    3  502    0  0.13972226440E+04 -0.24359428282E+03  0.13499631793E+04  0.19580529844E+04  0.12699999809E+01 0.  1.
       -4    1    3    3    0  502 -0.13972226440E+04  0.24359428282E+03 -0.13220796334E+04  0.19389341045E+04  0.12699999809E+01 0. -1.
</event>
<event>
 5   0  0.3724293E-08  0.3902649E+04  0.7818609E-02  0.8024479E-01
        2   -1    0    0  501    0  0.00000000000E+00  0.00000000000E+00  0.27166938528E+04  0.27166938528E+04  0.25500000920E-02 0. -1.
       -2   -1    0    0    0  501  0.00000000000E+00  0.00000000000E+00 -0.14015810680E+04  0.14015810680E+04  0.25500000920E-02 0.  1.
    10030    2    1    2    0    0  0.00000000000E+00  0.00000000000E+00  0.13151127847E+04  0.41182749208E+04  0.39026486758E+04 0.  0.
        4    1    3    3  502    0  0.98177989781E+03 -0.15458293138E+04  0.13687245172E+04  0.22862389315E+04  0.12699999809E+01 0.  1.
       -4    1    3    3    0  502 -0.98177989781E+03  0.15458293138E+04 -0.53611732496E+02  0.18320359893E+04  0.12699999809E+01 0. -1.
</event>
<event>
 5   0  0.1164500E-08  0.3896892E+04  0.7818609E-02  0.8025676E-01
       -1   -1    0    0    0  501  0.00000000000E+00  0.00000000000E+00  0.19845826340E+04  0.19845826340E+04  0.50400001928E-02 0.  1.
        1   -1    0    0  501    0  0.00000000000E+00  0.00000000000E+00 -0.19129672390E+04  0.19129672390E+04  0.50400001928E-02 0. -1.
    10030    2    1    2    0    0  0.00000000000E+00  0.00000000000E+00  0.71615394958E+02  0.38975498730E+04  0.38968918702E+04 0.  0.
        1    1    3    3  502    0  0.71081749183E+03 -0.15868529443E+04 -0.84358918891E+03  0.19326164889E+04  0.50400001928E-02 0. -1.
       -1    1    3    3    0  502 -0.71081749183E+03  0.15868529443E+04  0.91520458386E+03  0.19649333841E+04  0.50400001928E-02 0.  1.
</event>
<event>
 5   0  0.1164500E-08  0.3904509E+04  0.7818609E-02  0.8024092E-01
       -1   -1    0    0    0  501  0.00000000000E+00  0.00000000000E+00  0.11873887941E+04  0.11873887941E+04  0.50400001928E-02 0. -1.
        1   -1    0    0  501    0  0.00000000000E+00  0.00000000000E+00 -0.32098137323E+04  0.32098137323E+04  0.50400001928E-02 0.  1.
    10030    2    1    2    0    0  0.00000000000E+00  0.00000000000E+00 -0.20224249381E+04  0.43972025264E+04  0.39045086026E+04 0.  0.
        5    1    3    3  502    0 -0.17187831899E+04 -0.40715226477E+03 -0.19475641870E+04  0.26292616783E+04  0.46999998093E+01 0.  1.
       -5    1    3    3    0  502  0.17187831899E+04  0.40715226477E+03 -0.74860751161E+02  0.17679408481E+04  0.46999998093E+01 0. -1.
</event>
<event>
 5   0  0.3872969E-08  0.3898468E+04  0.7818609E-02  0.8025348E-01
       -2   -1    0    0    0  501  0.00000000000E+00  0.00000000000E+00  0.12441153190E+04  0.12441153190E+04  0.25500000920E-02 0.  1.
        2   -1    0    0  501    0  0.00000000000E+00  0.00000000000E+00 -0.30539881524E+04  0.30539881524E+04  0.25500000920E-02 0. -1.
    10030    2    1    2    0    0  0.00000000000E+00  0.00000000000E+00 -0.18098728334E+04  0.42981034715E+04  0.38984681323E+04 0.  0.
        2    1    3    3  502    0  0.13667671700E+04 -0.13622877527E+04 -0.12081429935E+04  0.22767278957E+04  0.25500000920E-02 0. -1.
       -2    1    3    3    0  502 -0.13667671700E+04  0.13622877527E+04 -0.60172983989E+03  0.20213755758E+04  0.25500000920E-02 0.  1.
</event>
<event>
 5   0  0.3690572E-08  0.3896402E+04  0.7818609E-02  0.8025778E-01
        2   -1    0    0  501    0  0.00000000000E+00  0.00000000000E+00  0.23027184270E+04  0.23027184270E+04  0.25500000920E-02 0.  1.
       -2   -1    0    0    0  501  0.00000000000E+00  0.00000000000E+00 -0.16482635686E+04  0.16482635686E+04  0.25500000920E-02 0. -1.
    10030    2    1    2    0    0  0.00000000000E+00  0.00000000000E+00  0.65445485839E+03  0.39509819955E+04  0.38964018745E+04 0.  0.
        3    1    3    3  502    0  0.15040707126E+03 -0.39353480071E+03 -0.16015196682E+04  0.16560063962E+04  0.10100000352E+00 0. -1.
       -3    1    3    3    0  502 -0.15040707126E+03  0.39353480071E+03  0.22559745266E+04  0.22949755993E+04  0.10100000352E+00 0.  1.
</event>
<event>
 5   0  0.3669347E-08  0.3903763E+04  0.7818609E-02  0.8024247E-01
       -2   -1    0    0    0  501  0.00000000000E+00  0.00000000000E+00  0.23232397657E+04  0.23232397657E+04  0.25500000920E-02 0.  1.
        2   -1    0    0  501    0  0.00000000000E+00  0.00000000000E+00 -0.16398826728E+04  0.16398826728E+04  0.25500000920E-02 0. -1.
    10030    2    1    2    0    0  0.00000000000E+00  0.00000000000E+00  0.68335709292E+03  0.39631224385E+04  0.39037626139E+04 0.  0.
        5    1    3    3  502    0 -0.12781957113E+04 -0.93754816060E+03 -0.81451460315E+03  0.17822000333E+04  0.46999998093E+01 0. -1.
       -5    1    3    3    0  502  0.12781957113E+04  0.93754816060E+03  0.14978716961E+04  0.21809224052E+04  0.46999998093E+01 0.  1.
</event>
<event>
 5   0  0.1164500E-08  0.3894013E+04  0.7818609E-02  0.8026276E-01
        1   -1    0    0  501    0  0.00000000000E+00  0.00000000000E+00  0.22504857004E+04  0.22504857004E+04  0.50400001928E-02 0. -1.
       -1   -1    0    0    0  501  0.00000000000E+00  0.00000000000E+00 -0.16844512314E+04  0.16844512314E+04  0.50400001928E-02 0.  1.
    10030    2    1    2    0    0  0.00000000000E+00  0.00000000000E+00  0.56603446904E+03  0.39349369318E+04  0.38940125369E+04 0.  0.
        4    1    3    3  502    0  0.48060232657E+01  0.22988558286E+03  0.22367170341E+04  0.22485050995E+04  0.12699999809E+01 0. -1.
       -4    1    3    3    0  502 -0.48060232657E+01 -0.22988558286E+03 -0.16706825650E+04  0.16864318323E+04  0.12699999809E+01 0.  1.
</event>
<event>
 5   0  0.1164500E-08  0.3889767E+04  0.7818609E-02  0.8027161E-01
        1   -1    0    0  501    0  0.00000000000E+00  0.00000000000E+00  0.13038188503E+04  0.13038188503E+04  0.50400001928E-02 0.  1.
       -1   -1    0    0    0  501  0.00000000000E+00  0.00000000000E+00 -0.29011484945E+04  0.29011484945E+04  0.50400001928E-02 0. -1.
    10030    2    1    2    0    0  0.00000000000E+00  0.00000000000E+00 -0.15973296442E+04  0.42049673447E+04  0.38897671367E+04 0.  0.
        1    1    3    3  502    0  0.14218224510E+04 -0.41432730950E+03  0.56417716196E+03  0.15847845506E+04  0.50400001928E-02 0.  1.
       -1    1    3    3    0  502 -0.14218224510E+04  0.41432730950E+03 -0.21615068062E+04  0.26201827941E+04  0.50400001928E-02 0. -1.
</event>
<event>
 5   0  0.1164500E-08  0.3884082E+04  0.7818609E-02  0.8028348E-01
       -1   -1    0    0    0  501  0.00000000000E+00  0.00000000000E+00  0.30375139810E+04  0.30375139810E+04  0.50400001928E-02 0.  1.
        1   -1    0    0  501    0  0.00000000000E+00  0.00000000000E+00 -0.12416481772E+04  0.12416481772E+04  0.50400001928E-02 0. -1.
    10030    2    1    2    0    0  0.00000000000E+00  0.00000000000E+00  0.17958658039E+04  0.42791621582E+04  0.38840822327E+04 0.  0.
        5    1    3    3  502    0 -0.31153869997E+03  0.48012452920E+03 -0.11466146405E+04  0.12815315638E+04  0.46999998093E+01 0. -1.
       -5    1    3    3    0  502  0.31153869997E+03 -0.48012452920E+03  0.29424804444E+04  0.29976305944E+04  0.46999998093E+01 0.  1.
</event>
<event>
 5   0  0.3690572E-08  0.3902679E+04  0.7818609E-02  0.8024472E-01
        2   -1    0    0  501    0  0.00000000000E+00  0.00000000000E+00  0.24349543197E+04  0.24349543197E+04  0.25500000920E-02 0.  1.
       -2   -1    0    0    0  501  0.00000000000E+00  0.00000000000E+00 -0.15637769504E+04  0.15637769504E+04  0.25500000920E-02 0. -1.
    10030    2    1    2    0    0  0.00000000000E+00  0.00000000000E+00  0.87117736929E+03  0.39987312701E+04  0.39026787930E+04 0.  0.
        3    1    3    3  502    0 -0.86297426900E+03  0.99865113430E+03  0.19082154643E+04  0.23201971782E+04  0.10100000352E+00 0.  1.
       -3    1    3    3    0  502  0.86297426900E+03 -0.99865113430E+03 -0.10370380950E+04  0.16785340919E+04  0.10100000352E+00 0. -1.
</event>
<event>
 5   0  0.3872969E-08  0.3917603E+04  0.7818609E-02  0.8021378E-01
       -2   -1    0    0    0  501  0.00000000000E+00  0.00000000000E+00  0.18415161592E+04  0.18415161592E+04  0.25500000920E-02 0. -1.
        2   -1    0    0  501    0  0.00000000000E+00  0.00000000000E+00 -0.20835571313E+04  0.20835571313E+04  0.25500000920E-02 0.  1.
    10030    2    1    2    0    0  0.00000000000E+00  0.00000000000E+00 -0.24204097200E+03  0.39250732905E+04  0.39176034133E+04 0.  0.
        2    1    3    3  502    0  0.61795588847E+03 -0.56376687514E+03  0.16535714838E+04  0.18531058312E+04  0.25500000920E-02 0. -1.
       -2    1    3    3    0  502 -0.61795588847E+03  0.56376687514E+03 -0.18956124558E+04  0.20719674593E+04  0.25500000920E-02 0.  1.
</event>
<event>
 5   0  0.1164500E-08  0.3894234E+04  0.7818609E-02  0.8026230E-01
        1   -1    0    0  501    0  0.00000000000E+00  0.00000000000E+00  0.30384805955E+04  0.30384805955E+04  0.50400001928E-02 0. -1.
       -1   -1    0    0    0  501  0.00000000000E+00  0.00000000000E+00 -0.12477499917E+04  0.12477499917E+04  0.50400001928E-02 0.  1.
    10030    2    1    2    0    0  0.00000000000E+00  0.00000000000E+00  0.17907306038E+04  0.42862305872E+04  0.38942337566E+04 0.  0.
        2    1    3    3  502    0  0.62965754691E+03 -0.57065828439E+03  0.28236102031E+04  0.29487105797E+04  0.25500000920E-02 0. -1.
       -2    1    3    3    0  502 -0.62965754691E+03  0.57065828439E+03 -0.10328795992E+04  0.13375200075E+04  0.25500000920E-02 0.  1.
</event>
<event>
 5   0  0.1164500E-08  0.3900838E+04  0.7818609E-02  0.8024855E-01
        1   -1    0    0  501    0  0.00000000000E+00  0.00000000000E+00  0.18961280395E+04  0.18961280395E+04  0.50400001928E-02 0. -1.
       -1   -1    0    0    0  501  0.00000000000E+00  0.00000000000E+00 -0.20062646440E+04  0.20062646440E+04  0.50400001928E-02 0.  1.
    10030    2    1    2    0    0  0.00000000000E+00  0.00000000000E+00 -0.11013660452E+03  0.39023926835E+04  0.39008381900E+04 0.  0.
        2    1    3    3  502    0 -0.11977795964E+04 -0.97412498761E+03 -0.12474070105E+04  0.19848475264E+04  0.25500000920E-02 0.  1.
       -2    1    3    3    0  502  0.11977795964E+04  0.97412498761E+03  0.11372704060E+04  0.19175451571E+04  0.25500000920E-02 0. -1.
</event>
<event>
 5   0  0.3769985E-08  0.3900582E+04  0.7818609E-02  0.8024908E-01
        2   -1    0    0  501    0  0.00000000000E+00  0.00000000000E+00  0.30231186760E+04  0.30231186760E+04  0.25500000920E-02 0. -1.
       -2   -1    0    0    0  501  0.00000000000E+00  0.00000000000E+00 -0.12581822437E+04  0.12581822437E+04  0.25500000920E-02 0.  1.
    10030    2    1    2    0    0  0.00000000000E+00  0.00000000000E+00  0.17649364322E+04  0.42813009197E+04  0.39005816176E+04 0.  0.
        1    1    3    3  502    0 -0.64574440077E+03  0.77525582558E+03 -0.94945746727E+03  0.13854518788E+04  0.50400001928E-02 0.  1.
       -1    1    3    3    0  502  0.64574440077E+03 -0.77525582558E+03  0.27143938995E+04  0.28958490409E+04  0.50400001928E-02 0. -1.
</event>
<event>
 5   0  0.1164500E-08  0.3901411E+04  0.7818609E-02  0.8024736E-01
        1   -1    0    0  501    0  0.00000000000E+00  0.00000000000E+00  0.16210269737E+04  0.16210269737E+04  0.50400001928E-02 0. -1.
       -1   -1    0    0    0  501  0.00000000000E+00  0.00000000000E+00 -0.23474324637E+04  0.23474324637E+04  0.50400001928E-02 0.  1.
    10030    2    1    2    0    0  0.00000000000E+00  0.00000000000E+00 -0.72640549002E+03  0.39684594374E+04  0.39014106898E+04 0.  0.
        3    1    3    3  502    0 -0.56183050912E+03 -0.13075331004E+04  0.99387518538E+03  0.17358237883E+04  0.10100000352E+00 0. -1.
       -3    1    3    3    0  502  0.56183050912E+03  0.13075331004E+04 -0.17202806754E+04  0.22326356492E+04  0.10100000352E+00 0.  1.
</event>
<event>
 5   0  0.3769985E-08  0.3892675E+04  0.7818609E-02  0.8026554E-01
       -2   -1    0    0    0  501  0.00000000000E+00  0.00000000000E+00  0.13339635829E+04  0.13339635829E+04  0.25500000920E-02 0.  1.
        2   -1    0    0  501    0  0.00000000000E+00  0.00000000000E+00 -0.28398306005E+04  0.28398306005E+04  0.25500000920E-02 0. -1.
    10030    2    1    2    0    0  0.00000000000E+00  0.00000000000E+00 -0.15058670176E+04  0.41737941834E+04  0.38926754823E+04 0.  0.
        1    1    3    3  502    0 -0.18667290651E+04  0.52293283345E+03 -0.56692789663E+03  0.20197879569E+04  0.50400001928E-02 0. -1.
       -1    1    3    3    0  502  0.18667290651E+04 -0.52293283345E+03 -0.93893912096E+03  0.21540062265E+04  0.50400001928E-02 0.  1.
</event>
<event>
 5   0  0.1164500E-08  0.3890487E+04  0.7818609E-02  0.8027011E-01
       -1   -1    0    0    0  501  0.00000000000E+00  0.00000000000E+00  0.14256345438E+04  0.14256345438E+04  0.50400001928E-02 0.  1.
        1   -1    0    0  501    0  0.00000000000E+00  0.00000000000E+00 -0.26542378943E+04  0.26542378943E+04  0.50400001928E-02 0. -1.
    10030    2    1    2    0    0  0.00000000000E+00  0.00000000000E+00 -0.12286033505E+04  0.40798724381E+04  0.38904874911E+04 0.  0.
        2    1    3    3  502    0 -0.13567755015E+04  0.10086954991E+04 -0.16232523121E+04  0.23437692804E+04  0.25500000920E-02 0. -1.
       -2    1    3    3    0  502  0.13567755015E+04 -0.10086954991E+04  0.39464896159E+03  0.17361031577E+04  0.25500000920E-02 0.  1.
</event>
<event>
 5   0  0.1164500E-08  0.3902272E+04  0.7818609E-02  0.8024557E-01
        1   -1    0    0  501    0  0.00000000000E+00  0.00000000000E+00  0.29360419836E+04  0.29360419836E+04  0.50400001928E-02 0. -1.
       -1   -1    0    0    0  501  0.00000000000E+00  0.00000000000E+00 -0.12966205304E+04  0.12966205304E+04  0.50400001928E-02 0.  1.
    10030    2    1    2    0    0  0.00000000000E+00  0.00000000000E+00  0.16394214532E+04  0.42326625140E+04  0.39022723196E+04 0.  0.
        4    1    3    3  502    0  0.18385067869E+04 -0.31141399555E+03  0.14426574445E+04  0.23576148959E+04  0.12699999809E+01 0. -1.
       -4    1    3    3    0  502 -0.18385067869E+04  0.31141399555E+03  0.19676400877E+03  0.18750476181E+04  0.12699999809E+01 0.  1.
</event>
<event>
 5   0  0.3724293E-08  0.3904111E+04  0.7818609E-02  0.8024175E-01
        2   -1    0    0  501    0  0.00000000000E+00  0.00000000000E+00  0.13574361773E+04  0.13574361773E+04  0.25500000920E-02 0. -1.
       -2   -1    0    0    0  501  0.00000000000E+00  0.00000000000E+00 -0.28071453072E+04  0.28071453072E+04  0.25500000920E-02 0.  1.
    10030    2    1    2    0    0  0.00000000000E+00  0.00000000000E+00 -0.14497091299E+04  0.41645814845E+04  0.39041109589E+04 0.  0.
        4    1    3    3  502    0 -0.17821723841E+04 -0.51505650017E+03 -0.76787887691E+02  0.18566958818E+04  0.12699999809E+01 0.  1.
       -4    1    3    3    0  502  0.17821723841E+04  0.51505650017E+03 -0.13729212422E+04  0.23078856027E+04  0.12699999809E+01 0. -1.
</event>
<event>
 5   0  0.3872969E-08  0.3896471E+04  0.7818609E-02  0.8025764E-01
        2   -1    0    0  501    0  0.00000000000E+00  0.00000000000E+00  0.13938332667E+04  0.13938332667E+04  0.25500000920E-02 0. -1.
       -2   -1    0    0    0  501  0.00000000000E+00  0.00000000000E+00 -0.27231528137E+04  0.27231528137E+04  0.25500000920E-02 0.  1.
    10030    2    1    2    0    0  0.00000000000E+00  0.00000000000E+00 -0.13293195470E+04  0.41169860805E+04  0.38964707017E+04 0.  0.
        2    1    3    3  502    0  0.42509301436E+03  0.56205932185E+02  0.13433568026E+04  0.14101314395E+04  0.25500000920E-02 0. -1.
       -2    1    3    3    0  502 -0.42509301436E+03 -0.56205932185E+02 -0.26726763496E+04  0.27068546409E+04  0.25500000920E-02 0.  1.
</event>
<event>
 5   0  0.1164500E-08  0.3904462E+04  0.7818609E-02  0.8024102E-01
       -1   -1    0    0    0  501  0.00000000000E+00  0.00000000000E+00  0.26604325665E+04  0.26604325665E+04  0.50400001928E-02 0. -1.
        1   -1    0    0  501    0  0.00000000000E+00  0.00000000000E+00 -0.14325509657E+04  0.14325509657E+04  0.50400001928E-02 0.  1.
    10030    2    1    2    0    0  0.00000000000E+00  0.00000000000E+00  0.12278816008E+04  0.40929835322E+04  0.39044616747E+04 0.  0.
        5    1    3    3  502    0 -0.90808428396E+03 -0.12113733918E+04  0.19059863281E+04  0.24341011758E+04  0.46999998093E+01 0. -1.
       -5    1    3    3    0  502  0.90808428396E+03  0.12113733918E+04 -0.67810472726E+03  0.16588823564E+04  0.46999998093E+01 0.  1.
</event>
<event>
 5   0  0.3669347E-08  0.3900487E+04  0.7818609E-02  0.8024928E-01
        2   -1    0    0  501    0  0.00000000000E+00  0.00000000000E+00  0.18977773944E+04  0.18977773944E+04  0.25500000920E-02 0. -1.
       -2   -1    0    0    0  501  0.00000000000E+00  0.00000000000E+00 -0.20041601836E+04  0.20041601836E+04  0.25500000920E-02 0.  1.
    10030    2    1    2    0    0  0.00000000000E+00  0.00000000000E+00 -0.10638278922E+03  0.39019375780E+04  0.39004870933E+04 0.  0.
        5    1    3    3  502    0 -0.54481197177E+03 -0.96505558941E+03 -0.16585546343E+04  0.19947375618E+04  0.46999998093E+01 0.  1.
       -5    1    3    3    0  502  0.54481197177E+03  0.96505558941E+03  0.15521718451E+04  0.19072000163E+04  0.46999998093E+01 0. -1.
</event>
<event>
 5   0  0.3872969E-08  0.3896959E+04  0.7818609E-02  0.8025662E-01
       -2   -1    0    0    0  501  0.00000000000E+00  0.00000000000E+00  0.18937040718E+04  0.18937040718E+04  0.25500000920E-02 0.  1.
        2   -1    0    0  501    0  0.00000000000E+00  0.00000000000E+00 -0.20048393173E+04  0.20048393173E+04  0.25500000920E-02 0. -1.
    10030    2    1    2    0    0  0.00000000000E+00  0.00000000000E+00 -0.11113524551E+03  0.38985433892E+04  0.38969590086E+04 0.  0.
        2    1    3    3  502    0 -0.18536293615E+04  0.34138106038E+03  0.43868743167E+03  0.19351820330E+04  0.25500000920E-02 0.  1.
       -2    1    3    3    0  502  0.18536293615E+04 -0.34138106038E+03 -0.54982267718E+03  0.19633613561E+04  0.25500000920E-02 0. -1.
</event>
<event>
 5   0  0.1164500E-08  0.3900899E+04  0.7818609E-02  0.8024842E-01
        1   -1    0    0  501    0  0.00000000000E+00  0.00000000000E+00  0.13458160596E+04  0.13458160597E+04  0.50400001928E-02 0.  1.
       -1   -1    0    0    0  501  0.00000000000E+00  0.00000000000E+00 -0.28267264516E+04  0.28267264516E+04  0.50400001928E-02 0. -1.
    10030    2    1    2    0    0  0.00000000000E+00  0.00000000000E+00 -0.14809103919E+04  0.41725425112E+04  0.39008993090E+04 0.  0.
        2    1    3    3  502    0 -0.82639137790E+03 -0.61542443649E+03  0.10309421577E+04  0.14575704713E+04  0.25500000920E-02 0.  1.
       -2    1    3    3    0  502  0.82639137790E+03  0.61542443649E+03 -0.25118525496E+04  0.27149720399E+04  0.25500000920E-02 0. -1.
</event>
<event>
 5   0  0.1164500E-08  0.3883778E+04  0.7818609E-02  0.8028412E-01
       -1   -1    0    0    0  501  0.00000000000E+00  0.00000000000E+00  0.26186423022E+04  0.26186423022E+04  0.50400001928E-02 0. -1.
        1   -1    0    0  501    0  0.00000000000E+00  0.00000000000E+00 -0.14400332371E+04  0.14400332371E+04  0.50400001928E-02 0.  1.
    10030    2    1    2    0    0  0.00000000000E+00  0.00000000000E+00  0.11786090652E+04  0.40586755393E+04  0.38837775174E+04 0.  0.
        3    1    3    3  502    0  0.12336128653E+04 -0.10507380997E+04 -0.52896897257E+03  0.17045994954E+04  0.10100000352E+00 0.  1.
       -3    1    3    3    0  502 -0.12336128653E+04  0.10507380997E+04  0.17075780377E+04  0.23540760439E+04  0.10100000352E+00 0. -1.
</event>
<event>
 5   0  0.3769985E-08  0.3899866E+04  0.7818609E-02  0.8025057E-01
        2   -1    0    0  501    0  0.00000000000E+00  0.00000000000E+00  0.11224380739E+04  0.11224380739E+04  0.25500000920E-02 0.  1.
       -2   -1    0    0    0  501  0.00000000000E+00  0.00000000000E+00 -0.33874816590E+04  0.33874816590E+04  0.25500000920E-02 0. -1.
    10030    2    1    2    0    0  0.00000000000E+00  0.00000000000E+00 -0.22650435851E+04  0.45099197330E+04  0.38998658381E+04 0.  0.
        1    1    3    3  502    0  0.75240872922E+03  0.12777921769E+03  0.94254964083E+03  0.12127845026E+04  0.50400001928E-02 0.  1.
       -1    1    3    3    0  502 -0.75240872922E+03 -0.12777921769E+03 -0.32075932259E+04  0.32971352304E+04  0.50400001928E-02 0. -1.
</event>
<event>
 5   0  0.1164500E-08  0.3905613E+04  0.7818609E-02  0.8023863E-01
       -1   -1    0    0    0  501  0.00000000000E+00  0.00000000000E+00  0.15990147511E+04  0.15990147511E+04  0.50400001928E-02 0.  1.
        1   -1    0    0  501    0  0.00000000000E+00  0.00000000000E+00 -0.23848764205E+04  0.23848764205E+04  0.50400001928E-02 0. -1.
    10030    2    1    2    0    0  0.00000000000E+00  0.00000000000E+00 -0.78586166939E+03  0.39838911717E+04  0.39056126670E+04 0.  0.
        3    1    3    3  502    0  0.19272463350E+04  0.26849239506E+03 -0.56080754178E+03  0.20250609154E+04  0.10100000352E+00 0. -1.
       -3    1    3    3    0  502 -0.19272463350E+04 -0.26849239506E+03 -0.22505412762E+03  0.19588302562E+04  0.10100000352E+00 0.  1.
</event>
<event>
 5   0  0.3872969E-08  0.3899356E+04  0.7818609E-02  0.8025163E-01
        2   -1    0    0  501    0  0.00000000000E+00  0.00000000000E+00  0.22287635539E+04  0.22287635539E+04  0.25500000920E-02 0. -1.
       -2   -1    0    0    0  501  0.00000000000E+00  0.00000000000E+00 -0.17055396386E+04  0.17055396386E+04  0.25500000920E-02 0.  1.
    10030    2    1    2    0    0  0.00000000000E+00  0.00000000000E+00  0.52322391528E+03  0.39343031924E+04  0.38993561449E+04 0.  0.
        2    1    3    3  502    0 -0.13500501432E+04 -0.13674161556E+04 -0.71165538722E+02  0.19228954380E+04  0.25500000920E-02 0. -1.
       -2    1    3    3    0  502  0.13500501432E+04  0.13674161556E+04  0.59438945400E+03  0.20114077544E+04  0.25500000920E-02 0.  1.
</event>
<event>
 5   0  0.3690572E-08  0.3905789E+04  0.7818609E-02  0.8023826E-01
       -2   -1    0    0    0  501  0.00000000000E+00  0.00000000000E+00  0.15980798018E+04  0.15980798018E+04  0.25500000920E-02 0. -1.
        2   -1    0    0  501    0  0.00000000000E+00  0.00000000000E+00 -0.23864865805E+04  0.23864865805E+04  0.25500000920E-02 0.  1.
    10030    2    1    2    0    0  0.00000000000E+00  0.00000000000E+00 -0.78840677875E+03  0.39845663823E+04  0.39057885255E+04 0.  0.
        3    1    3    3  502    0  0.13750864165E+03  0.11899613319E+04  0.11792669239E+04  0.16809482698E+04  0.10100000352E+00 0. -1.
       -3    1    3    3    0  502 -0.13750864165E+03 -0.11899613319E+04 -0.19676737026E+04  0.23036181124E+04  0.10100000352E+00 0.  1.
</event>
<event>
 5   0  0.3769985E-08  0.3894630E+04  0.7818609E-02  0.8026147E-01
        2   -1    0    0  501    0  0.00000000000E+00  0.00000000000E+00  0.20287301941E+04  0.20287301941E+04  0.25500000920E-02 0.  1.
       -2   -1    0    0    0  501  0.00000000000E+00  0.00000000000E+00 -0.18691666804E+04  0.18691666804E+04  0.25500000920E-02 0. -1.
    10030    2    1    2    0    0  0.00000000000E+00  0.00000000000E+00  0.15956351375E+03  0.38978968745E+04  0.38946295754E+04 0.  0.
        1    1    3    3  502    0  0.15400154409E+04  0.11596648986E+04 -0.19533910070E+03  0.19376861458E+04  0.50400001928E-02 0. -1.
       -1    1    3    3    0  502 -0.15400154409E+04 -0.11596648986E+04  0.35490261444E+03  0.19602107287E+04  0.50400001928E-02 0.  1.
</event>
<event>
 5   0  0.3669347E-08  0.3900531E+04  0.7818609E-02  0.8024919E-01
       -2   -1    0    0    0  501  0.00000000000E+00  0.00000000000E+00  0.15105841970E+04  0.15105841970E+04  0.25500000920E-02 0.  1.
        2   -1    0    0  501    0  0.00000000000E+00  0.00000000000E+00 -0.25179232619E+04  0.25179232619E+04  0.25500000920E-02 0. -1.
    10030    2    1    2    0    0  0.00000000000E+00  0.00000000000E+00 -0.10073390649E+04  0.40285074589E+04  0.39005307786E+04 0.  0.
        5    1    3    3  502    0  0.69429745846E+03  0.13212214122E+04  0.79284159889E+03  0.16900576534E+04  0.46999998093E+01 0.  1.
       -5    1    3    3    0  502 -0.69429745846E+03 -0.13212214122E+04 -0.18001806638E+04  0.23384498056E+04  0.46999998093E+01 0. -1.
</event>
<event>
 5   0  0.1164500E-08  0.3898828E+04  0.7818609E-02  0.8025273E-01
       -1   -1    0    0    0  501  0.00000000000E+00  0.00000000000E+00  0.13566993827E+04  0.13566993827E+04  0.50400001928E-02 0.  1.
        1   -1    0    0  501    0  0.00000000000E+00  0.00000000000E+00 -0.28010743693E+04  0.28010743693E+04  0.50400001928E-02 0. -1.
    10030    2    1    2    0    0  0.00000000000E+00  0.00000000000E+00 -0.14443749866E+04  0.41577737520E+04  0.38988284741E+04 0.  0.
        4    1    3    3  502    0  0.13900293816E+04 -0.95792592685E+03 -0.17618259479E+04  0.24400483697E+04  0.12699999809E+01 0. -1.
       -4    1    3    3    0  502 -0.13900293816E+04  0.95792592685E+03  0.31745096131E+03  0.17177253822E+04  0.12699999809E+01 0.  1.
</event>
<event>
 5   0  0.1164500E-08  0.3895442E+04  0.7818609E-02  0.8025978E-01
        1   -1    0    0  501    0  0.00000000000E+00  0.00000000000E+00  0.19488965944E+04  0.19488965944E+04  0.50400001928E-02 0. -1.
       -1   -1    0    0    0  501  0.00000000000E+00  0.00000000000E+00 -0.19465459076E+04  0.19465459077E+04  0.50400001928E-02 0.  1.
    10030    2    1    2    0    0  0.00000000000E+00  0.00000000000E+00  0.23506867318E+01  0.38954425020E+04  0.38954417928E+04 0.  0.
        5    1    3    3  502    0 -0.33972030781E+02 -0.11442108471E+04 -0.15746491846E+04  0.19467703270E+04  0.46999998093E+01 0.  1.
       -5    1    3    3    0  502  0.33972030781E+02  0.11442108471E+04  0.15769998713E+04  0.19486721750E+04  0.46999998093E+01 0. -1.
</event>
<event>
 5   0  0.3724293E-08  0.3897805E+04  0.7818609E-02  0.8025486E-01
       -2   -1    0    0    0  501  0.00000000000E+00  0.00000000000E+00  0.19262403128E+04  0.19262403128E+04  0.25500000920E-02 0.  1.
        2   -1    0    0  501    0  0.00000000000E+00  0.00000000000E+00 -0.19718317706E+04  0.19718317706E+04  0.25500000920E-02 0. -1.
    10030    2    1    2    0    0  0.00000000000E+00  0.00000000000E+00 -0.45591457814E+02  0.38980720834E+04  0.38978054577E+04 0.  0.
        4    1    3    3  502    0 -0.14992664317E+03 -0.13998022621E+04  0.13249966716E+04  0.19332723977E+04  0.12699999809E+01 0.  1.
       -4    1    3    3    0  502  0.14992664317E+03  0.13998022621E+04 -0.13705881294E+04  0.19647996856E+04  0.12699999809E+01 0. -1.
</event>
<event>
 5   0  0.1164500E-08  0.3851949E+04  0.7818609E-02  0.8035098E-01
       -1   -1    0    0    0  501  0.00000000000E+00  0.00000000000E+00  0.16009095656E+04  0.16009095656E+04  0.50400001928E-02 0.  1.
        1   -1    0    0  501    0  0.00000000000E+00  0.00000000000E+00 -0.23170438240E+04  0.23170438240E+04  0.50400001928E-02 0. -1.
    10030    2    1    2    0    0  0.00000000000E+00  0.00000000000E+00 -0.71613425836E+03  0.39179533896E+04  0.38519489206E+04 0.  0.
        4    1    3    3  502    0  0.15869902343E+04 -0.58762825174E+03  0.57721691204E+03  0.17880229144E+04  0.12699999809E+01 0.  1.
       -4    1    3    3    0  502 -0.15869902343E+04  0.58762825174E+03 -0.12933511704E+04  0.21299304752E+04  0.12699999809E+01 0. -1.
</event>
<event>
 5   0  0.1164500E-08  0.3899624E+04  0.7818609E-02  0.8025107E-01
       -1   -1    0    0    0  501  0.00000000000E+00  0.00000000000E+00  0.19130777450E+04  0.19130777450E+04  0.50400001928E-02 0. -1.
        1   -1    0    0  501    0  0.00000000000E+00  0.00000000000E+00 -0.19872519632E+04  0.19872519632E+04  0.50400001928E-02 0.  1.
    10030    2    1    2    0    0  0.00000000000E+00  0.00000000000E+00 -0.74174218237E+02  0.39003297083E+04  0.38996243432E+04 0.  0.
        3    1    3    3  502    0  0.55276360013E+03 -0.11045795149E+04 -0.15460428667E+04  0.19788613034E+04  0.10100000352E+00 0.  1.
       -3    1    3    3    0  502 -0.55276360013E+03  0.11045795149E+04  0.14718686485E+04  0.19214684048E+04  0.10100000352E+00 0. -1.
</event>
<event>
 5   0  0.3769985E-08  0.3911180E+04  0.7818609E-02  0.8022708E-01
        2   -1    0    0  501    0  0.00000000000E+00  0.00000000000E+00  0.14662770546E+04  0.14662770546E+04  0.25500000920E-02 0. -1.
       -2   -1    0    0    0  501  0.00000000000E+00  0.00000000000E+00 -0.26081925898E+04  0.26081925898E+04  0.25500000920E-02 0.  1.
    10030    2    1    2    0    0  0.00000000000E+00  0.00000000000E+00 -0.11419155353E+04  0.40744696444E+04  0.39111803581E+04 0.  0.
        1    1    3    3  502    0 -0.17834529652E+04 -0.79953987355E+03 -0.63977995781E+03  0.20565230081E+04  0.50400001928E-02 0.  1.
       -1    1    3    3    0  502  0.17834529652E+04  0.79953987355E+03 -0.50213557745E+03  0.20179466362E+04  0.50400001928E-02 0. -1.
</event>
<event>
 5   0  0.1164500E-08  0.3896828E+04  0.7818609E-02  0.8025689E-01
       -1   -1    0    0    0  501  0.00000000000E+00  0.00000000000E+00  0.18734947563E+04  0.18734947563E+04  0.50400001928E-02 0.  1.
        1   -1    0    0  501    0  0.00000000000E+00  0.00000000000E+00 -0.20263293525E+04  0.20263293525E+04  0.50400001928E-02 0. -1.
    10030    2    1    2    0    0  0.00000000000E+00  0.00000000000E+00 -0.15283459620E+03  0.38998241089E+04  0.38968281546E+04 0.  0.
        5    1    3    3  502    0  0.47114305865E+03 -0.18893965099E+04 -0.92809016629E+01  0.19472809706E+04  0.46999998093E+01 0.  1.
       -5    1    3    3    0  502 -0.47114305865E+03  0.18893965099E+04 -0.14355369454E+03  0.19525431382E+04  0.46999998093E+01 0. -1.
</event>
<event>
 5   0  0.3724293E-08  0.3905602E+04  0.7818609E-02  0.8023865E-01
        2   -1    0    0  501    0  0.00000000000E+00  0.00000000000E+00  0.22923150998E+04  0.22923150998E+04  0.25500000920E-02 0. -1.
       -2   -1    0    0    0  501  0.00000000000E+00  0.00000000000E+00 -0.16635725042E+04  0.16635725042E+04  0.25500000920E-02 0.  1.
    10030    2    1    2    0    0  0.00000000000E+00  0.00000000000E+00  0.62874259555E+03  0.39558876040E+04  0.39056023203E+04 0.  0.
        4    1    3    3  502    0 -0.14614690673E+04  0.10013873410E+03  0.16223187551E+04  0.21858269275E+04  0.12699999809E+01 0. -1.
       -4    1    3    3    0  502  0.14614690673E+04 -0.10013873410E+03 -0.99357615958E+03  0.17700606765E+04  0.12699999809E+01 0.  1.
</event>
<event>
 5   0  0.3769985E-08  0.3892474E+04  0.7818609E-02  0.8026596E-01
       -2   -1    0    0    0  501  0.00000000000E+00  0.00000000000E+00  0.15908890409E+04  0.15908890409E+04  0.25500000920E-02 0.  1.
        2   -1    0    0  501    0  0.00000000000E+00  0.00000000000E+00 -0.23809573373E+04  0.23809573373E+04  0.25500000920E-02 0. -1.
    10030    2    1    2    0    0  0.00000000000E+00  0.00000000000E+00 -0.79006829636E+03  0.39718463781E+04  0.38924742438E+04 0.  0.
        1    1    3    3  502    0  0.19348250884E+04 -0.77629038801E+02 -0.19543211194E+03  0.19462189242E+04  0.50400001928E-02 0.  1.
       -1    1    3    3    0  502 -0.19348250884E+04  0.77629038801E+02 -0.59463618442E+03  0.20256274540E+04  0.50400001928E-02 0. -1.
</event>
<event>
 5   0  0.3690572E-08  0.3908973E+04  0.7818609E-02  0.8023166E-01
        2   -1    0    0  501    0  0.00000000000E+00  0.00000000000E+00  0.29492984154E+04  0.29492984154E+04  0.25500000920E-02 0.  1.
       -2   -1    0    0    0  501  0.00000000000E+00  0.00000000000E+00 -0.12952291401E+04  0.12952291401E+04  0.25500000920E-02 0. -1.
    10030    2    1    2    0    0  0.00000000000E+00  0.00000000000E+00  0.16540692753E+04  0.42445275556E+04  0.39089728833E+04 0.  0.
        3    1    3    3  502    0 -0.27113194567E+03 -0.16302679135E+03  0.29213105941E+04  0.29383917139E+04  0.10100000352E+00 0.  1.
       -3    1    3    3    0  502  0.27113194567E+03  0.16302679135E+03 -0.12672413188E+04  0.13061358417E+04  0.10100000352E+00 0. -1.
</event>
<event>
 5   0  0.3872969E-08  0.3915268E+04  0.7818609E-02  0.8021861E-01
        2   -1    0    0  501    0  0.00000000000E+00  0.00000000000E+00  0.21523085257E+04  0.21523085257E+04  0.25500000920E-02 0.  1.
       -2   -1    0    0    0  501  0.00000000000E+00  0.00000000000E+00 -0.17805674137E+04  0.17805674137E+04  0.25500000920E-02 0. -1.
    10030    2    1    2    0    0  0.00000000000E+00  0.00000000000E+00  0.37174111203E+03  0.39328759395E+04  0.39152677687E+04 0.  0.
        2    1    3    3  502    0 -0.15178667506E+04  0.12346170232E+04  0.12130271648E+03  0.19603349243E+04  0.25500000920E-02 0.  1.
       -2    1    3    3    0  502  0.15178667506E+04 -0.12346170232E+04  0.25043839555E+03  0.19725410152E+04  0.25500000920E-02 0. -1.
</event>
<event>
 5   0  0.3769985E-08  0.3903927E+04  0.7818609E-02  0.8024213E-01
        2   -1    0    0  501    0  0.00000000000E+00  0.00000000000E+00  0.20612064559E+04  0.20612064559E+04  0.25500000920E-02 0.  1.
       -2   -1    0    0    0  501  0.00000000000E+00  0.00000000000E+00 -0.18485102147E+04  0.18485102147E+04  0.25500000920E-02 0. -1.
    10030    2    1    2    0    0  0.00000000000E+00  0.00000000000E+00  0.21269624115E+03  0.39097166706E+04  0.39039268376E+04 0.  0.
        1    1    3    3  502    0 -0.43404718804E+03 -0.12495512150E+04  0.15438814076E+04  0.20330629604E+04  0.50400001928E-02 0.  1.
       -1    1    3    3    0  502  0.43404718804E+03  0.12495512150E+04 -0.13311851665E+04  0.18766537101E+04  0.50400001928E-02 0. -1.
</event>
<event>
 5   0  0.3669347E-08  0.3900767E+04  0.7818609E-02  0.8024870E-01
       -2   -1    0    0    0  501  0.00000000000E+00  0.00000000000E+00  0.16272674771E+04  0.16272674771E+04  0.25500000920E-02 0.  1.
        2   -1    0    0  501    0  0.00000000000E+00  0.00000000000E+00 -0.23376588594E+04  0.23376588594E+04  0.25500000920E-02 0. -1.
    10030    2    1    2    0    0  0.00000000000E+00  0.00000000000E+00 -0.71039138225E+03  0.39649263365E+04  0.39007672243E+04 0.  0.
        5    1    3    3  502    0 -0.12954321550E+04  0.14522710957E+04 -0.48670039576E+03  0.20060247179E+04  0.46999998093E+01 0.  1.
       -5    1    3    3    0  502  0.12954321550E+04 -0.14522710957E+04 -0.22369098649E+03  0.19589016186E+04  0.46999998093E+01 0. -1.
</event>
<event>
 5   0  0.3872969E-08  0.3899010E+04  0.7818609E-02  0.8025235E-01
       -2   -1    0    0    0  501  0.00000000000E+00  0.00000000000E+00  0.15122863861E+04  0.15122863861E+04  0.25500000920E-02 0.  1.
        2   -1    0    0  501    0  0.00000000000E+00  0.00000000000E+00 -0.25131277541E+04  0.25131277541E+04  0.25500000920E-02 0. -1.
    10030    2    1    2    0    0  0.00000000000E+00  0.00000000000E+00 -0.10008413680E+04  0.40254141403E+04  0.38990095610E+04 0.  0.
        2    1    3    3  502    0 -0.58289051188E+02 -0.22122449366E+02 -0.25120982469E+04  0.25128717871E+04  0.25500000920E-02 0. -1.
       -2    1    3    3    0  502  0.58289051188E+02  0.22122449366E+02  0.15112568789E+04  0.15125423532E+04  0.25500000920E-02 0.  1.
</event>
<event>
 5   0  0.1164500E-08  0.3899412E+04  0.7818609E-02  0.8025151E-01
       -1   -1    0    0    0  501  0.00000000000E+00  0.00000000000E+00  0.18302599847E+04  0.18302599847E+04  0.50400001928E-02 0. -1.
        1   -1    0    0  501    0  0.00000000000E+00  0.00000000000E+00 -0.20769475553E+04  0.20769475553E+04  0.50400001928E-02 0.  1.
    10030    2    1    2    0    0  0.00000000000E+00  0.00000000000E+00 -0.24668757056E+03  0.39072075401E+04  0.38994122639E+04 0.  0.
        3    1    3    3  502    0 -0.17206337611E+04  0.69266609227E+03 -0.72536693229E+03  0.19916134294E+04  0.10100000352E+00 0.  1.
       -3    1    3    3    0  502  0.17206337611E+04 -0.69266609227E+03  0.47867936173E+03  0.19155941107E+04  0.10100000352E+00 0. -1.
</event>
<event>
 5   0  0.1164500E-08  0.3912253E+04  0.7818609E-02  0.8022486E-01
        1   -1    0    0  501    0  0.00000000000E+00  0.00000000000E+00  0.20898626752E+04  0.20898626752E+04  0.50400001928E-02 0.  1.
       -1   -1    0    0    0  501  0.00000000000E+00  0.00000000000E+00 -0.18309484211E+04  0.18309484211E+04  0.50400001928E-02 0. -1.
    10030    2    1    2    0    0  0.00000000000E+00  0.00000000000E+00  0.25891425408E+03  0.39208110962E+04  0.39122529393E+04 0.  0.
        1    1    3    3  502    0  0.71199797350E+03 -0.12148750501E+04 -0.12312936931E+04  0.18705471553E+04  0.50400001928E-02 0. -1.
       -1    1    3    3    0  502 -0.71199797350E+03  0.12148750501E+04  0.14902079471E+04  0.20502639409E+04  0.50400001928E-02 0.  1.
</event>
<event>
 5   0  0.3724293E-08  0.3900409E+04  0.7818609E-02  0.8024944E-01
       -2   -1    0    0    0  501  0.00000000000E+00  0.00000000000E+00  0.15351015737E+04  0.15351015737E+04  0.25500000920E-02 0.  1.
        2   -1    0    0  501    0  0.00000000000E+00  0.00000000000E+00 -0.24775542484E+04  0.24775542484E+04  0.25500000920E-02 0. -1.
    10030    2    1    2    0    0  0.00000000000E+00  0.00000000000E+00 -0.94245267475E+03  0.40126558221E+04  0.39004089148E+04 0.  0.
        4    1    3    3  502    0  0.16960130846E+03  0.62888654751E+03  0.14198888462E+04  0.15621615928E+04  0.12699999809E+01 0.  1.
       -4    1    3    3    0  502 -0.16960130846E+03 -0.62888654751E+03 -0.23623415210E+04  0.24504942294E+04  0.12699999809E+01 0. -1.
</event>
<event>
 5   0  0.3669347E-08  0.3896379E+04  0.7818609E-02  0.8025783E-01
        2   -1    0    0  501    0  0.00000000000E+00  0.00000000000E+00  0.12962051578E+04  0.12962051578E+04  0.25500000920E-02 0. -1.
       -2   -1    0    0    0  501  0.00000000000E+00  0.00000000000E+00 -0.29281179186E+04  0.29281179186E+04  0.25500000920E-02 0.  1.
    10030    2    1    2    0    0  0.00000000000E+00  0.00000000000E+00 -0.16319127608E+04  0.42243230763E+04  0.38963786000E+04 0.  0.
        5    1    3    3  502    0  0.17700181676E+04  0.78181362997E+03 -0.10613293712E+04  0.22069524213E+04  0.46999998093E+01 0.  1.
       -5    1    3    3    0  502 -0.17700181676E+04 -0.78181362997E+03 -0.57058338958E+03  0.20173706551E+04  0.46999998093E+01 0. -1.
</event>
<event>
 5   0  0.3669347E-08  0.3899405E+04  0.7818609E-02  0.8025153E-01
       -2   -1    0    0    0  501  0.00000000000E+00  0.00000000000E+00  0.20016213954E+04  0.20016213954E+04  0.25500000920E-02 0. -1.
        2   -1    0    0  501    0  0.00000000000E+00  0.00000000000E+00 -0.18991306898E+04  0.18991306898E+04  0.25500000920E-02 0.  1.
    10030    2    1    2    0    0  0.00000000000E+00  0.00000000000E+00  0.10249070555E+03  0.39007520852E+04  0.38994054015E+04 0.  0.
        5    1    3    3  502    0  0.11296943869E+03 -0.13944821342E+04  0.14096451068E+04  0.19860674544E+04  0.46999998093E+01 0. -1.
       -5    1    3    3    0  502 -0.11296943869E+03  0.13944821342E+04 -0.13071544012E+04  0.19146846307E+04  0.46999998093E+01 0.  1.
</event>
<event>
 5   0  0.1164500E-08  0.3891312E+04  0.7818609E-02  0.8026839E-01
       -1   -1    0    0    0  501  0.00000000000E+00  0.00000000000E+00  0.15212166195E+04  0.15212166195E+04  0.50400001928E-02 0.  1.
        1   -1    0    0  501    0  0.00000000000E+00  0.00000000000E+00 -0.24885193142E+04  0.24885193142E+04  0.50400001928E-02 0. -1.
    10030    2    1    2    0    0  0.00000000000E+00  0.00000000000E+00 -0.96730269466E+03  0.40097359337E+04  0.38913118296E+04 0.  0.
        4    1    3    3  502    0 -0.17543676406E+04  0.15348417348E+03 -0.13359957595E+04  0.22104862570E+04  0.12699999809E+01 0. -1.
       -4    1    3    3    0  502  0.17543676406E+04 -0.15348417348E+03  0.36869306488E+03  0.17992496767E+04  0.12699999809E+01 0.  1.
</event>
<event>
 5   0  0.1164500E-08  0.3901105E+04  0.7818609E-02  0.8024799E-01
       -3   -1    0    0    0  501  0.00000000000E+00  0.00000000000E+00  0.17762125406E+04  0.17762125434E+04  0.10100000352E+00 0.  1.
        3   -1    0    0  501    0  0.00000000000E+00  0.00000000000E+00 -0.21420044906E+04  0.21420044930E+04  0.10100000352E+00 0. -1.
    10030    2    1    2    0    0  0.00000000000E+00  0.00000000000E+00 -0.36579195005E+03  0.39182170364E+04  0.39011050990E+04 0.  0.
        5    1    3    3  502    0  0.25070622875E+03 -0.88361819939E+03  0.15454071926E+04  0.17977597772E+04  0.46999998093E+01 0.  1.
       -5    1    3    3    0  502 -0.25070622875E+03  0.88361819939E+03 -0.19111991427E+04  0.21204572592E+04  0.46999998093E+01 0. -1.
</event>
<event>
 5   0  0.3769985E-08  0.3832649E+04  0.7818609E-02  0.8039185E-01
       -2   -1    0    0    0  501  0.00000000000E+00  0.00000000000E+00  0.15366415360E+04  0.15366415360E+04  0.25500000920E-02 0.  1.
        2   -1    0    0  501    0  0.00000000000E+00  0.00000000000E+00 -0.23898219994E+04  0.23898219994E+04  0.25500000920E-02 0. -1.
    10030    2    1    2    0    0  0.00000000000E+00  0.00000000000E+00 -0.85318046340E+03  0.39264635354E+04  0.38326490828E+04 0.  0.
        1    1    3    3  502    0  0.16607449699E+04 -0.15056598437E+03  0.54074447678E+03  0.17530398055E+04  0.50400001928E-02 0.  1.
       -1    1    3    3    0  502 -0.16607449699E+04  0.15056598437E+03 -0.13939249402E+04  0.21734237298E+04  0.50400001928E-02 0. -1.
</event>
<event>
 5   0  0.3724293E-08  0.3904401E+04  0.7818609E-02  0.8024114E-01
       -2   -1    0    0    0  501  0.00000000000E+00  0.00000000000E+00  0.15746344899E+04  0.15746344899E+04  0.25500000920E-02 0. -1.
        2   -1    0    0  501    0  0.00000000000E+00  0.00000000000E+00 -0.24202998014E+04  0.24202998014E+04  0.25500000920E-02 0.  1.
    10030    2    1    2    0    0  0.00000000000E+00  0.00000000000E+00 -0.84566531154E+03  0.39949342914E+04  0.39044013847E+04 0.  0.
        4    1    3    3  502    0 -0.47363060066E+03  0.74318726684E+03 -0.22051865327E+04  0.23747636759E+04  0.12699999809E+01 0.  1.
       -4    1    3    3    0  502  0.47363060066E+03 -0.74318726684E+03  0.13595212212E+04  0.16201706155E+04  0.12699999809E+01 0. -1.
</event>
<event>
 5   0  0.3872969E-08  0.3897722E+04  0.7818609E-02  0.8025503E-01
       -2   -1    0    0    0  501  0.00000000000E+00  0.00000000000E+00  0.21389360308E+04  0.21389360308E+04  0.25500000920E-02 0. -1.
        2   -1    0    0  501    0  0.00000000000E+00  0.00000000000E+00 -0.17756767254E+04  0.17756767254E+04  0.25500000920E-02 0.  1.
    10030    2    1    2    0    0  0.00000000000E+00  0.00000000000E+00  0.36325930534E+03  0.39146127562E+04  0.38977218613E+04 0.  0.
        2    1    3    3  502    0 -0.36654141216E+03 -0.16632165468E+04 -0.76979657104E+03  0.18690180976E+04  0.25500000920E-02 0.  1.
       -2    1    3    3    0  502  0.36654141216E+03  0.16632165468E+04  0.11330558764E+04  0.20455946586E+04  0.25500000920E-02 0. -1.
</event>
<event>
 5   0  0.3872969E-08  0.3897965E+04  0.7818609E-02  0.8025453E-01
       -2   -1    0    0    0  501  0.00000000000E+00  0.00000000000E+00  0.24915273747E+04  0.24915273747E+04  0.25500000920E-02 0.  1.
        2   -1    0    0  501    0  0.00000000000E+00  0.00000000000E+00 -0.15245796143E+04  0.15245796143E+04  0.25500000920E-02 0. -1.
    10030    2    1    2    0    0  0.00000000000E+00  0.00000000000E+00  0.96694776048E+03  0.40161069890E+04  0.38979645170E+04 0.  0.
        2    1    3    3  502    0  0.11202853703E+04  0.15337854787E+04  0.33198729353E+02  0.18996419034E+04  0.25500000920E-02 0.  1.
       -2    1    3    3    0  502 -0.11202853703E+04 -0.15337854787E+04  0.93374903113E+03  0.21164650856E+04  0.25500000920E-02 0. -1.
</event>
<event>
 5   0  0.1164500E-08  0.3925881E+04  0.7818609E-02  0.8019668E-01
       -1   -1    0    0    0  501  0.00000000000E+00  0.00000000000E+00  0.27190503921E+04  0.27190503921E+04  0.50400001928E-02 0. -1.
        1   -1    0    0  501    0  0.00000000000E+00  0.00000000000E+00 -0.14170887067E+04  0.14170887067E+04  0.50400001928E-02 0.  1.
    10030    2    1    2    0    0  0.00000000000E+00  0.00000000000E+00  0.13019616854E+04  0.41361390988E+04  0.39258811004E+04 0.  0.
        2    1    3    3  502    0  0.12162310632E+04 -0.15150539088E+03 -0.96442242479E+03  0.15595776659E+04  0.25500000920E-02 0.  1.
       -2    1    3    3    0  502 -0.12162310632E+04  0.15150539088E+03  0.22663841102E+04  0.25765614329E+04  0.25500000920E-02 0. -1.
</event>
<event>
 5   0  0.1164500E-08  0.3896644E+04  0.7818609E-02  0.8025727E-01
        1   -1    0    0  501    0  0.00000000000E+00  0.00000000000E+00  0.21784581618E+04  0.21784581618E+04  0.50400001928E-02 0.  1.
       -1   -1    0    0    0  501  0.00000000000E+00  0.00000000000E+00 -0.17424982247E+04  0.17424982247E+04  0.50400001928E-02 0. -1.
    10030    2    1    2    0    0  0.00000000000E+00  0.00000000000E+00  0.43595993707E+03  0.39209563866E+04  0.38966444434E+04 0.  0.
        3    1    3    3  502    0  0.17459144048E+04 -0.13152070278E+02 -0.65203552229E+03  0.18637436568E+04  0.10100000352E+00 0. -1.
       -3    1    3    3    0  502 -0.17459144048E+04  0.13152070278E+02  0.10879954594E+04  0.20572127298E+04  0.10100000352E+00 0.  1.
</event>
<event>
 5   0  0.3669347E-08  0.3897607E+04  0.7818609E-02  0.8025527E-01
        2   -1    0    0  501    0  0.00000000000E+00  0.00000000000E+00  0.17603178222E+04  0.17603178222E+04  0.25500000920E-02 0. -1.
       -2   -1    0    0    0  501  0.00000000000E+00  0.00000000000E+00 -0.21574717891E+04  0.21574717891E+04  0.25500000920E-02 0.  1.
    10030    2    1    2    0    0  0.00000000000E+00  0.00000000000E+00 -0.39715396691E+03  0.39177896114E+04  0.38976074925E+04 0.  0.
        5    1    3    3  502    0  0.15401993052E+04 -0.10909813447E+04 -0.68622797611E+03  0.20083289370E+04  0.46999998093E+01 0. -1.
       -5    1    3    3    0  502 -0.15401993052E+04  0.10909813447E+04  0.28907400920E+03  0.19094606743E+04  0.46999998093E+01 0.  1.
</event>
<event>
 5   0  0.3769985E-08  0.3904936E+04  0.7818609E-02  0.8024003E-01
       -2   -1    0    0    0  501  0.00000000000E+00  0.00000000000E+00  0.15750809543E+04  0.15750809543E+04  0.25500000920E-02 0. -1.
        2   -1    0    0  501    0  0.00000000000E+00  0.00000000000E+00 -0.24202763959E+04  0.24202763959E+04  0.25500000920E-02 0.  1.
    10030    2    1    2    0    0  0.00000000000E+00  0.00000000000E+00 -0.84519544154E+03  0.39953573502E+04  0.39049359817E+04 0.  0.
        1    1    3    3  502    0 -0.10630364129E+04  0.68842575051E+03 -0.19429928562E+04  0.23193097396E+04  0.50400001928E-02 0.  1.
       -1    1    3    3    0  502  0.10630364129E+04 -0.68842575051E+03  0.10977974147E+04  0.16760476105E+04  0.50400001928E-02 0. -1.
</event>
<event>
 5   0  0.1164500E-08  0.3916297E+04  0.7818609E-02  0.8021648E-01
       -1   -1    0    0    0  501  0.00000000000E+00  0.00000000000E+00  0.22070028573E+04  0.22070028573E+04  0.50400001928E-02 0.  1.
        1   -1    0    0  501    0  0.00000000000E+00  0.00000000000E+00 -0.17373537557E+04  0.17373537557E+04  0.50400001928E-02 0. -1.
    10030    2    1    2    0    0  0.00000000000E+00  0.00000000000E+00  0.46964910160E+03  0.39443566131E+04  0.39162965685E+04 0.  0.
        4    1    3    3  502    0  0.18669457151E+04 -0.60679519664E+02 -0.35690073910E+03  0.19017223924E+04  0.12699999809E+01 0.  1.
       -4    1    3    3    0  502 -0.18669457151E+04  0.60679519664E+02  0.82654984070E+03  0.20426342207E+04  0.12699999809E+01 0. -1.
</event>
<event>
 5   0  0.1164500E-08  0.3903414E+04  0.7818609E-02  0.8024320E-01
        1   -1    0    0  501    0  0.00000000000E+00  0.00000000000E+00  0.13432860478E+04  0.13432860478E+04  0.50400001928E-02 0.  1.
       -1   -1    0    0    0  501  0.00000000000E+00  0.00000000000E+00 -0.28357025935E+04  0.28357025935E+04  0.50400001928E-02 0. -1.
    10030    2    1    2    0    0  0.00000000000E+00  0.00000000000E+00 -0.14924165458E+04  0.41789886413E+04  0.39034137518E+04 0.  0.
        3    1    3    3  502    0  0.57083365156E+03  0.18304218325E+04 -0.35596879070E+03  0.19501304913E+04  0.10100000352E+00 0.  1.
       -3    1    3    3    0  502 -0.57083365156E+03 -0.18304218325E+04 -0.11364477551E+04  0.22288581500E+04  0.10100000352E+00 0. -1.
</event>
<event>
 5   0  0.3669347E-08  0.3839669E+04  0.7818609E-02  0.8037695E-01
       -2   -1    0    0    0  501  0.00000000000E+00  0.00000000000E+00  0.20830459516E+04  0.20830459516E+04  0.25500000920E-02 0. -1.
        2   -1    0    0  501    0  0.00000000000E+00  0.00000000000E+00 -0.17694107766E+04  0.17694107766E+04  0.25500000920E-02 0.  1.
    10030    2    1    2    0    0  0.00000000000E+00  0.00000000000E+00  0.31363517495E+03  0.38524567282E+04  0.38396687123E+04 0.  0.
        5    1    3    3  502    0  0.21924564125E+03 -0.13726803820E+03  0.20654757209E+04  0.20816155287E+04  0.46999998093E+01 0. -1.
       -5    1    3    3    0  502 -0.21924564125E+03  0.13726803820E+03 -0.17518405460E+04  0.17708411996E+04  0.46999998093E+01 0.  1.
</event>
<event>
 5   0  0.3669347E-08  0.3910033E+04  0.7818609E-02  0.8022946E-01
        2   -1    0    0  501    0  0.00000000000E+00  0.00000000000E+00  0.25613890797E+04  0.25613890797E+04  0.25500000920E-02 0. -1.
       -2   -1    0    0    0  501  0.00000000000E+00  0.00000000000E+00 -0.14921938459E+04  0.14921938459E+04  0.25500000920E-02 0.  1.
    10030    2    1    2    0    0  0.00000000000E+00  0.00000000000E+00  0.10691952338E+04  0.40535829255E+04  0.39100327475E+04 0.  0.
        5    1    3    3  502    0 -0.13730777542E+04  0.13256687565E+04  0.97361449676E+03  0.21425889595E+04  0.46999998093E+01 0. -1.
       -5    1    3    3    0  502  0.13730777542E+04 -0.13256687565E+04  0.95580737020E+02  0.19109939660E+04  0.46999998093E+01 0.  1.
</event>
<event>
 5   0  0.3872969E-08  0.3898715E+04  0.7818609E-02  0.8025296E-01
        2   -1    0    0  501    0  0.00000000000E+00  0.00000000000E+00  0.18043031975E+04  0.18043031975E+04  0.25500000920E-02 0. -1.
       -2   -1    0    0    0  501  0.00000000000E+00  0.00000000000E+00 -0.21060736860E+04  0.21060736860E+04  0.25500000920E-02 0.  1.
    10030    2    1    2    0    0  0.00000000000E+00  0.00000000000E+00 -0.30177048855E+03  0.39103768835E+04  0.38987154222E+04 0.  0.
        2    1    3    3  502    0  0.11480882113E+04  0.96058257163E+03  0.11015169657E+04  0.18585384159E+04  0.25500000920E-02 0.  1.
       -2    1    3    3    0  502 -0.11480882113E+04 -0.96058257163E+03 -0.14032874543E+04  0.20518384676E+04  0.25500000920E-02 0. -1.
</event>
<event>
 5   0  0.3724293E-08  0.3894433E+04  0.7818609E-02  0.8026188E-01
       -2   -1    0    0    0  501  0.00000000000E+00  0.00000000000E+00  0.27778984257E+04  0.27778984257E+04  0.25500000920E-02 0.  1.
        2   -1    0    0  501    0  0.00000000000E+00  0.00000000000E+00 -0.13649353379E+04  0.13649353379E+04  0.25500000920E-02 0. -1.
    10030    2    1    2    0    0  0.00000000000E+00  0.00000000000E+00  0.14129630878E+04  0.41428337636E+04  0.38944328092E+04 0.  0.
        4    1    3    3  502    0  0.96741526244E+03 -0.16727839302E+04  0.45128044241E+03  0.19843774887E+04  0.12699999809E+01 0.  1.
       -4    1    3    3    0  502 -0.96741526244E+03  0.16727839302E+04  0.96168264543E+03  0.21584562749E+04  0.12699999809E+01 0. -1.
</event>
<event>
 5   0  0.1164500E-08  0.3908900E+04  0.7818609E-02  0.8023181E-01
       -1   -1    0    0    0  501  0.00000000000E+00  0.00000000000E+00  0.18859466918E+04  0.18859466918E+04  0.50400001928E-02 0.  1.
        1   -1    0    0  501    0  0.00000000000E+00  0.00000000000E+00 -0.20254411802E+04  0.20254411802E+04  0.50400001928E-02 0. -1.
    10030    2    1    2    0    0  0.00000000000E+00  0.00000000000E+00 -0.13949448843E+03  0.39113878720E+04  0.39088996371E+04 0.  0.
        1    1    3    3  502    0  0.18295406301E+04 -0.40246074055E+03  0.48799479798E+03  0.19358028019E+04  0.50400001928E-02 0.  1.
       -1    1    3    3    0  502 -0.18295406301E+04  0.40246074055E+03 -0.62748928641E+03  0.19755850702E+04  0.50400001928E-02 0. -1.
</event>
<event>
 5   0  0.1164500E-08  0.3903617E+04  0.7818609E-02  0.8024277E-01
       -1   -1    0    0    0  501  0.00000000000E+00  0.00000000000E+00  0.16929184554E+04  0.16929184554E+04  0.50400001928E-02 0. -1.
        1   -1    0    0  501    0  0.00000000000E+00  0.00000000000E+00 -0.22502889056E+04  0.22502889056E+04  0.50400001928E-02 0.  1.
    10030    2    1    2    0    0  0.00000000000E+00  0.00000000000E+00 -0.55737045018E+03  0.39432073610E+04  0.39036165889E+04 0.  0.
        1    1    3    3  502    0  0.14223479417E+04 -0.41317886118E+03  0.10053341685E+04  0.17901081613E+04  0.50400001928E-02 0. -1.
       -1    1    3    3    0  502 -0.14223479417E+04  0.41317886118E+03 -0.15627046187E+04  0.21530991997E+04  0.50400001928E-02 0.  1.
</event>
<event>
 5   0  0.1164500E-08  0.3903394E+04  0.7818609E-02  0.8024324E-01
       -1   -1    0    0    0  501  0.00000000000E+00  0.00000000000E+00  0.23120835548E+04  0.23120835548E+04  0.50400001928E-02 0. -1.
        1   -1    0    0  501    0  0.00000000000E+00  0.00000000000E+00 -0.16474842783E+04  0.16474842783E+04  0.50400001928E-02 0.  1.
    10030    2    1    2    0    0  0.00000000000E+00  0.00000000000E+00  0.66459927648E+03  0.39595678331E+04  0.39033940650E+04 0.  0.
        5    1    3    3  502    0 -0.16401400826E+04  0.96827325822E+03  0.76444285521E+03  0.20523176075E+04  0.46999998093E+01 0.  1.
       -5    1    3    3    0  502  0.16401400826E+04 -0.96827325822E+03 -0.99843578722E+02  0.19072502256E+04  0.46999998093E+01 0. -1.
</event>
<event>
 5   0  0.3769985E-08  0.3903503E+04  0.7818609E-02  0.8024301E-01
       -2   -1    0    0    0  501  0.00000000000E+00  0.00000000000E+00  0.29121674230E+04  0.29121674230E+04  0.25500000920E-02 0.  1.
        2   -1    0    0  501    0  0.00000000000E+00  0.00000000000E+00 -0.13080751336E+04  0.13080751336E+04  0.25500000920E-02 0. -1.
    10030    2    1    2    0    0  0.00000000000E+00  0.00000000000E+00  0.16040922894E+04  0.42202425566E+04  0.39035029350E+04 0.  0.
        1    1    3    3  502    0  0.32304933543E+03 -0.14930815803E+04  0.21153918067E+04  0.26093171471E+04  0.50400001928E-02 0.  1.
       -1    1    3    3    0  502 -0.32304933543E+03  0.14930815803E+04 -0.51129951723E+03  0.16109254095E+04  0.50400001928E-02 0. -1.
</event>
<event>
 5   0  0.3724293E-08  0.3919918E+04  0.7818609E-02  0.8020899E-01
       -2   -1    0    0    0  501  0.00000000000E+00  0.00000000000E+00  0.20186881737E+04  0.20186881738E+04  0.25500000920E-02 0. -1.
        2   -1    0    0  501    0  0.00000000000E+00  0.00000000000E+00 -0.19029380932E+04  0.19029380932E+04  0.25500000920E-02 0.  1.
    10030    2    1    2    0    0  0.00000000000E+00  0.00000000000E+00  0.11575008052E+03  0.39216262670E+04  0.39199176645E+04 0.  0.
        4    1    3    3  502    0  0.67448379076E+03  0.11406261286E+04 -0.13868737562E+04  0.19181701639E+04  0.12699999809E+01 0.  1.
       -4    1    3    3    0  502 -0.67448379076E+03 -0.11406261286E+04  0.15026238367E+04  0.20034561030E+04  0.12699999809E+01 0. -1.
</event>
<event>
 5   0  0.1164500E-08  0.3893705E+04  0.7818609E-02  0.8026340E-01
       -1   -1    0    0    0  501  0.00000000000E+00  0.00000000000E+00  0.15914859438E+04  0.15914859438E+04  0.50400001928E-02 0. -1.
        1   -1    0    0  501    0  0.00000000000E+00  0.00000000000E+00 -0.23815702573E+04  0.23815702573E+04  0.50400001928E-02 0.  1.
    10030    2    1    2    0    0  0.00000000000E+00  0.00000000000E+00 -0.79008431355E+03  0.39730562011E+04  0.38937054787E+04 0.  0.
        4    1    3    3  502    0  0.11567687415E+04 -0.90631518689E+03  0.90797566313E+03  0.17274092037E+04  0.12699999809E+01 0. -1.
       -4    1    3    3    0  502 -0.11567687415E+04  0.90631518689E+03 -0.16980599767E+04  0.22456469974E+04  0.12699999809E+01 0.  1.
</event>
<event>
 5   0  0.1164500E-08  0.3918246E+04  0.7818609E-02  0.8021245E-01
        3   -1    0    0  501    0  0.00000000000E+00  0.00000000000E+00  0.29794050544E+04  0.29794050561E+04  0.10100000352E+00 0.  1.
       -3   -1    0    0    0  501  0.00000000000E+00  0.00000000000E+00 -0.12882311696E+04  0.12882311736E+04  0.10100000352E+00 0. -1.
    10030    2    1    2    0    0  0.00000000000E+00  0.00000000000E+00  0.16911738848E+04  0.42676362297E+04  0.39182457657E+04 0.  0.
        3    1    3    3  502    0 -0.94368803114E+03  0.13708258777E+04  0.19714178894E+04  0.25799610834E+04  0.10100000352E+00 0.  1.
       -3    1    3    3    0  502  0.94368803114E+03 -0.13708258777E+04 -0.28024400456E+03  0.16876751463E+04  0.10100000352E+00 0. -1.
</event>
<event>
 5   0  0.3769985E-08  0.3911567E+04  0.7818609E-02  0.8022628E-01
        2   -1    0    0  501    0  0.00000000000E+00  0.00000000000E+00  0.16656664321E+04  0.16656664321E+04  0.25500000920E-02 0.  1.
       -2   -1    0    0    0  501  0.00000000000E+00  0.00000000000E+00 -0.22964313951E+04  0.22964313951E+04  0.25500000920E-02 0. -1.
    10030    2    1    2    0    0  0.00000000000E+00  0.00000000000E+00 -0.63076496296E+03  0.39620978272E+04  0.39115667902E+04 0.  0.
        1    1    3    3  502    0 -0.11208304839E+04 -0.13775080377E+04 -0.11452954442E+04  0.21131708455E+04  0.50400001928E-02 0. -1.
       -1    1    3    3    0  502  0.11208304839E+04  0.13775080377E+04  0.51453048119E+03  0.18489269817E+04  0.50400001928E-02 0.  1.
</event>
<event>
 5   0  0.1164500E-08  0.3903225E+04  0.7818609E-02  0.8024359E-01
       -1   -1    0    0    0  501  0.00000000000E+00  0.00000000000E+00  0.19852470517E+04  0.19852470517E+04  0.50400001928E-02 0.  1.
        1   -1    0    0  501    0  0.00000000000E+00  0.00000000000E+00 -0.19185475779E+04  0.19185475779E+04  0.50400001928E-02 0. -1.
    10030    2    1    2    0    0  0.00000000000E+00  0.00000000000E+00  0.66699473777E+02  0.39037946295E+04  0.39032247808E+04 0.  0.
        5    1    3    3  502    0  0.18772796511E+04  0.50849648210E+03 -0.12798491594E+03  0.19491407824E+04  0.46999998093E+01 0.  1.
       -5    1    3    3    0  502 -0.18772796511E+04 -0.50849648210E+03  0.19468438971E+03  0.19546538472E+04  0.46999998093E+01 0. -1.
</event>
<event>
 5   0  0.3872969E-08  0.3908848E+04  0.7818609E-02  0.8023191E-01
       -2   -1    0    0    0  501  0.00000000000E+00  0.00000000000E+00  0.19791150294E+04  0.19791150294E+04  0.25500000920E-02 0. -1.
        2   -1    0    0  501    0  0.00000000000E+00  0.00000000000E+00 -0.19300411644E+04  0.19300411644E+04  0.25500000920E-02 0.  1.
    10030    2    1    2    0    0  0.00000000000E+00  0.00000000000E+00  0.49073864974E+02  0.39091561939E+04  0.39088481556E+04 0.  0.
        2    1    3    3  502    0  0.68462137427E+03 -0.10065504367E+04  0.15536843304E+04  0.19737743555E+04  0.25500000920E-02 0. -1.
       -2    1    3    3    0  502 -0.68462137427E+03  0.10065504367E+04 -0.15046104654E+04  0.19353818384E+04  0.25500000920E-02 0.  1.
</event>
<event>
 5   0  0.3872969E-08  0.3874317E+04  0.7818609E-02  0.8030392E-01
       -2   -1    0    0    0  501  0.00000000000E+00  0.00000000000E+00  0.24952263610E+04  0.24952263610E+04  0.25500000920E-02 0. -1.
        2   -1    0    0  501    0  0.00000000000E+00  0.00000000000E+00 -0.15039045520E+04  0.15039045520E+04  0.25500000920E-02 0.  1.
    10030    2    1    2    0    0  0.00000000000E+00  0.00000000000E+00  0.99132180902E+03  0.39991309129E+04  0.38743166016E+04 0.  0.
        2    1    3    3  502    0  0.19066961544E+04  0.79195059662E+02  0.15203968241E+03  0.19143871467E+04  0.25500000920E-02 0.  1.
       -2    1    3    3    0  502 -0.19066961544E+04 -0.79195059662E+02  0.83928212661E+03  0.20847437662E+04  0.25500000920E-02 0. -1.
</event>
<event>
 5   0  0.3724293E-08  0.3906850E+04  0.7818609E-02  0.8023606E-01
        2   -1    0    0  501    0  0.00000000000E+00  0.00000000000E+00  0.25815595121E+04  0.25815595121E+04  0.25500000920E-02 0.  1.
       -2   -1    0    0    0  501  0.00000000000E+00  0.00000000000E+00 -0.14781255093E+04  0.14781255093E+04  0.25500000920E-02 0. -1.
    10030    2    1    2    0    0  0.00000000000E+00  0.00000000000E+00  0.11034340027E+04  0.40596850214E+04  0.39068498659E+04 0.  0.
        4    1    3    3  502    0  0.48901965896E+03  0.12718113900E+04 -0.90276229290E+03  0.16345108776E+04  0.12699999809E+01 0.  1.
       -4    1    3    3    0  502 -0.48901965896E+03 -0.12718113900E+04  0.20061962956E+04  0.24251741438E+04  0.12699999809E+01 0. -1.
</event>
<event>
 5   0  0.3669347E-08  0.3919612E+04  0.7818609E-02  0.8020963E-01
        2   -1    0    0  501    0  0.00000000000E+00  0.00000000000E+00  0.28216968589E+04  0.28216968589E+04  0.25500000920E-02 0.  1.
       -2   -1    0    0    0  501  0.00000000000E+00  0.00000000000E+00 -0.13611804692E+04  0.13611804692E+04  0.25500000920E-02 0. -1.
    10030    2    1    2    0    0  0.00000000000E+00  0.00000000000E+00  0.14605163897E+04  0.41828773281E+04  0.39196115390E+04 0.  0.
        5    1    3    3  502    0  0.12350437001E+04 -0.12276142299E+04  0.16897866480E+04  0.24264728815E+04  0.46999998093E+01 0.  1.
       -5    1    3    3    0  502 -0.12350437001E+04  0.12276142299E+04 -0.22927025831E+03  0.17564044466E+04  0.46999998093E+01 0. -1.
</event>
<event>
 5   0  0.3769985E-08  0.3890157E+04  0.7818609E-02  0.8027080E-01
       -2   -1    0    0    0  501  0.00000000000E+00  0.00000000000E+00  0.25114115805E+04  0.25114115806E+04  0.25500000920E-02 0.  1.
        2   -1    0    0  501    0  0.00000000000E+00  0.00000000000E+00 -0.15064553923E+04  0.15064553923E+04  0.25500000920E-02 0. -1.
    10030    2    1    2    0    0  0.00000000000E+00  0.00000000000E+00  0.10049561883E+04  0.40178669728E+04  0.38901565612E+04 0.  0.
        1    1    3    3  502    0  0.17909700793E+04  0.72189145270E+03  0.74387839436E+03  0.20693129682E+04  0.50400001928E-02 0.  1.
       -1    1    3    3    0  502 -0.17909700793E+04 -0.72189145270E+03  0.26107779391E+03  0.19485540047E+04  0.50400001928E-02 0. -1.
</event>
<event>
 5   0  0.3669347E-08  0.3919697E+04  0.7818609E-02  0.8020945E-01
        2   -1    0    0  501    0  0.00000000000E+00  0.00000000000E+00  0.12626027163E+04  0.12626027163E+04  0.25500000920E-02 0.  1.
       -2   -1    0    0    0  501  0.00000000000E+00  0.00000000000E+00 -0.30421334441E+04  0.30421334441E+04  0.25500000920E-02 0. -1.
    10030    2    1    2    0    0  0.00000000000E+00  0.00000000000E+00 -0.17795307277E+04  0.43047361604E+04  0.39196969015E+04 0.  0.
        5    1    3    3  502    0  0.54946454874E+03 -0.10353062490E+04 -0.26147984242E+04  0.28654778325E+04  0.46999998093E+01 0. -1.
       -5    1    3    3    0  502 -0.54946454874E+03  0.10353062490E+04  0.83526769648E+03  0.14392583278E+04  0.46999998093E+01 0.  1.
</event>
<event>
 5   0  0.1164500E-08  0.3887291E+04  0.7818609E-02  0.8027678E-01
        1   -1    0    0  501    0  0.00000000000E+00  0.00000000000E+00  0.27723250854E+04  0.27723250854E+04  0.50400001928E-02 0. -1.
       -1   -1    0    0    0  501  0.00000000000E+00  0.00000000000E+00 -0.13626674556E+04  0.13626674556E+04  0.50400001928E-02 0.  1.
    10030    2    1    2    0    0  0.00000000000E+00  0.00000000000E+00  0.14096576298E+04  0.41349925410E+04  0.38872906607E+04 0.  0.
        4    1    3    3  502    0  0.18027000776E+04 -0.51219147499E+03  0.12531229340E+04  0.22544148636E+04  0.12699999809E+01 0. -1.
       -4    1    3    3    0  502 -0.18027000776E+04  0.51219147499E+03  0.15653469585E+03  0.18805776774E+04  0.12699999809E+01 0.  1.
</event>
<event>
 5   0  0.1164500E-08  0.3942467E+04  0.7818609E-02  0.8016254E-01
       -1   -1    0    0    0  501  0.00000000000E+00  0.00000000000E+00  0.20197681459E+04  0.20197681459E+04  0.50400001928E-02 0. -1.
        1   -1    0    0  501    0  0.00000000000E+00  0.00000000000E+00 -0.19238654585E+04  0.19238654585E+04  0.50400001928E-02 0.  1.
    10030    2    1    2    0    0  0.00000000000E+00  0.00000000000E+00  0.95902687416E+02  0.39436336044E+04  0.39424673341E+04 0.  0.
        5    1    3    3  502    0 -0.16564714201E+04  0.79557530567E+03  0.76153636425E+03  0.19891700170E+04  0.46999998093E+01 0. -1.
       -5    1    3    3    0  502  0.16564714201E+04 -0.79557530567E+03 -0.66563367683E+03  0.19544635874E+04  0.46999998093E+01 0.  1.
</event>
<event>
 5   0  0.3724293E-08  0.3905548E+04  0.7818609E-02  0.8023876E-01
       -2   -1    0    0    0  501  0.00000000000E+00  0.00000000000E+00  0.19193711057E+04  0.19193711058E+04  0.25500000920E-02 0.  1.
        2   -1    0    0  501    0  0.00000000000E+00  0.00000000000E+00 -0.19867579078E+04  0.19867579078E+04  0.25500000920E-02 0. -1.
    10030    2    1    2    0    0  0.00000000000E+00  0.00000000000E+00 -0.67386802029E+02  0.39061290135E+04  0.39055477067E+04 0.  0.
        4    1    3    3  502    0 -0.97787644627E+03 -0.97888028721E+03 -0.14118952922E+04  0.19768406334E+04  0.12699999809E+01 0. -1.
       -4    1    3    3    0  502  0.97787644627E+03  0.97888028721E+03  0.13445084901E+04  0.19292883802E+04  0.12699999809E+01 0.  1.
</event>
<event>
 5   0  0.3872969E-08  0.3823539E+04  0.7818609E-02  0.8041122E-01
        2   -1    0    0  501    0  0.00000000000E+00  0.00000000000E+00  0.15024111907E+04  0.15024111907E+04  0.25500000920E-02 0.  1.
       -2   -1    0    0    0  501  0.00000000000E+00  0.00000000000E+00 -0.24326651912E+04  0.24326651912E+04  0.25500000920E-02 0. -1.
    10030    2    1    2    0    0  0.00000000000E+00  0.00000000000E+00 -0.93025400051E+03  0.39350763819E+04  0.38235394108E+04 0.  0.
        2    1    3    3  502    0  0.45570941974E+03  0.18443884121E+04 -0.68447260100E+03  0.20193915993E+04  0.25500000920E-02 0. -1.
       -2    1    3    3    0  502 -0.45570941974E+03 -0.18443884121E+04 -0.24578139950E+03  0.19156847826E+04  0.25500000920E-02 0.  1.
</event>
<event>
 5   0  0.1164500E-08  0.3898867E+04  0.7818609E-02  0.8025265E-01
        1   -1    0    0  501    0  0.00000000000E+00  0.00000000000E+00  0.21719900337E+04  0.21719900337E+04  0.50400001928E-02 0.  1.
       -1   -1    0    0    0  501  0.00000000000E+00  0.00000000000E+00 -0.17496817076E+04  0.17496817076E+04  0.50400001928E-02 0. -1.
    10030    2    1    2    0    0  0.00000000000E+00  0.00000000000E+00  0.42230832608E+03  0.39216717413E+04  0.38988671335E+04 0.  0.
        5    1    3    3  502    0 -0.10263717946E+04 -0.14492020183E+04 -0.59769081238E+03  0.18737347592E+04  0.46999998093E+01 0. -1.
       -5    1    3    3    0  502  0.10263717946E+04  0.14492020183E+04  0.10199991385E+04  0.20479369822E+04  0.46999998093E+01 0.  1.
</event>
<event>
 5   0  0.1164500E-08  0.3938860E+04  0.7818609E-02  0.8016995E-01
       -1   -1    0    0    0  501  0.00000000000E+00  0.00000000000E+00  0.31547058388E+04  0.31547058388E+04  0.50400001928E-02 0. -1.
        1   -1    0    0  501    0  0.00000000000E+00  0.00000000000E+00 -0.12294820270E+04  0.12294820270E+04  0.50400001928E-02 0.  1.
    10030    2    1    2    0    0  0.00000000000E+00  0.00000000000E+00  0.19252238118E+04  0.43841878658E+04  0.39388597991E+04 0.  0.
        4    1    3    3  502    0 -0.19089439411E+04  0.47540760418E+03  0.85955217722E+03  0.21468374225E+04  0.12699999809E+01 0. -1.
       -4    1    3    3    0  502  0.19089439411E+04 -0.47540760418E+03  0.10656716346E+04  0.22373504433E+04  0.12699999809E+01 0.  1.
</event>
<event>
 5   0  0.3669347E-08  0.3896307E+04  0.7818609E-02  0.8025798E-01
        2   -1    0    0  501    0  0.00000000000E+00  0.00000000000E+00  0.23277207397E+04  0.23277207397E+04  0.25500000920E-02 0.  1.
       -2   -1    0    0    0  501  0.00000000000E+00  0.00000000000E+00 -0.16304796394E+04  0.16304796394E+04  0.25500000920E-02 0. -1.
    10030    2    1    2    0    0  0.00000000000E+00  0.00000000000E+00  0.69724110027E+03  0.39582003791E+04  0.38963065959E+04 0.  0.
        5    1    3    3  502    0  0.10966093542E+04  0.15595058472E+04 -0.58581712909E+02  0.19073710888E+04  0.46999998093E+01 0.  1.
       -5    1    3    3    0  502 -0.10966093542E+04 -0.15595058472E+04  0.75582281318E+03  0.20508292903E+04  0.46999998093E+01 0. -1.
</event>
<event>
 5   0  0.1164500E-08  0.3898315E+04  0.7818609E-02  0.8025380E-01
       -1   -1    0    0    0  501  0.00000000000E+00  0.00000000000E+00  0.16918961249E+04  0.16918961249E+04  0.50400001928E-02 0. -1.
        1   -1    0    0  501    0  0.00000000000E+00  0.00000000000E+00 -0.22455370935E+04  0.22455370935E+04  0.50400001928E-02 0.  1.
    10030    2    1    2    0    0  0.00000000000E+00  0.00000000000E+00 -0.55364096857E+03  0.39374332184E+04  0.38983152807E+04 0.  0.
        2    1    3    3  502    0 -0.46021320252E+03 -0.18217076635E+04  0.24684178089E+03  0.18950846598E+04  0.25500000920E-02 0. -1.
       -2    1    3    3    0  502  0.46021320252E+03  0.18217076635E+04 -0.80048274946E+03  0.20423485587E+04  0.25500000920E-02 0.  1.
</event>
<event>
 5   0  0.1164500E-08  0.3904658E+04  0.7818609E-02  0.8024061E-01
        1   -1    0    0  501    0  0.00000000000E+00  0.00000000000E+00  0.23406694025E+04  0.23406694025E+04  0.50400001928E-02 0. -1.
       -1   -1    0    0    0  501  0.00000000000E+00  0.00000000000E+00 -0.16284182657E+04  0.16284182657E+04  0.50400001928E-02 0.  1.
    10030    2    1    2    0    0  0.00000000000E+00  0.00000000000E+00  0.71225113678E+03  0.39690876682E+04  0.39046581458E+04 0.  0.
        3    1    3    3  502    0  0.85313702964E+03  0.51575450754E+03  0.20624373399E+04  0.22907407742E+04  0.10100000352E+00 0. -1.
       -3    1    3    3    0  502 -0.85313702964E+03 -0.51575450754E+03 -0.13501862031E+04  0.16783468940E+04  0.10100000352E+00 0.  1.
</event>
<event>
 5   0  0.1164500E-08  0.3901015E+04  0.7818609E-02  0.8024818E-01
        1   -1    0    0  501    0  0.00000000000E+00  0.00000000000E+00  0.24712671705E+04  0.24712671705E+04  0.50400001928E-02 0. -1.
       -1   -1    0    0    0  501  0.00000000000E+00  0.00000000000E+00 -0.15394853465E+04  0.15394853465E+04  0.50400001928E-02 0.  1.
    10030    2    1    2    0    0  0.00000000000E+00  0.00000000000E+00  0.93178182408E+03  0.40107525170E+04  0.39010150455E+04 0.  0.
        1    1    3    3  502    0 -0.43167000063E+03 -0.11511516618E+04 -0.10909683803E+04  0.16436852329E+04  0.50400001928E-02 0.  1.
       -1    1    3    3    0  502  0.43167000063E+03  0.11511516618E+04  0.20227502044E+04  0.23670672841E+04  0.50400001928E-02 0. -1.
</event>
<event>
 5   0  0.3769985E-08  0.3895159E+04  0.7818609E-02  0.8026037E-01
       -2   -1    0    0    0  501  0.00000000000E+00  0.00000000000E+00  0.18013627735E+04  0.18013627735E+04  0.25500000920E-02 0. -1.
        2   -1    0    0  501    0  0.00000000000E+00  0.00000000000E+00 -0.21056647885E+04  0.21056647885E+04  0.25500000920E-02 0.  1.
    10030    2    1    2    0    0  0.00000000000E+00  0.00000000000E+00 -0.30430201494E+03  0.39070275620E+04  0.38951591308E+04 0.  0.
        1    1    3    3  502    0  0.16989224581E+04  0.55301349996E+03 -0.92969339809E+03  0.20140733016E+04  0.50400001928E-02 0. -1.
       -1    1    3    3    0  502 -0.16989224581E+04 -0.55301349996E+03  0.62539138314E+03  0.18929542604E+04  0.50400001928E-02 0.  1.
</event>
<event>
 5   0  0.3690572E-08  0.3868285E+04  0.7818609E-02  0.8031658E-01
        2   -1    0    0  501    0  0.00000000000E+00  0.00000000000E+00  0.22211730943E+04  0.22211730943E+04  0.25500000920E-02 0.  1.
       -2   -1    0    0    0  501  0.00000000000E+00  0.00000000000E+00 -0.16842037227E+04  0.16842037227E+04  0.25500000920E-02 0. -1.
    10030    2    1    2    0    0  0.00000000000E+00  0.00000000000E+00  0.53696937160E+03  0.39053768171E+04  0.38682854054E+04 0.  0.
        3    1    3    3  502    0  0.15201256126E+04 -0.10854333834E+04  0.77525439106E+03  0.20223666555E+04  0.10100000352E+00 0.  1.
       -3    1    3    3    0  502 -0.15201256126E+04  0.10854333834E+04 -0.23828501946E+03  0.18830101616E+04  0.10100000352E+00 0. -1.
</event>
<event>
 5   0  0.3669347E-08  0.3867403E+04  0.7818609E-02  0.8031843E-01
       -2   -1    0    0    0  501  0.00000000000E+00  0.00000000000E+00  0.15697100897E+04  0.15697100897E+04  0.25500000920E-02 0.  1.
        2   -1    0    0  501    0  0.00000000000E+00  0.00000000000E+00 -0.23820974062E+04  0.23820974062E+04  0.25500000920E-02 0. -1.
    10030    2    1    2    0    0  0.00000000000E+00  0.00000000000E+00 -0.81238731651E+03  0.39518074960E+04  0.38674034355E+04 0.  0.
        5    1    3    3  502    0 -0.69952865895E+02  0.13344659632E+04 -0.18343692709E+04  0.22694989584E+04  0.46999998093E+01 0. -1.
       -5    1    3    3    0  502  0.69952865895E+02 -0.13344659632E+04  0.10219819544E+04  0.16823085375E+04  0.46999998093E+01 0.  1.
</event>
<event>
 5   0  0.3724293E-08  0.3862788E+04  0.7818609E-02  0.8032813E-01
       -2   -1    0    0    0  501  0.00000000000E+00  0.00000000000E+00  0.12461372681E+04  0.12461372681E+04  0.25500000920E-02 0.  1.
        2   -1    0    0  501    0  0.00000000000E+00  0.00000000000E+00 -0.29934761043E+04  0.29934761043E+04  0.25500000920E-02 0. -1.
    10030    2    1    2    0    0  0.00000000000E+00  0.00000000000E+00 -0.17473388362E+04  0.42396133724E+04  0.38627876642E+04 0.  0.
        4    1    3    3  502    0  0.13043672672E+03 -0.43935664285E+03 -0.29329289882E+04  0.29685218648E+04  0.12699999809E+01 0. -1.
       -4    1    3    3    0  502 -0.13043672672E+03  0.43935664285E+03  0.11855901520E+04  0.12710915076E+04  0.12699999809E+01 0.  1.
</event>
<event>
 5   0  0.3769985E-08  0.3923343E+04  0.7818609E-02  0.8020192E-01
        2   -1    0    0  501    0  0.00000000000E+00  0.00000000000E+00  0.17171907148E+04  0.17171907148E+04  0.25500000920E-02 0.  1.
       -2   -1    0    0    0  501  0.00000000000E+00  0.00000000000E+00 -0.22409596927E+04  0.22409596927E+04  0.25500000920E-02 0. -1.
    10030    2    1    2    0    0  0.00000000000E+00  0.00000000000E+00 -0.52376897797E+03  0.39581504075E+04  0.39233430523E+04 0.  0.
        1    1    3    3  502    0  0.87903425047E+03  0.71167565788E+03  0.13551365517E+04  0.17651001471E+04  0.50400001928E-02 0.  1.
       -1    1    3    3    0  502 -0.87903425047E+03 -0.71167565788E+03 -0.18789055296E+04  0.21930502604E+04  0.50400001928E-02 0. -1.
</event>
<event>
 5   0  0.1164500E-08  0.3914610E+04  0.7818609E-02  0.8021997E-01
       -1   -1    0    0    0  501  0.00000000000E+00  0.00000000000E+00  0.18524842382E+04  0.18524842382E+04  0.50400001928E-02 0. -1.
        1   -1    0    0  501    0  0.00000000000E+00  0.00000000000E+00 -0.20680574347E+04  0.20680574348E+04  0.50400001928E-02 0.  1.
    10030    2    1    2    0    0  0.00000000000E+00  0.00000000000E+00 -0.21557319652E+03  0.39205416730E+04  0.39146104795E+04 0.  0.
        2    1    3    3  502    0  0.13822907323E+04 -0.40500331898E+03 -0.14350448744E+04  0.20332508819E+04  0.25500000920E-02 0.  1.
       -2    1    3    3    0  502 -0.13822907323E+04  0.40500331898E+03  0.12194716779E+04  0.18872907911E+04  0.25500000920E-02 0. -1.
</event>
<event>
 5   0  0.1164500E-08  0.3898936E+04  0.7818609E-02  0.8025251E-01
        1   -1    0    0  501    0  0.00000000000E+00  0.00000000000E+00  0.20171355060E+04  0.20171355060E+04  0.50400001928E-02 0. -1.
       -1   -1    0    0    0  501  0.00000000000E+00  0.00000000000E+00 -0.18840701732E+04  0.18840701732E+04  0.50400001928E-02 0.  1.
    10030    2    1    2    0    0  0.00000000000E+00  0.00000000000E+00  0.13306533283E+03  0.39012056792E+04  0.38989356713E+04 0.  0.
        3    1    3    3  502    0 -0.12125135143E+04  0.19909358614E+01 -0.14608657801E+04  0.18985051551E+04  0.10100000352E+00 0.  1.
       -3    1    3    3    0  502  0.12125135143E+04 -0.19909358614E+01  0.15939311129E+04  0.20027005241E+04  0.10100000352E+00 0. -1.
</event>
<event>
 5   0  0.3690572E-08  0.3900218E+04  0.7818609E-02  0.8024984E-01
        2   -1    0    0  501    0  0.00000000000E+00  0.00000000000E+00  0.26868340469E+04  0.26868340469E+04  0.25500000920E-02 0. -1.
       -2   -1    0    0    0  501  0.00000000000E+00  0.00000000000E+00 -0.14153923786E+04  0.14153923786E+04  0.25500000920E-02 0.  1.
    10030    2    1    2    0    0  0.00000000000E+00  0.00000000000E+00  0.12714416683E+04  0.41022264256E+04  0.39002176517E+04 0.  0.
        3    1    3    3  502    0 -0.19700839366E+03 -0.66284824052E+03 -0.12821082970E+04  0.14567023693E+04  0.10100000352E+00 0.  1.
       -3    1    3    3    0  502  0.19700839366E+03  0.66284824052E+03  0.25535499653E+04  0.26455240563E+04  0.10100000352E+00 0. -1.
</event>
<event>
 5   0  0.3690572E-08  0.3858965E+04  0.7818609E-02  0.8033618E-01
        2   -1    0    0  501    0  0.00000000000E+00  0.00000000000E+00  0.21502305782E+04  0.21502305782E+04  0.25500000920E-02 0.  1.
       -2   -1    0    0    0  501  0.00000000000E+00  0.00000000000E+00 -0.17313974099E+04  0.17313974099E+04  0.25500000920E-02 0. -1.
    10030    2    1    2    0    0  0.00000000000E+00  0.00000000000E+00  0.41883316831E+03  0.38816279880E+04  0.38589654850E+04 0.  0.
        3    1    3    3  502    0 -0.17260097045E+04  0.41472200717E+03 -0.55119864381E+03  0.18587425315E+04  0.10100000352E+00 0. -1.
       -3    1    3    3    0  502  0.17260097045E+04 -0.41472200717E+03  0.97003181211E+03  0.20228854565E+04  0.10100000352E+00 0.  1.
</event>
<event>
 5   0  0.1164500E-08  0.3902430E+04  0.7818609E-02  0.8024524E-01
        1   -1    0    0  501    0  0.00000000000E+00  0.00000000000E+00  0.33032491590E+04  0.33032491590E+04  0.50400001928E-02 0.  1.
       -1   -1    0    0    0  501  0.00000000000E+00  0.00000000000E+00 -0.11525742507E+04  0.11525742507E+04  0.50400001928E-02 0. -1.
    10030    2    1    2    0    0  0.00000000000E+00  0.00000000000E+00  0.21506749084E+04  0.44558234097E+04  0.39024299734E+04 0.  0.
        4    1    3    3  502    0  0.34491127792E+03 -0.68530620333E+03 -0.97312672908E+03  0.12391874861E+04  0.12699999809E+01 0. -1.
       -4    1    3    3    0  502 -0.34491127792E+03  0.68530620333E+03  0.31238016374E+04  0.32166359236E+04  0.12699999809E+01 0.  1.
</event>
<event>
 5   0  0.1164500E-08  0.3912497E+04  0.7818609E-02  0.8022435E-01
        1   -1    0    0  501    0  0.00000000000E+00  0.00000000000E+00  0.13067018997E+04  0.13067018997E+04  0.50400001928E-02 0. -1.
       -1   -1    0    0    0  501  0.00000000000E+00  0.00000000000E+00 -0.29286769304E+04  0.29286769304E+04  0.50400001928E-02 0.  1.
    10030    2    1    2    0    0  0.00000000000E+00  0.00000000000E+00 -0.16219750307E+04  0.42353788302E+04  0.39124967520E+04 0.  0.
        1    1    3    3  502    0 -0.13604876987E+04 -0.13396780006E+04 -0.35012664788E+03  0.19411987516E+04  0.50400001928E-02 0. -1.
       -1    1    3    3    0  502  0.13604876987E+04  0.13396780006E+04 -0.12718483828E+04  0.22941800785E+04  0.50400001928E-02 0.  1.
</event>
<event>
 5   0  0.3669347E-08  0.3898470E+04  0.7818609E-02  0.8025347E-01
        2   -1    0    0  501    0  0.00000000000E+00  0.00000000000E+00  0.13440237563E+04  0.13440237563E+04  0.25500000920E-02 0. -1.
       -2   -1    0    0    0  501  0.00000000000E+00  0.00000000000E+00 -0.28269721699E+04  0.28269721699E+04  0.25500000920E-02 0.  1.
    10030    2    1    2    0    0  0.00000000000E+00  0.00000000000E+00 -0.14829484135E+04  0.41709959262E+04  0.38984703435E+04 0.  0.
        5    1    3    3  502    0 -0.65803656382E+03  0.14560206503E+04  0.45303493892E+03  0.16608043230E+04  0.46999998093E+01 0. -1.
       -5    1    3    3    0  502  0.65803656382E+03 -0.14560206503E+04 -0.19359833525E+04  0.25101916032E+04  0.46999998093E+01 0.  1.
</event>
<event>
 5   0  0.1164500E-08  0.3908168E+04  0.7818609E-02  0.8023333E-01
        1   -1    0    0  501    0  0.00000000000E+00  0.00000000000E+00  0.24816922651E+04  0.24816922651E+04  0.50400001928E-02 0. -1.
       -1   -1    0    0    0  501  0.00000000000E+00  0.00000000000E+00 -0.15386452111E+04  0.15386452111E+04  0.50400001928E-02 0.  1.
    10030    2    1    2    0    0  0.00000000000E+00  0.00000000000E+00  0.94304705403E+03  0.40203374762E+04  0.39081678158E+04 0.  0.
        1    1    3    3  502    0 -0.92846645780E+03 -0.60275456823E+02  0.22392026856E+04  0.24248116960E+04  0.50400001928E-02 0. -1.
       -1    1    3    3    0  502  0.92846645780E+03  0.60275456823E+02 -0.12961556315E+04  0.15955257802E+04  0.50400001928E-02 0.  1.
</event>
<event>
 5   0  0.1164500E-08  0.3899820E+04  0.7818609E-02  0.8025067E-01
        1   -1    0    0  501    0  0.00000000000E+00  0.00000000000E+00  0.17948237691E+04  0.17948237691E+04  0.50400001928E-02 0. -1.
       -1   -1    0    0    0  501  0.00000000000E+00  0.00000000000E+00 -0.21183966640E+04  0.21183966640E+04  0.50400001928E-02 0.  1.
    10030    2    1    2    0    0  0.00000000000E+00  0.00000000000E+00 -0.32357289495E+03  0.39132204331E+04  0.38998198343E+04 0.  0.
        1    1    3    3  502    0  0.53433689206E+03  0.54898249810E+03 -0.19610600523E+04  0.21053869540E+04  0.50400001928E-02 0.  1.
       -1    1    3    3    0  502 -0.53433689206E+03 -0.54898249810E+03  0.16374871574E+04  0.18078334791E+04  0.50400001928E-02 0. -1.
</event>
<event>
 5   0  0.3724293E-08  0.3900832E+04  0.7818609E-02  0.8024856E-01
        2   -1    0    0  501    0  0.00000000000E+00  0.00000000000E+00  0.15310039831E+04  0.15310039831E+04  0.25500000920E-02 0. -1.
       -2   -1    0    0    0  501  0.00000000000E+00  0.00000000000E+00 -0.24847243143E+04  0.24847243143E+04  0.25500000920E-02 0.  1.
    10030    2    1    2    0    0  0.00000000000E+00  0.00000000000E+00 -0.95372033119E+03  0.40157282974E+04  0.39008321277E+04 0.  0.
        4    1    3    3  502    0  0.34061468385E+03 -0.12806850166E+04  0.99635642343E+03  0.16579807629E+04  0.12699999809E+01 0. -1.
       -4    1    3    3    0  502 -0.34061468385E+03  0.12806850166E+04 -0.19500767546E+04  0.23577475345E+04  0.12699999809E+01 0.  1.
</event>
<event>
 5   0  0.1164500E-08  0.3900549E+04  0.7818609E-02  0.8024915E-01
        1   -1    0    0  501    0  0.00000000000E+00  0.00000000000E+00  0.25749749089E+04  0.25749749089E+04  0.50400001928E-02 0.  1.
       -1   -1    0    0    0  501  0.00000000000E+00  0.00000000000E+00 -0.14771294207E+04  0.14771294207E+04  0.50400001928E-02 0. -1.
    10030    2    1    2    0    0  0.00000000000E+00  0.00000000000E+00  0.10978454882E+04  0.40521043295E+04  0.39005492923E+04 0.  0.
        3    1    3    3  502    0  0.73250776918E+03 -0.99654783447E+03 -0.10176124048E+04  0.16016273708E+04  0.10100000352E+00 0. -1.
       -3    1    3    3    0  502 -0.73250776918E+03  0.99654783447E+03  0.21154578930E+04  0.24504769588E+04  0.10100000352E+00 0.  1.
</event>
<event>
 5   0  0.1164500E-08  0.3854197E+04  0.7818609E-02  0.8034623E-01
       -1   -1    0    0    0  501  0.00000000000E+00  0.00000000000E+00  0.22280662258E+04  0.22280662258E+04  0.50400001928E-02 0.  1.
        1   -1    0    0  501    0  0.00000000000E+00  0.00000000000E+00 -0.16667853554E+04  0.16667853554E+04  0.50400001928E-02 0. -1.
    10030    2    1    2    0    0  0.00000000000E+00  0.00000000000E+00  0.56128087035E+03  0.38948515812E+04  0.38541967547E+04 0.  0.
        3    1    3    3  502    0 -0.82838344905E+03  0.95807963845E+03  0.17483977396E+04  0.21589419627E+04  0.10100000352E+00 0.  1.
       -3    1    3    3    0  502  0.82838344905E+03 -0.95807963845E+03 -0.11871168692E+04  0.17359096185E+04  0.10100000352E+00 0. -1.
</event>
<event>
 5   0  0.1164500E-08  0.3905257E+04  0.7818609E-02  0.8023937E-01
       -1   -1    0    0    0  501  0.00000000000E+00  0.00000000000E+00  0.14303214378E+04  0.14303214378E+04  0.50400001928E-02 0.  1.
        1   -1    0    0  501    0  0.00000000000E+00  0.00000000000E+00 -0.26656655629E+04  0.26656655629E+04  0.50400001928E-02 0. -1.
    10030    2    1    2    0    0  0.00000000000E+00  0.00000000000E+00 -0.12353441251E+04  0.40959870007E+04  0.39052572774E+04 0.  0.
        3    1    3    3  502    0 -0.17763385951E+03 -0.62422578453E+03 -0.25492304360E+04  0.26305488865E+04  0.10100000352E+00 0. -1.
       -3    1    3    3    0  502  0.17763385951E+03  0.62422578453E+03  0.13138863110E+04  0.14654381142E+04  0.10100000352E+00 0.  1.
</event>
<event>
 5   0  0.1164500E-08  0.3900337E+04  0.7818609E-02  0.8024959E-01
        1   -1    0    0  501    0  0.00000000000E+00  0.00000000000E+00  0.19548027051E+04  0.19548027051E+04  0.50400001928E-02 0. -1.
       -1   -1    0    0    0  501  0.00000000000E+00  0.00000000000E+00 -0.19455451484E+04  0.19455451484E+04  0.50400001928E-02 0.  1.
    10030    2    1    2    0    0  0.00000000000E+00  0.00000000000E+00  0.92575566266E+01  0.39003478535E+04  0.39003368670E+04 0.  0.
        5    1    3    3  502    0  0.79667659404E+03 -0.14042037778E+03  0.17790980200E+04  0.19543856664E+04  0.46999998093E+01 0. -1.
       -5    1    3    3    0  502 -0.79667659404E+03  0.14042037778E+03 -0.17698404634E+04  0.19459621872E+04  0.46999998093E+01 0.  1.
</event>
<event>
 5   0  0.1164500E-08  0.3892357E+04  0.7818609E-02  0.8026621E-01
        1   -1    0    0  501    0  0.00000000000E+00  0.00000000000E+00  0.18993209300E+04  0.18993209300E+04  0.50400001928E-02 0. -1.
       -1   -1    0    0    0  501  0.00000000000E+00  0.00000000000E+00 -0.19941924407E+04  0.19941924407E+04  0.50400001928E-02 0.  1.
    10030    2    1    2    0    0  0.00000000000E+00  0.00000000000E+00 -0.94871510665E+02  0.38935133707E+04  0.38923573531E+04 0.  0.
        5    1    3    3  502    0 -0.11181927866E+04  0.15494216224E+04 -0.41704093274E+03  0.19557626905E+04  0.46999998093E+01 0.  1.
       -5    1    3    3    0  502  0.11181927866E+04 -0.15494216224E+04  0.32216942207E+03  0.19377506802E+04  0.46999998093E+01 0. -1.
</event>
<event>
 5   0  0.1164500E-08  0.3884725E+04  0.7818609E-02  0.8028214E-01
        1   -1    0    0  501    0  0.00000000000E+00  0.00000000000E+00  0.30709555909E+04  0.30709555909E+04  0.50400001928E-02 0.  1.
       -1   -1    0    0    0  501  0.00000000000E+00  0.00000000000E+00 -0.12285335866E+04  0.12285335866E+04  0.50400001928E-02 0. -1.
    10030    2    1    2    0    0  0.00000000000E+00  0.00000000000E+00  0.18424220043E+04  0.42994891775E+04  0.38847250025E+04 0.  0.
        2    1    3    3  502    0 -0.14739294254E+04  0.95019200184E+02  0.23173519526E+04  0.27480205006E+04  0.25500000920E-02 0.  1.
       -2    1    3    3    0  502  0.14739294254E+04 -0.95019200184E+02 -0.47492994834E+03  0.15514686769E+04  0.25500000920E-02 0. -1.
</event>
<event>
 5   0  0.1164500E-08  0.3891978E+04  0.7818609E-02  0.8026700E-01
        1   -1    0    0  501    0  0.00000000000E+00  0.00000000000E+00  0.17209323117E+04  0.17209323117E+04  0.50400001928E-02 0. -1.
       -1   -1    0    0    0  501  0.00000000000E+00  0.00000000000E+00 -0.22004777963E+04  0.22004777963E+04  0.50400001928E-02 0.  1.
    10030    2    1    2    0    0  0.00000000000E+00  0.00000000000E+00 -0.47954548462E+03  0.39214101080E+04  0.38919780785E+04 0.  0.
        2    1    3    3  502    0 -0.19835742443E+03  0.19127034831E+04 -0.54051455485E+03  0.19974824821E+04  0.25500000920E-02 0. -1.
       -2    1    3    3    0  502  0.19835742443E+03 -0.19127034831E+04  0.60969070230E+02  0.19239276259E+04  0.25500000920E-02 0.  1.
</event>
<event>
 5   0  0.1164500E-08  0.3930908E+04  0.7818609E-02  0.8018631E-01
        1   -1    0    0  501    0  0.00000000000E+00  0.00000000000E+00  0.16281908085E+04  0.16281908085E+04  0.50400001928E-02 0. -1.
       -1   -1    0    0    0  501  0.00000000000E+00  0.00000000000E+00 -0.23725777251E+04  0.23725777251E+04  0.50400001928E-02 0.  1.
    10030    2    1    2    0    0  0.00000000000E+00  0.00000000000E+00 -0.74438691662E+03  0.40007685337E+04  0.39309079076E+04 0.  0.
        2    1    3    3  502    0 -0.86593661301E+03 -0.83977134415E+03  0.12071407008E+04  0.17065318045E+04  0.25500000920E-02 0. -1.
       -2    1    3    3    0  502  0.86593661301E+03  0.83977134415E+03 -0.19515276174E+04  0.22942367292E+04  0.25500000920E-02 0.  1.
</event>
<event>
 5   0  0.3669347E-08  0.3897393E+04  0.7818609E-02  0.8025572E-01
        2   -1    0    0  501    0  0.00000000000E+00  0.00000000000E+00  0.28759017254E+04  0.28759017254E+04  0.25500000920E-02 0.  1.
       -2   -1    0    0    0  501  0.00000000000E+00  0.00000000000E+00 -0.13204270161E+04  0.13204270161E+04  0.25500000920E-02 0. -1.
    10030    2    1    2    0    0  0.00000000000E+00  0.00000000000E+00  0.15554747093E+04  0.41963287414E+04  0.38973931461E+04 0.  0.
        5    1    3    3  502    0  0.29776170397E+03 -0.18597818536E+04  0.23944514569E+03  0.18986328352E+04  0.46999998093E+01 0. -1.
       -5    1    3    3    0  502 -0.29776170397E+03  0.18597818536E+04  0.13160295636E+04  0.22976959062E+04  0.46999998093E+01 0.  1.
</event>
<event>
 5   0  0.1164500E-08  0.3901286E+04  0.7818609E-02  0.8024762E-01
        1   -1    0    0  501    0  0.00000000000E+00  0.00000000000E+00  0.21014844342E+04  0.21014844342E+04  0.50400001928E-02 0. -1.
       -1   -1    0    0    0  501  0.00000000000E+00  0.00000000000E+00 -0.18106286494E+04  0.18106286494E+04  0.50400001928E-02 0.  1.
    10030    2    1    2    0    0  0.00000000000E+00  0.00000000000E+00  0.29085578480E+03  0.39121130836E+04  0.39012859023E+04 0.  0.
        3    1    3    3  502    0  0.11666107197E+04 -0.69467550261E+03  0.15498336670E+04  0.20604705848E+04  0.10100000352E+00 0. -1.
       -3    1    3    3    0  502 -0.11666107197E+04  0.69467550261E+03 -0.12589778822E+04  0.18516424988E+04  0.10100000352E+00 0.  1.
</event>
<event>
 5   0  0.3669347E-08  0.3899249E+04  0.7818609E-02  0.8025185E-01
       -2   -1    0    0    0  501  0.00000000000E+00  0.00000000000E+00  0.18406078304E+04  0.18406078304E+04  0.25500000920E-02 0. -1.
        2   -1    0    0  501    0  0.00000000000E+00  0.00000000000E+00 -0.20650978350E+04  0.20650978350E+04  0.25500000920E-02 0.  1.
    10030    2    1    2    0    0  0.00000000000E+00  0.00000000000E+00 -0.22449000460E+03  0.39057056655E+04  0.38992487716E+04 0.  0.
        5    1    3    3  502    0 -0.16181455068E+04 -0.10111727924E+01 -0.12015278692E+04  0.20154620349E+04  0.46999998093E+01 0.  1.
       -5    1    3    3    0  502  0.16181455068E+04  0.10111727924E+01  0.97703786464E+03  0.18902436305E+04  0.46999998093E+01 0. -1.
</event>
<event>
 5   0  0.1164500E-08  0.3898807E+04  0.7818609E-02  0.8025277E-01
        1   -1    0    0  501    0  0.00000000000E+00  0.00000000000E+00  0.25307046874E+04  0.25307046874E+04  0.50400001928E-02 0.  1.
       -1   -1    0    0    0  501  0.00000000000E+00  0.00000000000E+00 -0.15016269956E+04  0.15016269956E+04  0.50400001928E-02 0. -1.
    10030    2    1    2    0    0  0.00000000000E+00  0.00000000000E+00  0.10290776918E+04  0.40323316830E+04  0.38988072414E+04 0.  0.
        4    1    3    3  502    0  0.53656684638E+03 -0.15483278517E+04  0.16066130047E+04  0.22948703834E+04  0.12699999809E+01 0.  1.
       -4    1    3    3    0  502 -0.53656684638E+03  0.15483278517E+04 -0.57753531292E+03  0.17374612995E+04  0.12699999809E+01 0. -1.
</event>
<event>
 5   0  0.3724293E-08  0.3902968E+04  0.7818609E-02  0.8024412E-01
        2   -1    0    0  501    0  0.00000000000E+00  0.00000000000E+00  0.19066901317E+04  0.19066901317E+04  0.25500000920E-02 0.  1.
       -2   -1    0    0    0  501  0.00000000000E+00  0.00000000000E+00 -0.19973305398E+04  0.19973305398E+04  0.25500000920E-02 0. -1.
    10030    2    1    2    0    0  0.00000000000E+00  0.00000000000E+00 -0.90640408121E+02  0.39040206715E+04  0.39029683217E+04 0.  0.
        4    1    3    3  502    0  0.73895202924E+02  0.18648087414E+04  0.52519896890E+03  0.19387644810E+04  0.12699999809E+01 0. -1.
       -4    1    3    3    0  502 -0.73895202924E+02 -0.18648087414E+04 -0.61583937702E+03  0.19652561905E+04  0.12699999809E+01 0.  1.
</event>
<event>
 5   0  0.3769985E-08  0.3894513E+04  0.7818609E-02  0.8026171E-01
        2   -1    0    0  501    0  0.00000000000E+00  0.00000000000E+00  0.25524499426E+04  0.25524499426E+04  0.25500000920E-02 0.  1.
       -2   -1    0    0    0  501  0.00000000000E+00  0.00000000000E+00 -0.14855563294E+04  0.14855563294E+04  0.25500000920E-02 0. -1.
    10030    2    1    2    0    0  0.00000000000E+00  0.00000000000E+00  0.10668936132E+04  0.40380062720E+04  0.38945131494E+04 0.  0.
        1    1    3    3  502    0  0.13449690754E+04  0.62762975070E+03  0.18404256408E+04  0.23643238901E+04  0.50400001928E-02 0.  1.
       -1    1    3    3    0  502 -0.13449690754E+04 -0.62762975070E+03 -0.77353202761E+03  0.16736823819E+04  0.50400001928E-02 0. -1.
</event>
<event>
 5   0  0.1164500E-08  0.3897975E+04  0.7818609E-02  0.8025451E-01
       -1   -1    0    0    0  501  0.00000000000E+00  0.00000000000E+00  0.16324778187E+04  0.16324778187E+04  0.50400001928E-02 0.  1.
        1   -1    0    0  501    0  0.00000000000E+00  0.00000000000E+00 -0.23268626104E+04  0.23268626104E+04  0.50400001928E-02 0. -1.
    10030    2    1    2    0    0  0.00000000000E+00  0.00000000000E+00 -0.69438479174E+03  0.39593404291E+04  0.38979746529E+04 0.  0.
        3    1    3    3  502    0  0.16188620084E+04  0.99874248274E+03  0.84170630890E+02  0.19040182390E+04  0.10100000352E+00 0. -1.
       -3    1    3    3    0  502 -0.16188620084E+04 -0.99874248274E+03 -0.77855542263E+03  0.20553221902E+04  0.10100000352E+00 0.  1.
</event>
<event>
 5   0  0.3690572E-08  0.3901094E+04  0.7818609E-02  0.8024802E-01
        2   -1    0    0  501    0  0.00000000000E+00  0.00000000000E+00  0.29545575337E+04  0.29545575337E+04  0.25500000920E-02 0.  1.
       -2   -1    0    0    0  501  0.00000000000E+00  0.00000000000E+00 -0.12877168683E+04  0.12877168683E+04  0.25500000920E-02 0. -1.
    10030    2    1    2    0    0  0.00000000000E+00  0.00000000000E+00  0.16668406654E+04  0.42422744020E+04  0.39010939873E+04 0.  0.
        3    1    3    3  502    0  0.14443151523E+02  0.19235557106E+04  0.48212205271E+03  0.19831078791E+04  0.10100000352E+00 0.  1.
       -3    1    3    3    0  502 -0.14443151523E+02 -0.19235557106E+04  0.11847186127E+04  0.22591665228E+04  0.10100000352E+00 0. -1.
</event>
<event>
 5   0  0.1164500E-08  0.3915466E+04  0.7818609E-02  0.8021820E-01
       -1   -1    0    0    0  501  0.00000000000E+00  0.00000000000E+00  0.25574812493E+04  0.25574812493E+04  0.50400001928E-02 0. -1.
        1   -1    0    0  501    0  0.00000000000E+00  0.00000000000E+00 -0.14986298114E+04  0.14986298114E+04  0.50400001928E-02 0.  1.
    10030    2    1    2    0    0  0.00000000000E+00  0.00000000000E+00  0.10588514379E+04  0.40561110608E+04  0.39154655623E+04 0.  0.
        1    1    3    3  502    0  0.31055061739E+03  0.24692181673E+03  0.25153978781E+04  0.25464953474E+04  0.50400001928E-02 0. -1.
       -1    1    3    3    0  502 -0.31055061739E+03 -0.24692181673E+03 -0.14565464402E+04  0.15096157133E+04  0.50400001928E-02 0.  1.
</event>
<event>
 5   0  0.3872969E-08  0.3892538E+04  0.7818609E-02  0.8026583E-01
       -2   -1    0    0    0  501  0.00000000000E+00  0.00000000000E+00  0.14045533950E+04  0.14045533950E+04  0.25500000920E-02 0. -1.
        2   -1    0    0  501    0  0.00000000000E+00  0.00000000000E+00 -0.26969157700E+04  0.26969157700E+04  0.25500000920E-02 0.  1.
    10030    2    1    2    0    0  0.00000000000E+00  0.00000000000E+00 -0.12923623750E+04  0.41014691650E+04  0.38925375789E+04 0.  0.
        2    1    3    3  502    0 -0.33136122425E+03  0.10805828919E+04  0.10233209161E+04  0.15246787676E+04  0.25500000920E-02 0. -1.
       -2    1    3    3    0  502  0.33136122425E+03 -0.10805828919E+04 -0.23156832911E+04  0.25767903974E+04  0.25500000920E-02 0.  1.
</event>
<event>
 5   0  0.1164500E-08  0.3934873E+04  0.7818609E-02  0.8017815E-01
       -1   -1    0    0    0  501  0.00000000000E+00  0.00000000000E+00  0.19577812784E+04  0.19577812784E+04  0.50400001928E-02 0. -1.
        1   -1    0    0  501    0  0.00000000000E+00  0.00000000000E+00 -0.19771393716E+04  0.19771393717E+04  0.50400001928E-02 0.  1.
    10030    2    1    2    0    0  0.00000000000E+00  0.00000000000E+00 -0.19358093213E+02  0.39349206501E+04  0.39348730331E+04 0.  0.
        4    1    3    3  502    0 -0.96201176499E+02 -0.10393412295E+04  0.16580701227E+04  0.19592557266E+04  0.12699999809E+01 0. -1.
       -4    1    3    3    0  502  0.96201176499E+02  0.10393412295E+04 -0.16774282159E+04  0.19756649235E+04  0.12699999809E+01 0.  1.
</event>
<event>
 5   0  0.1164500E-08  0.3886404E+04  0.7818609E-02  0.8027863E-01
        1   -1    0    0  501    0  0.00000000000E+00  0.00000000000E+00  0.27260718103E+04  0.27260718104E+04  0.50400001928E-02 0.  1.
       -1   -1    0    0    0  501  0.00000000000E+00  0.00000000000E+00 -0.13851554444E+04  0.13851554444E+04  0.50400001928E-02 0. -1.
    10030    2    1    2    0    0  0.00000000000E+00  0.00000000000E+00  0.13409163660E+04  0.41112272548E+04  0.38864035868E+04 0.  0.
        1    1    3    3  502    0  0.70209672424E+03  0.16940566609E+04 -0.95875563451E+01  0.18338101597E+04  0.50400001928E-02 0. -1.
       -1    1    3    3    0  502 -0.70209672424E+03 -0.16940566609E+04  0.13505039223E+04  0.22774170950E+04  0.50400001928E-02 0.  1.
</event>
<event>
 5   0  0.1164500E-08  0.3897149E+04  0.7818609E-02  0.8025622E-01
       -1   -1    0    0    0  501  0.00000000000E+00  0.00000000000E+00  0.27729678356E+04  0.27729678356E+04  0.50400001928E-02 0.  1.
        1   -1    0    0  501    0  0.00000000000E+00  0.00000000000E+00 -0.13692706117E+04  0.13692706117E+04  0.50400001928E-02 0. -1.
    10030    2    1    2    0    0  0.00000000000E+00  0.00000000000E+00  0.14036972239E+04  0.41422384473E+04  0.38971494015E+04 0.  0.
        2    1    3    3  502    0  0.21501490393E+03  0.76840829117E+03  0.25913599060E+04  0.27114256164E+04  0.25500000920E-02 0.  1.
       -2    1    3    3    0  502 -0.21501490393E+03 -0.76840829117E+03 -0.11876626820E+04  0.14308128309E+04  0.25500000920E-02 0. -1.
</event>
<event>
 5   0  0.3872969E-08  0.3879971E+04  0.7818609E-02  0.8029208E-01
        2   -1    0    0  501    0  0.00000000000E+00  0.00000000000E+00  0.14978827764E+04  0.14978827764E+04  0.25500000920E-02 0. -1.
       -2   -1    0    0    0  501  0.00000000000E+00  0.00000000000E+00 -0.25125750681E+04  0.25125750681E+04  0.25500000920E-02 0.  1.
    10030    2    1    2    0    0  0.00000000000E+00  0.00000000000E+00 -0.10146922917E+04  0.40104578445E+04  0.38799705766E+04 0.  0.
        2    1    3    3  502    0 -0.49465070933E+02  0.28346859826E+03  0.14757017011E+04  0.15034948454E+04  0.25500000920E-02 0. -1.
       -2    1    3    3    0  502  0.49465070933E+02 -0.28346859826E+03 -0.24903939928E+04  0.25069629991E+04  0.25500000920E-02 0.  1.
</event>
<event>
 5   0  0.3769985E-08  0.3903333E+04  0.7818609E-02  0.8024336E-01
       -2   -1    0    0    0  501  0.00000000000E+00  0.00000000000E+00  0.33805077644E+04  0.33805077644E+04  0.25500000920E-02 0.  1.
        2   -1    0    0  501    0  0.00000000000E+00  0.00000000000E+00 -0.11267541666E+04  0.11267541666E+04  0.25500000920E-02 0. -1.
    10030    2    1    2    0    0  0.00000000000E+00  0.00000000000E+00  0.22537535978E+04  0.45072619310E+04  0.39033325294E+04 0.  0.
        1    1    3    3  502    0 -0.94889175980E+03 -0.33372559111E+03  0.30581404088E+04  0.32193153157E+04  0.50400001928E-02 0.  1.
       -1    1    3    3    0  502  0.94889175980E+03  0.33372559111E+03 -0.80438681102E+03  0.12879466153E+04  0.50400001928E-02 0. -1.
</event>
<event>
 5   0  0.1164500E-08  0.3901693E+04  0.7818609E-02  0.8024677E-01
        1   -1    0    0  501    0  0.00000000000E+00  0.00000000000E+00  0.16941529519E+04  0.16941529519E+04  0.50400001928E-02 0.  1.
       -1   -1    0    0    0  501  0.00000000000E+00  0.00000000000E+00 -0.22464337252E+04  0.22464337252E+04  0.50400001928E-02 0. -1.
    10030    2    1    2    0    0  0.00000000000E+00  0.00000000000E+00 -0.55228077329E+03  0.39405866771E+04  0.39016931334E+04 0.  0.
        2    1    3    3  502    0 -0.11412257837E+03 -0.11790304294E+04  0.12893645503E+04  0.17508848220E+04  0.25500000920E-02 0.  1.
       -2    1    3    3    0  502  0.11412257837E+03  0.11790304294E+04 -0.18416453236E+04  0.21897018551E+04  0.25500000920E-02 0. -1.
</event>
<event>
 5   0  0.3769985E-08  0.3897706E+04  0.7818609E-02  0.8025506E-01
        2   -1    0    0  501    0  0.00000000000E+00  0.00000000000E+00  0.19445460881E+04  0.19445460881E+04  0.25500000920E-02 0. -1.
       -2   -1    0    0    0  501  0.00000000000E+00  0.00000000000E+00 -0.19531695282E+04  0.19531695282E+04  0.25500000920E-02 0.  1.
    10030    2    1    2    0    0  0.00000000000E+00  0.00000000000E+00 -0.86234401727E+01  0.38977156163E+04  0.38977060769E+04 0.  0.
        1    1    3    3  502    0 -0.12832409282E+04 -0.13272756407E+04  0.61991753802E+03  0.19474767419E+04  0.50400001928E-02 0. -1.
       -1    1    3    3    0  502  0.12832409282E+04  0.13272756407E+04 -0.62854097819E+03  0.19502388744E+04  0.50400001928E-02 0.  1.
</event>
<event>
 5   0  0.1164500E-08  0.3919105E+04  0.7818609E-02  0.8021068E-01
       -1   -1    0    0    0  501  0.00000000000E+00  0.00000000000E+00  0.18119027445E+04  0.18119027445E+04  0.50400001928E-02 0.  1.
        1   -1    0    0  501    0  0.00000000000E+00  0.00000000000E+00 -0.21192336081E+04  0.21192336081E+04  0.50400001928E-02 0. -1.
    10030    2    1    2    0    0  0.00000000000E+00  0.00000000000E+00 -0.30733086363E+03  0.39311363526E+04  0.39191045869E+04 0.  0.
        1    1    3    3  502    0 -0.10269416921E+03  0.16446724576E+04  0.90994435911E+03  0.18824166175E+04  0.50400001928E-02 0.  1.
       -1    1    3    3    0  502  0.10269416921E+03 -0.16446724576E+04 -0.12172752227E+04  0.20487197351E+04  0.50400001928E-02 0. -1.
</event>
<event>
 5   0  0.3669347E-08  0.3900088E+04  0.7818609E-02  0.8025011E-01
        2   -1    0    0  501    0  0.00000000000E+00  0.00000000000E+00  0.13632964035E+04  0.13632964035E+04  0.25500000920E-02 0.  1.
       -2   -1    0    0    0  501  0.00000000000E+00  0.00000000000E+00 -0.27893218996E+04  0.27893218996E+04  0.25500000920E-02 0. -1.
    10030    2    1    2    0    0  0.00000000000E+00  0.00000000000E+00 -0.14260254961E+04  0.41526183032E+04  0.39000884678E+04 0.  0.
        5    1    3    3  502    0 -0.12231124201E+04 -0.11930218943E+04  0.28770771405E+03  0.17326577998E+04  0.46999998093E+01 0.  1.
       -5    1    3    3    0  502  0.12231124201E+04  0.11930218943E+04 -0.17137332102E+04  0.24199605034E+04  0.46999998093E+01 0. -1.
</event>
<event>
 5   0  0.3724293E-08  0.3899653E+04  0.7818609E-02  0.8025101E-01
        2   -1    0    0  501    0  0.00000000000E+00  0.00000000000E+00  0.20779127390E+04  0.20779127390E+04  0.25500000920E-02 0.  1.
       -2   -1    0    0    0  501  0.00000000000E+00  0.00000000000E+00 -0.18296353414E+04  0.18296353414E+04  0.25500000920E-02 0. -1.
    10030    2    1    2    0    0  0.00000000000E+00  0.00000000000E+00  0.24827739758E+03  0.39075480804E+04  0.38996525915E+04 0.  0.
        4    1    3    3  502    0 -0.11323263926E+04 -0.14938217752E+04 -0.41374830490E+03  0.19195978298E+04  0.12699999809E+01 0. -1.
       -4    1    3    3    0  502  0.11323263926E+04  0.14938217752E+04  0.66202570247E+03  0.19879502506E+04  0.12699999809E+01 0.  1.
</event>
<event>
 5   0  0.3724293E-08  0.3888560E+04  0.7818609E-02  0.8027413E-01
        2   -1    0    0  501    0  0.00000000000E+00  0.00000000000E+00  0.21299918908E+04  0.21299918908E+04  0.25500000920E-02 0.  1.
       -2   -1    0    0    0  501  0.00000000000E+00  0.00000000000E+00 -0.17747599841E+04  0.17747599841E+04  0.25500000920E-02 0. -1.
    10030    2    1    2    0    0  0.00000000000E+00  0.00000000000E+00  0.35523190668E+03  0.39047518749E+04  0.38885598230E+04 0.  0.
        4    1    3    3  502    0 -0.17929169125E+04 -0.66898235918E+03 -0.16752196895E+03  0.19209772708E+04  0.12699999809E+01 0.  1.
       -4    1    3    3    0  502  0.17929169125E+04  0.66898235918E+03  0.52275387563E+03  0.19837746040E+04  0.12699999809E+01 0. -1.
</event>
<event>
 5   0  0.1164500E-08  0.3904928E+04  0.7818609E-02  0.8024005E-01
        1   -1    0    0  501    0  0.00000000000E+00  0.00000000000E+00  0.21611206723E+04  0.21611206723E+04  0.50400001928E-02 0. -1.
       -1   -1    0    0    0  501  0.00000000000E+00  0.00000000000E+00 -0.17639532701E+04  0.17639532701E+04  0.50400001928E-02 0.  1.
    10030    2    1    2    0    0  0.00000000000E+00  0.00000000000E+00  0.39716740227E+03  0.39250739424E+04  0.39049281054E+04 0.  0.
        2    1    3    3  502    0  0.11063631233E+04 -0.54985111987E+03  0.17182500245E+04  0.21163078134E+04  0.25500000920E-02 0. -1.
       -2    1    3    3    0  502 -0.11063631233E+04  0.54985111987E+03 -0.13210826222E+04  0.18087661290E+04  0.25500000920E-02 0.  1.
</event>
<event>
 5   0  0.1164500E-08  0.3892622E+04  0.7818609E-02  0.8026566E-01
        1   -1    0    0  501    0  0.00000000000E+00  0.00000000000E+00  0.25745811573E+04  0.25745811573E+04  0.50400001928E-02 0. -1.
       -1   -1    0    0    0  501  0.00000000000E+00  0.00000000000E+00 -0.14713561256E+04  0.14713561256E+04  0.50400001928E-02 0.  1.
    10030    2    1    2    0    0  0.00000000000E+00  0.00000000000E+00  0.11032250317E+04  0.40459372829E+04  0.38926216136E+04 0.  0.
        3    1    3    3  502    0 -0.18118885123E+04 -0.69119049540E+03  0.72379168178E+03  0.20699175565E+04  0.10100000352E+00 0. -1.
       -3    1    3    3    0  502  0.18118885123E+04  0.69119049540E+03  0.37943334995E+03  0.19760197264E+04  0.10100000352E+00 0.  1.
</event>
<event>
 5   0  0.1164500E-08  0.3899491E+04  0.7818609E-02  0.8025135E-01
       -1   -1    0    0    0  501  0.00000000000E+00  0.00000000000E+00  0.12488854102E+04  0.12488854102E+04  0.50400001928E-02 0. -1.
        1   -1    0    0  501    0  0.00000000000E+00  0.00000000000E+00 -0.30439195169E+04  0.30439195169E+04  0.50400001928E-02 0.  1.
    10030    2    1    2    0    0  0.00000000000E+00  0.00000000000E+00 -0.17950341067E+04  0.42928049271E+04  0.38994905691E+04 0.  0.
        5    1    3    3  502    0 -0.19126167543E+04  0.31744898229E+03 -0.67028047586E+03  0.20513836090E+04  0.46999998093E+01 0. -1.
       -5    1    3    3    0  502  0.19126167543E+04 -0.31744898229E+03 -0.11247536308E+04  0.22414213181E+04  0.46999998093E+01 0.  1.
</event>
<event>
 5   0  0.3724293E-08  0.3894598E+04  0.7818609E-02  0.8026154E-01
       -2   -1    0    0    0  501  0.00000000000E+00  0.00000000000E+00  0.17146548512E+04  0.17146548512E+04  0.25500000920E-02 0. -1.
        2   -1    0    0  501    0  0.00000000000E+00  0.00000000000E+00 -0.22115077181E+04  0.22115077181E+04  0.25500000920E-02 0.  1.
    10030    2    1    2    0    0  0.00000000000E+00  0.00000000000E+00 -0.49685286683E+03  0.39261625693E+04  0.38945975080E+04 0.  0.
        4    1    3    3  502    0 -0.11588391394E+04 -0.10430776928E+04 -0.14245230266E+04  0.21119154080E+04  0.12699999809E+01 0.  1.
       -4    1    3    3    0  502  0.11588391394E+04  0.10430776928E+04  0.92767015978E+03  0.18142471613E+04  0.12699999809E+01 0. -1.
</event>
<event>
 5   0  0.3669347E-08  0.3902328E+04  0.7818609E-02  0.8024545E-01
       -2   -1    0    0    0  501  0.00000000000E+00  0.00000000000E+00  0.16379464793E+04  0.16379464793E+04  0.25500000920E-02 0. -1.
        2   -1    0    0  501    0  0.00000000000E+00  0.00000000000E+00 -0.23242772804E+04  0.23242772804E+04  0.25500000920E-02 0.  1.
    10030    2    1    2    0    0  0.00000000000E+00  0.00000000000E+00 -0.68633080114E+03  0.39622237597E+04  0.39023284271E+04 0.  0.
        5    1    3    3  502    0 -0.10242475386E+04  0.79849573757E+03 -0.18216542720E+04  0.22372136331E+04  0.46999998093E+01 0.  1.
       -5    1    3    3    0  502  0.10242475386E+04 -0.79849573757E+03  0.11353234709E+04  0.17250101266E+04  0.46999998093E+01 0. -1.
</event>
<event>
 5   0  0.3769985E-08  0.3896861E+04  0.7818609E-02  0.8025682E-01
        2   -1    0    0  501    0  0.00000000000E+00  0.00000000000E+00  0.23938385608E+04  0.23938385608E+04  0.25500000920E-02 0. -1.
       -2   -1    0    0    0  501  0.00000000000E+00  0.00000000000E+00 -0.15858970606E+04  0.15858970606E+04  0.25500000920E-02 0.  1.
    10030    2    1    2    0    0  0.00000000000E+00  0.00000000000E+00  0.80794150018E+03  0.39797356214E+04  0.38968610636E+04 0.  0.
        1    1    3    3  502    0  0.89809104712E+03  0.13310854827E+04 -0.72314230720E+03  0.17610482355E+04  0.50400001928E-02 0.  1.
       -1    1    3    3    0  502 -0.89809104712E+03 -0.13310854827E+04  0.15310838074E+04  0.22186873859E+04  0.50400001928E-02 0. -1.
</event>
<event>
 5   0  0.3769985E-08  0.3901334E+04  0.7818609E-02  0.8024752E-01
       -2   -1    0    0    0  501  0.00000000000E+00  0.00000000000E+00  0.18437968264E+04  0.18437968264E+04  0.25500000920E-02 0.  1.
        2   -1    0    0  501    0  0.00000000000E+00  0.00000000000E+00 -0.20637320518E+04  0.20637320518E+04  0.25500000920E-02 0. -1.
    10030    2    1    2    0    0  0.00000000000E+00  0.00000000000E+00 -0.21993522536E+03  0.39075288782E+04  0.39013344422E+04 0.  0.
        1    1    3    3  502    0 -0.29978182782E+03 -0.11458127227E+04  0.14424438951E+04  0.18663869723E+04  0.50400001928E-02 0.  1.
       -1    1    3    3    0  502  0.29978182782E+03  0.11458127227E+04 -0.16623791205E+04  0.20411419059E+04  0.50400001928E-02 0. -1.
</event>
<event>
 5   0  0.3724293E-08  0.3898163E+04  0.7818609E-02  0.8025411E-01
       -2   -1    0    0    0  501  0.00000000000E+00  0.00000000000E+00  0.15844325790E+04  0.15844325790E+04  0.25500000920E-02 0. -1.
        2   -1    0    0  501    0  0.00000000000E+00  0.00000000000E+00 -0.23976530049E+04  0.23976530049E+04  0.25500000920E-02 0.  1.
    10030    2    1    2    0    0  0.00000000000E+00  0.00000000000E+00 -0.81322042598E+03  0.39820855839E+04  0.38981634312E+04 0.  0.
        4    1    3    3  502    0  0.95046489968E+03 -0.15405785747E+04  0.33154729386E+03  0.18402964683E+04  0.12699999809E+01 0. -1.
       -4    1    3    3    0  502 -0.95046489968E+03  0.15405785747E+04 -0.11447677198E+04  0.21417891156E+04  0.12699999809E+01 0.  1.
</event>
<event>
 5   0  0.1164500E-08  0.3901836E+04  0.7818609E-02  0.8024647E-01
        1   -1    0    0  501    0  0.00000000000E+00  0.00000000000E+00  0.14165604904E+04  0.14165604904E+04  0.50400001928E-02 0. -1.
       -1   -1    0    0    0  501  0.00000000000E+00  0.00000000000E+00 -0.26868468769E+04  0.26868468769E+04  0.50400001928E-02 0.  1.
    10030    2    1    2    0    0  0.00000000000E+00  0.00000000000E+00 -0.12702863865E+04  0.41034073673E+04  0.39018360445E+04 0.  0.
        4    1    3    3  502    0  0.66100427674E+02 -0.19366598123E+04 -0.39750739724E+03  0.19781390849E+04  0.12699999809E+01 0.  1.
       -4    1    3    3    0  502 -0.66100427674E+02  0.19366598123E+04 -0.87277898929E+03  0.21252682824E+04  0.12699999809E+01 0. -1.
</event>
<event>
 5   0  0.3724293E-08  0.3882561E+04  0.7818609E-02  0.8028666E-01
       -2   -1    0    0    0  501  0.00000000000E+00  0.00000000000E+00  0.22951135789E+04  0.22951135789E+04  0.25500000920E-02 0.  1.
        2   -1    0    0  501    0  0.00000000000E+00  0.00000000000E+00 -0.16419972202E+04  0.16419972202E+04  0.25500000920E-02 0. -1.
    10030    2    1    2    0    0  0.00000000000E+00  0.00000000000E+00  0.65311635866E+03  0.39371107991E+04  0.38825610706E+04 0.  0.
        4    1    3    3  502    0 -0.50261649947E+03 -0.91586968596E+03 -0.13326233315E+04  0.16933183941E+04  0.12699999809E+01 0. -1.
       -4    1    3    3    0  502  0.50261649947E+03  0.91586968596E+03  0.19857396901E+04  0.22437924051E+04  0.12699999809E+01 0.  1.
</event>
<event>
 5   0  0.1164500E-08  0.3897931E+04  0.7818609E-02  0.8025460E-01
       -1   -1    0    0    0  501  0.00000000000E+00  0.00000000000E+00  0.13860294801E+04  0.13860294801E+04  0.50400001928E-02 0. -1.
        1   -1    0    0  501    0  0.00000000000E+00  0.00000000000E+00 -0.27405387224E+04  0.27405387224E+04  0.50400001928E-02 0.  1.
    10030    2    1    2    0    0  0.00000000000E+00  0.00000000000E+00 -0.13545092424E+04  0.41265682025E+04  0.38979314825E+04 0.  0.
        3    1    3    3  502    0 -0.18790265480E+04 -0.48694697572E+02 -0.13191270401E+03  0.18842804763E+04  0.10100000352E+00 0. -1.
       -3    1    3    3    0  502  0.18790265480E+04  0.48694697572E+02 -0.12225965384E+04  0.22422877263E+04  0.10100000352E+00 0.  1.
</event>
<event>
 5   0  0.1164500E-08  0.3897313E+04  0.7818609E-02  0.8025588E-01
       -1   -1    0    0    0  501  0.00000000000E+00  0.00000000000E+00  0.27902053102E+04  0.27902053102E+04  0.50400001928E-02 0.  1.
        1   -1    0    0  501    0  0.00000000000E+00  0.00000000000E+00 -0.13609255903E+04  0.13609255903E+04  0.50400001928E-02 0. -1.
    10030    2    1    2    0    0  0.00000000000E+00  0.00000000000E+00  0.14292797199E+04  0.41511309006E+04  0.38973128224E+04 0.  0.
        4    1    3    3  502    0  0.10215773323E+04 -0.92304291028E+03 -0.75416591194E+03  0.15698395764E+04  0.12699999809E+01 0. -1.
       -4    1    3    3    0  502 -0.10215773323E+04  0.92304291028E+03  0.21834456319E+04  0.25812913242E+04  0.12699999809E+01 0.  1.
</event>
<event>
 5   0  0.1164500E-08  0.3929767E+04  0.7818609E-02  0.8018867E-01
        1   -1    0    0  501    0  0.00000000000E+00  0.00000000000E+00  0.20681783734E+04  0.20681783734E+04  0.50400001928E-02 0. -1.
       -1   -1    0    0    0  501  0.00000000000E+00  0.00000000000E+00 -0.18667478159E+04  0.18667478159E+04  0.50400001928E-02 0.  1.
    10030    2    1    2    0    0  0.00000000000E+00  0.00000000000E+00  0.20143055753E+03  0.39349261893E+04  0.39297671490E+04 0.  0.
        2    1    3    3  502    0  0.10989590736E+04 -0.11191559839E+04  0.12857157082E+04  0.20281237743E+04  0.25500000920E-02 0. -1.
       -2    1    3    3    0  502 -0.10989590736E+04  0.11191559839E+04 -0.10842851506E+04  0.19068024149E+04  0.25500000920E-02 0.  1.
</event>
<event>
 5   0  0.3769985E-08  0.3920063E+04  0.7818609E-02  0.8020869E-01
       -2   -1    0    0    0  501  0.00000000000E+00  0.00000000000E+00  0.26556294220E+04  0.26556294220E+04  0.25500000920E-02 0. -1.
        2   -1    0    0  501    0  0.00000000000E+00  0.00000000000E+00 -0.14466341631E+04  0.14466341631E+04  0.25500000920E-02 0.  1.
    10030    2    1    2    0    0  0.00000000000E+00  0.00000000000E+00  0.12089952589E+04  0.41022635852E+04  0.39200633906E+04 0.  0.
        1    1    3    3  502    0 -0.17033928323E+04 -0.59962168703E+02  0.16172500568E+04  0.23496042963E+04  0.50400001928E-02 0. -1.
       -1    1    3    3    0  502  0.17033928323E+04  0.59962168703E+02 -0.40825479786E+03  0.17526592889E+04  0.50400001928E-02 0.  1.
</event>
<event>
 5   0  0.1164500E-08  0.3884150E+04  0.7818609E-02  0.8028334E-01
       -1   -1    0    0    0  501  0.00000000000E+00  0.00000000000E+00  0.20155528742E+04  0.20155528743E+04  0.50400001928E-02 0.  1.
        1   -1    0    0  501    0  0.00000000000E+00  0.00000000000E+00 -0.18712753970E+04  0.18712753970E+04  0.50400001928E-02 0. -1.
    10030    2    1    2    0    0  0.00000000000E+00  0.00000000000E+00  0.14427747725E+03  0.38868282713E+04  0.38841495877E+04 0.  0.
        3    1    3    3  502    0 -0.18324356075E+03  0.47743816334E+02 -0.18620151701E+04  0.18716191328E+04  0.10100000352E+00 0. -1.
       -3    1    3    3    0  502  0.18324356075E+03 -0.47743816334E+02  0.20062926473E+04  0.20152091384E+04  0.10100000352E+00 0.  1.
</event>
<event>
 5   0  0.3690572E-08  0.3903361E+04  0.7818609E-02  0.8024331E-01
       -2   -1    0    0    0  501  0.00000000000E+00  0.00000000000E+00  0.20155812153E+04  0.20155812153E+04  0.25500000920E-02 0. -1.
        2   -1    0    0  501    0  0.00000000000E+00  0.00000000000E+00 -0.18898056324E+04  0.18898056324E+04  0.25500000920E-02 0.  1.
    10030    2    1    2    0    0  0.00000000000E+00  0.00000000000E+00  0.12577558287E+03  0.39053868477E+04  0.39033609791E+04 0.  0.
        3    1    3    3  502    0  0.30077434825E+02 -0.17683255479E+04  0.88865051832E+03  0.19792876621E+04  0.10100000352E+00 0. -1.
       -3    1    3    3    0  502 -0.30077434825E+02  0.17683255479E+04 -0.76287493546E+03  0.19260991856E+04  0.10100000352E+00 0.  1.
</event>
<event>
 5   0  0.3872969E-08  0.3903823E+04  0.7818609E-02  0.8024235E-01
        2   -1    0    0  501    0  0.00000000000E+00  0.00000000000E+00  0.29815272160E+04  0.29815272160E+04  0.25500000920E-02 0. -1.
       -2   -1    0    0    0  501  0.00000000000E+00  0.00000000000E+00 -0.12778547936E+04  0.12778547936E+04  0.25500000920E-02 0.  1.
    10030    2    1    2    0    0  0.00000000000E+00  0.00000000000E+00  0.17036724224E+04  0.42593820096E+04  0.39038231749E+04 0.  0.
        2    1    3    3  502    0 -0.14036860356E+04  0.76397261715E+03  0.20746100028E+04  0.26187774457E+04  0.25500000920E-02 0. -1.
       -2    1    3    3    0  502  0.14036860356E+04 -0.76397261715E+03 -0.37093758044E+03  0.16406045639E+04  0.25500000920E-02 0.  1.
</event>
<event>
 5   0  0.3724293E-08  0.3923848E+04  0.7818609E-02  0.8020087E-01
       -2   -1    0    0    0  501  0.00000000000E+00  0.00000000000E+00  0.12282400954E+04  0.12282400954E+04  0.25500000920E-02 0. -1.
        2   -1    0    0  501    0  0.00000000000E+00  0.00000000000E+00 -0.31338714928E+04  0.31338714928E+04  0.25500000920E-02 0.  1.
    10030    2    1    2    0    0  0.00000000000E+00  0.00000000000E+00 -0.19056313974E+04  0.43621115882E+04  0.39238484279E+04 0.  0.
        4    1    3    3  502    0  0.38886677617E+03  0.15827116082E+03 -0.30833463787E+04  0.31117990992E+04  0.12699999809E+01 0.  1.
       -4    1    3    3    0  502 -0.38886677617E+03 -0.15827116082E+03  0.11777149813E+04  0.12503124890E+04  0.12699999809E+01 0. -1.
</event>
<event>
 5   0  0.1164500E-08  0.3916601E+04  0.7818609E-02  0.8021585E-01
       -1   -1    0    0    0  501  0.00000000000E+00  0.00000000000E+00  0.14322061663E+04  0.14322061663E+04  0.50400001928E-02 0. -1.
        1   -1    0    0  501    0  0.00000000000E+00  0.00000000000E+00 -0.26776458484E+04  0.26776458484E+04  0.50400001928E-02 0.  1.
    10030    2    1    2    0    0  0.00000000000E+00  0.00000000000E+00 -0.12454396821E+04  0.41098520148E+04  0.39166010240E+04 0.  0.
        4    1    3    3  502    0  0.13913499968E+04  0.13740856559E+04 -0.51279873016E+03  0.20216157780E+04  0.12699999809E+01 0. -1.
       -4    1    3    3    0  502 -0.13913499968E+04 -0.13740856559E+04 -0.73264095193E+03  0.20882362368E+04  0.12699999809E+01 0.  1.
</event>
<event>
 5   0  0.1164500E-08  0.3889546E+04  0.7818609E-02  0.8027207E-01
        1   -1    0    0  501    0  0.00000000000E+00  0.00000000000E+00  0.17237389248E+04  0.17237389248E+04  0.50400001928E-02 0.  1.
       -1   -1    0    0    0  501  0.00000000000E+00  0.00000000000E+00 -0.21941503246E+04  0.21941503246E+04  0.50400001928E-02 0. -1.
    10030    2    1    2    0    0  0.00000000000E+00  0.00000000000E+00 -0.47041139986E+03  0.39178892494E+04  0.38895461542E+04 0.  0.
        1    1    3    3  502    0  0.62124632174E+03 -0.18173919823E+04 -0.54285184649E+03  0.19958829466E+04  0.50400001928E-02 0.  1.
       -1    1    3    3    0  502 -0.62124632174E+03  0.18173919823E+04  0.72440446629E+02  0.19220063027E+04  0.50400001928E-02 0. -1.
</event>
<event>
 5   0  0.3724293E-08  0.3900971E+04  0.7818609E-02  0.8024827E-01
       -2   -1    0    0    0  501  0.00000000000E+00  0.00000000000E+00  0.19384948465E+04  0.19384948465E+04  0.25500000920E-02 0.  1.
        2   -1    0    0  501    0  0.00000000000E+00  0.00000000000E+00 -0.19625508131E+04  0.19625508131E+04  0.25500000920E-02 0. -1.
    10030    2    1    2    0    0  0.00000000000E+00  0.00000000000E+00 -0.24055966547E+02  0.39010456596E+04  0.39009714878E+04 0.  0.
        4    1    3    3  502    0 -0.11774095893E+04  0.11842034077E+04 -0.10198973198E+04  0.19567378996E+04  0.12699999809E+01 0. -1.
       -4    1    3    3    0  502  0.11774095893E+04 -0.11842034077E+04  0.99584135325E+03  0.19443077600E+04  0.12699999809E+01 0.  1.
</event>
<event>
 5   0  0.3669347E-08  0.3917774E+04  0.7818609E-02  0.8021343E-01
       -2   -1    0    0    0  501  0.00000000000E+00  0.00000000000E+00  0.14440042253E+04  0.14440042253E+04  0.25500000920E-02 0.  1.
        2   -1    0    0  501    0  0.00000000000E+00  0.00000000000E+00 -0.26573599688E+04  0.26573599688E+04  0.25500000920E-02 0. -1.
    10030    2    1    2    0    0  0.00000000000E+00  0.00000000000E+00 -0.12133557435E+04  0.41013641942E+04  0.39177743800E+04 0.  0.
        5    1    3    3  502    0 -0.10122140891E+04 -0.16862018547E+03  0.11401079531E+04  0.15339095032E+04  0.46999998093E+01 0.  1.
       -5    1    3    3    0  502  0.10122140891E+04  0.16862018547E+03 -0.23534636966E+04  0.25674546910E+04  0.46999998093E+01 0. -1.
</event>
<event>
 5   0  0.1164500E-08  0.3882589E+04  0.7818609E-02  0.8028660E-01
        1   -1    0    0  501    0  0.00000000000E+00  0.00000000000E+00  0.18157992458E+04  0.18157992458E+04  0.50400001928E-02 0. -1.
       -1   -1    0    0    0  501  0.00000000000E+00  0.00000000000E+00 -0.20754629051E+04  0.20754629051E+04  0.50400001928E-02 0.  1.
    10030    2    1    2    0    0  0.00000000000E+00  0.00000000000E+00 -0.25966365932E+03  0.38912621509E+04  0.38825888156E+04 0.  0.
        2    1    3    3  502    0  0.12108286424E+03  0.15214361270E+04 -0.13321763151E+04  0.20258634414E+04  0.25500000920E-02 0.  1.
       -2    1    3    3    0  502 -0.12108286424E+03 -0.15214361270E+04  0.10725126558E+04  0.18653987095E+04  0.25500000920E-02 0. -1.
</event>
<event>
 5   0  0.1164500E-08  0.3900768E+04  0.7818609E-02  0.8024870E-01
       -1   -1    0    0    0  501  0.00000000000E+00  0.00000000000E+00  0.18636011352E+04  0.18636011352E+04  0.50400001928E-02 0. -1.
        1   -1    0    0  501    0  0.00000000000E+00  0.00000000000E+00 -0.20412080294E+04  0.20412080294E+04  0.50400001928E-02 0.  1.
    10030    2    1    2    0    0  0.00000000000E+00  0.00000000000E+00 -0.17760689420E+03  0.39048091646E+04  0.39007679248E+04 0.  0.
        3    1    3    3  502    0 -0.18983044212E+04 -0.42884503098E+03  0.39898232277E+02  0.19465506968E+04  0.10100000352E+00 0.  1.
       -3    1    3    3    0  502  0.18983044212E+04  0.42884503098E+03 -0.21750512648E+03  0.19582584677E+04  0.10100000352E+00 0. -1.
</event>
<event>
 5   0  0.3872969E-08  0.3906045E+04  0.7818609E-02  0.8023773E-01
        2   -1    0    0  501    0  0.00000000000E+00  0.00000000000E+00  0.23748592481E+04  0.23748592481E+04  0.25500000920E-02 0.  1.
       -2   -1    0    0    0  501  0.00000000000E+00  0.00000000000E+00 -0.16061147386E+04  0.16061147386E+04  0.25500000920E-02 0. -1.
    10030    2    1    2    0    0  0.00000000000E+00  0.00000000000E+00  0.76874450956E+03  0.39809739867E+04  0.39060447721E+04 0.  0.
        2    1    3    3  502    0  0.14029640236E+04 -0.67643089310E+03  0.15852922069E+04  0.22223901966E+04  0.25500000920E-02 0.  1.
       -2    1    3    3    0  502 -0.14029640236E+04  0.67643089310E+03 -0.81654769729E+03  0.17585837901E+04  0.25500000920E-02 0. -1.
</event>
<event>
 5   0  0.3724293E-08  0.3904235E+04  0.7818609E-02  0.8024149E-01
        2   -1    0    0  501    0  0.00000000000E+00  0.00000000000E+00  0.28968229207E+04  0.28968229207E+04  0.25500000920E-02 0. -1.
       -2   -1    0    0    0  501  0.00000000000E+00  0.00000000000E+00 -0.13154975355E+04  0.13154975355E+04  0.25500000920E-02 0.  1.
    10030    2    1    2    0    0  0.00000000000E+00  0.00000000000E+00  0.15813253852E+04  0.42123204562E+04  0.39042353479E+04 0.  0.
        4    1    3    3  502    0 -0.40890993348E+03  0.80236267156E+03  0.26593184020E+04  0.28076625806E+04  0.12699999809E+01 0. -1.
       -4    1    3    3    0  502  0.40890993348E+03 -0.80236267156E+03 -0.10779930167E+04  0.14046578756E+04  0.12699999809E+01 0.  1.
</event>
<event>
 5   0  0.1164500E-08  0.3902597E+04  0.7818609E-02  0.8024489E-01
        1   -1    0    0  501    0  0.00000000000E+00  0.00000000000E+00  0.18604118311E+04  0.18604118311E+04  0.50400001928E-02 0.  1.
       -1   -1    0    0    0  501  0.00000000000E+00  0.00000000000E+00 -0.20466250252E+04  0.20466250252E+04  0.50400001928E-02 0. -1.
    10030    2    1    2    0    0  0.00000000000E+00  0.00000000000E+00 -0.18621319409E+03  0.39070368563E+04  0.39025967820E+04 0.  0.
        1    1    3    3  502    0  0.58393092060E+03 -0.12972175021E+04 -0.14302221983E+04  0.20172466642E+04  0.50400001928E-02 0. -1.
       -1    1    3    3    0  502 -0.58393092060E+03  0.12972175021E+04  0.12440090042E+04  0.18897901921E+04  0.50400001928E-02 0.  1.
</event>
<event>
 5   0  0.1164500E-08  0.3905240E+04  0.7818609E-02  0.8023940E-01
        1   -1    0    0  501    0  0.00000000000E+00  0.00000000000E+00  0.20736926460E+04  0.20736926460E+04  0.50400001928E-02 0. -1.
       -1   -1    0    0    0  501  0.00000000000E+00  0.00000000000E+00 -0.18386157524E+04  0.18386157525E+04  0.50400001928E-02 0.  1.
    10030    2    1    2    0    0  0.00000000000E+00  0.00000000000E+00  0.23507689354E+03  0.39123083984E+04  0.39052395392E+04 0.  0.
        1    1    3    3  502    0  0.16049411319E+03 -0.38825908690E+03 -0.17928008470E+04  0.18413686095E+04  0.50400001928E-02 0.  1.
       -1    1    3    3    0  502 -0.16049411319E+03  0.38825908690E+03  0.20278777405E+04  0.20709397890E+04  0.50400001928E-02 0. -1.
</event>
<event>
 5   0  0.3690572E-08  0.3903203E+04  0.7818609E-02  0.8024363E-01
       -2   -1    0    0    0  501  0.00000000000E+00  0.00000000000E+00  0.16349161001E+04  0.16349161001E+04  0.25500000920E-02 0. -1.
        2   -1    0    0  501    0  0.00000000000E+00  0.00000000000E+00 -0.23296293964E+04  0.23296293964E+04  0.25500000920E-02 0.  1.
    10030    2    1    2    0    0  0.00000000000E+00  0.00000000000E+00 -0.69471329626E+03  0.39645454965E+04  0.39032030987E+04 0.  0.
        3    1    3    3  502    0 -0.62305404517E+03  0.29110165913E+03  0.15077677818E+04  0.16571964920E+04  0.10100000352E+00 0. -1.
       -3    1    3    3    0  502  0.62305404517E+03 -0.29110165913E+03 -0.22024810780E+04  0.23073490045E+04  0.10100000352E+00 0.  1.
</event>
<event>
 5   0  0.1164500E-08  0.3902191E+04  0.7818609E-02  0.8024574E-01
        1   -1    0    0  501    0  0.00000000000E+00  0.00000000000E+00  0.17106611518E+04  0.17106611518E+04  0.50400001928E-02 0. -1.
       -1   -1    0    0    0  501  0.00000000000E+00  0.00000000000E+00 -0.22253227517E+04  0.22253227517E+04  0.50400001928E-02 0.  1.
    10030    2    1    2    0    0  0.00000000000E+00  0.00000000000E+00 -0.51466159995E+03  0.39359839035E+04  0.39021907599E+04 0.  0.
        1    1    3    3  502    0  0.13873828514E+04  0.57420005669E+03 -0.15140079986E+04  0.21323126181E+04  0.50400001928E-02 0.  1.
       -1    1    3    3    0  502 -0.13873828514E+04 -0.57420005669E+03  0.99934639860E+03  0.18036712854E+04  0.50400001928E-02 0. -1.
</event>
<event>
 5   0  0.1164500E-08  0.3910757E+04  0.7818609E-02  0.8022796E-01
       -1   -1    0    0    0  501  0.00000000000E+00  0.00000000000E+00  0.29555103012E+04  0.29555103012E+04  0.50400001928E-02 0. -1.
        1   -1    0    0  501    0  0.00000000000E+00  0.00000000000E+00 -0.12936866146E+04  0.12936866146E+04  0.50400001928E-02 0.  1.
    10030    2    1    2    0    0  0.00000000000E+00  0.00000000000E+00  0.16618236866E+04  0.42491969158E+04  0.39107565079E+04 0.  0.
        3    1    3    3  502    0  0.63041265382E+03  0.56170150018E+02 -0.11793147796E+04  0.13384164373E+04  0.10100000352E+00 0.  1.
       -3    1    3    3    0  502 -0.63041265382E+03 -0.56170150018E+02  0.28411384663E+04  0.29107804786E+04  0.10100000352E+00 0. -1.
</event>
<event>
 5   0  0.1164500E-08  0.3905006E+04  0.7818609E-02  0.8023989E-01
       -1   -1    0    0    0  501  0.00000000000E+00  0.00000000000E+00  0.17199294868E+04  0.17199294868E+04  0.50400001928E-02 0.  1.
        1   -1    0    0  501    0  0.00000000000E+00  0.00000000000E+00 -0.22165256814E+04  0.22165256814E+04  0.50400001928E-02 0. -1.
    10030    2    1    2    0    0  0.00000000000E+00  0.00000000000E+00 -0.49659619460E+03  0.39364551683E+04  0.39050059553E+04 0.  0.
        1    1    3    3  502    0 -0.12802033886E+03  0.11076270957E+04 -0.18640293195E+04  0.21720571572E+04  0.50400001928E-02 0. -1.
       -1    1    3    3    0  502  0.12802033886E+03 -0.11076270957E+04  0.13674331249E+04  0.17643980110E+04  0.50400001928E-02 0.  1.
</event>
<event>
 5   0  0.1164500E-08  0.3907434E+04  0.7818609E-02  0.8023485E-01
        1   -1    0    0  501    0  0.00000000000E+00  0.00000000000E+00  0.12556525533E+04  0.12556525533E+04  0.50400001928E-02 0. -1.
       -1   -1    0    0    0  501  0.00000000000E+00  0.00000000000E+00 -0.30398622118E+04  0.30398622118E+04  0.50400001928E-02 0.  1.
    10030    2    1    2    0    0  0.00000000000E+00  0.00000000000E+00 -0.17842096585E+04  0.42955147651E+04  0.39074343234E+04 0.  0.
        3    1    3    3  502    0 -0.13441779274E+04 -0.14114390175E+04 -0.74446698277E+03  0.20864336796E+04  0.10100000352E+00 0.  1.
       -3    1    3    3    0  502  0.13441779274E+04  0.14114390175E+04 -0.10397426757E+04  0.22090810855E+04  0.10100000352E+00 0. -1.
</event>
<event>
 5   0  0.3669347E-08  0.3895384E+04  0.7818609E-02  0.8025990E-01
        2   -1    0    0  501    0  0.00000000000E+00  0.00000000000E+00  0.23715118803E+04  0.23715118803E+04  0.25500000920E-02 0.  1.
       -2   -1    0    0    0  501  0.00000000000E+00  0.00000000000E+00 -0.15996140944E+04  0.15996140944E+04  0.25500000920E-02 0. -1.
    10030    2    1    2    0    0  0.00000000000E+00  0.00000000000E+00  0.77189778593E+03  0.39711259748E+04  0.38953838470E+04 0.  0.
        5    1    3    3  502    0 -0.13995759784E+04 -0.44008408336E+03 -0.91997242135E+03  0.17317211860E+04  0.46999998093E+01 0. -1.
       -5    1    3    3    0  502  0.13995759784E+04  0.44008408336E+03  0.16918702073E+04  0.22394047888E+04  0.46999998093E+01 0.  1.
</event>
<event>
 5   0  0.1164500E-08  0.3895926E+04  0.7818609E-02  0.8025877E-01
        1   -1    0    0  501    0  0.00000000000E+00  0.00000000000E+00  0.21250661284E+04  0.21250661284E+04  0.50400001928E-02 0.  1.
       -1   -1    0    0    0  501  0.00000000000E+00  0.00000000000E+00 -0.17856192720E+04  0.17856192721E+04  0.50400001928E-02 0. -1.
    10030    2    1    2    0    0  0.00000000000E+00  0.00000000000E+00  0.33944685638E+03  0.39106854005E+04  0.38959255811E+04 0.  0.
        4    1    3    3  502    0 -0.16631935699E+04  0.85548704382E+03  0.71629203030E+03  0.20027847660E+04  0.12699999809E+01 0.  1.
       -4    1    3    3    0  502  0.16631935699E+04 -0.85548704382E+03 -0.37684517392E+03  0.19079006345E+04  0.12699999809E+01 0. -1.
</event>
<event>
 5   0  0.1164500E-08  0.3920959E+04  0.7818609E-02  0.8020684E-01
        1   -1    0    0  501    0  0.00000000000E+00  0.00000000000E+00  0.28262455372E+04  0.28262455372E+04  0.50400001928E-02 0. -1.
       -1   -1    0    0    0  501  0.00000000000E+00  0.00000000000E+00 -0.13599242339E+04  0.13599242339E+04  0.50400001928E-02 0.  1.
    10030    2    1    2    0    0  0.00000000000E+00  0.00000000000E+00  0.14663213033E+04  0.41861697710E+04  0.39209589627E+04 0.  0.
        1    1    3    3  502    0  0.14358711961E+04 -0.13102782881E+04  0.10051982233E+04  0.21883735404E+04  0.50400001928E-02 0. -1.
       -1    1    3    3    0  502 -0.14358711961E+04  0.13102782881E+04  0.46112308001E+03  0.19977962306E+04  0.50400001928E-02 0.  1.
</event>
<event>
 5   0  0.1164500E-08  0.3892789E+04  0.7818609E-02  0.8026531E-01
       -1   -1    0    0    0  501  0.00000000000E+00  0.00000000000E+00  0.16413703450E+04  0.16413703450E+04  0.50400001928E-02 0. -1.
        1   -1    0    0  501    0  0.00000000000E+00  0.00000000000E+00 -0.23081031920E+04  0.23081031920E+04  0.50400001928E-02 0.  1.
    10030    2    1    2    0    0  0.00000000000E+00  0.00000000000E+00 -0.66673284701E+03  0.39494735371E+04  0.38927892996E+04 0.  0.
        3    1    3    3  502    0 -0.13134430715E+04  0.12882932797E+04 -0.97792822816E+03  0.20835488730E+04  0.10100000352E+00 0.  1.
       -3    1    3    3    0  502  0.13134430715E+04 -0.12882932797E+04  0.31119538115E+03  0.18659246641E+04  0.10100000352E+00 0. -1.
</event>
<event>
 5   0  0.3669347E-08  0.3895798E+04  0.7818609E-02  0.8025904E-01
       -2   -1    0    0    0  501  0.00000000000E+00  0.00000000000E+00  0.17527114538E+04  0.17527114538E+04  0.25500000920E-02 0. -1.
        2   -1    0    0  501    0  0.00000000000E+00  0.00000000000E+00 -0.21648235020E+04  0.21648235020E+04  0.25500000920E-02 0.  1.
    10030    2    1    2    0    0  0.00000000000E+00  0.00000000000E+00 -0.41211204826E+03  0.39175349558E+04  0.38957982224E+04 0.  0.
        5    1    3    3  502    0  0.43360338494E+03 -0.18973350677E+04 -0.28648103422E+03  0.19672279297E+04  0.46999998093E+01 0. -1.
       -5    1    3    3    0  502 -0.43360338494E+03  0.18973350677E+04 -0.12563101404E+03  0.19503070261E+04  0.46999998093E+01 0.  1.
</event>
<event>
 5   0  0.3724293E-08  0.3897340E+04  0.7818609E-02  0.8025583E-01
        2   -1    0    0  501    0  0.00000000000E+00  0.00000000000E+00  0.17134923103E+04  0.17134923103E+04  0.25500000920E-02 0. -1.
       -2   -1    0    0    0  501  0.00000000000E+00  0.00000000000E+00 -0.22161256799E+04  0.22161256799E+04  0.25500000920E-02 0.  1.
    10030    2    1    2    0    0  0.00000000000E+00  0.00000000000E+00 -0.50263336954E+03  0.39296179902E+04  0.38973397651E+04 0.  0.
        4    1    3    3  502    0 -0.94555573448E+03  0.13151525416E+04 -0.13436221874E+04  0.21045246613E+04  0.12699999809E+01 0.  1.
       -4    1    3    3    0  502  0.94555573448E+03 -0.13151525416E+04  0.84098881784E+03  0.18250933289E+04  0.12699999809E+01 0. -1.
</event>
<event>
 5   0  0.1164500E-08  0.3907305E+04  0.7818609E-02  0.8023512E-01
        3   -1    0    0  501    0  0.00000000000E+00  0.00000000000E+00  0.17716884980E+04  0.17716885008E+04  0.10100000352E+00 0. -1.
       -3   -1    0    0    0  501  0.00000000000E+00  0.00000000000E+00 -0.21543054080E+04  0.21543054104E+04  0.10100000352E+00 0.  1.
    10030    2    1    2    0    0  0.00000000000E+00  0.00000000000E+00 -0.38261691008E+03  0.39259939112E+04  0.39073050164E+04 0.  0.
        3    1    3    3  502    0 -0.15920832460E+03  0.74347767381E+03 -0.19995416339E+04  0.21392225452E+04  0.10100000352E+00 0.  1.
       -3    1    3    3    0  502  0.15920832460E+03 -0.74347767381E+03  0.16169247238E+04  0.17867713661E+04  0.10100000352E+00 0. -1.
</event>
<event>
 5   0  0.3724293E-08  0.3901004E+04  0.7818609E-02  0.8024820E-01
        2   -1    0    0  501    0  0.00000000000E+00  0.00000000000E+00  0.21540972341E+04  0.21540972341E+04  0.25500000920E-02 0. -1.
       -2   -1    0    0    0  501  0.00000000000E+00  0.00000000000E+00 -0.17661493803E+04  0.17661493803E+04  0.25500000920E-02 0.  1.
    10030    2    1    2    0    0  0.00000000000E+00  0.00000000000E+00  0.38794785376E+03  0.39202466144E+04  0.39010037145E+04 0.  0.
        4    1    3    3  502    0 -0.13531723088E+04 -0.11123994043E+04 -0.66813200565E+03  0.18748092494E+04  0.12699999809E+01 0.  1.
       -4    1    3    3    0  502  0.13531723088E+04  0.11123994043E+04  0.10560798594E+04  0.20454373650E+04  0.12699999809E+01 0. -1.
</event>
<event>
 5   0  0.1164500E-08  0.3898978E+04  0.7818609E-02  0.8025242E-01
        1   -1    0    0  501    0  0.00000000000E+00  0.00000000000E+00  0.21497433252E+04  0.21497433252E+04  0.50400001928E-02 0. -1.
       -1   -1    0    0    0  501  0.00000000000E+00  0.00000000000E+00 -0.17678889879E+04  0.17678889879E+04  0.50400001928E-02 0.  1.
    10030    2    1    2    0    0  0.00000000000E+00  0.00000000000E+00  0.38185433729E+03  0.39176323131E+04  0.38989780976E+04 0.  0.
        5    1    3    3  502    0 -0.25270955778E+03 -0.17023201922E+04  0.11111304679E+04  0.20485090100E+04  0.46999998093E+01 0. -1.
       -5    1    3    3    0  502  0.25270955778E+03  0.17023201922E+04 -0.72927613061E+03  0.18691233031E+04  0.46999998093E+01 0.  1.
</event>
<event>
 5   0  0.3872969E-08  0.3912408E+04  0.7818609E-02  0.8022454E-01
        2   -1    0    0  501    0  0.00000000000E+00  0.00000000000E+00  0.26720815022E+04  0.26720815022E+04  0.25500000920E-02 0. -1.
       -2   -1    0    0    0  501  0.00000000000E+00  0.00000000000E+00 -0.14321171560E+04  0.14321171560E+04  0.25500000920E-02 0.  1.
    10030    2    1    2    0    0  0.00000000000E+00  0.00000000000E+00  0.12399643463E+04  0.41041986582E+04  0.39124078323E+04 0.  0.
        2    1    3    3  502    0  0.11605939986E+04 -0.15272076316E+04  0.21724522163E+03  0.19304240638E+04  0.25500000920E-02 0. -1.
       -2    1    3    3    0  502 -0.11605939986E+04  0.15272076316E+04  0.10227191246E+04  0.21737745945E+04  0.25500000920E-02 0.  1.
</event>
<event>
 5   0  0.3769985E-08  0.3895981E+04  0.7818609E-02  0.8025866E-01
       -2   -1    0    0    0  501  0.00000000000E+00  0.00000000000E+00  0.20849412963E+04  0.20849412963E+04  0.25500000920E-02 0. -1.
        2   -1    0    0  501    0  0.00000000000E+00  0.00000000000E+00 -0.18200355948E+04  0.18200355948E+04  0.25500000920E-02 0.  1.
    10030    2    1    2    0    0  0.00000000000E+00  0.00000000000E+00  0.26490570150E+03  0.39049768911E+04  0.38959811972E+04 0.  0.
        1    1    3    3  502    0  0.11288979615E+03  0.15676447436E+04 -0.10210359177E+04  0.18742381102E+04  0.50400001928E-02 0.  1.
       -1    1    3    3    0  502 -0.11288979615E+03 -0.15676447436E+04  0.12859416192E+04  0.20307387809E+04  0.50400001928E-02 0. -1.
</event>
<event>
 5   0  0.1164500E-08  0.3903713E+04  0.7818609E-02  0.8024257E-01
       -1   -1    0    0    0  501  0.00000000000E+00  0.00000000000E+00  0.17186485183E+04  0.17186485183E+04  0.50400001928E-02 0. -1.
        1   -1    0    0  501    0  0.00000000000E+00  0.00000000000E+00 -0.22167086945E+04  0.22167086945E+04  0.50400001928E-02 0.  1.
    10030    2    1    2    0    0  0.00000000000E+00  0.00000000000E+00 -0.49806017624E+03  0.39353572128E+04  0.39037126499E+04 0.  0.
        4    1    3    3  502    0  0.23894857910E+03  0.19061576511E+04 -0.59709414254E+03  0.20117297140E+04  0.12699999809E+01 0.  1.
       -4    1    3    3    0  502 -0.23894857910E+03 -0.19061576511E+04  0.99033966295E+02  0.19236274987E+04  0.12699999809E+01 0. -1.
</event>
<event>
 5   0  0.3769985E-08  0.3865207E+04  0.7818609E-02  0.8032305E-01
       -2   -1    0    0    0  501  0.00000000000E+00  0.00000000000E+00  0.29966586094E+04  0.29966586094E+04  0.25500000920E-02 0.  1.
        2   -1    0    0  501    0  0.00000000000E+00  0.00000000000E+00 -0.12463734518E+04  0.12463734518E+04  0.25500000920E-02 0. -1.
    10030    2    1    2    0    0  0.00000000000E+00  0.00000000000E+00  0.17502851575E+04  0.42430320612E+04  0.38652067137E+04 0.  0.
        1    1    3    3  502    0 -0.17252450545E+04 -0.84351721818E+03  0.63724728666E+03  0.20233822921E+04  0.50400001928E-02 0.  1.
       -1    1    3    3    0  502  0.17252450545E+04  0.84351721818E+03  0.11130378709E+04  0.22196497691E+04  0.50400001928E-02 0. -1.
</event>
<event>
 5   0  0.1164500E-08  0.3908840E+04  0.7818609E-02  0.8023193E-01
        1   -1    0    0  501    0  0.00000000000E+00  0.00000000000E+00  0.23185225274E+04  0.23185225274E+04  0.50400001928E-02 0.  1.
       -1   -1    0    0    0  501  0.00000000000E+00  0.00000000000E+00 -0.16474967532E+04  0.16474967532E+04  0.50400001928E-02 0. -1.
    10030    2    1    2    0    0  0.00000000000E+00  0.00000000000E+00  0.67102577415E+03  0.39660192806E+04  0.39088404092E+04 0.  0.
        2    1    3    3  502    0  0.66421491316E+03 -0.11660504922E+04 -0.11061530026E+04  0.17390887460E+04  0.25500000920E-02 0. -1.
       -2    1    3    3    0  502 -0.66421491316E+03  0.11660504922E+04  0.17771787768E+04  0.22269305346E+04  0.25500000920E-02 0.  1.
</event>
<event>
 5   0  0.3724293E-08  0.3898369E+04  0.7818609E-02  0.8025369E-01
       -2   -1    0    0    0  501  0.00000000000E+00  0.00000000000E+00  0.18459082897E+04  0.18459082897E+04  0.25500000920E-02 0.  1.
        2   -1    0    0  501    0  0.00000000000E+00  0.00000000000E+00 -0.20582388196E+04  0.20582388196E+04  0.25500000920E-02 0. -1.
    10030    2    1    2    0    0  0.00000000000E+00  0.00000000000E+00 -0.21233052984E+03  0.39041471093E+04  0.38983689406E+04 0.  0.
        4    1    3    3  502    0  0.13901687139E+04 -0.31462747325E+02  0.12617873993E+04  0.18776762264E+04  0.12699999809E+01 0.  1.
       -4    1    3    3    0  502 -0.13901687139E+04  0.31462747325E+02 -0.14741179291E+04  0.20264708829E+04  0.12699999809E+01 0. -1.
</event>
<event>
 5   0  0.3690572E-08  0.3897691E+04  0.7818609E-02  0.8025510E-01
        2   -1    0    0  501    0  0.00000000000E+00  0.00000000000E+00  0.30959885532E+04  0.30959885532E+04  0.25500000920E-02 0.  1.
       -2   -1    0    0    0  501  0.00000000000E+00  0.00000000000E+00 -0.12267485019E+04  0.12267485019E+04  0.25500000920E-02 0. -1.
    10030    2    1    2    0    0  0.00000000000E+00  0.00000000000E+00  0.18692400513E+04  0.43227370550E+04  0.38976912753E+04 0.  0.
        3    1    3    3  502    0  0.13507096085E+04  0.40501364871E+03  0.24265082727E+04  0.28064915660E+04  0.10100000352E+00 0.  1.
       -3    1    3    3    0  502 -0.13507096085E+04 -0.40501364871E+03 -0.55726822143E+03  0.15162454890E+04  0.10100000352E+00 0. -1.
</event>
<event>
 5   0  0.1164500E-08  0.3900660E+04  0.7818609E-02  0.8024892E-01
       -1   -1    0    0    0  501  0.00000000000E+00  0.00000000000E+00  0.19166915858E+04  0.19166915858E+04  0.50400001928E-02 0.  1.
        1   -1    0    0  501    0  0.00000000000E+00  0.00000000000E+00 -0.19845586988E+04  0.19845586988E+04  0.50400001928E-02 0. -1.
    10030    2    1    2    0    0  0.00000000000E+00  0.00000000000E+00 -0.67867112954E+02  0.39012502846E+04  0.39006599234E+04 0.  0.
        2    1    3    3  502    0 -0.35092257129E+03 -0.13311358910E+04  0.13478389853E+04  0.19265874861E+04  0.25500000920E-02 0.  1.
       -2    1    3    3    0  502  0.35092257129E+03  0.13311358910E+04 -0.14157060982E+04  0.19746627985E+04  0.25500000920E-02 0. -1.
</event>
<event>
 5   0  0.1164500E-08  0.3899489E+04  0.7818609E-02  0.8025136E-01
        1   -1    0    0  501    0  0.00000000000E+00  0.00000000000E+00  0.22542012012E+04  0.22542012012E+04  0.50400001928E-02 0. -1.
       -1   -1    0    0    0  501  0.00000000000E+00  0.00000000000E+00 -0.16864082093E+04  0.16864082093E+04  0.50400001928E-02 0.  1.
    10030    2    1    2    0    0  0.00000000000E+00  0.00000000000E+00  0.56779299189E+03  0.39406094106E+04  0.38994888954E+04 0.  0.
        4    1    3    3  502    0  0.18884380582E+04 -0.45972257965E+03  0.12747844818E+03  0.19477668026E+04  0.12699999809E+01 0.  1.
       -4    1    3    3    0  502 -0.18884380582E+04  0.45972257965E+03  0.44031454371E+03  0.19928426079E+04  0.12699999809E+01 0. -1.
</event>
<event>
 5   0  0.1164500E-08  0.3902955E+04  0.7818609E-02  0.8024415E-01
       -1   -1    0    0    0  501  0.00000000000E+00  0.00000000000E+00  0.18065086774E+04  0.18065086774E+04  0.50400001928E-02 0.  1.
        1   -1    0    0  501    0  0.00000000000E+00  0.00000000000E+00 -0.21080797088E+04  0.21080797088E+04  0.50400001928E-02 0. -1.
    10030    2    1    2    0    0  0.00000000000E+00  0.00000000000E+00 -0.30157103134E+03  0.39145883862E+04  0.39029549250E+04 0.  0.
        5    1    3    3  502    0  0.61065058412E+03  0.19587828613E+03  0.16977978771E+04  0.18148835115E+04  0.46999998093E+01 0.  1.
       -5    1    3    3    0  502 -0.61065058412E+03 -0.19587828613E+03 -0.19993689084E+04  0.20997048747E+04  0.46999998093E+01 0. -1.
</event>
<event>
 5   0  0.1164500E-08  0.3946457E+04  0.7818609E-02  0.8015436E-01
        1   -1    0    0  501    0  0.00000000000E+00  0.00000000000E+00  0.21955129069E+04  0.21955129069E+04  0.50400001928E-02 0.  1.
       -1   -1    0    0    0  501  0.00000000000E+00  0.00000000000E+00 -0.17734491375E+04  0.17734491375E+04  0.50400001928E-02 0. -1.
    10030    2    1    2    0    0  0.00000000000E+00  0.00000000000E+00  0.42206376936E+03  0.39689620444E+04  0.39464568773E+04 0.  0.
        3    1    3    3  502    0  0.14274138360E+04  0.59958429377E+02  0.15798685984E+04  0.21300446171E+04  0.10100000352E+00 0.  1.
       -3    1    3    3    0  502 -0.14274138360E+04 -0.59958429377E+02 -0.11578048290E+04  0.18389174274E+04  0.10100000352E+00 0. -1.
</event>
<event>
 5   0  0.3690572E-08  0.3899645E+04  0.7818609E-02  0.8025103E-01
       -2   -1    0    0    0  501  0.00000000000E+00  0.00000000000E+00  0.17847156381E+04  0.17847156381E+04  0.25500000920E-02 0. -1.
        2   -1    0    0  501    0  0.00000000000E+00  0.00000000000E+00 -0.21302036222E+04  0.21302036222E+04  0.25500000920E-02 0.  1.
    10030    2    1    2    0    0  0.00000000000E+00  0.00000000000E+00 -0.34548798412E+03  0.39149192603E+04  0.38996449668E+04 0.  0.
        3    1    3    3  502    0  0.75720062333E+03 -0.17623685484E+04  0.17864414405E+03  0.19264499539E+04  0.10100000352E+00 0. -1.
       -3    1    3    3    0  502 -0.75720062333E+03  0.17623685484E+04 -0.52413212817E+03  0.19884693064E+04  0.10100000352E+00 0.  1.
</event>
<event>
 5   0  0.3669347E-08  0.3896858E+04  0.7818609E-02  0.8025683E-01
       -2   -1    0    0    0  501  0.00000000000E+00  0.00000000000E+00  0.18511326928E+04  0.18511326928E+04  0.25500000920E-02 0. -1.
        2   -1    0    0  501    0  0.00000000000E+00  0.00000000000E+00 -0.20508396163E+04  0.20508396164E+04  0.25500000920E-02 0.  1.
    10030    2    1    2    0    0  0.00000000000E+00  0.00000000000E+00 -0.19970692359E+03  0.39019723091E+04  0.38968583559E+04 0.  0.
        5    1    3    3  502    0  0.64784925971E+03 -0.61828450547E+03  0.16328421610E+04  0.18623050249E+04  0.46999998093E+01 0. -1.
       -5    1    3    3    0  502 -0.64784925971E+03  0.61828450547E+03 -0.18325490846E+04  0.20396672842E+04  0.46999998093E+01 0.  1.
</event>
<event>
 5   0  0.3872969E-08  0.3899896E+04  0.7818609E-02  0.8025051E-01
        2   -1    0    0  501    0  0.00000000000E+00  0.00000000000E+00  0.27640991057E+04  0.27640991057E+04  0.25500000920E-02 0. -1.
       -2   -1    0    0    0  501  0.00000000000E+00  0.00000000000E+00 -0.13756011006E+04  0.13756011006E+04  0.25500000920E-02 0.  1.
    10030    2    1    2    0    0  0.00000000000E+00  0.00000000000E+00  0.13884980051E+04  0.41397002063E+04  0.38998962920E+04 0.  0.
        2    1    3    3  502    0  0.89621132889E+03  0.14575546953E+04  0.16869760142E+04  0.24028209481E+04  0.25500000920E-02 0. -1.
       -2    1    3    3    0  502 -0.89621132889E+03 -0.14575546953E+04 -0.29847800909E+03  0.17368792583E+04  0.25500000920E-02 0.  1.
</event>
<event>
 5   0  0.1164500E-08  0.3887481E+04  0.7818609E-02  0.8027638E-01
        1   -1    0    0  501    0  0.00000000000E+00  0.00000000000E+00  0.24126383493E+04  0.24126383493E+04  0.50400001928E-02 0.  1.
       -1   -1    0    0    0  501  0.00000000000E+00  0.00000000000E+00 -0.15659730625E+04  0.15659730625E+04  0.50400001928E-02 0. -1.
    10030    2    1    2    0    0  0.00000000000E+00  0.00000000000E+00  0.84666528684E+03  0.39786114118E+04  0.38874807599E+04 0.  0.
        3    1    3    3  502    0  0.62260929071E+03  0.86470638352E+03  0.20871004825E+04  0.23433625184E+04  0.10100000352E+00 0.  1.
       -3    1    3    3    0  502 -0.62260929071E+03 -0.86470638352E+03 -0.12404351956E+04  0.16352488934E+04  0.10100000352E+00 0. -1.
</event>
<event>
 5   0  0.3872969E-08  0.3912904E+04  0.7818609E-02  0.8022351E-01
       -2   -1    0    0    0  501  0.00000000000E+00  0.00000000000E+00  0.16787106324E+04  0.16787106324E+04  0.25500000920E-02 0.  1.
        2   -1    0    0  501    0  0.00000000000E+00  0.00000000000E+00 -0.22801460374E+04  0.22801460374E+04  0.25500000920E-02 0. -1.
    10030    2    1    2    0    0  0.00000000000E+00  0.00000000000E+00 -0.60143540499E+03  0.39588566698E+04  0.39129044948E+04 0.  0.
        2    1    3    3  502    0 -0.46325751364E+03 -0.18951985603E+04 -0.44844715200E+03  0.20018716130E+04  0.25500000920E-02 0.  1.
       -2    1    3    3    0  502  0.46325751364E+03  0.18951985603E+04 -0.15298825299E+03  0.19569850568E+04  0.25500000920E-02 0. -1.
</event>
<event>
 5   0  0.1164500E-08  0.3895837E+04  0.7818609E-02  0.8025896E-01
        1   -1    0    0  501    0  0.00000000000E+00  0.00000000000E+00  0.19165050492E+04  0.19165050492E+04  0.50400001928E-02 0.  1.
       -1   -1    0    0    0  501  0.00000000000E+00  0.00000000000E+00 -0.19798470311E+04  0.19798470311E+04  0.50400001928E-02 0. -1.
    10030    2    1    2    0    0  0.00000000000E+00  0.00000000000E+00 -0.63341981922E+02  0.38963520803E+04  0.38958371793E+04 0.  0.
        1    1    3    3  502    0 -0.19085911992E+04  0.11134782796E+03 -0.40490676483E+03  0.19542436370E+04  0.50400001928E-02 0. -1.
       -1    1    3    3    0  502  0.19085911992E+04 -0.11134782796E+03  0.34156478291E+03  0.19421084433E+04  0.50400001928E-02 0.  1.
</event>
<event>
 5   0  0.1164500E-08  0.3897466E+04  0.7818609E-02  0.8025557E-01
        3   -1    0    0  501    0  0.00000000000E+00  0.00000000000E+00  0.15568541860E+04  0.15568541893E+04  0.10100000352E+00 0.  1.
       -3   -1    0    0    0  501  0.00000000000E+00  0.00000000000E+00 -0.24392519194E+04  0.24392519215E+04  0.10100000352E+00 0. -1.
    10030    2    1    2    0    0  0.00000000000E+00  0.00000000000E+00 -0.88239773337E+03  0.39961061108E+04  0.38974656238E+04 0.  0.
        5    1    3    3  502    0 -0.59389617234E+03 -0.51278203978E+03 -0.22701267276E+04  0.24019066454E+04  0.46999998093E+01 0. -1.
       -5    1    3    3    0  502  0.59389617234E+03  0.51278203978E+03  0.13877289943E+04  0.15941994654E+04  0.46999998093E+01 0.  1.
</event>
<event>
 5   0  0.3724293E-08  0.3910634E+04  0.7818609E-02  0.8022821E-01
       -2   -1    0    0    0  501  0.00000000000E+00  0.00000000000E+00  0.17134022240E+04  0.17134022240E+04  0.25500000920E-02 0. -1.
        2   -1    0    0  501    0  0.00000000000E+00  0.00000000000E+00 -0.22313880143E+04  0.22313880143E+04  0.25500000920E-02 0.  1.
    10030    2    1    2    0    0  0.00000000000E+00  0.00000000000E+00 -0.51798579034E+03  0.39447902383E+04  0.39106343149E+04 0.  0.
        4    1    3    3  502    0 -0.18732688081E+04  0.26993267469E+03 -0.75446918556E+03  0.20374555311E+04  0.12699999809E+01 0.  1.
       -4    1    3    3    0  502  0.18732688081E+04 -0.26993267469E+03  0.23648339522E+03  0.19073347072E+04  0.12699999809E+01 0. -1.
</event>
<event>
 5   0  0.1164500E-08  0.3927741E+04  0.7818609E-02  0.8019284E-01
        1   -1    0    0  501    0  0.00000000000E+00  0.00000000000E+00  0.18373018458E+04  0.18373018458E+04  0.50400001928E-02 0.  1.
       -1   -1    0    0    0  501  0.00000000000E+00  0.00000000000E+00 -0.20991581863E+04  0.20991581863E+04  0.50400001928E-02 0. -1.
    10030    2    1    2    0    0  0.00000000000E+00  0.00000000000E+00 -0.26185634049E+03  0.39364600321E+04  0.39277409336E+04 0.  0.
        3    1    3    3  502    0  0.11524068237E+04 -0.34108712724E+03  0.14257116900E+04  0.18646811386E+04  0.10100000352E+00 0.  1.
       -3    1    3    3    0  502 -0.11524068237E+04  0.34108712724E+03 -0.16875680305E+04  0.20717788934E+04  0.10100000352E+00 0. -1.
</event>
<event>
 5   0  0.1164500E-08  0.3890252E+04  0.7818609E-02  0.8027060E-01
       -1   -1    0    0    0  501  0.00000000000E+00  0.00000000000E+00  0.33280475328E+04  0.33280475328E+04  0.50400001928E-02 0. -1.
        1   -1    0    0  501    0  0.00000000000E+00  0.00000000000E+00 -0.11368572657E+04  0.11368572657E+04  0.50400001928E-02 0.  1.
    10030    2    1    2    0    0  0.00000000000E+00  0.00000000000E+00  0.21911902671E+04  0.44649047985E+04  0.38902519293E+04 0.  0.
        1    1    3    3  502    0  0.97949470279E+03 -0.16050594232E+04  0.52416459160E+03  0.19520179671E+04  0.50400001928E-02 0.  1.
       -1    1    3    3    0  502 -0.97949470279E+03  0.16050594232E+04  0.16670256755E+04  0.25128868314E+04  0.50400001928E-02 0. -1.
</event>
<event>
 5   0  0.1164500E-08  0.3901724E+04  0.7818609E-02  0.8024671E-01
       -1   -1    0    0    0  501  0.00000000000E+00  0.00000000000E+00  0.21341979011E+04  0.21341979011E+04  0.50400001928E-02 0.  1.
        1   -1    0    0  501    0  0.00000000000E+00  0.00000000000E+00 -0.17832752707E+04  0.17832752707E+04  0.50400001928E-02 0. -1.
    10030    2    1    2    0    0  0.00000000000E+00  0.00000000000E+00  0.35092263036E+03  0.39174731718E+04  0.39017238959E+04 0.  0.
        2    1    3    3  502    0  0.15707692519E+04 -0.88538460106E+02  0.13336805074E+04  0.20624884963E+04  0.25500000920E-02 0.  1.
       -2    1    3    3    0  502 -0.15707692519E+04  0.88538460106E+02 -0.98275787702E+03  0.18549846755E+04  0.25500000920E-02 0. -1.
</event>
<event>
 5   0  0.1164500E-08  0.3889730E+04  0.7818609E-02  0.8027169E-01
        1   -1    0    0  501    0  0.00000000000E+00  0.00000000000E+00  0.32536870218E+04  0.32536870218E+04  0.50400001928E-02 0. -1.
       -1   -1    0    0    0  501  0.00000000000E+00  0.00000000000E+00 -0.11625271254E+04  0.11625271254E+04  0.50400001928E-02 0.  1.
    10030    2    1    2    0    0  0.00000000000E+00  0.00000000000E+00  0.20911598964E+04  0.44162141472E+04  0.38897297698E+04 0.  0.
        4    1    3    3  502    0 -0.16114038497E+04 -0.10291068455E+03  0.22764218129E+04  0.27909336894E+04  0.12699999809E+01 0. -1.
       -4    1    3    3    0  502  0.16114038497E+04  0.10291068455E+03 -0.18526191651E+03  0.16252804578E+04  0.12699999809E+01 0.  1.
</event>
<event>
 5   0  0.3769985E-08  0.3955513E+04  0.7818609E-02  0.8013582E-01
       -2   -1    0    0    0  501  0.00000000000E+00  0.00000000000E+00  0.30193592319E+04  0.30193592319E+04  0.25500000920E-02 0. -1.
        2   -1    0    0  501    0  0.00000000000E+00  0.00000000000E+00 -0.12954803341E+04  0.12954803341E+04  0.25500000920E-02 0.  1.
    10030    2    1    2    0    0  0.00000000000E+00  0.00000000000E+00  0.17238788978E+04  0.43148395660E+04  0.39555128651E+04 0.  0.
        1    1    3    3  502    0 -0.18209925764E+04 -0.59243253585E+03  0.14013607999E+04  0.23729311757E+04  0.50400001928E-02 0. -1.
       -1    1    3    3    0  502  0.18209925764E+04  0.59243253585E+03  0.32251809793E+03  0.19419083903E+04  0.50400001928E-02 0.  1.
</event>
<event>
 5   0  0.1164500E-08  0.3904335E+04  0.7818609E-02  0.8024128E-01
       -1   -1    0    0    0  501  0.00000000000E+00  0.00000000000E+00  0.18846505587E+04  0.18846505587E+04  0.50400001928E-02 0. -1.
        1   -1    0    0  501    0  0.00000000000E+00  0.00000000000E+00 -0.20221036157E+04  0.20221036157E+04  0.50400001928E-02 0.  1.
    10030    2    1    2    0    0  0.00000000000E+00  0.00000000000E+00 -0.13745305692E+03  0.39067541744E+04  0.39043353898E+04 0.  0.
        2    1    3    3  502    0  0.58574086060E+02  0.17907933633E+04 -0.84418206434E+03  0.19806602817E+04  0.25500000920E-02 0.  1.
       -2    1    3    3    0  502 -0.58574086060E+02 -0.17907933633E+04  0.70672900742E+03  0.19260938927E+04  0.25500000920E-02 0. -1.
</event>
<event>
 5   0  0.3690572E-08  0.3901469E+04  0.7818609E-02  0.8024724E-01
        2   -1    0    0  501    0  0.00000000000E+00  0.00000000000E+00  0.27274306248E+04  0.27274306248E+04  0.25500000920E-02 0.  1.
       -2   -1    0    0    0  501  0.00000000000E+00  0.00000000000E+00 -0.13952194384E+04  0.13952194384E+04  0.25500000920E-02 0. -1.
    10030    2    1    2    0    0  0.00000000000E+00  0.00000000000E+00  0.13322111864E+04  0.41226500632E+04  0.39014685566E+04 0.  0.
        3    1    3    3  502    0 -0.46705127454E+03 -0.15480817453E+04 -0.48693370555E+03  0.16887268657E+04  0.10100000352E+00 0. -1.
       -3    1    3    3    0  502  0.46705127454E+03  0.15480817453E+04  0.18191448919E+04  0.24339231975E+04  0.10100000352E+00 0.  1.
</event>
<event>
 5   0  0.1164500E-08  0.3896623E+04  0.7818609E-02  0.8025732E-01
       -1   -1    0    0    0  501  0.00000000000E+00  0.00000000000E+00  0.20157623279E+04  0.20157623279E+04  0.50400001928E-02 0. -1.
        1   -1    0    0  501    0  0.00000000000E+00  0.00000000000E+00 -0.18831180108E+04  0.18831180108E+04  0.50400001928E-02 0.  1.
    10030    2    1    2    0    0  0.00000000000E+00  0.00000000000E+00  0.13264431711E+03  0.38988803387E+04  0.38966233306E+04 0.  0.
        1    1    3    3  502    0 -0.72262486268E+03  0.12197166237E+04  0.14035179617E+04  0.19949330824E+04  0.50400001928E-02 0. -1.
       -1    1    3    3    0  502  0.72262486268E+03 -0.12197166237E+04 -0.12708736446E+04  0.19039472563E+04  0.50400001928E-02 0.  1.
</event>
<event>
 5   0  0.3769985E-08  0.3903332E+04  0.7818609E-02  0.8024337E-01
       -2   -1    0    0    0  501  0.00000000000E+00  0.00000000000E+00  0.14620785208E+04  0.14620785208E+04  0.25500000920E-02 0. -1.
        2   -1    0    0  501    0  0.00000000000E+00  0.00000000000E+00 -0.26051957755E+04  0.26051957755E+04  0.25500000920E-02 0.  1.
    10030    2    1    2    0    0  0.00000000000E+00  0.00000000000E+00 -0.11431172546E+04  0.40672742963E+04  0.39033323127E+04 0.  0.
        1    1    3    3  502    0  0.39655590951E+03  0.14343164796E+03  0.14140393393E+04  0.14755800487E+04  0.50400001928E-02 0. -1.
       -1    1    3    3    0  502 -0.39655590951E+03 -0.14343164796E+03 -0.25571565940E+04  0.25916942476E+04  0.50400001928E-02 0.  1.
</event>
<event>
 5   0  0.1164500E-08  0.3898722E+04  0.7818609E-02  0.8025295E-01
       -1   -1    0    0    0  501  0.00000000000E+00  0.00000000000E+00  0.26923935861E+04  0.26923935861E+04  0.50400001928E-02 0.  1.
        1   -1    0    0  501    0  0.00000000000E+00  0.00000000000E+00 -0.14113868231E+04  0.14113868231E+04  0.50400001928E-02 0. -1.
    10030    2    1    2    0    0  0.00000000000E+00  0.00000000000E+00  0.12810067631E+04  0.41037804092E+04  0.38987222676E+04 0.  0.
        3    1    3    3  502    0 -0.16464779038E+04  0.87044251936E+03  0.12465000993E+04  0.22410538090E+04  0.10100000352E+00 0.  1.
       -3    1    3    3    0  502  0.16464779038E+04 -0.87044251936E+03  0.34506663757E+02  0.18627266002E+04  0.10100000352E+00 0. -1.
</event>
<event>
 5   0  0.3724293E-08  0.3897294E+04  0.7818609E-02  0.8025592E-01
        2   -1    0    0  501    0  0.00000000000E+00  0.00000000000E+00  0.21531694269E+04  0.21531694269E+04  0.25500000920E-02 0. -1.
       -2   -1    0    0    0  501  0.00000000000E+00  0.00000000000E+00 -0.17635519133E+04  0.17635519133E+04  0.25500000920E-02 0.  1.
    10030    2    1    2    0    0  0.00000000000E+00  0.00000000000E+00  0.38961751369E+03  0.39167213402E+04  0.38972944782E+04 0.  0.
        4    1    3    3  502    0  0.27418869186E+03 -0.54506536873E+03  0.20546954661E+04  0.21433736880E+04  0.12699999809E+01 0. -1.
       -4    1    3    3    0  502 -0.27418869186E+03  0.54506536873E+03 -0.16650779525E+04  0.17733476522E+04  0.12699999809E+01 0.  1.
</event>
<event>
 5   0  0.3724293E-08  0.3882031E+04  0.7818609E-02  0.8028777E-01
        2   -1    0    0  501    0  0.00000000000E+00  0.00000000000E+00  0.23656976030E+04  0.23656976030E+04  0.25500000920E-02 0.  1.
       -2   -1    0    0    0  501  0.00000000000E+00  0.00000000000E+00 -0.15925712209E+04  0.15925712209E+04  0.25500000920E-02 0. -1.
    10030    2    1    2    0    0  0.00000000000E+00  0.00000000000E+00  0.77312638215E+03  0.39582688239E+04  0.38820313857E+04 0.  0.
        4    1    3    3  502    0  0.19171774461E+04 -0.16073515881E+03  0.12434523139E+03  0.19279181779E+04  0.12699999809E+01 0.  1.
       -4    1    3    3    0  502 -0.19171774461E+04  0.16073515881E+03  0.64878115076E+03  0.20303506460E+04  0.12699999809E+01 0. -1.
</event>
<event>
 5   0  0.3669347E-08  0.3795385E+04  0.7818609E-02  0.8047146E-01
        2   -1    0    0  501    0  0.00000000000E+00  0.00000000000E+00  0.21237860652E+04  0.21237860652E+04  0.25500000920E-02 0. -1.
       -2   -1    0    0    0  501  0.00000000000E+00  0.00000000000E+00 -0.16956683147E+04  0.16956683148E+04  0.25500000920E-02 0.  1.
    10030    2    1    2    0    0  0.00000000000E+00  0.00000000000E+00  0.42811775044E+03  0.38194543799E+04  0.37953849544E+04 0.  0.
        5    1    3    3  502    0 -0.57337422801E+03  0.81214288947E+03 -0.14126329162E+04  0.17273933901E+04  0.46999998093E+01 0.  1.
       -5    1    3    3    0  502  0.57337422801E+03 -0.81214288947E+03  0.18407506667E+04  0.20920609898E+04  0.46999998093E+01 0. -1.
</event>
<event>
 5   0  0.3872969E-08  0.3903482E+04  0.7818609E-02  0.8024305E-01
        2   -1    0    0  501    0  0.00000000000E+00  0.00000000000E+00  0.17999855598E+04  0.17999855598E+04  0.25500000920E-02 0. -1.
       -2   -1    0    0    0  501  0.00000000000E+00  0.00000000000E+00 -0.21162907914E+04  0.21162907914E+04  0.25500000920E-02 0.  1.
    10030    2    1    2    0    0  0.00000000000E+00  0.00000000000E+00 -0.31630523159E+03  0.39162763512E+04  0.39034819661E+04 0.  0.
        2    1    3    3  502    0  0.63572810226E+03  0.13972209483E+04  0.10511679703E+04  0.18604651838E+04  0.25500000920E-02 0. -1.
       -2    1    3    3    0  502 -0.63572810226E+03 -0.13972209483E+04 -0.13674732019E+04  0.20558111674E+04  0.25500000920E-02 0.  1.
</event>
<event>
 5   0  0.3690572E-08  0.3907682E+04  0.7818609E-02  0.8023433E-01
       -2   -1    0    0    0  501  0.00000000000E+00  0.00000000000E+00  0.15016856242E+04  0.15016856242E+04  0.25500000920E-02 0. -1.
        2   -1    0    0  501    0  0.00000000000E+00  0.00000000000E+00 -0.25421392048E+04  0.25421392048E+04  0.25500000920E-02 0.  1.
    10030    2    1    2    0    0  0.00000000000E+00  0.00000000000E+00 -0.10404535806E+04  0.40438248290E+04  0.39076816137E+04 0.  0.
        3    1    3    3  502    0  0.20095210364E+02  0.19479395777E+04 -0.67587122527E+03  0.20619588598E+04  0.10100000352E+00 0.  1.
       -3    1    3    3    0  502 -0.20095210364E+02 -0.19479395777E+04 -0.36458235536E+03  0.19818659692E+04  0.10100000352E+00 0. -1.
</event>
<event>
 5   0  0.3690572E-08  0.3898719E+04  0.7818609E-02  0.8025296E-01
        2   -1    0    0  501    0  0.00000000000E+00  0.00000000000E+00  0.17727410751E+04  0.17727410751E+04  0.25500000920E-02 0. -1.
       -2   -1    0    0    0  501  0.00000000000E+00  0.00000000000E+00 -0.21435740247E+04  0.21435740247E+04  0.25500000920E-02 0.  1.
    10030    2    1    2    0    0  0.00000000000E+00  0.00000000000E+00 -0.37083294968E+03  0.39163150998E+04  0.38987186208E+04 0.  0.
        3    1    3    3  502    0 -0.92670167422E+03  0.15546506752E+03  0.15302313448E+04  0.17957041402E+04  0.10100000352E+00 0. -1.
       -3    1    3    3    0  502  0.92670167422E+03 -0.15546506752E+03 -0.19010642945E+04  0.21206109596E+04  0.10100000352E+00 0.  1.
</event>
<event>
 5   0  0.3872969E-08  0.3894410E+04  0.7818609E-02  0.8026193E-01
       -2   -1    0    0    0  501  0.00000000000E+00  0.00000000000E+00  0.12658595860E+04  0.12658595860E+04  0.25500000920E-02 0. -1.
        2   -1    0    0  501    0  0.00000000000E+00  0.00000000000E+00 -0.29952826540E+04  0.29952826540E+04  0.25500000920E-02 0.  1.
    10030    2    1    2    0    0  0.00000000000E+00  0.00000000000E+00 -0.17294230680E+04  0.42611422400E+04  0.38944099734E+04 0.  0.
        2    1    3    3  502    0  0.72656643202E+03  0.86336187524E+03 -0.26010699147E+04  0.28352878529E+04  0.25500000920E-02 0.  1.
       -2    1    3    3    0  502 -0.72656643202E+03 -0.86336187524E+03  0.87164684669E+03  0.14258543871E+04  0.25500000920E-02 0. -1.
</event>
<event>
 5   0  0.1164500E-08  0.3901678E+04  0.7818609E-02  0.8024680E-01
       -1   -1    0    0    0  501  0.00000000000E+00  0.00000000000E+00  0.21011036344E+04  0.21011036344E+04  0.50400001928E-02 0. -1.
        1   -1    0    0  501    0  0.00000000000E+00  0.00000000000E+00 -0.18113208199E+04  0.18113208199E+04  0.50400001928E-02 0.  1.
    10030    2    1    2    0    0  0.00000000000E+00  0.00000000000E+00  0.28978281447E+03  0.39124244543E+04  0.39016779763E+04 0.  0.
        2    1    3    3  502    0 -0.48698347805E+03  0.17172105579E+04 -0.64455571077E+03  0.18977399907E+04  0.25500000920E-02 0.  1.
       -2    1    3    3    0  502  0.48698347805E+03 -0.17172105579E+04  0.93433852524E+03  0.20146844636E+04  0.25500000920E-02 0. -1.
</event>
<event>
 5   0  0.3690572E-08  0.3909464E+04  0.7818609E-02  0.8023064E-01
        2   -1    0    0  501    0  0.00000000000E+00  0.00000000000E+00  0.15031170549E+04  0.15031170549E+04  0.25500000920E-02 0. -1.
       -2   -1    0    0    0  501  0.00000000000E+00  0.00000000000E+00 -0.25420357274E+04  0.25420357274E+04  0.25500000920E-02 0.  1.
    10030    2    1    2    0    0  0.00000000000E+00  0.00000000000E+00 -0.10389186725E+04  0.40451527823E+04  0.39094640329E+04 0.  0.
        3    1    3    3  502    0 -0.57548671301E+03  0.45678221774E+03  0.13548024034E+04  0.15412087833E+04  0.10100000352E+00 0. -1.
       -3    1    3    3    0  502  0.57548671301E+03 -0.45678221774E+03 -0.23937210758E+04  0.25039439991E+04  0.10100000352E+00 0.  1.
</event>
<event>
 5   0  0.1164500E-08  0.3891172E+04  0.7818609E-02  0.8026868E-01
       -1   -1    0    0    0  501  0.00000000000E+00  0.00000000000E+00  0.14317703682E+04  0.14317703682E+04  0.50400001928E-02 0. -1.
        1   -1    0    0  501    0  0.00000000000E+00  0.00000000000E+00 -0.26437937034E+04  0.26437937035E+04  0.50400001928E-02 0.  1.
    10030    2    1    2    0    0  0.00000000000E+00  0.00000000000E+00 -0.12120233352E+04  0.40755640717E+04  0.38911723089E+04 0.  0.
        1    1    3    3  502    0 -0.86548126537E+03  0.17408806257E+04 -0.52775627798E+03  0.20145098319E+04  0.50400001928E-02 0. -1.
       -1    1    3    3    0  502  0.86548126537E+03 -0.17408806257E+04 -0.68426705723E+03  0.20610542398E+04  0.50400001928E-02 0.  1.
</event>
<event>
 5   0  0.3769985E-08  0.3902704E+04  0.7818609E-02  0.8024467E-01
       -2   -1    0    0    0  501  0.00000000000E+00  0.00000000000E+00  0.16357108293E+04  0.16357108293E+04  0.25500000920E-02 0.  1.
        2   -1    0    0  501    0  0.00000000000E+00  0.00000000000E+00 -0.23279024351E+04  0.23279024351E+04  0.25500000920E-02 0. -1.
    10030    2    1    2    0    0  0.00000000000E+00  0.00000000000E+00 -0.69219160581E+03  0.39636132644E+04  0.39027043047E+04 0.  0.
        1    1    3    3  502    0  0.86206410705E+03  0.12697148776E+04  0.87788737160E+03  0.17680544766E+04  0.50400001928E-02 0.  1.
       -1    1    3    3    0  502 -0.86206410705E+03 -0.12697148776E+04 -0.15700789774E+04  0.21955587877E+04  0.50400001928E-02 0. -1.
</event>
<event>
 5   0  0.3872969E-08  0.3926331E+04  0.7818609E-02  0.8019575E-01
        2   -1    0    0  501    0  0.00000000000E+00  0.00000000000E+00  0.13012148653E+04  0.13012148653E+04  0.25500000920E-02 0.  1.
       -2   -1    0    0    0  501  0.00000000000E+00  0.00000000000E+00 -0.29618616276E+04  0.29618616276E+04  0.25500000920E-02 0. -1.
    10030    2    1    2    0    0  0.00000000000E+00  0.00000000000E+00 -0.16606467623E+04  0.42630764928E+04  0.39263307953E+04 0.  0.
        2    1    3    3  502    0 -0.13016818452E+04 -0.10762573183E+04  0.25615515911E+03  0.17083093709E+04  0.25500000920E-02 0.  1.
       -2    1    3    3    0  502  0.13016818452E+04  0.10762573183E+04 -0.19168019214E+04  0.25547671219E+04  0.25500000920E-02 0. -1.
</event>
<event>
 5   0  0.1164500E-08  0.3906625E+04  0.7818609E-02  0.8023653E-01
       -1   -1    0    0    0  501  0.00000000000E+00  0.00000000000E+00  0.24837398604E+04  0.24837398604E+04  0.50400001928E-02 0.  1.
        1   -1    0    0  501    0  0.00000000000E+00  0.00000000000E+00 -0.15361634456E+04  0.15361634456E+04  0.50400001928E-02 0. -1.
    10030    2    1    2    0    0  0.00000000000E+00  0.00000000000E+00  0.94757641486E+03  0.40199033060E+04  0.39066253375E+04 0.  0.
        2    1    3    3  502    0 -0.11953264353E+04  0.14671526403E+03  0.20562694583E+04  0.23829760260E+04  0.25500000920E-02 0.  1.
       -2    1    3    3    0  502  0.11953264353E+04 -0.14671526403E+03 -0.11086930434E+04  0.16369272800E+04  0.25500000920E-02 0. -1.
</event>
<event>
 5   0  0.3669347E-08  0.3898648E+04  0.7818609E-02  0.8025310E-01
       -2   -1    0    0    0  501  0.00000000000E+00  0.00000000000E+00  0.23323009694E+04  0.23323009694E+04  0.25500000920E-02 0.  1.
        2   -1    0    0  501    0  0.00000000000E+00  0.00000000000E+00 -0.16292338409E+04  0.16292338409E+04  0.25500000920E-02 0. -1.
    10030    2    1    2    0    0  0.00000000000E+00  0.00000000000E+00  0.70306712849E+03  0.39615348102E+04  0.38986477996E+04 0.  0.
        5    1    3    3  502    0  0.11719054274E+04  0.12145438786E+04  0.13426449556E+04  0.21566633327E+04  0.46999998093E+01 0.  1.
       -5    1    3    3    0  502 -0.11719054274E+04 -0.12145438786E+04 -0.63957782707E+03  0.18048714776E+04  0.46999998093E+01 0. -1.
</event>
<event>
 5   0  0.1164500E-08  0.3908085E+04  0.7818609E-02  0.8023350E-01
        1   -1    0    0  501    0  0.00000000000E+00  0.00000000000E+00  0.18836349725E+04  0.18836349725E+04  0.50400001928E-02 0.  1.
       -1   -1    0    0    0  501  0.00000000000E+00  0.00000000000E+00 -0.20270818434E+04  0.20270818434E+04  0.50400001928E-02 0. -1.
    10030    2    1    2    0    0  0.00000000000E+00  0.00000000000E+00 -0.14344687088E+03  0.39107168159E+04  0.39080850821E+04 0.  0.
        5    1    3    3  502    0 -0.77042175196E+03  0.17648598644E+04  0.26013243406E+03  0.19431857838E+04  0.46999998093E+01 0.  1.
       -5    1    3    3    0  502  0.77042175196E+03 -0.17648598644E+04 -0.40357930493E+03  0.19675310321E+04  0.46999998093E+01 0. -1.
</event>
<event>
 5   0  0.1164500E-08  0.3896775E+04  0.7818609E-02  0.8025700E-01
        1   -1    0    0  501    0  0.00000000000E+00  0.00000000000E+00  0.12904850447E+04  0.12904850447E+04  0.50400001928E-02 0. -1.
       -1   -1    0    0    0  501  0.00000000000E+00  0.00000000000E+00 -0.29416952125E+04  0.29416952125E+04  0.50400001928E-02 0.  1.
    10030    2    1    2    0    0  0.00000000000E+00  0.00000000000E+00 -0.16512101678E+04  0.42321802572E+04  0.38967749116E+04 0.  0.
        5    1    3    3  502    0 -0.53473596288E+03  0.17068757906E+04  0.13433635194E+02  0.17887342080E+04  0.46999998093E+01 0. -1.
       -5    1    3    3    0  502  0.53473596288E+03 -0.17068757906E+04 -0.16646438029E+04  0.24434460492E+04  0.46999998093E+01 0.  1.
</event>
<event>
 5   0  0.1164500E-08  0.3904804E+04  0.7818609E-02  0.8024031E-01
       -1   -1    0    0    0  501  0.00000000000E+00  0.00000000000E+00  0.14667128033E+04  0.14667128033E+04  0.50400001928E-02 0.  1.
        1   -1    0    0  501    0  0.00000000000E+00  0.00000000000E+00 -0.25989226241E+04  0.25989226241E+04  0.50400001928E-02 0. -1.
    10030    2    1    2    0    0  0.00000000000E+00  0.00000000000E+00 -0.11322098208E+04  0.40656354274E+04  0.39048037531E+04 0.  0.
        4    1    3    3  502    0  0.10591041987E+03 -0.17748027782E+04 -0.14060085949E+04  0.22667165020E+04  0.12699999809E+01 0. -1.
       -4    1    3    3    0  502 -0.10591041987E+03  0.17748027782E+04  0.27379877412E+03  0.17989189254E+04  0.12699999809E+01 0.  1.
</event>
<event>
 5   0  0.3724293E-08  0.3862858E+04  0.7818609E-02  0.8032799E-01
       -2   -1    0    0    0  501  0.00000000000E+00  0.00000000000E+00  0.15029002267E+04  0.15029002267E+04  0.25500000920E-02 0. -1.
        2   -1    0    0  501    0  0.00000000000E+00  0.00000000000E+00 -0.24821467388E+04  0.24821467388E+04  0.25500000920E-02 0.  1.
    10030    2    1    2    0    0  0.00000000000E+00  0.00000000000E+00 -0.97924651208E+03  0.39850469655E+04  0.38628584734E+04 0.  0.
        4    1    3    3  502    0  0.78173780361E+02  0.12376414764E+03 -0.24764152226E+04  0.24807383320E+04  0.12699999809E+01 0.  1.
       -4    1    3    3    0  502 -0.78173780361E+02 -0.12376414764E+03  0.14971687105E+04  0.15043086335E+04  0.12699999809E+01 0. -1.
</event>
<event>
 5   0  0.3872969E-08  0.3848550E+04  0.7818609E-02  0.8035816E-01
        2   -1    0    0  501    0  0.00000000000E+00  0.00000000000E+00  0.29959552186E+04  0.29959552186E+04  0.25500000920E-02 0.  1.
       -2   -1    0    0    0  501  0.00000000000E+00  0.00000000000E+00 -0.12359444531E+04  0.12359444531E+04  0.25500000920E-02 0. -1.
    10030    2    1    2    0    0  0.00000000000E+00  0.00000000000E+00  0.17600107655E+04  0.42318996717E+04  0.38485499784E+04 0.  0.
        2    1    3    3  502    0  0.15068009268E+04 -0.11108929805E+04  0.39033733593E+03  0.19123010963E+04  0.25500000920E-02 0.  1.
       -2    1    3    3    0  502 -0.15068009268E+04  0.11108929805E+04  0.13696734296E+04  0.23195985754E+04  0.25500000920E-02 0. -1.
</event>
<event>
 5   0  0.3724293E-08  0.3887379E+04  0.7818609E-02  0.8027659E-01
        2   -1    0    0  501    0  0.00000000000E+00  0.00000000000E+00  0.10962838273E+04  0.10962838273E+04  0.25500000920E-02 0.  1.
       -2   -1    0    0    0  501  0.00000000000E+00  0.00000000000E+00 -0.34461222976E+04  0.34461222976E+04  0.25500000920E-02 0. -1.
    10030    2    1    2    0    0  0.00000000000E+00  0.00000000000E+00 -0.23498384703E+04  0.45424061250E+04  0.38873786242E+04 0.  0.
        4    1    3    3  502    0  0.53167218957E+03  0.14409769366E+04 -0.25667784923E+04  0.29912277229E+04  0.12699999809E+01 0. -1.
       -4    1    3    3    0  502 -0.53167218957E+03 -0.14409769366E+04  0.21694002199E+03  0.15511784021E+04  0.12699999809E+01 0.  1.
</event>
<event>
 5   0  0.3769985E-08  0.3895235E+04  0.7818609E-02  0.8026021E-01
       -2   -1    0    0    0  501  0.00000000000E+00  0.00000000000E+00  0.19217661924E+04  0.19217661924E+04  0.25500000920E-02 0. -1.
        2   -1    0    0  501    0  0.00000000000E+00  0.00000000000E+00 -0.19738164619E+04  0.19738164619E+04  0.25500000920E-02 0.  1.
    10030    2    1    2    0    0  0.00000000000E+00  0.00000000000E+00 -0.52050269511E+02  0.38955826544E+04  0.38952349077E+04 0.  0.
        1    1    3    3  502    0 -0.10222914016E+04 -0.13244948523E+04 -0.10230330997E+04  0.19611127063E+04  0.50400001928E-02 0.  1.
       -1    1    3    3    0  502  0.10222914016E+04  0.13244948523E+04  0.97098283017E+03  0.19344699481E+04  0.50400001928E-02 0. -1.
</event>
<event>
 5   0  0.3690572E-08  0.3897984E+04  0.7818609E-02  0.8025449E-01
        2   -1    0    0  501    0  0.00000000000E+00  0.00000000000E+00  0.29250401990E+04  0.29250401990E+04  0.25500000920E-02 0.  1.
       -2   -1    0    0    0  501  0.00000000000E+00  0.00000000000E+00 -0.12986382333E+04  0.12986382333E+04  0.25500000920E-02 0. -1.
    10030    2    1    2    0    0  0.00000000000E+00  0.00000000000E+00  0.16264019657E+04  0.42236784322E+04  0.38979835999E+04 0.  0.
        3    1    3    3  502    0 -0.10414631786E+04 -0.13197367022E+04 -0.25519631558E+03  0.17004339697E+04  0.10100000352E+00 0. -1.
       -3    1    3    3    0  502  0.10414631786E+04  0.13197367022E+04  0.18815982813E+04  0.25232444626E+04  0.10100000352E+00 0.  1.
</event>
<event>
 5   0  0.1164500E-08  0.3898621E+04  0.7818609E-02  0.8025316E-01
        1   -1    0    0  501    0  0.00000000000E+00  0.00000000000E+00  0.26498835702E+04  0.26498835702E+04  0.50400001928E-02 0. -1.
       -1   -1    0    0    0  501  0.00000000000E+00  0.00000000000E+00 -0.14339538701E+04  0.14339538701E+04  0.50400001928E-02 0.  1.
    10030    2    1    2    0    0  0.00000000000E+00  0.00000000000E+00  0.12159297001E+04  0.40838374403E+04  0.38986206795E+04 0.  0.
        1    1    3    3  502    0  0.69569362320E+03  0.17793312772E+04  0.10133943865E+04  0.21626320986E+04  0.50400001928E-02 0. -1.
       -1    1    3    3    0  502 -0.69569362320E+03 -0.17793312772E+04  0.20253531369E+03  0.19212053416E+04  0.50400001928E-02 0.  1.
</event>
<event>
 5   0  0.3872969E-08  0.3901481E+04  0.7818609E-02  0.8024721E-01
        2   -1    0    0  501    0  0.00000000000E+00  0.00000000000E+00  0.22632481964E+04  0.22632481964E+04  0.25500000920E-02 0.  1.
       -2   -1    0    0    0  501  0.00000000000E+00  0.00000000000E+00 -0.16813832708E+04  0.16813832708E+04  0.25500000920E-02 0. -1.
    10030    2    1    2    0    0  0.00000000000E+00  0.00000000000E+00  0.58186492561E+03  0.39446314673E+04  0.39014805678E+04 0.  0.
        2    1    3    3  502    0  0.17881527320E+04  0.43115998460E+03  0.94773142190E+03  0.20691988723E+04  0.25500000920E-02 0.  1.
       -2    1    3    3    0  502 -0.17881527320E+04 -0.43115998460E+03 -0.36586649629E+03  0.18754325950E+04  0.25500000920E-02 0. -1.
</event>
<event>
 5   0  0.1164500E-08  0.3912054E+04  0.7818609E-02  0.8022527E-01
       -1   -1    0    0    0  501  0.00000000000E+00  0.00000000000E+00  0.19361576642E+04  0.19361576642E+04  0.50400001928E-02 0.  1.
        1   -1    0    0  501    0  0.00000000000E+00  0.00000000000E+00 -0.19761000041E+04  0.19761000041E+04  0.50400001928E-02 0. -1.
    10030    2    1    2    0    0  0.00000000000E+00  0.00000000000E+00 -0.39942339856E+02  0.39122576683E+04  0.39120537666E+04 0.  0.
        4    1    3    3  502    0 -0.13627273400E+04 -0.18030828578E+03  0.13716841559E+04  0.19419206774E+04  0.12699999809E+01 0.  1.
       -4    1    3    3    0  502  0.13627273400E+04  0.18030828578E+03 -0.14116264958E+04  0.19703369908E+04  0.12699999809E+01 0. -1.
</event>
<event>
 5   0  0.3724293E-08  0.3894435E+04  0.7818609E-02  0.8026188E-01
        2   -1    0    0  501    0  0.00000000000E+00  0.00000000000E+00  0.18354074152E+04  0.18354074152E+04  0.25500000920E-02 0.  1.
       -2   -1    0    0    0  501  0.00000000000E+00  0.00000000000E+00 -0.20658392050E+04  0.20658392050E+04  0.25500000920E-02 0. -1.
    10030    2    1    2    0    0  0.00000000000E+00  0.00000000000E+00 -0.23043178983E+03  0.39012466202E+04  0.38944353097E+04 0.  0.
        4    1    3    3  502    0 -0.13755839372E+04 -0.13780644266E+04 -0.13428205856E+03  0.19517494758E+04  0.12699999809E+01 0. -1.
       -4    1    3    3    0  502  0.13755839372E+04  0.13780644266E+04 -0.96149731266E+02  0.19494971444E+04  0.12699999809E+01 0.  1.
</event>
<event>
 5   0  0.3724293E-08  0.3899678E+04  0.7818609E-02  0.8025096E-01
        2   -1    0    0  501    0  0.00000000000E+00  0.00000000000E+00  0.13058149821E+04  0.13058149821E+04  0.25500000920E-02 0. -1.
       -2   -1    0    0    0  501  0.00000000000E+00  0.00000000000E+00 -0.29114935531E+04  0.29114935531E+04  0.25500000920E-02 0.  1.
    10030    2    1    2    0    0  0.00000000000E+00  0.00000000000E+00 -0.16056785710E+04  0.42173085352E+04  0.38996778851E+04 0.  0.
        4    1    3    3  502    0  0.10560545576E+04 -0.16195637457E+04 -0.53003853220E+03  0.20047893689E+04  0.12699999809E+01 0.  1.
       -4    1    3    3    0  502 -0.10560545576E+04  0.16195637457E+04 -0.10756400389E+04  0.22125191663E+04  0.12699999809E+01 0. -1.
</event>
<event>
 5   0  0.1164500E-08  0.3899668E+04  0.7818609E-02  0.8025098E-01
       -1   -1    0    0    0  501  0.00000000000E+00  0.00000000000E+00  0.15523306523E+04  0.15523306523E+04  0.50400001928E-02 0.  1.
        1   -1    0    0  501    0  0.00000000000E+00  0.00000000000E+00 -0.24491250250E+04  0.24491250250E+04  0.50400001928E-02 0. -1.
    10030    2    1    2    0    0  0.00000000000E+00  0.00000000000E+00 -0.89679437265E+03  0.40014556773E+04  0.38996676000E+04 0.  0.
        1    1    3    3  502    0  0.59157686516E+03  0.18378811321E+04 -0.16911347279E+03  0.19381356015E+04  0.50400001928E-02 0. -1.
       -1    1    3    3    0  502 -0.59157686516E+03 -0.18378811321E+04 -0.72768089986E+03  0.20633200758E+04  0.50400001928E-02 0.  1.
</event>
<event>
 5   0  0.1164500E-08  0.3906047E+04  0.7818609E-02  0.8023773E-01
       -1   -1    0    0    0  501  0.00000000000E+00  0.00000000000E+00  0.17425356455E+04  0.17425356455E+04  0.50400001928E-02 0. -1.
        1   -1    0    0  501    0  0.00000000000E+00  0.00000000000E+00 -0.21889366883E+04  0.21889366883E+04  0.50400001928E-02 0.  1.
    10030    2    1    2    0    0  0.00000000000E+00  0.00000000000E+00 -0.44640104277E+03  0.39314723338E+04  0.39060466998E+04 0.  0.
        5    1    3    3  502    0 -0.11722135363E+04 -0.14746715151E+04  0.29545701561E+03  0.19068449308E+04  0.46999998093E+01 0. -1.
       -5    1    3    3    0  502  0.11722135363E+04  0.14746715151E+04 -0.74185805838E+03  0.20246274030E+04  0.46999998093E+01 0.  1.
</event>
<event>
 5   0  0.3690572E-08  0.3898325E+04  0.7818609E-02  0.8025378E-01
       -2   -1    0    0    0  501  0.00000000000E+00  0.00000000000E+00  0.18768336694E+04  0.18768336694E+04  0.25500000920E-02 0.  1.
        2   -1    0    0  501    0  0.00000000000E+00  0.00000000000E+00 -0.20242782573E+04  0.20242782573E+04  0.25500000920E-02 0. -1.
    10030    2    1    2    0    0  0.00000000000E+00  0.00000000000E+00 -0.14744458791E+03  0.39011119267E+04  0.38983245578E+04 0.  0.
        3    1    3    3  502    0  0.44026166305E+03 -0.78087329905E+03  0.16583070181E+04  0.18850929997E+04  0.10100000352E+00 0.  1.
       -3    1    3    3    0  502 -0.44026166305E+03  0.78087329905E+03 -0.18057516060E+04  0.20160189270E+04  0.10100000352E+00 0. -1.
</event>
<event>
 5   0  0.1164500E-08  0.3901762E+04  0.7818609E-02  0.8024663E-01
        3   -1    0    0  501    0  0.00000000000E+00  0.00000000000E+00  0.23681242846E+04  0.23681242867E+04  0.10100000352E+00 0. -1.
       -3   -1    0    0    0  501  0.00000000000E+00  0.00000000000E+00 -0.16071523914E+04  0.16071523946E+04  0.10100000352E+00 0.  1.
    10030    2    1    2    0    0  0.00000000000E+00  0.00000000000E+00  0.76097189320E+03  0.39752766813E+04  0.39017619700E+04 0.  0.
        1    1    3    3  502    0  0.36919865788E+03 -0.13183652476E+04 -0.10354991179E+04  0.17165817774E+04  0.50400001928E-02 0.  1.
       -1    1    3    3    0  502 -0.36919865788E+03  0.13183652476E+04  0.17964710111E+04  0.22586949039E+04  0.50400001928E-02 0. -1.
</event>
<event>
 5   0  0.1164500E-08  0.3911697E+04  0.7818609E-02  0.8022601E-01
        1   -1    0    0  501    0  0.00000000000E+00  0.00000000000E+00  0.27442416695E+04  0.27442416695E+04  0.50400001928E-02 0.  1.
       -1   -1    0    0    0  501  0.00000000000E+00  0.00000000000E+00 -0.13939530822E+04  0.13939530823E+04  0.50400001928E-02 0. -1.
    10030    2    1    2    0    0  0.00000000000E+00  0.00000000000E+00  0.13502885872E+04  0.41381947518E+04  0.39116973981E+04 0.  0.
        4    1    3    3  502    0  0.65760208626E+03 -0.40420367073E+02 -0.12730252243E+04  0.14334117149E+04  0.12699999809E+01 0. -1.
       -4    1    3    3    0  502 -0.65760208626E+03  0.40420367073E+02  0.26233138115E+04  0.27047830369E+04  0.12699999809E+01 0.  1.
</event>
<event>
 5   0  0.3724293E-08  0.3905662E+04  0.7818609E-02  0.8023853E-01
       -2   -1    0    0    0  501  0.00000000000E+00  0.00000000000E+00  0.15372567652E+04  0.15372567652E+04  0.25500000920E-02 0.  1.
        2   -1    0    0  501    0  0.00000000000E+00  0.00000000000E+00 -0.24807497381E+04  0.24807497381E+04  0.25500000920E-02 0. -1.
    10030    2    1    2    0    0  0.00000000000E+00  0.00000000000E+00 -0.94349297283E+03  0.40180065033E+04  0.39056622064E+04 0.  0.
        4    1    3    3  502    0 -0.13501750289E+03  0.11115595143E+04  0.11741973899E+04  0.16225089840E+04  0.12699999809E+01 0.  1.
       -4    1    3    3    0  502  0.13501750289E+03 -0.11115595143E+04 -0.21176903627E+04  0.23954975193E+04  0.12699999809E+01 0. -1.
</event>
<event>
 5   0  0.3769985E-08  0.3898182E+04  0.7818609E-02  0.8025407E-01
       -2   -1    0    0    0  501  0.00000000000E+00  0.00000000000E+00  0.14309592914E+04  0.14309592914E+04  0.25500000920E-02 0.  1.
        2   -1    0    0  501    0  0.00000000000E+00  0.00000000000E+00 -0.26548314996E+04  0.26548314996E+04  0.25500000920E-02 0. -1.
    10030    2    1    2    0    0  0.00000000000E+00  0.00000000000E+00 -0.12238722083E+04  0.40857907910E+04  0.38981820386E+04 0.  0.
        1    1    3    3  502    0 -0.14558085344E+04 -0.11077418983E+04  0.93107858818E+02  0.18317040360E+04  0.50400001928E-02 0.  1.
       -1    1    3    3    0  502  0.14558085344E+04  0.11077418983E+04 -0.13169800671E+04  0.22540867550E+04  0.50400001928E-02 0. -1.
</event>
<event>
 5   0  0.1164500E-08  0.3891999E+04  0.7818609E-02  0.8026695E-01
        1   -1    0    0  501    0  0.00000000000E+00  0.00000000000E+00  0.27440391095E+04  0.27440391095E+04  0.50400001928E-02 0. -1.
       -1   -1    0    0    0  501  0.00000000000E+00  0.00000000000E+00 -0.13800513392E+04  0.13800513393E+04  0.50400001928E-02 0.  1.
    10030    2    1    2    0    0  0.00000000000E+00  0.00000000000E+00  0.13639877702E+04  0.41240904487E+04  0.38919994080E+04 0.  0.
        2    1    3    3  502    0  0.18440741289E+04 -0.56341418682E+03  0.40391361878E+03  0.19700738947E+04  0.25500000920E-02 0.  1.
       -2    1    3    3    0  502 -0.18440741289E+04  0.56341418682E+03  0.96007415144E+03  0.21540165541E+04  0.25500000920E-02 0. -1.
</event>
<event>
 5   0  0.3872969E-08  0.3899941E+04  0.7818609E-02  0.8025042E-01
        2   -1    0    0  501    0  0.00000000000E+00  0.00000000000E+00  0.21490695766E+04  0.21490695766E+04  0.25500000920E-02 0. -1.
       -2   -1    0    0    0  501  0.00000000000E+00  0.00000000000E+00 -0.17693164102E+04  0.17693164102E+04  0.25500000920E-02 0.  1.
    10030    2    1    2    0    0  0.00000000000E+00  0.00000000000E+00  0.37975316635E+03  0.39183859868E+04  0.38999405475E+04 0.  0.
        2    1    3    3  502    0 -0.34587041961E+03 -0.58954055862E+02  0.21170942773E+04  0.21459706677E+04  0.25500000920E-02 0. -1.
       -2    1    3    3    0  502  0.34587041961E+03  0.58954055862E+02 -0.17373411109E+04  0.17724153191E+04  0.25500000920E-02 0.  1.
</event>
<event>
 5   0  0.3769985E-08  0.3899402E+04  0.7818609E-02  0.8025154E-01
        2   -1    0    0  501    0  0.00000000000E+00  0.00000000000E+00  0.16645921714E+04  0.16645921714E+04  0.25500000920E-02 0.  1.
       -2   -1    0    0    0  501  0.00000000000E+00  0.00000000000E+00 -0.22836423605E+04  0.22836423605E+04  0.25500000920E-02 0. -1.
    10030    2    1    2    0    0  0.00000000000E+00  0.00000000000E+00 -0.61905018917E+03  0.39482345319E+04  0.38994015928E+04 0.  0.
        1    1    3    3  502    0  0.68101690644E+03  0.68316171735E+03 -0.20250989314E+04  0.22431049109E+04  0.50400001928E-02 0. -1.
       -1    1    3    3    0  502 -0.68101690644E+03 -0.68316171735E+03  0.14060487423E+04  0.17051296211E+04  0.50400001928E-02 0.  1.
</event>
<event>
 5   0  0.3690572E-08  0.3893998E+04  0.7818609E-02  0.8026279E-01
        2   -1    0    0  501    0  0.00000000000E+00  0.00000000000E+00  0.13399240210E+04  0.13399240210E+04  0.25500000920E-02 0. -1.
       -2   -1    0    0    0  501  0.00000000000E+00  0.00000000000E+00 -0.28291191601E+04  0.28291191601E+04  0.25500000920E-02 0.  1.
    10030    2    1    2    0    0  0.00000000000E+00  0.00000000000E+00 -0.14891951391E+04  0.41690431812E+04  0.38939978023E+04 0.  0.
        3    1    3    3  502    0  0.62889944768E+03  0.16345065669E+04  0.16618250315E+03  0.17591881272E+04  0.10100000352E+00 0. -1.
       -3    1    3    3    0  502 -0.62889944768E+03 -0.16345065669E+04 -0.16553776422E+04  0.24098550539E+04  0.10100000352E+00 0.  1.
</event>
<event>
 5   0  0.3872969E-08  0.3892243E+04  0.7818609E-02  0.8026645E-01
       -2   -1    0    0    0  501  0.00000000000E+00  0.00000000000E+00  0.27608045971E+04  0.27608045971E+04  0.25500000920E-02 0.  1.
        2   -1    0    0  501    0  0.00000000000E+00  0.00000000000E+00 -0.13718421501E+04  0.13718421501E+04  0.25500000920E-02 0. -1.
    10030    2    1    2    0    0  0.00000000000E+00  0.00000000000E+00  0.13889624470E+04  0.41326467472E+04  0.38922426001E+04 0.  0.
        2    1    3    3  502    0  0.16706670090E+04  0.47021935535E+03 -0.24032645587E+03  0.17521390648E+04  0.25500000920E-02 0. -1.
       -2    1    3    3    0  502 -0.16706670090E+04 -0.47021935535E+03  0.16292889029E+04  0.23805076824E+04  0.25500000920E-02 0.  1.
</event>
<event>
 5   0  0.1164500E-08  0.3896831E+04  0.7818609E-02  0.8025689E-01
       -1   -1    0    0    0  501  0.00000000000E+00  0.00000000000E+00  0.30031789354E+04  0.30031789354E+04  0.50400001928E-02 0.  1.
        1   -1    0    0  501    0  0.00000000000E+00  0.00000000000E+00 -0.12641015958E+04  0.12641015958E+04  0.50400001928E-02 0. -1.
    10030    2    1    2    0    0  0.00000000000E+00  0.00000000000E+00  0.17390773396E+04  0.42672805312E+04  0.38968311663E+04 0.  0.
        5    1    3    3  502    0 -0.13446593225E+04 -0.16964428608E+03  0.24023991660E+04  0.27583385797E+04  0.46999998093E+01 0.  1.
       -5    1    3    3    0  502  0.13446593225E+04  0.16964428608E+03 -0.66332182640E+03  0.15089419515E+04  0.46999998093E+01 0. -1.
</event>
<event>
 5   0  0.3724293E-08  0.3899290E+04  0.7818609E-02  0.8025177E-01
        2   -1    0    0  501    0  0.00000000000E+00  0.00000000000E+00  0.27846989077E+04  0.27846989077E+04  0.25500000920E-02 0.  1.
       -2   -1    0    0    0  501  0.00000000000E+00  0.00000000000E+00 -0.13650002498E+04  0.13650002498E+04  0.25500000920E-02 0. -1.
    10030    2    1    2    0    0  0.00000000000E+00  0.00000000000E+00  0.14196986580E+04  0.41496991575E+04  0.38992895274E+04 0.  0.
        4    1    3    3  502    0  0.72931617876E+03  0.14908990399E+04  0.17984947229E+04  0.24472978807E+04  0.12699999809E+01 0.  1.
       -4    1    3    3    0  502 -0.72931617876E+03 -0.14908990399E+04 -0.37879606493E+03  0.17024012768E+04  0.12699999809E+01 0. -1.
</event>
<event>
 5   0  0.1164500E-08  0.3907823E+04  0.7818609E-02  0.8023404E-01
       -1   -1    0    0    0  501  0.00000000000E+00  0.00000000000E+00  0.16283890787E+04  0.16283890787E+04  0.50400001928E-02 0. -1.
        1   -1    0    0  501    0  0.00000000000E+00  0.00000000000E+00 -0.23445074771E+04  0.23445074771E+04  0.50400001928E-02 0.  1.
    10030    2    1    2    0    0  0.00000000000E+00  0.00000000000E+00 -0.71611839840E+03  0.39728965558E+04  0.39078231130E+04 0.  0.
        3    1    3    3  502    0 -0.18348361554E+04 -0.38842939611E+03 -0.91515230999E+03  0.20868648432E+04  0.10100000352E+00 0.  1.
       -3    1    3    3    0  502  0.18348361554E+04  0.38842939611E+03  0.19903391159E+03  0.18860317126E+04  0.10100000352E+00 0. -1.
</event>
<event>
 5   0  0.1164500E-08  0.3914338E+04  0.7818609E-02  0.8022054E-01
       -1   -1    0    0    0  501  0.00000000000E+00  0.00000000000E+00  0.21204294208E+04  0.21204294208E+04  0.50400001928E-02 0.  1.
        1   -1    0    0  501    0  0.00000000000E+00  0.00000000000E+00 -0.18064785884E+04  0.18064785885E+04  0.50400001928E-02 0. -1.
    10030    2    1    2    0    0  0.00000000000E+00  0.00000000000E+00  0.31395083238E+03  0.39269080093E+04  0.39143379246E+04 0.  0.
        3    1    3    3  502    0  0.68269677456E+02 -0.17218610045E+04  0.10878799649E+04  0.20378785283E+04  0.10100000352E+00 0.  1.
       -3    1    3    3    0  502 -0.68269677456E+02  0.17218610045E+04 -0.77392913253E+03  0.18890294810E+04  0.10100000352E+00 0. -1.
</event>
<event>
 5   0  0.3690572E-08  0.3902488E+04  0.7818609E-02  0.8024512E-01
       -2   -1    0    0    0  501  0.00000000000E+00  0.00000000000E+00  0.17404712783E+04  0.17404712783E+04  0.25500000920E-02 0. -1.
        2   -1    0    0  501    0  0.00000000000E+00  0.00000000000E+00 -0.21875414062E+04  0.21875414062E+04  0.25500000920E-02 0.  1.
    10030    2    1    2    0    0  0.00000000000E+00  0.00000000000E+00 -0.44707012785E+03  0.39280126845E+04  0.39024879181E+04 0.  0.
        3    1    3    3  502    0  0.16186733679E+04 -0.92461186155E+03 -0.80379715339E+03  0.20300493690E+04  0.10100000352E+00 0.  1.
       -3    1    3    3    0  502 -0.16186733679E+04  0.92461186155E+03  0.35672702554E+03  0.18979633156E+04  0.10100000352E+00 0. -1.
</event>
<event>
 5   0  0.1164500E-08  0.3900307E+04  0.7818609E-02  0.8024965E-01
       -1   -1    0    0    0  501  0.00000000000E+00  0.00000000000E+00  0.14878230694E+04  0.14878230695E+04  0.50400001928E-02 0.  1.
        1   -1    0    0  501    0  0.00000000000E+00  0.00000000000E+00 -0.25561496297E+04  0.25561496297E+04  0.50400001928E-02 0. -1.
    10030    2    1    2    0    0  0.00000000000E+00  0.00000000000E+00 -0.10683265602E+04  0.40439726991E+04  0.39003068536E+04 0.  0.
        3    1    3    3  502    0 -0.46733501321E+03  0.10369332634E+04  0.11083166706E+04  0.15880801176E+04  0.10100000352E+00 0.  1.
       -3    1    3    3    0  502  0.46733501321E+03 -0.10369332634E+04 -0.21766432308E+04  0.24558925815E+04  0.10100000352E+00 0. -1.
</event>
<event>
 5   0  0.1164500E-08  0.3894536E+04  0.7818609E-02  0.8026166E-01
       -1   -1    0    0    0  501  0.00000000000E+00  0.00000000000E+00  0.18658578952E+04  0.18658578952E+04  0.50400001928E-02 0.  1.
        1   -1    0    0  501    0  0.00000000000E+00  0.00000000000E+00 -0.20322306027E+04  0.20322306027E+04  0.50400001928E-02 0. -1.
    10030    2    1    2    0    0  0.00000000000E+00  0.00000000000E+00 -0.16637270742E+03  0.38980884979E+04  0.38945364371E+04 0.  0.
        4    1    3    3  502    0  0.15222478435E+04  0.75324081271E+03  0.87017473218E+03  0.19083542377E+04  0.12699999809E+01 0.  1.
       -4    1    3    3    0  502 -0.15222478435E+04 -0.75324081271E+03 -0.10365474396E+04  0.19897342602E+04  0.12699999809E+01 0. -1.
</event>
<event>
 5   0  0.1164500E-08  0.3901517E+04  0.7818609E-02  0.8024714E-01
       -3   -1    0    0    0  501  0.00000000000E+00  0.00000000000E+00  0.17440102741E+04  0.17440102771E+04  0.10100000352E+00 0. -1.
        3   -1    0    0  501    0  0.00000000000E+00  0.00000000000E+00 -0.21820161820E+04  0.21820161844E+04  0.10100000352E+00 0.  1.
    10030    2    1    2    0    0  0.00000000000E+00  0.00000000000E+00 -0.43800590788E+03  0.39260264614E+04  0.39015169615E+04 0.  0.
        1    1    3    3  502    0 -0.13986628538E+04  0.13598531000E+04 -0.21965351812E+03  0.19630858107E+04  0.50400001928E-02 0.  1.
       -1    1    3    3    0  502  0.13986628538E+04 -0.13598531000E+04 -0.21835238976E+03  0.19629406507E+04  0.50400001928E-02 0. -1.
</event>
<event>
 5   0  0.1164500E-08  0.3899492E+04  0.7818609E-02  0.8025135E-01
       -1   -1    0    0    0  501  0.00000000000E+00  0.00000000000E+00  0.20251039023E+04  0.20251039023E+04  0.50400001928E-02 0.  1.
        1   -1    0    0  501    0  0.00000000000E+00  0.00000000000E+00 -0.18771926933E+04  0.18771926933E+04  0.50400001928E-02 0. -1.
    10030    2    1    2    0    0  0.00000000000E+00  0.00000000000E+00  0.14791120896E+03  0.39022965956E+04  0.38994924021E+04 0.  0.
        4    1    3    3  502    0  0.27867273935E+03  0.20648809043E+03  0.19939840318E+04  0.20239243462E+04  0.12699999809E+01 0.  1.
       -4    1    3    3    0  502 -0.27867273935E+03 -0.20648809043E+03 -0.18460728229E+04  0.18783722494E+04  0.12699999809E+01 0. -1.
</event>
<event>
 5   0  0.3690572E-08  0.3912106E+04  0.7818609E-02  0.8022516E-01
        2   -1    0    0  501    0  0.00000000000E+00  0.00000000000E+00  0.26687485818E+04  0.26687485818E+04  0.25500000920E-02 0.  1.
       -2   -1    0    0    0  501  0.00000000000E+00  0.00000000000E+00 -0.14336841459E+04  0.14336841459E+04  0.25500000920E-02 0. -1.
    10030    2    1    2    0    0  0.00000000000E+00  0.00000000000E+00  0.12350644359E+04  0.41024327277E+04  0.39121055871E+04 0.  0.
        3    1    3    3  502    0 -0.10676097598E+04 -0.57477261692E+03  0.22271303917E+04  0.25357965124E+04  0.10100000352E+00 0.  1.
       -3    1    3    3    0  502  0.10676097598E+04  0.57477261692E+03 -0.99206595578E+03  0.15666362154E+04  0.10100000352E+00 0. -1.
</event>
<event>
 5   0  0.1164500E-08  0.3907140E+04  0.7818609E-02  0.8023546E-01
       -1   -1    0    0    0  501  0.00000000000E+00  0.00000000000E+00  0.20652786059E+04  0.20652786059E+04  0.50400001928E-02 0. -1.
        1   -1    0    0  501    0  0.00000000000E+00  0.00000000000E+00 -0.18479040422E+04  0.18479040422E+04  0.50400001928E-02 0.  1.
    10030    2    1    2    0    0  0.00000000000E+00  0.00000000000E+00  0.21737456370E+03  0.39131826482E+04  0.39071404808E+04 0.  0.
        1    1    3    3  502    0 -0.17707958660E+03  0.19396972064E+04 -0.42058772856E+02  0.19482174860E+04  0.50400001928E-02 0.  1.
       -1    1    3    3    0  502  0.17707958660E+03 -0.19396972064E+04  0.25943333656E+03  0.19649651622E+04  0.50400001928E-02 0. -1.
</event>
<event>
 5   0  0.3690572E-08  0.3902407E+04  0.7818609E-02  0.8024529E-01
        2   -1    0    0  501    0  0.00000000000E+00  0.00000000000E+00  0.21528087965E+04  0.21528087965E+04  0.25500000920E-02 0.  1.
       -2   -1    0    0    0  501  0.00000000000E+00  0.00000000000E+00 -0.17684784698E+04  0.17684784698E+04  0.25500000920E-02 0. -1.
    10030    2    1    2    0    0  0.00000000000E+00  0.00000000000E+00  0.38433032670E+03  0.39212872663E+04  0.39024074652E+04 0.  0.
        3    1    3    3  502    0  0.18772987020E+04 -0.61378413985E+01 -0.34229899667E+03  0.19082601245E+04  0.10100000352E+00 0. -1.
       -3    1    3    3    0  502 -0.18772987020E+04  0.61378413985E+01  0.72662932337E+03  0.20130271417E+04  0.10100000352E+00 0.  1.
</event>
<event>
 5   0  0.3724293E-08  0.3913759E+04  0.7818609E-02  0.8022174E-01
        2   -1    0    0  501    0  0.00000000000E+00  0.00000000000E+00  0.23412209617E+04  0.23412209617E+04  0.25500000920E-02 0. -1.
       -2   -1    0    0    0  501  0.00000000000E+00  0.00000000000E+00 -0.16356328228E+04  0.16356328228E+04  0.25500000920E-02 0.  1.
    10030    2    1    2    0    0  0.00000000000E+00  0.00000000000E+00  0.70558813894E+03  0.39768537845E+04  0.39137592416E+04 0.  0.
        4    1    3    3  502    0 -0.61597892257E+02 -0.19442418108E+04  0.56955375102E+03  0.20268851984E+04  0.12699999809E+01 0.  1.
       -4    1    3    3    0  502  0.61597892257E+02  0.19442418108E+04  0.13603438793E+03  0.19499685861E+04  0.12699999809E+01 0. -1.
</event>
<event>
 5   0  0.1164500E-08  0.3900663E+04  0.7818609E-02  0.8024891E-01
       -1   -1    0    0    0  501  0.00000000000E+00  0.00000000000E+00  0.19201695414E+04  0.19201695414E+04  0.50400001928E-02 0. -1.
        1   -1    0    0  501    0  0.00000000000E+00  0.00000000000E+00 -0.19809674839E+04  0.19809674839E+04  0.50400001928E-02 0.  1.
    10030    2    1    2    0    0  0.00000000000E+00  0.00000000000E+00 -0.60797942516E+02  0.39011370252E+04  0.39006632385E+04 0.  0.
        1    1    3    3  502    0  0.10516401081E+04  0.26169548099E+03 -0.16521266805E+04  0.19758426077E+04  0.50400001928E-02 0.  1.
       -1    1    3    3    0  502 -0.10516401081E+04 -0.26169548099E+03  0.15913287380E+04  0.19252944176E+04  0.50400001928E-02 0. -1.
</event>
<event>
 5   0  0.1164500E-08  0.3901802E+04  0.7818609E-02  0.8024655E-01
        1   -1    0    0  501    0  0.00000000000E+00  0.00000000000E+00  0.14016106552E+04  0.14016106552E+04  0.50400001928E-02 0. -1.
       -1   -1    0    0    0  501  0.00000000000E+00  0.00000000000E+00 -0.27154579839E+04  0.27154579839E+04  0.50400001928E-02 0.  1.
    10030    2    1    2    0    0  0.00000000000E+00  0.00000000000E+00 -0.13138473287E+04  0.41170686391E+04  0.39018020678E+04 0.  0.
        3    1    3    3  502    0  0.19080056792E+04 -0.34297685248E+03 -0.42599774552E+03  0.19848407700E+04  0.10100000352E+00 0.  1.
       -3    1    3    3    0  502 -0.19080056792E+04  0.34297685248E+03 -0.88784958322E+03  0.21322278691E+04  0.10100000352E+00 0. -1.
</event>
<event>
 5   0  0.3872969E-08  0.3889763E+04  0.7818609E-02  0.8027162E-01
        2   -1    0    0  501    0  0.00000000000E+00  0.00000000000E+00  0.27483880430E+04  0.27483880430E+04  0.25500000920E-02 0. -1.
       -2   -1    0    0    0  501  0.00000000000E+00  0.00000000000E+00 -0.13762845271E+04  0.13762845271E+04  0.25500000920E-02 0.  1.
    10030    2    1    2    0    0  0.00000000000E+00  0.00000000000E+00  0.13721035159E+04  0.41246725701E+04  0.38897629429E+04 0.  0.
        2    1    3    3  502    0 -0.18129346654E+04  0.31030885540E+03  0.15786647959E+02  0.18393675285E+04  0.25500000920E-02 0.  1.
       -2    1    3    3    0  502  0.18129346654E+04 -0.31030885540E+03  0.13563168680E+04  0.22853050416E+04  0.25500000920E-02 0. -1.
</event>
<event>
 5   0  0.3690572E-08  0.3899932E+04  0.7818609E-02  0.8025043E-01
        2   -1    0    0  501    0  0.00000000000E+00  0.00000000000E+00  0.28434588463E+04  0.28434588463E+04  0.25500000920E-02 0. -1.
       -2   -1    0    0    0  501  0.00000000000E+00  0.00000000000E+00 -0.13372329885E+04  0.13372329885E+04  0.25500000920E-02 0.  1.
    10030    2    1    2    0    0  0.00000000000E+00  0.00000000000E+00  0.15062258578E+04  0.41806918348E+04  0.38999317793E+04 0.  0.
        3    1    3    3  502    0  0.15608973205E+04  0.84796238200E+03  0.16153338462E+04  0.24009881489E+04  0.10100000352E+00 0.  1.
       -3    1    3    3    0  502 -0.15608973205E+04 -0.84796238200E+03 -0.10910798844E+03  0.17797036859E+04  0.10100000352E+00 0. -1.
</event>
<event>
 5   0  0.1164500E-08  0.3896013E+04  0.7818609E-02  0.8025859E-01
       -1   -1    0    0    0  501  0.00000000000E+00  0.00000000000E+00  0.25769852850E+04  0.25769852850E+04  0.50400001928E-02 0.  1.
        1   -1    0    0  501    0  0.00000000000E+00  0.00000000000E+00 -0.14725460549E+04  0.14725460549E+04  0.50400001928E-02 0. -1.
    10030    2    1    2    0    0  0.00000000000E+00  0.00000000000E+00  0.11044392302E+04  0.40495313399E+04  0.38960130980E+04 0.  0.
        4    1    3    3  502    0 -0.94623961639E+03 -0.10498496961E+04  0.19456312496E+04  0.24047944545E+04  0.12699999809E+01 0.  1.
       -4    1    3    3    0  502  0.94623961639E+03  0.10498496961E+04 -0.84119201940E+03  0.16447368855E+04  0.12699999809E+01 0. -1.
</event>
<event>
 5   0  0.1164500E-08  0.3897743E+04  0.7818609E-02  0.8025499E-01
       -1   -1    0    0    0  501  0.00000000000E+00  0.00000000000E+00  0.13745605845E+04  0.13745605845E+04  0.50400001928E-02 0.  1.
        1   -1    0    0  501    0  0.00000000000E+00  0.00000000000E+00 -0.27631379577E+04  0.27631379577E+04  0.50400001928E-02 0. -1.
    10030    2    1    2    0    0  0.00000000000E+00  0.00000000000E+00 -0.13885773732E+04  0.41376985422E+04  0.38977432067E+04 0.  0.
        2    1    3    3  502    0  0.78660862907E+03  0.17093209901E+04 -0.12330452081E+04  0.22496514992E+04  0.25500000920E-02 0.  1.
       -2    1    3    3    0  502 -0.78660862907E+03 -0.17093209901E+04 -0.15553216510E+03  0.18880470431E+04  0.25500000920E-02 0. -1.
</event>
<event>
 5   0  0.1164500E-08  0.3896513E+04  0.7818609E-02  0.8025755E-01
       -1   -1    0    0    0  501  0.00000000000E+00  0.00000000000E+00  0.17618721579E+04  0.17618721579E+04  0.50400001928E-02 0. -1.
        1   -1    0    0  501    0  0.00000000000E+00  0.00000000000E+00 -0.21543578129E+04  0.21543578129E+04  0.50400001928E-02 0.  1.
    10030    2    1    2    0    0  0.00000000000E+00  0.00000000000E+00 -0.39248565503E+03  0.39162299708E+04  0.38965128249E+04 0.  0.
        1    1    3    3  502    0 -0.14765461050E+04 -0.11931786839E+04 -0.63645377734E+03  0.20022330490E+04  0.50400001928E-02 0.  1.
       -1    1    3    3    0  502  0.14765461050E+04  0.11931786839E+04  0.24396812231E+03  0.19139969218E+04  0.50400001928E-02 0. -1.
</event>
<event>
 5   0  0.3872969E-08  0.3901153E+04  0.7818609E-02  0.8024789E-01
        2   -1    0    0  501    0  0.00000000000E+00  0.00000000000E+00  0.16479488003E+04  0.16479488003E+04  0.25500000920E-02 0. -1.
       -2   -1    0    0    0  501  0.00000000000E+00  0.00000000000E+00 -0.23087788594E+04  0.23087788594E+04  0.25500000920E-02 0.  1.
    10030    2    1    2    0    0  0.00000000000E+00  0.00000000000E+00 -0.66083005902E+03  0.39567276597E+04  0.39011533431E+04 0.  0.
        2    1    3    3  502    0 -0.88550135341E+03 -0.16559677305E+04  0.20474499539E+03  0.18889844585E+04  0.25500000920E-02 0.  1.
       -2    1    3    3    0  502  0.88550135341E+03  0.16559677305E+04 -0.86557505442E+03  0.20677432012E+04  0.25500000920E-02 0. -1.
</event>
<event>
 5   0  0.1164500E-08  0.3870060E+04  0.7818609E-02  0.8031285E-01
       -1   -1    0    0    0  501  0.00000000000E+00  0.00000000000E+00  0.18425738095E+04  0.18425738095E+04  0.50400001928E-02 0. -1.
        1   -1    0    0  501    0  0.00000000000E+00  0.00000000000E+00 -0.20321252387E+04  0.20321252387E+04  0.50400001928E-02 0.  1.
    10030    2    1    2    0    0  0.00000000000E+00  0.00000000000E+00 -0.18955142923E+03  0.38746990482E+04  0.38700598147E+04 0.  0.
        5    1    3    3  502    0 -0.30616145176E+03  0.65899359905E+03 -0.18903332829E+04  0.20251887341E+04  0.46999998093E+01 0.  1.
       -5    1    3    3    0  502  0.30616145176E+03 -0.65899359905E+03  0.17007818537E+04  0.18495103141E+04  0.46999998093E+01 0. -1.
</event>
<event>
 5   0  0.1164500E-08  0.3902979E+04  0.7818609E-02  0.8024410E-01
       -1   -1    0    0    0  501  0.00000000000E+00  0.00000000000E+00  0.13775375215E+04  0.13775375215E+04  0.50400001928E-02 0.  1.
        1   -1    0    0  501    0  0.00000000000E+00  0.00000000000E+00 -0.27645784573E+04  0.27645784573E+04  0.50400001928E-02 0. -1.
    10030    2    1    2    0    0  0.00000000000E+00  0.00000000000E+00 -0.13870409358E+04  0.41421159789E+04  0.39029786349E+04 0.  0.
        3    1    3    3  502    0  0.16299631511E+04 -0.76989263744E+03  0.99807426522E+02  0.18054019164E+04  0.10100000352E+00 0.  1.
       -3    1    3    3    0  502 -0.16299631511E+04  0.76989263744E+03 -0.14868483623E+04  0.23367140625E+04  0.10100000352E+00 0. -1.
</event>
<event>
 5   0  0.3690572E-08  0.3905721E+04  0.7818609E-02  0.8023840E-01
       -2   -1    0    0    0  501  0.00000000000E+00  0.00000000000E+00  0.23849681700E+04  0.23849681700E+04  0.25500000920E-02 0.  1.
        2   -1    0    0  501    0  0.00000000000E+00  0.00000000000E+00 -0.15990416335E+04  0.15990416335E+04  0.25500000920E-02 0. -1.
    10030    2    1    2    0    0  0.00000000000E+00  0.00000000000E+00  0.78592653643E+03  0.39840098035E+04  0.39057206241E+04 0.  0.
        3    1    3    3  502    0  0.13387941656E+03 -0.45531709228E+03  0.23252484479E+04  0.23731872466E+04  0.10100000352E+00 0.  1.
       -3    1    3    3    0  502 -0.13387941656E+03  0.45531709228E+03 -0.15393219114E+04  0.16108225569E+04  0.10100000352E+00 0. -1.
</event>
<event>
 5   0  0.3690572E-08  0.3891438E+04  0.7818609E-02  0.8026812E-01
       -2   -1    0    0    0  501  0.00000000000E+00  0.00000000000E+00  0.23858365024E+04  0.23858365024E+04  0.25500000920E-02 0. -1.
        2   -1    0    0  501    0  0.00000000000E+00  0.00000000000E+00 -0.15867905523E+04  0.15867905523E+04  0.25500000920E-02 0.  1.
    10030    2    1    2    0    0  0.00000000000E+00  0.00000000000E+00  0.79904595015E+03  0.39726270547E+04  0.38914382026E+04 0.  0.
        3    1    3    3  502    0 -0.16405511566E+04 -0.85143341308E+03 -0.22100403524E+03  0.18615020140E+04  0.10100000352E+00 0.  1.
       -3    1    3    3    0  502  0.16405511566E+04  0.85143341308E+03  0.10200499854E+04  0.21111250407E+04  0.10100000352E+00 0. -1.
</event>
<event>
 5   0  0.1164500E-08  0.3895371E+04  0.7818609E-02  0.8025993E-01
       -1   -1    0    0    0  501  0.00000000000E+00  0.00000000000E+00  0.20419116557E+04  0.20419116557E+04  0.50400001928E-02 0. -1.
        1   -1    0    0  501    0  0.00000000000E+00  0.00000000000E+00 -0.18578074269E+04  0.18578074269E+04  0.50400001928E-02 0.  1.
    10030    2    1    2    0    0  0.00000000000E+00  0.00000000000E+00  0.18410422883E+03  0.38997190826E+04  0.38953709138E+04 0.  0.
        1    1    3    3  502    0 -0.17547543675E+04  0.78000704398E+03 -0.23374125901E+03  0.19344789622E+04  0.50400001928E-02 0.  1.
       -1    1    3    3    0  502  0.17547543675E+04 -0.78000704398E+03  0.41784548784E+03  0.19652401204E+04  0.50400001928E-02 0. -1.
</event>
<event>
 5   0  0.3769985E-08  0.3889289E+04  0.7818609E-02  0.8027261E-01
       -2   -1    0    0    0  501  0.00000000000E+00  0.00000000000E+00  0.22991949209E+04  0.22991949209E+04  0.25500000920E-02 0. -1.
        2   -1    0    0  501    0  0.00000000000E+00  0.00000000000E+00 -0.16447680115E+04  0.16447680115E+04  0.25500000920E-02 0.  1.
    10030    2    1    2    0    0  0.00000000000E+00  0.00000000000E+00  0.65442690937E+03  0.39439629323E+04  0.38892890137E+04 0.  0.
        1    1    3    3  502    0 -0.43398646766E+03 -0.14808777465E+04  0.15271907065E+04  0.21710952554E+04  0.50400001928E-02 0. -1.
       -1    1    3    3    0  502  0.43398646766E+03  0.14808777465E+04 -0.87276379713E+03  0.17728676769E+04  0.50400001928E-02 0.  1.
</event>
<event>
 5   0  0.1164500E-08  0.3895475E+04  0.7818609E-02  0.8025971E-01
        1   -1    0    0  501    0  0.00000000000E+00  0.00000000000E+00  0.25849067173E+04  0.25849067173E+04  0.50400001928E-02 0. -1.
       -1   -1    0    0    0  501  0.00000000000E+00  0.00000000000E+00 -0.14676276479E+04  0.14676276479E+04  0.50400001928E-02 0.  1.
    10030    2    1    2    0    0  0.00000000000E+00  0.00000000000E+00  0.11172790694E+04  0.40525343652E+04  0.38954745876E+04 0.  0.
        4    1    3    3  502    0  0.18839306055E+03  0.10703527963E+04  0.22401405416E+04  0.24898550787E+04  0.12699999809E+01 0. -1.
       -4    1    3    3    0  502 -0.18839306055E+03 -0.10703527963E+04 -0.11228614722E+04  0.15626792865E+04  0.12699999809E+01 0.  1.
</event>
<event>
 5   0  0.1164500E-08  0.3901080E+04  0.7818609E-02  0.8024805E-01
       -1   -1    0    0    0  501  0.00000000000E+00  0.00000000000E+00  0.18990966951E+04  0.18990966951E+04  0.50400001928E-02 0. -1.
        1   -1    0    0  501    0  0.00000000000E+00  0.00000000000E+00 -0.20033771095E+04  0.20033771095E+04  0.50400001928E-02 0.  1.
    10030    2    1    2    0    0  0.00000000000E+00  0.00000000000E+00 -0.10428041446E+03  0.39024738046E+04  0.39010802851E+04 0.  0.
        1    1    3    3  502    0 -0.83531748878E+03  0.15773109807E+04 -0.83914965988E+03  0.19722670683E+04  0.50400001928E-02 0.  1.
       -1    1    3    3    0  502  0.83531748878E+03 -0.15773109807E+04  0.73486924541E+03  0.19302067363E+04  0.50400001928E-02 0. -1.
</event>
<event>
 5   0  0.1164500E-08  0.3905132E+04  0.7818609E-02  0.8023963E-01
       -1   -1    0    0    0  501  0.00000000000E+00  0.00000000000E+00  0.14613357101E+04  0.14613357101E+04  0.50400001928E-02 0.  1.
        1   -1    0    0  501    0  0.00000000000E+00  0.00000000000E+00 -0.26089243707E+04  0.26089243707E+04  0.50400001928E-02 0. -1.
    10030    2    1    2    0    0  0.00000000000E+00  0.00000000000E+00 -0.11475886606E+04  0.40702600808E+04  0.39051321861E+04 0.  0.
        2    1    3    3  502    0  0.11344468290E+04 -0.14811699599E+04  0.26475137250E+02  0.18658871860E+04  0.25500000920E-02 0.  1.
       -2    1    3    3    0  502 -0.11344468290E+04  0.14811699599E+04 -0.11740637979E+04  0.22043728948E+04  0.25500000920E-02 0. -1.
</event>
<event>
 5   0  0.3690572E-08  0.3912288E+04  0.7818609E-02  0.8022478E-01
        2   -1    0    0  501    0  0.00000000000E+00  0.00000000000E+00  0.17756578982E+04  0.17756578982E+04  0.25500000920E-02 0.  1.
       -2   -1    0    0    0  501  0.00000000000E+00  0.00000000000E+00 -0.21549755392E+04  0.21549755392E+04  0.25500000920E-02 0. -1.
    10030    2    1    2    0    0  0.00000000000E+00  0.00000000000E+00 -0.37931764098E+03  0.39306334373E+04  0.39122879937E+04 0.  0.
        3    1    3    3  502    0  0.62266947640E+02  0.61359426379E+03 -0.20547376495E+04  0.21453022892E+04  0.10100000352E+00 0. -1.
       -3    1    3    3    0  502 -0.62266947640E+02 -0.61359426379E+03  0.16754200086E+04  0.17853311482E+04  0.10100000352E+00 0.  1.
</event>
<event>
 5   0  0.1164500E-08  0.3901810E+04  0.7818609E-02  0.8024653E-01
       -1   -1    0    0    0  501  0.00000000000E+00  0.00000000000E+00  0.23962484067E+04  0.23962484067E+04  0.50400001928E-02 0. -1.
        1   -1    0    0  501    0  0.00000000000E+00  0.00000000000E+00 -0.15883286990E+04  0.15883286991E+04  0.50400001928E-02 0.  1.
    10030    2    1    2    0    0  0.00000000000E+00  0.00000000000E+00  0.80791970764E+03  0.39845771057E+04  0.39018098951E+04 0.  0.
        4    1    3    3  502    0  0.94389613291E+03  0.10025918035E+04 -0.10073463379E+04  0.17061296819E+04  0.12699999809E+01 0.  1.
       -4    1    3    3    0  502 -0.94389613291E+03 -0.10025918035E+04  0.18152660455E+04  0.22784474238E+04  0.12699999809E+01 0. -1.
</event>
<event>
 5   0  0.1164500E-08  0.3900304E+04  0.7818609E-02  0.8024966E-01
        1   -1    0    0  501    0  0.00000000000E+00  0.00000000000E+00  0.24760247532E+04  0.24760247532E+04  0.50400001928E-02 0. -1.
       -1   -1    0    0    0  501  0.00000000000E+00  0.00000000000E+00 -0.15359671758E+04  0.15359671758E+04  0.50400001928E-02 0.  1.
    10030    2    1    2    0    0  0.00000000000E+00  0.00000000000E+00  0.94005757743E+03  0.40119919290E+04  0.39003039611E+04 0.  0.
        2    1    3    3  502    0 -0.96560119373E+03 -0.19122926524E+03  0.22017266781E+04  0.24117534415E+04  0.25500000920E-02 0. -1.
       -2    1    3    3    0  502  0.96560119373E+03  0.19122926524E+03 -0.12616691007E+04  0.16002384875E+04  0.25500000920E-02 0.  1.
</event>
<event>
 5   0  0.3872969E-08  0.3897085E+04  0.7818609E-02  0.8025636E-01
        2   -1    0    0  501    0  0.00000000000E+00  0.00000000000E+00  0.16966011753E+04  0.16966011753E+04  0.25500000920E-02 0. -1.
       -2   -1    0    0    0  501  0.00000000000E+00  0.00000000000E+00 -0.22378966005E+04  0.22378966005E+04  0.25500000920E-02 0.  1.
    10030    2    1    2    0    0  0.00000000000E+00  0.00000000000E+00 -0.54129542528E+03  0.39344977758E+04  0.38970850658E+04 0.  0.
        2    1    3    3  502    0  0.10176271256E+04 -0.69146724382E+03  0.12548598555E+04  0.17573745113E+04  0.25500000920E-02 0. -1.
       -2    1    3    3    0  502 -0.10176271256E+04  0.69146724382E+03 -0.17961552808E+04  0.21771232645E+04  0.25500000920E-02 0.  1.
</event>
<event>
 5   0  0.1164500E-08  0.3897683E+04  0.7818609E-02  0.8025511E-01
       -1   -1    0    0    0  501  0.00000000000E+00  0.00000000000E+00  0.13887898012E+04  0.13887898012E+04  0.50400001928E-02 0.  1.
        1   -1    0    0  501    0  0.00000000000E+00  0.00000000000E+00 -0.27347432475E+04  0.27347432475E+04  0.50400001928E-02 0. -1.
    10030    2    1    2    0    0  0.00000000000E+00  0.00000000000E+00 -0.13459534462E+04  0.41235330487E+04  0.38976831739E+04 0.  0.
        3    1    3    3  502    0 -0.39697739212E+03 -0.73912889379E+03  0.11879478954E+04  0.14543461705E+04  0.10100000352E+00 0.  1.
       -3    1    3    3    0  502  0.39697739212E+03  0.73912889379E+03 -0.25339013416E+04  0.26691868782E+04  0.10100000352E+00 0. -1.
</event>
<event>
 5   0  0.3669347E-08  0.3899236E+04  0.7818609E-02  0.8025188E-01
        2   -1    0    0  501    0  0.00000000000E+00  0.00000000000E+00  0.13365894082E+04  0.13365894082E+04  0.25500000920E-02 0.  1.
       -2   -1    0    0    0  501  0.00000000000E+00  0.00000000000E+00 -0.28438124035E+04  0.28438124035E+04  0.25500000920E-02 0. -1.
    10030    2    1    2    0    0  0.00000000000E+00  0.00000000000E+00 -0.15072229954E+04  0.41804018117E+04  0.38992355853E+04 0.  0.
        5    1    3    3  502    0 -0.12640786994E+04  0.14486980193E+04 -0.40725830873E+03  0.19653249934E+04  0.46999998093E+01 0.  1.
       -5    1    3    3    0  502  0.12640786994E+04 -0.14486980193E+04 -0.10999646866E+04  0.22150768184E+04  0.46999998093E+01 0. -1.
</event>
<event>
 5   0  0.1164500E-08  0.3907216E+04  0.7818609E-02  0.8023530E-01
        1   -1    0    0  501    0  0.00000000000E+00  0.00000000000E+00  0.27638701196E+04  0.27638701196E+04  0.50400001928E-02 0. -1.
       -1   -1    0    0    0  501  0.00000000000E+00  0.00000000000E+00 -0.13808840424E+04  0.13808840424E+04  0.50400001928E-02 0.  1.
    10030    2    1    2    0    0  0.00000000000E+00  0.00000000000E+00  0.13829860772E+04  0.41447541621E+04  0.39072159621E+04 0.  0.
        3    1    3    3  502    0  0.11897931832E+04 -0.15442339608E+04  0.82700012659E+03  0.21175919258E+04  0.10100000352E+00 0. -1.
       -3    1    3    3    0  502 -0.11897931832E+04  0.15442339608E+04  0.55598595062E+03  0.20271622363E+04  0.10100000352E+00 0.  1.
</event>
<event>
 5   0  0.3872969E-08  0.3902738E+04  0.7818609E-02  0.8024460E-01
       -2   -1    0    0    0  501  0.00000000000E+00  0.00000000000E+00  0.17469750602E+04  0.17469750602E+04  0.25500000920E-02 0. -1.
        2   -1    0    0  501    0  0.00000000000E+00  0.00000000000E+00 -0.21796767505E+04  0.21796767506E+04  0.25500000920E-02 0.  1.
    10030    2    1    2    0    0  0.00000000000E+00  0.00000000000E+00 -0.43270169031E+03  0.39266518108E+04  0.39027379736E+04 0.  0.
        2    1    3    3  502    0 -0.25426037580E+03  0.97943627776E+03  0.14623742884E+04  0.17783369535E+04  0.25500000920E-02 0. -1.
       -2    1    3    3    0  502  0.25426037580E+03 -0.97943627776E+03 -0.18950759787E+04  0.21483148573E+04  0.25500000920E-02 0.  1.
</event>
<event>
 5   0  0.3872969E-08  0.3883664E+04  0.7818609E-02  0.8028435E-01
       -2   -1    0    0    0  501  0.00000000000E+00  0.00000000000E+00  0.12675247890E+04  0.12675247890E+04  0.25500000920E-02 0. -1.
        2   -1    0    0  501    0  0.00000000000E+00  0.00000000000E+00 -0.29748619526E+04  0.29748619526E+04  0.25500000920E-02 0.  1.
    10030    2    1    2    0    0  0.00000000000E+00  0.00000000000E+00 -0.17073371637E+04  0.42423867416E+04  0.38836638726E+04 0.  0.
        2    1    3    3  502    0  0.16788775125E+04  0.70081667032E+03 -0.11203451356E+03  0.18227247295E+04  0.25500000920E-02 0. -1.
       -2    1    3    3    0  502 -0.16788775125E+04 -0.70081667032E+03 -0.15953026501E+04  0.24196620121E+04  0.25500000920E-02 0.  1.
</event>
<event>
 5   0  0.1164500E-08  0.3889347E+04  0.7818609E-02  0.8027248E-01
       -1   -1    0    0    0  501  0.00000000000E+00  0.00000000000E+00  0.13308928997E+04  0.13308928997E+04  0.50400001928E-02 0.  1.
        1   -1    0    0  501    0  0.00000000000E+00  0.00000000000E+00 -0.28415171839E+04  0.28415171840E+04  0.50400001928E-02 0. -1.
    10030    2    1    2    0    0  0.00000000000E+00  0.00000000000E+00 -0.15106242843E+04  0.41724100836E+04  0.38893470118E+04 0.  0.
        1    1    3    3  502    0  0.94965682050E+03 -0.14214992184E+04  0.23910657541E+03  0.17261749793E+04  0.50400001928E-02 0.  1.
       -1    1    3    3    0  502 -0.94965682050E+03  0.14214992184E+04 -0.17497308597E+04  0.24462351044E+04  0.50400001928E-02 0. -1.
</event>
<event>
 5   0  0.3690572E-08  0.3900747E+04  0.7818609E-02  0.8024874E-01
       -2   -1    0    0    0  501  0.00000000000E+00  0.00000000000E+00  0.11407584794E+04  0.11407584794E+04  0.25500000920E-02 0.  1.
        2   -1    0    0  501    0  0.00000000000E+00  0.00000000000E+00 -0.33345858065E+04  0.33345858065E+04  0.25500000920E-02 0. -1.
    10030    2    1    2    0    0  0.00000000000E+00  0.00000000000E+00 -0.21938273271E+04  0.44753442858E+04  0.39007471253E+04 0.  0.
        3    1    3    3  502    0 -0.12176400586E+04 -0.13282980470E+04 -0.24070321457E+03  0.18179551869E+04  0.10100000352E+00 0. -1.
       -3    1    3    3    0  502  0.12176400586E+04  0.13282980470E+04 -0.19531241125E+04  0.26573890989E+04  0.10100000352E+00 0.  1.
</event>
<event>
 5   0  0.3872969E-08  0.3887742E+04  0.7818609E-02  0.8027584E-01
        2   -1    0    0  501    0  0.00000000000E+00  0.00000000000E+00  0.21917800195E+04  0.21917800195E+04  0.25500000920E-02 0. -1.
       -2   -1    0    0    0  501  0.00000000000E+00  0.00000000000E+00 -0.17240022787E+04  0.17240022787E+04  0.25500000920E-02 0.  1.
    10030    2    1    2    0    0  0.00000000000E+00  0.00000000000E+00  0.46777774078E+03  0.39157822982E+04  0.38877416314E+04 0.  0.
        2    1    3    3  502    0  0.10784766009E+03 -0.79362469135E+03 -0.15500897676E+04  0.17447777957E+04  0.25500000920E-02 0.  1.
       -2    1    3    3    0  502 -0.10784766009E+03  0.79362469135E+03  0.20178675084E+04  0.21710045025E+04  0.25500000920E-02 0. -1.
</event>
<event>
 5   0  0.1164500E-08  0.3901323E+04  0.7818609E-02  0.8024754E-01
        1   -1    0    0  501    0  0.00000000000E+00  0.00000000000E+00  0.21918489887E+04  0.21918489887E+04  0.50400001928E-02 0. -1.
       -1   -1    0    0    0  501  0.00000000000E+00  0.00000000000E+00 -0.17360137360E+04  0.17360137360E+04  0.50400001928E-02 0.  1.
    10030    2    1    2    0    0  0.00000000000E+00  0.00000000000E+00  0.45583525270E+03  0.39278627246E+04  0.39013228277E+04 0.  0.
        3    1    3    3  502    0 -0.10478772587E+04 -0.94451620191E+03 -0.11284375683E+04  0.18065239995E+04  0.10100000352E+00 0.  1.
       -3    1    3    3    0  502  0.10478772587E+04  0.94451620191E+03  0.15842728210E+04  0.21213387251E+04  0.10100000352E+00 0. -1.
</event>
<event>
 5   0  0.1164500E-08  0.3896577E+04  0.7818609E-02  0.8025742E-01
        1   -1    0    0  501    0  0.00000000000E+00  0.00000000000E+00  0.14484971230E+04  0.14484971230E+04  0.50400001928E-02 0. -1.
       -1   -1    0    0    0  501  0.00000000000E+00  0.00000000000E+00 -0.26205279769E+04  0.26205279769E+04  0.50400001928E-02 0.  1.
    10030    2    1    2    0    0  0.00000000000E+00  0.00000000000E+00 -0.11720308538E+04  0.40690250999E+04  0.38965765668E+04 0.  0.
        5    1    3    3  502    0 -0.35724760154E+02 -0.16875779000E+04 -0.16020129139E+04  0.23271576856E+04  0.46999998093E+01 0.  1.
       -5    1    3    3    0  502  0.35724760154E+02  0.16875779000E+04  0.42998206006E+03  0.17418674143E+04  0.46999998093E+01 0. -1.
</event>
<event>
 5   0  0.1164500E-08  0.3900445E+04  0.7818609E-02  0.8024937E-01
       -1   -1    0    0    0  501  0.00000000000E+00  0.00000000000E+00  0.17439949651E+04  0.17439949651E+04  0.50400001928E-02 0.  1.
        1   -1    0    0  501    0  0.00000000000E+00  0.00000000000E+00 -0.21808363138E+04  0.21808363138E+04  0.50400001928E-02 0. -1.
    10030    2    1    2    0    0  0.00000000000E+00  0.00000000000E+00 -0.43684134873E+03  0.39248312789E+04  0.39004448726E+04 0.  0.
        4    1    3    3  502    0 -0.17413748369E+03  0.16670381865E+04  0.78482123798E+03  0.18507528649E+04  0.12699999809E+01 0.  1.
       -4    1    3    3    0  502  0.17413748369E+03 -0.16670381865E+04 -0.12216625867E+04  0.20740784140E+04  0.12699999809E+01 0. -1.
</event>
<event>
 5   0  0.3690572E-08  0.3902393E+04  0.7818609E-02  0.8024532E-01
        2   -1    0    0  501    0  0.00000000000E+00  0.00000000000E+00  0.24918322103E+04  0.24918322103E+04  0.25500000920E-02 0.  1.
       -2   -1    0    0    0  501  0.00000000000E+00  0.00000000000E+00 -0.15278591899E+04  0.15278591899E+04  0.25500000920E-02 0. -1.
    10030    2    1    2    0    0  0.00000000000E+00  0.00000000000E+00  0.96397302039E+03  0.40196914003E+04  0.39023934924E+04 0.  0.
        3    1    3    3  502    0 -0.56663477262E+03  0.18655094572E+04  0.40241007162E+03  0.19907622601E+04  0.10100000352E+00 0. -1.
       -3    1    3    3    0  502  0.56663477262E+03 -0.18655094572E+04  0.56156294878E+03  0.20289291402E+04  0.10100000352E+00 0.  1.
</event>
<event>
 5   0  0.3872969E-08  0.3862700E+04  0.7818609E-02  0.8032832E-01
        2   -1    0    0  501    0  0.00000000000E+00  0.00000000000E+00  0.14196546844E+04  0.14196546844E+04  0.25500000920E-02 0.  1.
       -2   -1    0    0    0  501  0.00000000000E+00  0.00000000000E+00 -0.26274789365E+04  0.26274789365E+04  0.25500000920E-02 0. -1.
    10030    2    1    2    0    0  0.00000000000E+00  0.00000000000E+00 -0.12078242520E+04  0.40471336209E+04  0.38626999782E+04 0.  0.
        2    1    3    3  502    0  0.51029251304E+03  0.22471551856E+02 -0.25554267991E+04  0.26059757376E+04  0.25500000920E-02 0. -1.
       -2    1    3    3    0  502 -0.51029251304E+03 -0.22471551856E+02  0.13476025471E+04  0.14411578832E+04  0.25500000920E-02 0.  1.
</event>
<event>
 5   0  0.3724293E-08  0.3894402E+04  0.7818609E-02  0.8026195E-01
        2   -1    0    0  501    0  0.00000000000E+00  0.00000000000E+00  0.19543571996E+04  0.19543571996E+04  0.25500000920E-02 0. -1.
       -2   -1    0    0    0  501  0.00000000000E+00  0.00000000000E+00 -0.19400706902E+04  0.19400706902E+04  0.25500000920E-02 0.  1.
    10030    2    1    2    0    0  0.00000000000E+00  0.00000000000E+00  0.14286509402E+02  0.38944278898E+04  0.38944016850E+04 0.  0.
        4    1    3    3  502    0  0.82596924415E+03 -0.11723816321E+04 -0.13100161784E+04  0.19423820129E+04  0.12699999809E+01 0.  1.
       -4    1    3    3    0  502 -0.82596924415E+03  0.11723816321E+04  0.13243026878E+04  0.19520458769E+04  0.12699999809E+01 0. -1.
</event>
<event>
 5   0  0.1164500E-08  0.3901274E+04  0.7818609E-02  0.8024764E-01
        1   -1    0    0  501    0  0.00000000000E+00  0.00000000000E+00  0.22532114324E+04  0.22532114324E+04  0.50400001928E-02 0.  1.
       -1   -1    0    0    0  501  0.00000000000E+00  0.00000000000E+00 -0.16886939212E+04  0.16886939212E+04  0.50400001928E-02 0. -1.
    10030    2    1    2    0    0  0.00000000000E+00  0.00000000000E+00  0.56451751126E+03  0.39419053536E+04  0.39012738684E+04 0.  0.
        2    1    3    3  502    0  0.18357933112E+04 -0.45506817455E+03  0.76447161747E+03  0.20400100438E+04  0.25500000920E-02 0.  1.
       -2    1    3    3    0  502 -0.18357933112E+04  0.45506817455E+03 -0.19995410621E+03  0.19018953098E+04  0.25500000920E-02 0. -1.
</event>
<event>
 5   0  0.3690572E-08  0.3900335E+04  0.7818609E-02  0.8024960E-01
        2   -1    0    0  501    0  0.00000000000E+00  0.00000000000E+00  0.27451566982E+04  0.27451566982E+04  0.25500000920E-02 0.  1.
       -2   -1    0    0    0  501  0.00000000000E+00  0.00000000000E+00 -0.13854044735E+04  0.13854044735E+04  0.25500000920E-02 0. -1.
    10030    2    1    2    0    0  0.00000000000E+00  0.00000000000E+00  0.13597522247E+04  0.41305611718E+04  0.39003345345E+04 0.  0.
        3    1    3    3  502    0  0.53324527378E+03  0.12966451887E+04  0.21154396565E+04  0.25378581950E+04  0.10100000352E+00 0. -1.
       -3    1    3    3    0  502 -0.53324527378E+03 -0.12966451887E+04 -0.75568743180E+03  0.15927029768E+04  0.10100000352E+00 0.  1.
</event>
<event>
 5   0  0.3872969E-08  0.3917633E+04  0.7818609E-02  0.8021372E-01
        2   -1    0    0  501    0  0.00000000000E+00  0.00000000000E+00  0.21883135117E+04  0.21883135117E+04  0.25500000920E-02 0.  1.
       -2   -1    0    0    0  501  0.00000000000E+00  0.00000000000E+00 -0.17533878859E+04  0.17533878859E+04  0.25500000920E-02 0. -1.
    10030    2    1    2    0    0  0.00000000000E+00  0.00000000000E+00  0.43492562586E+03  0.39417013976E+04  0.39176331640E+04 0.  0.
        2    1    3    3  502    0 -0.11952668277E+04  0.30447653196E+03 -0.13135933755E+04  0.18019146217E+04  0.25500000920E-02 0. -1.
       -2    1    3    3    0  502  0.11952668277E+04 -0.30447653196E+03  0.17485190014E+04  0.21397867758E+04  0.25500000920E-02 0.  1.
</event>
<event>
 5   0  0.1164500E-08  0.3868433E+04  0.7818609E-02  0.8031627E-01
       -1   -1    0    0    0  501  0.00000000000E+00  0.00000000000E+00  0.31218024425E+04  0.31218024425E+04  0.50400001928E-02 0. -1.
        1   -1    0    0  501    0  0.00000000000E+00  0.00000000000E+00 -0.11984080092E+04  0.11984080092E+04  0.50400001928E-02 0.  1.
    10030    2    1    2    0    0  0.00000000000E+00  0.00000000000E+00  0.19233944333E+04  0.43202104517E+04  0.38684327835E+04 0.  0.
        1    1    3    3  502    0 -0.81705558394E+03 -0.17488420473E+04  0.82417052417E+03  0.20988771728E+04  0.50400001928E-02 0.  1.
       -1    1    3    3    0  502  0.81705558394E+03  0.17488420473E+04  0.10992239091E+04  0.22213332789E+04  0.50400001928E-02 0. -1.
</event>
<event>
 5   0  0.1164500E-08  0.3914129E+04  0.7818609E-02  0.8022097E-01
        1   -1    0    0  501    0  0.00000000000E+00  0.00000000000E+00  0.19961145550E+04  0.19961145550E+04  0.50400001928E-02 0. -1.
       -1   -1    0    0    0  501  0.00000000000E+00  0.00000000000E+00 -0.19187788320E+04  0.19187788320E+04  0.50400001928E-02 0.  1.
    10030    2    1    2    0    0  0.00000000000E+00  0.00000000000E+00  0.77335722921E+02  0.39148933870E+04  0.39141294585E+04 0.  0.
        5    1    3    3  502    0 -0.14740546265E+04 -0.11355103025E+04 -0.56796479593E+03  0.19454631296E+04  0.46999998093E+01 0.  1.
       -5    1    3    3    0  502  0.14740546265E+04  0.11355103025E+04  0.64530051885E+03  0.19694302574E+04  0.46999998093E+01 0. -1.
</event>
<event>
 5   0  0.1164500E-08  0.3898465E+04  0.7818609E-02  0.8025349E-01
       -1   -1    0    0    0  501  0.00000000000E+00  0.00000000000E+00  0.17686498619E+04  0.17686498619E+04  0.50400001928E-02 0.  1.
        1   -1    0    0  501    0  0.00000000000E+00  0.00000000000E+00 -0.21482529354E+04  0.21482529354E+04  0.50400001928E-02 0. -1.
    10030    2    1    2    0    0  0.00000000000E+00  0.00000000000E+00 -0.37960307352E+03  0.39169027973E+04  0.38984649582E+04 0.  0.
        4    1    3    3  502    0 -0.13644851912E+04  0.19883403134E+03  0.11944484228E+04  0.18242980723E+04  0.12699999809E+01 0.  1.
       -4    1    3    3    0  502  0.13644851912E+04 -0.19883403134E+03 -0.15740514963E+04  0.20926047250E+04  0.12699999809E+01 0. -1.
</event>
<event>
 5   0  0.1164500E-08  0.3894315E+04  0.7818609E-02  0.8026213E-01
       -1   -1    0    0    0  501  0.00000000000E+00  0.00000000000E+00  0.11410809552E+04  0.11410809552E+04  0.50400001928E-02 0.  1.
        1   -1    0    0  501    0  0.00000000000E+00  0.00000000000E+00 -0.33226578889E+04  0.33226578889E+04  0.50400001928E-02 0. -1.
    10030    2    1    2    0    0  0.00000000000E+00  0.00000000000E+00 -0.21815769337E+04  0.44637388441E+04  0.38943146446E+04 0.  0.
        3    1    3    3  502    0 -0.95521008009E+03 -0.77941572240E+03  0.63673807379E+03  0.13875700163E+04  0.10100000352E+00 0.  1.
       -3    1    3    3    0  502  0.95521008009E+03  0.77941572240E+03 -0.28183150075E+04  0.30761688278E+04  0.10100000352E+00 0. -1.
</event>
<event>
 5   0  0.3690572E-08  0.3901010E+04  0.7818609E-02  0.8024819E-01
        2   -1    0    0  501    0  0.00000000000E+00  0.00000000000E+00  0.23731898148E+04  0.23731898148E+04  0.25500000920E-02 0.  1.
       -2   -1    0    0    0  501  0.00000000000E+00  0.00000000000E+00 -0.16031040299E+04  0.16031040299E+04  0.25500000920E-02 0. -1.
    10030    2    1    2    0    0  0.00000000000E+00  0.00000000000E+00  0.77008578489E+03  0.39762938447E+04  0.39010102055E+04 0.  0.
        3    1    3    3  502    0  0.14105359741E+04 -0.32469981900E+03  0.17177258588E+04  0.22462466122E+04  0.10100000352E+00 0.  1.
       -3    1    3    3    0  502 -0.14105359741E+04  0.32469981900E+03 -0.94764007389E+03  0.17300472325E+04  0.10100000352E+00 0. -1.
</event>
<event>
 5   0  0.1164500E-08  0.3908528E+04  0.7818609E-02  0.8023258E-01
        1   -1    0    0  501    0  0.00000000000E+00  0.00000000000E+00  0.24395729942E+04  0.24395729942E+04  0.50400001928E-02 0. -1.
       -1   -1    0    0    0  501  0.00000000000E+00  0.00000000000E+00 -0.15654988344E+04  0.15654988344E+04  0.50400001928E-02 0.  1.
    10030    2    1    2    0    0  0.00000000000E+00  0.00000000000E+00  0.87407415977E+03  0.40050718286E+04  0.39085284591E+04 0.  0.
        4    1    3    3  502    0  0.13597769709E+04  0.11366065331E+04  0.12809571097E+04  0.21867145564E+04  0.12699999809E+01 0. -1.
       -4    1    3    3    0  502 -0.13597769709E+04 -0.11366065331E+04 -0.40688294989E+03  0.18183572722E+04  0.12699999809E+01 0.  1.
</event>
<event>
 5   0  0.3769985E-08  0.3902226E+04  0.7818609E-02  0.8024566E-01
       -2   -1    0    0    0  501  0.00000000000E+00  0.00000000000E+00  0.16755374259E+04  0.16755374259E+04  0.25500000920E-02 0.  1.
        2   -1    0    0  501    0  0.00000000000E+00  0.00000000000E+00 -0.22720128380E+04  0.22720128380E+04  0.25500000920E-02 0. -1.
    10030    2    1    2    0    0  0.00000000000E+00  0.00000000000E+00 -0.59647541213E+03  0.39475502640E+04  0.39022263093E+04 0.  0.
        1    1    3    3  502    0 -0.87480801850E+03 -0.18116449863E+03  0.14564790903E+04  0.17086371719E+04  0.50400001928E-02 0.  1.
       -1    1    3    3    0  502  0.87480801850E+03  0.18116449863E+03 -0.20529545024E+04  0.22389130920E+04  0.50400001928E-02 0. -1.
</event>
<event>
 5   0  0.1164500E-08  0.3905579E+04  0.7818609E-02  0.8023870E-01
        1   -1    0    0  501    0  0.00000000000E+00  0.00000000000E+00  0.16277036192E+04  0.16277036192E+04  0.50400001928E-02 0.  1.
       -1   -1    0    0    0  501  0.00000000000E+00  0.00000000000E+00 -0.23428017970E+04  0.23428017970E+04  0.50400001928E-02 0. -1.
    10030    2    1    2    0    0  0.00000000000E+00  0.00000000000E+00 -0.71509817779E+03  0.39705054162E+04  0.39055790680E+04 0.  0.
        2    1    3    3  502    0  0.35004017248E+03 -0.26913724284E+02 -0.23104556110E+04  0.23369761662E+04  0.25500000920E-02 0. -1.
       -2    1    3    3    0  502 -0.35004017248E+03  0.26913724284E+02  0.15953574332E+04  0.16335292500E+04  0.25500000920E-02 0.  1.
</event>
<event>
 5   0  0.1164500E-08  0.3909485E+04  0.7818609E-02  0.8023059E-01
       -1   -1    0    0    0  501  0.00000000000E+00  0.00000000000E+00  0.18477711966E+04  0.18477711966E+04  0.50400001928E-02 0.  1.
        1   -1    0    0  501    0  0.00000000000E+00  0.00000000000E+00 -0.20679067636E+04  0.20679067636E+04  0.50400001928E-02 0. -1.
    10030    2    1    2    0    0  0.00000000000E+00  0.00000000000E+00 -0.22013556700E+03  0.39156779603E+04  0.39094851606E+04 0.  0.
        5    1    3    3  502    0 -0.65900983324E+03  0.14382519096E+04 -0.12599865733E+04  0.20224862845E+04  0.46999998093E+01 0. -1.
       -5    1    3    3    0  502  0.65900983324E+03 -0.14382519096E+04  0.10398510063E+04  0.18931916758E+04  0.46999998093E+01 0.  1.
</event>
<event>
 5   0  0.3769985E-08  0.3902608E+04  0.7818609E-02  0.8024487E-01
        2   -1    0    0  501    0  0.00000000000E+00  0.00000000000E+00  0.24061362908E+04  0.24061362908E+04  0.25500000920E-02 0. -1.
       -2   -1    0    0    0  501  0.00000000000E+00  0.00000000000E+00 -0.15824489783E+04  0.15824489783E+04  0.25500000920E-02 0.  1.
    10030    2    1    2    0    0  0.00000000000E+00  0.00000000000E+00  0.82368731251E+03  0.39885852692E+04  0.39026083150E+04 0.  0.
        1    1    3    3  502    0  0.12319095516E+04  0.60913139320E+02 -0.11335114035E+04  0.16751595911E+04  0.50400001928E-02 0.  1.
       -1    1    3    3    0  502 -0.12319095516E+04 -0.60913139320E+02  0.19571987160E+04  0.23134256780E+04  0.50400001928E-02 0. -1.
</event>
<event>
 5   0  0.1164500E-08  0.3891488E+04  0.7818609E-02  0.8026802E-01
       -1   -1    0    0    0  501  0.00000000000E+00  0.00000000000E+00  0.28302385299E+04  0.28302385299E+04  0.50400001928E-02 0. -1.
        1   -1    0    0  501    0  0.00000000000E+00  0.00000000000E+00 -0.13376682495E+04  0.13376682495E+04  0.50400001928E-02 0.  1.
    10030    2    1    2    0    0  0.00000000000E+00  0.00000000000E+00  0.14925702804E+04  0.41679067794E+04  0.38914882603E+04 0.  0.
        4    1    3    3  502    0  0.69109423884E+03 -0.16399253387E+04  0.15889033551E+04  0.23857036379E+04  0.12699999809E+01 0. -1.
       -4    1    3    3    0  502 -0.69109423884E+03  0.16399253387E+04 -0.96333074667E+02  0.17822031415E+04  0.12699999809E+01 0.  1.
</event>
<event>
 5   0  0.3872969E-08  0.3861575E+04  0.7818609E-02  0.8033069E-01
        2   -1    0    0  501    0  0.00000000000E+00  0.00000000000E+00  0.12635475022E+04  0.12635475022E+04  0.25500000920E-02 0.  1.
       -2   -1    0    0    0  501  0.00000000000E+00  0.00000000000E+00 -0.29503760363E+04  0.29503760363E+04  0.25500000920E-02 0. -1.
    10030    2    1    2    0    0  0.00000000000E+00  0.00000000000E+00 -0.16868285341E+04  0.42139235385E+04  0.38615749487E+04 0.  0.
        2    1    3    3  502    0 -0.11715536449E+04  0.10202917003E+04  0.40767167225E+03  0.16061535695E+04  0.25500000920E-02 0.  1.
       -2    1    3    3    0  502  0.11715536449E+04 -0.10202917003E+04 -0.20945002064E+04  0.26077699690E+04  0.25500000920E-02 0. -1.
</event>
<event>
 5   0  0.1164500E-08  0.3914012E+04  0.7818609E-02  0.8022121E-01
        1   -1    0    0  501    0  0.00000000000E+00  0.00000000000E+00  0.29254553910E+04  0.29254553910E+04  0.50400001928E-02 0.  1.
       -1   -1    0    0    0  501  0.00000000000E+00  0.00000000000E+00 -0.13091542455E+04  0.13091542455E+04  0.50400001928E-02 0. -1.
    10030    2    1    2    0    0  0.00000000000E+00  0.00000000000E+00  0.16163011455E+04  0.42346096365E+04  0.39140119290E+04 0.  0.
        5    1    3    3  502    0 -0.93872677196E+03  0.14282755123E+04  0.18394734638E+04  0.25109487461E+04  0.46999998093E+01 0.  1.
       -5    1    3    3    0  502  0.93872677196E+03 -0.14282755123E+04 -0.22317231821E+03  0.17236608904E+04  0.46999998093E+01 0. -1.
</event>
<event>
 5   0  0.3690572E-08  0.3904063E+04  0.7818609E-02  0.8024185E-01
       -2   -1    0    0    0  501  0.00000000000E+00  0.00000000000E+00  0.16315841545E+04  0.16315841545E+04  0.25500000920E-02 0.  1.
        2   -1    0    0  501    0  0.00000000000E+00  0.00000000000E+00 -0.23354156608E+04  0.23354156608E+04  0.25500000920E-02 0. -1.
    10030    2    1    2    0    0  0.00000000000E+00  0.00000000000E+00 -0.70383150628E+03  0.39669998153E+04  0.39040631072E+04 0.  0.
        3    1    3    3  502    0  0.33626747653E+03  0.14674547536E+04  0.91066411323E+03  0.17594909511E+04  0.10100000352E+00 0.  1.
       -3    1    3    3    0  502 -0.33626747653E+03 -0.14674547536E+04 -0.16144956195E+04  0.22075088642E+04  0.10100000352E+00 0. -1.
</event>
<event>
 5   0  0.1164500E-08  0.3907050E+04  0.7818609E-02  0.8023565E-01
        1   -1    0    0  501    0  0.00000000000E+00  0.00000000000E+00  0.25830028017E+04  0.25830028017E+04  0.50400001928E-02 0.  1.
       -1   -1    0    0    0  501  0.00000000000E+00  0.00000000000E+00 -0.14774508322E+04  0.14774508322E+04  0.50400001928E-02 0. -1.
    10030    2    1    2    0    0  0.00000000000E+00  0.00000000000E+00  0.11055519695E+04  0.40604536339E+04  0.39070498533E+04 0.  0.
        2    1    3    3  502    0 -0.93476620418E+03  0.17050231177E+04  0.35732829099E+03  0.19770116833E+04  0.25500000920E-02 0. -1.
       -2    1    3    3    0  502  0.93476620418E+03 -0.17050231177E+04  0.74822367847E+03  0.20834419506E+04  0.25500000920E-02 0.  1.
</event>
<event>
 5   0  0.3872969E-08  0.3908255E+04  0.7818609E-02  0.8023315E-01
        2   -1    0    0  501    0  0.00000000000E+00  0.00000000000E+00  0.23939257807E+04  0.23939257807E+04  0.25500000920E-02 0. -1.
       -2   -1    0    0    0  501  0.00000000000E+00  0.00000000000E+00 -0.15951264473E+04  0.15951264473E+04  0.25500000920E-02 0.  1.
    10030    2    1    2    0    0  0.00000000000E+00  0.00000000000E+00  0.79879933341E+03  0.39890522280E+04  0.39082550201E+04 0.  0.
        2    1    3    3  502    0 -0.14896578883E+04 -0.78119759689E+03  0.14145793885E+04  0.21978137218E+04  0.25500000920E-02 0. -1.
       -2    1    3    3    0  502  0.14896578883E+04  0.78119759689E+03 -0.61578005514E+03  0.17912385061E+04  0.25500000920E-02 0.  1.
</event>
<event>
 5   0  0.3769985E-08  0.3900422E+04  0.7818609E-02  0.8024941E-01
       -2   -1    0    0    0  501  0.00000000000E+00  0.00000000000E+00  0.16088404941E+04  0.16088404941E+04  0.25500000920E-02 0.  1.
        2   -1    0    0  501    0  0.00000000000E+00  0.00000000000E+00 -0.23640150534E+04  0.23640150534E+04  0.25500000920E-02 0. -1.
    10030    2    1    2    0    0  0.00000000000E+00  0.00000000000E+00 -0.75517455932E+03  0.39728555475E+04  0.39004221036E+04 0.  0.
        1    1    3    3  502    0 -0.41673812492E+03 -0.18747955245E+04 -0.72269222444E+03  0.20520265531E+04  0.50400001928E-02 0.  1.
       -1    1    3    3    0  502  0.41673812492E+03  0.18747955245E+04 -0.32482334880E+02  0.19208289944E+04  0.50400001928E-02 0. -1.
</event>
<event>
 5   0  0.1164500E-08  0.3907946E+04  0.7818609E-02  0.8023379E-01
       -1   -1    0    0    0  501  0.00000000000E+00  0.00000000000E+00  0.14687294287E+04  0.14687294287E+04  0.50400001928E-02 0.  1.
        1   -1    0    0  501    0  0.00000000000E+00  0.00000000000E+00 -0.25995334665E+04  0.25995334665E+04  0.50400001928E-02 0. -1.
    10030    2    1    2    0    0  0.00000000000E+00  0.00000000000E+00 -0.11308040378E+04  0.40682628952E+04  0.39079464189E+04 0.  0.
        3    1    3    3  502    0 -0.34997991176E+03 -0.10313317957E+04 -0.22542612725E+04  0.25035624830E+04  0.10100000352E+00 0. -1.
       -3    1    3    3    0  502  0.34997991176E+03  0.10313317957E+04  0.11234572347E+04  0.15647004122E+04  0.10100000352E+00 0.  1.
</event>
<event>
 5   0  0.1164500E-08  0.3905954E+04  0.7818609E-02  0.8023792E-01
        1   -1    0    0  501    0  0.00000000000E+00  0.00000000000E+00  0.20271913025E+04  0.20271913025E+04  0.50400001928E-02 0.  1.
       -1   -1    0    0    0  501  0.00000000000E+00  0.00000000000E+00 -0.18814794334E+04  0.18814794334E+04  0.50400001928E-02 0. -1.
    10030    2    1    2    0    0  0.00000000000E+00  0.00000000000E+00  0.14571186912E+03  0.39086707359E+04  0.39059537853E+04 0.  0.
        4    1    3    3  502    0 -0.51377101872E+03  0.17213292182E+04  0.83966709507E+03  0.19829214257E+04  0.12699999809E+01 0.  1.
       -4    1    3    3    0  502  0.51377101872E+03 -0.17213292182E+04 -0.69395522595E+03  0.19257493102E+04  0.12699999809E+01 0. -1.
</event>
<event>
 5   0  0.3872969E-08  0.3985251E+04  0.7818609E-02  0.8007529E-01
       -2   -1    0    0    0  501  0.00000000000E+00  0.00000000000E+00  0.22333810224E+04  0.22333810224E+04  0.25500000920E-02 0. -1.
        2   -1    0    0  501    0  0.00000000000E+00  0.00000000000E+00 -0.17778230330E+04  0.17778230330E+04  0.25500000920E-02 0.  1.
    10030    2    1    2    0    0  0.00000000000E+00  0.00000000000E+00  0.45555798938E+03  0.40112040554E+04  0.39852509196E+04 0.  0.
        2    1    3    3  502    0 -0.70225036670E+03  0.10458541416E+04  0.17817211219E+04  0.21820853831E+04  0.25500000920E-02 0. -1.
       -2    1    3    3    0  502  0.70225036670E+03 -0.10458541416E+04 -0.13261631325E+04  0.18291186722E+04  0.25500000920E-02 0.  1.
</event>
<event>
 5   0  0.3724293E-08  0.3888474E+04  0.7818609E-02  0.8027431E-01
       -2   -1    0    0    0  501  0.00000000000E+00  0.00000000000E+00  0.10767801494E+04  0.10767801494E+04  0.25500000920E-02 0. -1.
        2   -1    0    0  501    0  0.00000000000E+00  0.00000000000E+00 -0.35105186008E+04  0.35105186008E+04  0.25500000920E-02 0.  1.
    10030    2    1    2    0    0  0.00000000000E+00  0.00000000000E+00 -0.24337384515E+04  0.45872987502E+04  0.38884736046E+04 0.  0.
        4    1    3    3  502    0  0.87075080219E+03 -0.17355069151E+04 -0.10997029553E+04  0.22314881615E+04  0.12699999809E+01 0. -1.
       -4    1    3    3    0  502 -0.87075080219E+03  0.17355069151E+04 -0.13340354961E+04  0.23558105887E+04  0.12699999809E+01 0.  1.
</event>
<event>
 5   0  0.3690572E-08  0.3903693E+04  0.7818609E-02  0.8024262E-01
       -2   -1    0    0    0  501  0.00000000000E+00  0.00000000000E+00  0.20379093737E+04  0.20379093737E+04  0.25500000920E-02 0. -1.
        2   -1    0    0  501    0  0.00000000000E+00  0.00000000000E+00 -0.18694179401E+04  0.18694179401E+04  0.25500000920E-02 0.  1.
    10030    2    1    2    0    0  0.00000000000E+00  0.00000000000E+00  0.16849143364E+03  0.39073273138E+04  0.39036927869E+04 0.  0.
        3    1    3    3  502    0 -0.76996757553E+02  0.17435425239E+04  0.95903614741E+03  0.19913862949E+04  0.10100000352E+00 0.  1.
       -3    1    3    3    0  502  0.76996757553E+02 -0.17435425239E+04 -0.79054471377E+03  0.19159410189E+04  0.10100000352E+00 0. -1.
</event>
<event>
 5   0  0.3669347E-08  0.3895276E+04  0.7818609E-02  0.8026012E-01
       -2   -1    0    0    0  501  0.00000000000E+00  0.00000000000E+00  0.29897508965E+04  0.29897508965E+04  0.25500000920E-02 0. -1.
        2   -1    0    0  501    0  0.00000000000E+00  0.00000000000E+00 -0.12687659979E+04  0.12687659979E+04  0.25500000920E-02 0.  1.
    10030    2    1    2    0    0  0.00000000000E+00  0.00000000000E+00  0.17209848986E+04  0.42585168944E+04  0.38952762570E+04 0.  0.
        5    1    3    3  502    0  0.11441541312E+04 -0.62405673738E+03 -0.72179299101E+03  0.14898129746E+04  0.46999998093E+01 0.  1.
       -5    1    3    3    0  502 -0.11441541312E+04  0.62405673738E+03  0.24427778896E+04  0.27687039197E+04  0.46999998093E+01 0. -1.
</event>
<event>
 5   0  0.1164500E-08  0.3903305E+04  0.7818609E-02  0.8024342E-01
       -1   -1    0    0    0  501  0.00000000000E+00  0.00000000000E+00  0.29938976098E+04  0.29938976098E+04  0.50400001928E-02 0. -1.
        1   -1    0    0  501    0  0.00000000000E+00  0.00000000000E+00 -0.12722371430E+04  0.12722371430E+04  0.50400001928E-02 0.  1.
    10030    2    1    2    0    0  0.00000000000E+00  0.00000000000E+00  0.17216604669E+04  0.42661347528E+04  0.39033051336E+04 0.  0.
        4    1    3    3  502    0 -0.64315334237E+03  0.13165470703E+04 -0.54819270071E+03  0.15644357641E+04  0.12699999809E+01 0.  1.
       -4    1    3    3    0  502  0.64315334237E+03 -0.13165470703E+04  0.22698531676E+04  0.27016989887E+04  0.12699999809E+01 0. -1.
</event>
<event>
 5   0  0.1164500E-08  0.3893257E+04  0.7818609E-02  0.8026433E-01
        1   -1    0    0  501    0  0.00000000000E+00  0.00000000000E+00  0.22101798160E+04  0.22101798160E+04  0.50400001928E-02 0. -1.
       -1   -1    0    0    0  501  0.00000000000E+00  0.00000000000E+00 -0.17145039019E+04  0.17145039019E+04  0.50400001928E-02 0.  1.
    10030    2    1    2    0    0  0.00000000000E+00  0.00000000000E+00  0.49567591408E+03  0.39246837179E+04  0.38932566925E+04 0.  0.
        5    1    3    3  502    0  0.60280202066E+03 -0.64594077239E+03 -0.15007329091E+04  0.17415025443E+04  0.46999998093E+01 0.  1.
       -5    1    3    3    0  502 -0.60280202066E+03  0.64594077239E+03  0.19964088232E+04  0.21831811736E+04  0.46999998093E+01 0. -1.
</event>
<event>
 5   0  0.1164500E-08  0.3897803E+04  0.7818609E-02  0.8025486E-01
       -1   -1    0    0    0  501  0.00000000000E+00  0.00000000000E+00  0.19052974798E+04  0.19052974798E+04  0.50400001928E-02 0. -1.
        1   -1    0    0  501    0  0.00000000000E+00  0.00000000000E+00 -0.19935033363E+04  0.19935033363E+04  0.50400001928E-02 0.  1.
    10030    2    1    2    0    0  0.00000000000E+00  0.00000000000E+00 -0.88205856535E+02  0.38988008161E+04  0.38978029107E+04 0.  0.
        1    1    3    3  502    0 -0.77892876027E+03 -0.26136008942E+03  0.17236009930E+04  0.19094081525E+04  0.50400001928E-02 0. -1.
       -1    1    3    3    0  502  0.77892876027E+03  0.26136008942E+03 -0.18118068495E+04  0.19893926636E+04  0.50400001928E-02 0.  1.
</event>
<event>
 5   0  0.3724293E-08  0.3893888E+04  0.7818609E-02  0.8026302E-01
       -2   -1    0    0    0  501  0.00000000000E+00  0.00000000000E+00  0.24375624778E+04  0.24375624778E+04  0.25500000920E-02 0. -1.
        2   -1    0    0  501    0  0.00000000000E+00  0.00000000000E+00 -0.15550741372E+04  0.15550741372E+04  0.25500000920E-02 0.  1.
    10030    2    1    2    0    0  0.00000000000E+00  0.00000000000E+00  0.88248834060E+03  0.39926366150E+04  0.38938877062E+04 0.  0.
        4    1    3    3  502    0 -0.18944863179E+04 -0.33719612983E+03  0.74508502096E+03  0.20634759364E+04  0.12699999809E+01 0. -1.
       -4    1    3    3    0  502  0.18944863179E+04  0.33719612983E+03  0.13740331964E+03  0.19291606786E+04  0.12699999809E+01 0.  1.
</event>
<event>
 5   0  0.3724293E-08  0.3897607E+04  0.7818609E-02  0.8025527E-01
       -2   -1    0    0    0  501  0.00000000000E+00  0.00000000000E+00  0.25051420883E+04  0.25051420883E+04  0.25500000920E-02 0.  1.
        2   -1    0    0  501    0  0.00000000000E+00  0.00000000000E+00 -0.15160158682E+04  0.15160158682E+04  0.25500000920E-02 0. -1.
    10030    2    1    2    0    0  0.00000000000E+00  0.00000000000E+00  0.98912622013E+03  0.40211579565E+04  0.38976070391E+04 0.  0.
        4    1    3    3  502    0  0.10113581081E+03 -0.36864641362E+03  0.24660818981E+04  0.24955340454E+04  0.12699999809E+01 0.  1.
       -4    1    3    3    0  502 -0.10113581081E+03  0.36864641362E+03 -0.14769556780E+04  0.15256239111E+04  0.12699999809E+01 0. -1.
</event>
<event>
 5   0  0.3872969E-08  0.3898619E+04  0.7818609E-02  0.8025317E-01
       -2   -1    0    0    0  501  0.00000000000E+00  0.00000000000E+00  0.16428898378E+04  0.16428898378E+04  0.25500000920E-02 0. -1.
        2   -1    0    0  501    0  0.00000000000E+00  0.00000000000E+00 -0.23128801051E+04  0.23128801051E+04  0.25500000920E-02 0.  1.
    10030    2    1    2    0    0  0.00000000000E+00  0.00000000000E+00 -0.66999026724E+03  0.39557699429E+04  0.38986188430E+04 0.  0.
        2    1    3    3  502    0  0.14782516924E+04 -0.11825410319E+04  0.13676783653E+03  0.18979822969E+04  0.25500000920E-02 0. -1.
       -2    1    3    3    0  502 -0.14782516924E+04  0.11825410319E+04 -0.80675810377E+03  0.20577876460E+04  0.25500000920E-02 0.  1.
</event>
<event>
 5   0  0.1164500E-08  0.3903567E+04  0.7818609E-02  0.8024288E-01
        1   -1    0    0  501    0  0.00000000000E+00  0.00000000000E+00  0.23184505819E+04  0.23184505819E+04  0.50400001928E-02 0. -1.
       -1   -1    0    0    0  501  0.00000000000E+00  0.00000000000E+00 -0.16431052530E+04  0.16431052530E+04  0.50400001928E-02 0.  1.
    10030    2    1    2    0    0  0.00000000000E+00  0.00000000000E+00  0.67534532889E+03  0.39615558350E+04  0.39035667434E+04 0.  0.
        2    1    3    3  502    0 -0.63034486191E+03  0.63267071952E+03  0.20989224191E+04  0.22810265684E+04  0.25500000920E-02 0. -1.
       -2    1    3    3    0  502  0.63034486191E+03 -0.63267071952E+03 -0.14235770902E+04  0.16805292666E+04  0.25500000920E-02 0.  1.
</event>
<event>
 5   0  0.1164500E-08  0.3900931E+04  0.7818609E-02  0.8024836E-01
       -1   -1    0    0    0  501  0.00000000000E+00  0.00000000000E+00  0.12300419553E+04  0.12300419554E+04  0.50400001928E-02 0. -1.
        1   -1    0    0  501    0  0.00000000000E+00  0.00000000000E+00 -0.30928338278E+04  0.30928338278E+04  0.50400001928E-02 0.  1.
    10030    2    1    2    0    0  0.00000000000E+00  0.00000000000E+00 -0.18627918725E+04  0.43228757832E+04  0.39009308475E+04 0.  0.
        3    1    3    3  502    0 -0.41305814887E+03 -0.48628238300E+03 -0.29739183804E+04  0.30415913818E+04  0.10100000352E+00 0.  1.
       -3    1    3    3    0  502  0.41305814887E+03  0.48628238300E+03  0.11111265079E+04  0.12812844014E+04  0.10100000352E+00 0. -1.
</event>
<event>
 5   0  0.3669347E-08  0.3900163E+04  0.7818609E-02  0.8024995E-01
       -2   -1    0    0    0  501  0.00000000000E+00  0.00000000000E+00  0.17048209750E+04  0.17048209750E+04  0.25500000920E-02 0.  1.
        2   -1    0    0  501    0  0.00000000000E+00  0.00000000000E+00 -0.22306259125E+04  0.22306259125E+04  0.25500000920E-02 0. -1.
    10030    2    1    2    0    0  0.00000000000E+00  0.00000000000E+00 -0.52580493752E+03  0.39354468875E+04  0.39001629930E+04 0.  0.
        5    1    3    3  502    0  0.61268686690E+03  0.14417116425E+04 -0.14348216150E+04  0.21243005470E+04  0.46999998093E+01 0. -1.
       -5    1    3    3    0  502 -0.61268686690E+03 -0.14417116425E+04  0.90901667751E+03  0.18111463405E+04  0.46999998093E+01 0.  1.
</event>
<event>
 5   0  0.3769985E-08  0.3908155E+04  0.7818609E-02  0.8023335E-01
        2   -1    0    0  501    0  0.00000000000E+00  0.00000000000E+00  0.17599805864E+04  0.17599805864E+04  0.25500000920E-02 0. -1.
       -2   -1    0    0    0  501  0.00000000000E+00  0.00000000000E+00 -0.21695798899E+04  0.21695798899E+04  0.25500000920E-02 0.  1.
    10030    2    1    2    0    0  0.00000000000E+00  0.00000000000E+00 -0.40959930352E+03  0.39295604762E+04  0.39081548008E+04 0.  0.
        1    1    3    3  502    0 -0.40591448241E+03  0.12221484487E+04  0.12729457155E+04  0.18107468604E+04  0.50400001928E-02 0. -1.
       -1    1    3    3    0  502  0.40591448241E+03 -0.12221484487E+04 -0.16825450190E+04  0.21188136159E+04  0.50400001928E-02 0.  1.
</event>
<event>
 5   0  0.1164500E-08  0.3898870E+04  0.7818609E-02  0.8025264E-01
        1   -1    0    0  501    0  0.00000000000E+00  0.00000000000E+00  0.18347434211E+04  0.18347434211E+04  0.50400001928E-02 0. -1.
       -1   -1    0    0    0  501  0.00000000000E+00  0.00000000000E+00 -0.20712955634E+04  0.20712955634E+04  0.50400001928E-02 0.  1.
    10030    2    1    2    0    0  0.00000000000E+00  0.00000000000E+00 -0.23655214225E+03  0.39060389845E+04  0.38988695326E+04 0.  0.
        4    1    3    3  502    0 -0.26509868669E+03 -0.18472700481E+04 -0.68288168835E+03  0.19872123584E+04  0.12699999809E+01 0. -1.
       -4    1    3    3    0  502  0.26509868669E+03  0.18472700481E+04  0.44632954610E+03  0.19188266261E+04  0.12699999809E+01 0.  1.
</event>
<event>
 5   0  0.1164500E-08  0.3934404E+04  0.7818609E-02  0.8017912E-01
        1   -1    0    0  501    0  0.00000000000E+00  0.00000000000E+00  0.25982297001E+04  0.25982297002E+04  0.50400001928E-02 0.  1.
       -1   -1    0    0    0  501  0.00000000000E+00  0.00000000000E+00 -0.14894310702E+04  0.14894310702E+04  0.50400001928E-02 0. -1.
    10030    2    1    2    0    0  0.00000000000E+00  0.00000000000E+00  0.11087986300E+04  0.40876607703E+04  0.39344041698E+04 0.  0.
        4    1    3    3  502    0 -0.87464418474E+03 -0.12851676047E+04  0.18068544778E+04  0.23835651740E+04  0.12699999809E+01 0.  1.
       -4    1    3    3    0  502  0.87464418474E+03  0.12851676047E+04 -0.69805584779E+03  0.17040955963E+04  0.12699999809E+01 0. -1.
</event>
<event>
 5   0  0.1164500E-08  0.3897976E+04  0.7818609E-02  0.8025450E-01
        1   -1    0    0  501    0  0.00000000000E+00  0.00000000000E+00  0.13076934051E+04  0.13076934051E+04  0.50400001928E-02 0. -1.
       -1   -1    0    0    0  501  0.00000000000E+00  0.00000000000E+00 -0.29047741142E+04  0.29047741142E+04  0.50400001928E-02 0.  1.
    10030    2    1    2    0    0  0.00000000000E+00  0.00000000000E+00 -0.15970807091E+04  0.42124675193E+04  0.38979758606E+04 0.  0.
        5    1    3    3  502    0 -0.14719223948E+04  0.55188811392E+03  0.44654075887E+03  0.16341838225E+04  0.46999998093E+01 0. -1.
       -5    1    3    3    0  502  0.14719223948E+04 -0.55188811392E+03 -0.20436214680E+04  0.25782836967E+04  0.46999998093E+01 0.  1.
</event>
<event>
 5   0  0.3724293E-08  0.3882022E+04  0.7818609E-02  0.8028779E-01
       -2   -1    0    0    0  501  0.00000000000E+00  0.00000000000E+00  0.12887981333E+04  0.12887981333E+04  0.25500000920E-02 0.  1.
        2   -1    0    0  501    0  0.00000000000E+00  0.00000000000E+00 -0.29232847733E+04  0.29232847733E+04  0.25500000920E-02 0. -1.
    10030    2    1    2    0    0  0.00000000000E+00  0.00000000000E+00 -0.16344866400E+04  0.42120829065E+04  0.38820221322E+04 0.  0.
        4    1    3    3  502    0 -0.10579084367E+04  0.14107621476E+04  0.62965246572E+02  0.17644790542E+04  0.12699999809E+01 0. -1.
       -4    1    3    3    0  502  0.10579084367E+04 -0.14107621476E+04 -0.16974518866E+04  0.24476038523E+04  0.12699999809E+01 0.  1.
</event>
<event>
 5   0  0.1164500E-08  0.3900747E+04  0.7818609E-02  0.8024874E-01
        3   -1    0    0  501    0  0.00000000000E+00  0.00000000000E+00  0.21247125073E+04  0.21247125097E+04  0.10100000352E+00 0. -1.
       -3   -1    0    0    0  501  0.00000000000E+00  0.00000000000E+00 -0.17903392516E+04  0.17903392545E+04  0.10100000352E+00 0.  1.
    10030    2    1    2    0    0  0.00000000000E+00  0.00000000000E+00  0.33437325564E+03  0.39150517641E+04  0.39007467031E+04 0.  0.
        5    1    3    3  502    0  0.13180258248E+04  0.62852088251E+03  0.14648719436E+04  0.20683574342E+04  0.46999998093E+01 0. -1.
       -5    1    3    3    0  502 -0.13180258248E+04 -0.62852088251E+03 -0.11304986879E+04  0.18466943299E+04  0.46999998093E+01 0.  1.
</event>
<event>
 5   0  0.3690572E-08  0.3897299E+04  0.7818609E-02  0.8025591E-01
        2   -1    0    0  501    0  0.00000000000E+00  0.00000000000E+00  0.14659323095E+04  0.14659323095E+04  0.25500000920E-02 0.  1.
       -2   -1    0    0    0  501  0.00000000000E+00  0.00000000000E+00 -0.25903204938E+04  0.25903204938E+04  0.25500000920E-02 0. -1.
    10030    2    1    2    0    0  0.00000000000E+00  0.00000000000E+00 -0.11243881843E+04  0.40562528034E+04  0.38972988102E+04 0.  0.
        3    1    3    3  502    0 -0.62388660918E+03 -0.69345315575E+03 -0.23428572543E+04  0.25217239945E+04  0.10100000352E+00 0. -1.
       -3    1    3    3    0  502  0.62388660918E+03  0.69345315575E+03  0.12184690700E+04  0.15345288088E+04  0.10100000352E+00 0.  1.
</event>
<event>
 5   0  0.3690572E-08  0.3897525E+04  0.7818609E-02  0.8025544E-01
       -2   -1    0    0    0  501  0.00000000000E+00  0.00000000000E+00  0.19394830661E+04  0.19394830661E+04  0.25500000920E-02 0. -1.
        2   -1    0    0  501    0  0.00000000000E+00  0.00000000000E+00 -0.19580860147E+04  0.19580860147E+04  0.25500000920E-02 0.  1.
    10030    2    1    2    0    0  0.00000000000E+00  0.00000000000E+00 -0.18602948572E+02  0.38975690808E+04  0.38975246849E+04 0.  0.
        3    1    3    3  502    0 -0.86928431720E+03 -0.17262297068E+04 -0.25860419841E+03  0.19499744528E+04  0.10100000352E+00 0.  1.
       -3    1    3    3    0  502  0.86928431720E+03  0.17262297068E+04  0.24000124984E+03  0.19475946280E+04  0.10100000352E+00 0. -1.
</event>
<event>
 5   0  0.1164500E-08  0.3899219E+04  0.7818609E-02  0.8025192E-01
        3   -1    0    0  501    0  0.00000000000E+00  0.00000000000E+00  0.18477008642E+04  0.18477008669E+04  0.10100000352E+00 0. -1.
       -3   -1    0    0    0  501  0.00000000000E+00  0.00000000000E+00 -0.20571386421E+04  0.20571386446E+04  0.10100000352E+00 0.  1.
    10030    2    1    2    0    0  0.00000000000E+00  0.00000000000E+00 -0.20943777797E+03  0.39048395115E+04  0.38992188228E+04 0.  0.
        4    1    3    3  502    0  0.11870600330E+04 -0.14700474837E+04  0.37641524968E+03  0.19266139154E+04  0.12699999809E+01 0. -1.
       -4    1    3    3    0  502 -0.11870600330E+04  0.14700474837E+04 -0.58585302765E+03  0.19782255961E+04  0.12699999809E+01 0.  1.
</event>
<event>
 5   0  0.3690572E-08  0.3897237E+04  0.7818609E-02  0.8025604E-01
        2   -1    0    0  501    0  0.00000000000E+00  0.00000000000E+00  0.15208530538E+04  0.15208530538E+04  0.25500000920E-02 0. -1.
       -2   -1    0    0    0  501  0.00000000000E+00  0.00000000000E+00 -0.24967006149E+04  0.24967006149E+04  0.25500000920E-02 0.  1.
    10030    2    1    2    0    0  0.00000000000E+00  0.00000000000E+00 -0.97584756113E+03  0.40175536688E+04  0.38972373573E+04 0.  0.
        3    1    3    3  502    0 -0.22981005306E+03 -0.10277387748E+04 -0.21780685786E+04  0.24193061801E+04  0.10100000352E+00 0.  1.
       -3    1    3    3    0  502  0.22981005306E+03  0.10277387748E+04  0.12022210175E+04  0.15982474886E+04  0.10100000352E+00 0. -1.
</event>
<event>
 5   0  0.3872969E-08  0.3900054E+04  0.7818609E-02  0.8025018E-01
       -2   -1    0    0    0  501  0.00000000000E+00  0.00000000000E+00  0.15185907883E+04  0.15185907883E+04  0.25500000920E-02 0. -1.
        2   -1    0    0  501    0  0.00000000000E+00  0.00000000000E+00 -0.25040349528E+04  0.25040349528E+04  0.25500000920E-02 0.  1.
    10030    2    1    2    0    0  0.00000000000E+00  0.00000000000E+00 -0.98544416450E+03  0.40226257410E+04  0.39000535447E+04 0.  0.
        2    1    3    3  502    0  0.65883063343E+03 -0.28938496516E+03  0.13766412507E+04  0.15533649265E+04  0.25500000920E-02 0. -1.
       -2    1    3    3    0  502 -0.65883063343E+03  0.28938496516E+03 -0.23620854152E+04  0.24692608146E+04  0.25500000920E-02 0.  1.
</event>
<event>
 5   0  0.3769985E-08  0.3900865E+04  0.7818609E-02  0.8024849E-01
        2   -1    0    0  501    0  0.00000000000E+00  0.00000000000E+00  0.31693197932E+04  0.31693197932E+04  0.25500000920E-02 0. -1.
       -2   -1    0    0    0  501  0.00000000000E+00  0.00000000000E+00 -0.12003162344E+04  0.12003162344E+04  0.25500000920E-02 0.  1.
    10030    2    1    2    0    0  0.00000000000E+00  0.00000000000E+00  0.19690035588E+04  0.43696360277E+04  0.39008645195E+04 0.  0.
        1    1    3    3  502    0 -0.41898500027E+03  0.90792017896E+03 -0.89134804231E+03  0.13395405236E+04  0.50400001928E-02 0.  1.
       -1    1    3    3    0  502  0.41898500027E+03 -0.90792017896E+03  0.28603516011E+04  0.30300955041E+04  0.50400001928E-02 0. -1.
</event>
<event>
 5   0  0.1164500E-08  0.3900763E+04  0.7818609E-02  0.8024871E-01
       -1   -1    0    0    0  501  0.00000000000E+00  0.00000000000E+00  0.15382968449E+04  0.15382968449E+04  0.50400001928E-02 0.  1.
        1   -1    0    0  501    0  0.00000000000E+00  0.00000000000E+00 -0.24728567240E+04  0.24728567240E+04  0.50400001928E-02 0. -1.
    10030    2    1    2    0    0  0.00000000000E+00  0.00000000000E+00 -0.93455987904E+03  0.40111535689E+04  0.39007628467E+04 0.  0.
        3    1    3    3  502    0  0.56193741755E+03 -0.22185747888E+03  0.14396529352E+04  0.15612799192E+04  0.10100000352E+00 0.  1.
       -3    1    3    3    0  502 -0.56193741755E+03  0.22185747888E+03 -0.23742128142E+04  0.24498736497E+04  0.10100000352E+00 0. -1.
</event>
<event>
 5   0  0.3724293E-08  0.3898538E+04  0.7818609E-02  0.8025333E-01
       -2   -1    0    0    0  501  0.00000000000E+00  0.00000000000E+00  0.13164929526E+04  0.13164929527E+04  0.25500000920E-02 0. -1.
        2   -1    0    0  501    0  0.00000000000E+00  0.00000000000E+00 -0.28861900245E+04  0.28861900245E+04  0.25500000920E-02 0.  1.
    10030    2    1    2    0    0  0.00000000000E+00  0.00000000000E+00 -0.15696970718E+04  0.42026829771E+04  0.38985375859E+04 0.  0.
        4    1    3    3  502    0  0.11480131111E+04 -0.14075740825E+04 -0.22234980938E+02  0.18165062367E+04  0.12699999809E+01 0. -1.
       -4    1    3    3    0  502 -0.11480131111E+04  0.14075740825E+04 -0.15474620909E+04  0.23861767404E+04  0.12699999809E+01 0.  1.
</event>
<event>
 5   0  0.3724293E-08  0.3899106E+04  0.7818609E-02  0.8025215E-01
       -2   -1    0    0    0  501  0.00000000000E+00  0.00000000000E+00  0.18742566277E+04  0.18742566277E+04  0.25500000920E-02 0. -1.
        2   -1    0    0  501    0  0.00000000000E+00  0.00000000000E+00 -0.20278739531E+04  0.20278739531E+04  0.25500000920E-02 0.  1.
    10030    2    1    2    0    0  0.00000000000E+00  0.00000000000E+00 -0.15361732538E+03  0.39021305809E+04  0.38991056394E+04 0.  0.
        4    1    3    3  502    0  0.88087830054E+03 -0.16936624143E+04  0.31886578001E+03  0.19354885566E+04  0.12699999809E+01 0.  1.
       -4    1    3    3    0  502 -0.88087830054E+03  0.16936624143E+04 -0.47248310539E+03  0.19666420243E+04  0.12699999809E+01 0. -1.
</event>
<event>
 5   0  0.3669347E-08  0.3879700E+04  0.7818609E-02  0.8029265E-01
        2   -1    0    0  501    0  0.00000000000E+00  0.00000000000E+00  0.23969826589E+04  0.23969826589E+04  0.25500000920E-02 0. -1.
       -2   -1    0    0    0  501  0.00000000000E+00  0.00000000000E+00 -0.15698975757E+04  0.15698975757E+04  0.25500000920E-02 0.  1.
    10030    2    1    2    0    0  0.00000000000E+00  0.00000000000E+00  0.82708508314E+03  0.39668802346E+04  0.38796996096E+04 0.  0.
        5    1    3    3  502    0  0.91558880252E+03  0.17018026983E+03  0.21534658058E+04  0.23462099749E+04  0.46999998093E+01 0. -1.
       -5    1    3    3    0  502 -0.91558880252E+03 -0.17018026983E+03 -0.13263807226E+04  0.16206702598E+04  0.46999998093E+01 0.  1.
</event>
<event>
 5   0  0.1164500E-08  0.3900430E+04  0.7818609E-02  0.8024940E-01
        1   -1    0    0  501    0  0.00000000000E+00  0.00000000000E+00  0.24313354721E+04  0.24313354721E+04  0.50400001928E-02 0.  1.
       -1   -1    0    0    0  501  0.00000000000E+00  0.00000000000E+00 -0.15643001166E+04  0.15643001166E+04  0.50400001928E-02 0. -1.
    10030    2    1    2    0    0  0.00000000000E+00  0.00000000000E+00  0.86703535552E+03  0.39956355887E+04  0.39004299057E+04 0.  0.
        4    1    3    3  502    0  0.96413204204E+03 -0.12246562794E+04  0.16343082228E+04  0.22583840632E+04  0.12699999809E+01 0.  1.
       -4    1    3    3    0  502 -0.96413204204E+03  0.12246562794E+04 -0.76727286723E+03  0.17372515255E+04  0.12699999809E+01 0. -1.
</event>
<event>
 5   0  0.1164500E-08  0.3899510E+04  0.7818609E-02  0.8025131E-01
        1   -1    0    0  501    0  0.00000000000E+00  0.00000000000E+00  0.18684366132E+04  0.18684366132E+04  0.50400001928E-02 0. -1.
       -1   -1    0    0    0  501  0.00000000000E+00  0.00000000000E+00 -0.20346126295E+04  0.20346126295E+04  0.50400001928E-02 0.  1.
    10030    2    1    2    0    0  0.00000000000E+00  0.00000000000E+00 -0.16617601622E+03  0.39030492427E+04  0.38995100875E+04 0.  0.
        2    1    3    3  502    0  0.15747391080E+04  0.11394113612E+04 -0.23646945460E+03  0.19580549816E+04  0.25500000920E-02 0. -1.
       -2    1    3    3    0  502 -0.15747391080E+04 -0.11394113612E+04  0.70293438387E+02  0.19449942611E+04  0.25500000920E-02 0.  1.
</event>
<event>
 5   0  0.3690572E-08  0.3894264E+04  0.7818609E-02  0.8026223E-01
        2   -1    0    0  501    0  0.00000000000E+00  0.00000000000E+00  0.13142085175E+04  0.13142085175E+04  0.25500000920E-02 0.  1.
       -2   -1    0    0    0  501  0.00000000000E+00  0.00000000000E+00 -0.28848714873E+04  0.28848714873E+04  0.25500000920E-02 0. -1.
    10030    2    1    2    0    0  0.00000000000E+00  0.00000000000E+00 -0.15706629698E+04  0.41990800048E+04  0.38942638229E+04 0.  0.
        3    1    3    3  502    0  0.33852959333E+03 -0.19160420043E+04 -0.86532323617E+03  0.21294608616E+04  0.10100000352E+00 0. -1.
       -3    1    3    3    0  502 -0.33852959333E+03  0.19160420043E+04 -0.70533973359E+03  0.20696191432E+04  0.10100000352E+00 0.  1.
</event>
<event>
 5   0  0.3769985E-08  0.3898251E+04  0.7818609E-02  0.8025393E-01
        2   -1    0    0  501    0  0.00000000000E+00  0.00000000000E+00  0.19188043900E+04  0.19188043901E+04  0.25500000920E-02 0.  1.
       -2   -1    0    0    0  501  0.00000000000E+00  0.00000000000E+00 -0.19799252957E+04  0.19799252957E+04  0.25500000920E-02 0. -1.
    10030    2    1    2    0    0  0.00000000000E+00  0.00000000000E+00 -0.61120905602E+02  0.38987296857E+04  0.38982505560E+04 0.  0.
        1    1    3    3  502    0 -0.50561524279E+03 -0.72468137999E+03 -0.17680936080E+04  0.19766043820E+04  0.50400001928E-02 0. -1.
       -1    1    3    3    0  502  0.50561524279E+03  0.72468137999E+03  0.17069727024E+04  0.19221253037E+04  0.50400001928E-02 0.  1.
</event>
<event>
 5   0  0.3724293E-08  0.3890627E+04  0.7818609E-02  0.8026981E-01
        2   -1    0    0  501    0  0.00000000000E+00  0.00000000000E+00  0.14791838619E+04  0.14791838619E+04  0.25500000920E-02 0. -1.
       -2   -1    0    0    0  501  0.00000000000E+00  0.00000000000E+00 -0.25583331274E+04  0.25583331275E+04  0.25500000920E-02 0.  1.
    10030    2    1    2    0    0  0.00000000000E+00  0.00000000000E+00 -0.10791492656E+04  0.40375169893E+04  0.38906272376E+04 0.  0.
        4    1    3    3  502    0 -0.15031684662E+04 -0.11372060155E+04 -0.10388743606E+04  0.21522115392E+04  0.12699999809E+01 0.  1.
       -4    1    3    3    0  502  0.15031684662E+04  0.11372060155E+04 -0.40274904938E+02  0.18853054501E+04  0.12699999809E+01 0. -1.
</event>
<event>
 5   0  0.1164500E-08  0.3896588E+04  0.7818609E-02  0.8025739E-01
        1   -1    0    0  501    0  0.00000000000E+00  0.00000000000E+00  0.28338643354E+04  0.28338643354E+04  0.50400001928E-02 0.  1.
       -1   -1    0    0    0  501  0.00000000000E+00  0.00000000000E+00 -0.13394602166E+04  0.13394602167E+04  0.50400001928E-02 0. -1.
    10030    2    1    2    0    0  0.00000000000E+00  0.00000000000E+00  0.14944041187E+04  0.41733245521E+04  0.38965875002E+04 0.  0.
        3    1    3    3  502    0  0.65912248507E+03  0.13153377711E+03  0.27057656470E+04  0.27879941412E+04  0.10100000352E+00 0.  1.
       -3    1    3    3    0  502 -0.65912248507E+03 -0.13153377711E+03 -0.12113615283E+04  0.13853304108E+04  0.10100000352E+00 0. -1.
</event>
<event>
 5   0  0.1164500E-08  0.3896823E+04  0.7818609E-02  0.8025690E-01
       -1   -1    0    0    0  501  0.00000000000E+00  0.00000000000E+00  0.15851692196E+04  0.15851692196E+04  0.50400001928E-02 0.  1.
        1   -1    0    0  501    0  0.00000000000E+00  0.00000000000E+00 -0.23948904848E+04  0.23948904848E+04  0.50400001928E-02 0. -1.
    10030    2    1    2    0    0  0.00000000000E+00  0.00000000000E+00 -0.80972126519E+03  0.39800597044E+04  0.38968226445E+04 0.  0.
        1    1    3    3  502    0 -0.14898796753E+04  0.12369284435E+04 -0.62527873749E+03  0.20348727038E+04  0.50400001928E-02 0.  1.
       -1    1    3    3    0  502  0.14898796753E+04 -0.12369284435E+04 -0.18444252771E+03  0.19451870006E+04  0.50400001928E-02 0. -1.
</event>
<event>
 5   0  0.1164500E-08  0.3890034E+04  0.7818609E-02  0.8027105E-01
        1   -1    0    0  501    0  0.00000000000E+00  0.00000000000E+00  0.21733886380E+04  0.21733886380E+04  0.50400001928E-02 0.  1.
       -1   -1    0    0    0  501  0.00000000000E+00  0.00000000000E+00 -0.17406415534E+04  0.17406415534E+04  0.50400001928E-02 0. -1.
    10030    2    1    2    0    0  0.00000000000E+00  0.00000000000E+00  0.43274708462E+03  0.39140301915E+04  0.38900337146E+04 0.  0.
        4    1    3    3  502    0 -0.10485367602E+04  0.10782736762E+04 -0.10245166255E+04  0.18198185039E+04  0.12699999809E+01 0. -1.
       -4    1    3    3    0  502  0.10485367602E+04 -0.10782736762E+04  0.14572637101E+04  0.20942116875E+04  0.12699999809E+01 0.  1.
</event>
<event>
 5   0  0.3769985E-08  0.3896674E+04  0.7818609E-02  0.8025721E-01
       -2   -1    0    0    0  501  0.00000000000E+00  0.00000000000E+00  0.13255793715E+04  0.13255793715E+04  0.25500000920E-02 0.  1.
        2   -1    0    0  501    0  0.00000000000E+00  0.00000000000E+00 -0.28636662742E+04  0.28636662742E+04  0.25500000920E-02 0. -1.
    10030    2    1    2    0    0  0.00000000000E+00  0.00000000000E+00 -0.15380869027E+04  0.41892456456E+04  0.38966739355E+04 0.  0.
        1    1    3    3  502    0  0.54143996600E+03 -0.10729150708E+03 -0.27778510599E+04  0.28321591084E+04  0.50400001928E-02 0. -1.
       -1    1    3    3    0  502 -0.54143996600E+03  0.10729150708E+03  0.12397641572E+04  0.13570865373E+04  0.50400001928E-02 0.  1.
</event>
<event>
 5   0  0.3724293E-08  0.3901524E+04  0.7818609E-02  0.8024712E-01
       -2   -1    0    0    0  501  0.00000000000E+00  0.00000000000E+00  0.29133676345E+04  0.29133676345E+04  0.25500000920E-02 0.  1.
        2   -1    0    0  501    0  0.00000000000E+00  0.00000000000E+00 -0.13062109460E+04  0.13062109460E+04  0.25500000920E-02 0. -1.
    10030    2    1    2    0    0  0.00000000000E+00  0.00000000000E+00  0.16071566885E+04  0.42195785805E+04  0.39015241606E+04 0.  0.
        4    1    3    3  502    0 -0.11316040720E+04 -0.13775590007E+04 -0.52993108743E+02  0.17835376247E+04  0.12699999809E+01 0.  1.
       -4    1    3    3    0  502  0.11316040720E+04  0.13775590007E+04  0.16601497973E+04  0.24360409558E+04  0.12699999809E+01 0. -1.
</event>
<event>
 5   0  0.1164500E-08  0.3893616E+04  0.7818609E-02  0.8026358E-01
        1   -1    0    0  501    0  0.00000000000E+00  0.00000000000E+00  0.11829671676E+04  0.11829671676E+04  0.50400001928E-02 0.  1.
       -1   -1    0    0    0  501  0.00000000000E+00  0.00000000000E+00 -0.32038607429E+04  0.32038607429E+04  0.50400001928E-02 0. -1.
    10030    2    1    2    0    0  0.00000000000E+00  0.00000000000E+00 -0.20208935753E+04  0.43868279104E+04  0.38936163490E+04 0.  0.
        5    1    3    3  502    0  0.12797034321E+04 -0.61131530173E+03  0.49216884648E+03  0.15011993657E+04  0.46999998093E+01 0.  1.
       -5    1    3    3    0  502 -0.12797034321E+04  0.61131530173E+03 -0.25130624218E+04  0.28856285447E+04  0.46999998093E+01 0. -1.
</event>
<event>
 5   0  0.3769985E-08  0.3889386E+04  0.7818609E-02  0.8027240E-01
        2   -1    0    0  501    0  0.00000000000E+00  0.00000000000E+00  0.26908748034E+04  0.26908748034E+04  0.25500000920E-02 0. -1.
       -2   -1    0    0    0  501  0.00000000000E+00  0.00000000000E+00 -0.14054279213E+04  0.14054279213E+04  0.25500000920E-02 0.  1.
    10030    2    1    2    0    0  0.00000000000E+00  0.00000000000E+00  0.12854468821E+04  0.40963027247E+04  0.38893858546E+04 0.  0.
        1    1    3    3  502    0 -0.73369629299E+03  0.17576446957E+04  0.22914215217E+03  0.19183668191E+04  0.50400001928E-02 0.  1.
       -1    1    3    3    0  502  0.73369629299E+03 -0.17576446957E+04  0.10563047299E+04  0.21779359056E+04  0.50400001928E-02 0. -1.
</event>
<event>
 5   0  0.1164500E-08  0.3894598E+04  0.7818609E-02  0.8026154E-01
       -1   -1    0    0    0  501  0.00000000000E+00  0.00000000000E+00  0.23072024622E+04  0.23072024622E+04  0.50400001928E-02 0. -1.
        1   -1    0    0  501    0  0.00000000000E+00  0.00000000000E+00 -0.16435374377E+04  0.16435374377E+04  0.50400001928E-02 0.  1.
    10030    2    1    2    0    0  0.00000000000E+00  0.00000000000E+00  0.66366502457E+03  0.39507398999E+04  0.38945981169E+04 0.  0.
        3    1    3    3  502    0 -0.27036638873E+03  0.82847566971E+03  0.20983439683E+04  0.22721173691E+04  0.10100000352E+00 0. -1.
       -3    1    3    3    0  502  0.27036638873E+03 -0.82847566971E+03 -0.14346789437E+04  0.16786225309E+04  0.10100000352E+00 0.  1.
</event>
<event>
 5   0  0.1164500E-08  0.3904260E+04  0.7818609E-02  0.8024144E-01
       -1   -1    0    0    0  501  0.00000000000E+00  0.00000000000E+00  0.28747660756E+04  0.28747660756E+04  0.50400001928E-02 0. -1.
        1   -1    0    0  501    0  0.00000000000E+00  0.00000000000E+00 -0.13256071838E+04  0.13256071838E+04  0.50400001928E-02 0.  1.
    10030    2    1    2    0    0  0.00000000000E+00  0.00000000000E+00  0.15491588917E+04  0.42003732594E+04  0.39042595004E+04 0.  0.
        5    1    3    3  502    0  0.16308713874E+03 -0.11534083654E+03  0.28637360686E+04  0.28706980482E+04  0.46999998093E+01 0. -1.
       -5    1    3    3    0  502 -0.16308713874E+03  0.11534083654E+03 -0.13145771768E+04  0.13296752112E+04  0.46999998093E+01 0.  1.
</event>
<event>
 5   0  0.1164500E-08  0.3902928E+04  0.7818609E-02  0.8024421E-01
       -1   -1    0    0    0  501  0.00000000000E+00  0.00000000000E+00  0.17116992102E+04  0.17116992102E+04  0.50400001928E-02 0. -1.
        1   -1    0    0  501    0  0.00000000000E+00  0.00000000000E+00 -0.22248135284E+04  0.22248135284E+04  0.50400001928E-02 0.  1.
    10030    2    1    2    0    0  0.00000000000E+00  0.00000000000E+00 -0.51311431823E+03  0.39365127387E+04  0.39029279058E+04 0.  0.
        2    1    3    3  502    0 -0.14822968439E+04 -0.34996874481E+03 -0.14871088331E+04  0.21286556174E+04  0.25500000920E-02 0.  1.
       -2    1    3    3    0  502  0.14822968439E+04  0.34996874481E+03  0.97399451488E+03  0.18078571213E+04  0.25500000920E-02 0. -1.
</event>
<event>
 5   0  0.3669347E-08  0.3896688E+04  0.7818609E-02  0.8025718E-01
       -2   -1    0    0    0  501  0.00000000000E+00  0.00000000000E+00  0.16492287705E+04  0.16492287705E+04  0.25500000920E-02 0.  1.
        2   -1    0    0  501    0  0.00000000000E+00  0.00000000000E+00 -0.23017085048E+04  0.23017085048E+04  0.25500000920E-02 0. -1.
    10030    2    1    2    0    0  0.00000000000E+00  0.00000000000E+00 -0.65247973433E+03  0.39509372753E+04  0.38966877665E+04 0.  0.
        5    1    3    3  502    0  0.43302420656E+03 -0.14460139254E+04  0.92280151466E+03  0.17691950038E+04  0.46999998093E+01 0.  1.
       -5    1    3    3    0  502 -0.43302420656E+03  0.14460139254E+04 -0.15752812490E+04  0.21817422715E+04  0.46999998093E+01 0. -1.
</event>
<event>
 5   0  0.3724293E-08  0.3895284E+04  0.7818609E-02  0.8026011E-01
        2   -1    0    0  501    0  0.00000000000E+00  0.00000000000E+00  0.12117289785E+04  0.12117289785E+04  0.25500000920E-02 0.  1.
       -2   -1    0    0    0  501  0.00000000000E+00  0.00000000000E+00 -0.31304928346E+04  0.31304928346E+04  0.25500000920E-02 0. -1.
    10030    2    1    2    0    0  0.00000000000E+00  0.00000000000E+00 -0.19187638561E+04  0.43422218130E+04  0.38952837558E+04 0.  0.
        4    1    3    3  502    0 -0.14302323921E+04 -0.86522259057E+03 -0.20736365288E+04  0.26634836011E+04  0.12699999809E+01 0. -1.
       -4    1    3    3    0  502  0.14302323921E+04  0.86522259057E+03  0.15487267267E+03  0.16787382120E+04  0.12699999809E+01 0.  1.
</event>
<event>
 5   0  0.1164500E-08  0.3869646E+04  0.7818609E-02  0.8031372E-01
       -1   -1    0    0    0  501  0.00000000000E+00  0.00000000000E+00  0.14852697250E+04  0.14852697250E+04  0.50400001928E-02 0.  1.
        1   -1    0    0  501    0  0.00000000000E+00  0.00000000000E+00 -0.25204440946E+04  0.25204440946E+04  0.50400001928E-02 0. -1.
    10030    2    1    2    0    0  0.00000000000E+00  0.00000000000E+00 -0.10351743696E+04  0.40057138196E+04  0.38696456206E+04 0.  0.
        1    1    3    3  502    0  0.27086826545E+03  0.14227933108E+03  0.14600689044E+04  0.14917822331E+04  0.50400001928E-02 0.  1.
       -1    1    3    3    0  502 -0.27086826545E+03 -0.14227933108E+03 -0.24952432740E+04  0.25139315866E+04  0.50400001928E-02 0. -1.
</event>
<event>
 5   0  0.3669347E-08  0.3885536E+04  0.7818609E-02  0.8028044E-01
        2   -1    0    0  501    0  0.00000000000E+00  0.00000000000E+00  0.18616140962E+04  0.18616140962E+04  0.25500000920E-02 0. -1.
       -2   -1    0    0    0  501  0.00000000000E+00  0.00000000000E+00 -0.20274598514E+04  0.20274598514E+04  0.25500000920E-02 0.  1.
    10030    2    1    2    0    0  0.00000000000E+00  0.00000000000E+00 -0.16584575517E+03  0.38890739476E+04  0.38855361735E+04 0.  0.
        5    1    3    3  502    0 -0.69087332151E+03 -0.12357743140E+04 -0.14145031655E+04  0.20013209130E+04  0.46999998093E+01 0.  1.
       -5    1    3    3    0  502  0.69087332151E+03  0.12357743140E+04  0.12486574103E+04  0.18877530346E+04  0.46999998093E+01 0. -1.
</event>
<event>
 5   0  0.1164500E-08  0.3905667E+04  0.7818609E-02  0.8023852E-01
        1   -1    0    0  501    0  0.00000000000E+00  0.00000000000E+00  0.14997091545E+04  0.14997091545E+04  0.50400001928E-02 0. -1.
       -1   -1    0    0    0  501  0.00000000000E+00  0.00000000000E+00 -0.25428652270E+04  0.25428652270E+04  0.50400001928E-02 0.  1.
    10030    2    1    2    0    0  0.00000000000E+00  0.00000000000E+00 -0.10431560725E+04  0.40425743815E+04  0.39056667854E+04 0.  0.
        5    1    3    3  502    0  0.28312296739E+03  0.12235344640E+04 -0.20694386205E+04  0.24207010334E+04  0.46999998093E+01 0.  1.
       -5    1    3    3    0  502 -0.28312296739E+03 -0.12235344640E+04  0.10262825480E+04  0.16218733482E+04  0.46999998093E+01 0. -1.
</event>
<event>
 5   0  0.3690572E-08  0.3914697E+04  0.7818609E-02  0.8021979E-01
        2   -1    0    0  501    0  0.00000000000E+00  0.00000000000E+00  0.20688537238E+04  0.20688537238E+04  0.25500000920E-02 0.  1.
       -2   -1    0    0    0  501  0.00000000000E+00  0.00000000000E+00 -0.18518533129E+04  0.18518533129E+04  0.25500000920E-02 0. -1.
    10030    2    1    2    0    0  0.00000000000E+00  0.00000000000E+00  0.21700041091E+03  0.39207070367E+04  0.39146972411E+04 0.  0.
        3    1    3    3  502    0  0.18846367257E+04  0.13327513936E+03  0.62074972989E+03  0.19887051285E+04  0.10100000352E+00 0.  1.
       -3    1    3    3    0  502 -0.18846367257E+04 -0.13327513936E+03 -0.40374931897E+03  0.19320019083E+04  0.10100000352E+00 0. -1.
</event>
<event>
 5   0  0.3669347E-08  0.3905994E+04  0.7818609E-02  0.8023784E-01
        2   -1    0    0  501    0  0.00000000000E+00  0.00000000000E+00  0.29883144453E+04  0.29883144453E+04  0.25500000920E-02 0.  1.
       -2   -1    0    0    0  501  0.00000000000E+00  0.00000000000E+00 -0.12763709747E+04  0.12763709747E+04  0.25500000920E-02 0. -1.
    10030    2    1    2    0    0  0.00000000000E+00  0.00000000000E+00  0.17119434706E+04  0.42646854200E+04  0.39059942761E+04 0.  0.
        5    1    3    3  502    0  0.36722500744E+03  0.88291694619E+03 -0.10032785783E+04  0.13859965857E+04  0.46999998093E+01 0. -1.
       -5    1    3    3    0  502 -0.36722500744E+03 -0.88291694619E+03  0.27152220489E+04  0.28786888343E+04  0.46999998093E+01 0.  1.
</event>
<event>
 5   0  0.1164500E-08  0.3896709E+04  0.7818609E-02  0.8025714E-01
        1   -1    0    0  501    0  0.00000000000E+00  0.00000000000E+00  0.17881178074E+04  0.17881178074E+04  0.50400001928E-02 0.  1.
       -1   -1    0    0    0  501  0.00000000000E+00  0.00000000000E+00 -0.21229498987E+04  0.21229498987E+04  0.50400001928E-02 0. -1.
    10030    2    1    2    0    0  0.00000000000E+00  0.00000000000E+00 -0.33483209137E+03  0.39110677061E+04  0.38967086204E+04 0.  0.
        4    1    3    3  502    0 -0.13378723897E+04  0.87123222754E+03 -0.12882830828E+04  0.20514928807E+04  0.12699999809E+01 0. -1.
       -4    1    3    3    0  502  0.13378723897E+04 -0.87123222754E+03  0.95345099139E+03  0.18595748254E+04  0.12699999809E+01 0.  1.
</event>
<event>
 5   0  0.3690572E-08  0.3889762E+04  0.7818609E-02  0.8027162E-01
        2   -1    0    0  501    0  0.00000000000E+00  0.00000000000E+00  0.20454507558E+04  0.20454507558E+04  0.25500000920E-02 0. -1.
       -2   -1    0    0    0  501  0.00000000000E+00  0.00000000000E+00 -0.18492560896E+04  0.18492560896E+04  0.25500000920E-02 0.  1.
    10030    2    1    2    0    0  0.00000000000E+00  0.00000000000E+00  0.19619466618E+03  0.38947068453E+04  0.38897620832E+04 0.  0.
        3    1    3    3  502    0  0.10362795507E+04 -0.16384680660E+04 -0.57371895360E+02  0.19395217078E+04  0.10100000352E+00 0. -1.
       -3    1    3    3    0  502 -0.10362795507E+04  0.16384680660E+04  0.25356656154E+03  0.19551851375E+04  0.10100000352E+00 0.  1.
</event>
<event>
 5   0  0.3872969E-08  0.3892543E+04  0.7818609E-02  0.8026582E-01
       -2   -1    0    0    0  501  0.00000000000E+00  0.00000000000E+00  0.20613942030E+04  0.20613942030E+04  0.25500000920E-02 0. -1.
        2   -1    0    0  501    0  0.00000000000E+00  0.00000000000E+00 -0.18375784250E+04  0.18375784250E+04  0.25500000920E-02 0.  1.
    10030    2    1    2    0    0  0.00000000000E+00  0.00000000000E+00  0.22381577801E+03  0.38989726280E+04  0.38925433910E+04 0.  0.
        2    1    3    3  502    0  0.95850430207E+03  0.15740940632E+04 -0.51480187908E+03  0.19135108026E+04  0.25500000920E-02 0.  1.
       -2    1    3    3    0  502 -0.95850430207E+03 -0.15740940632E+04  0.73861765709E+03  0.19854618254E+04  0.25500000920E-02 0. -1.
</event>
<event>
 5   0  0.3724293E-08  0.3788357E+04  0.7818609E-02  0.8048658E-01
        2   -1    0    0  501    0  0.00000000000E+00  0.00000000000E+00  0.15555075525E+04  0.15555075526E+04  0.25500000920E-02 0.  1.
       -2   -1    0    0    0  501  0.00000000000E+00  0.00000000000E+00 -0.23065864960E+04  0.23065864960E+04  0.25500000920E-02 0. -1.
    10030    2    1    2    0    0  0.00000000000E+00  0.00000000000E+00 -0.75107894340E+03  0.38620940485E+04  0.37883572773E+04 0.  0.
        4    1    3    3  502    0 -0.46512513911E+03 -0.10512398811E+04 -0.19103203083E+04  0.22295228135E+04  0.12699999809E+01 0. -1.
       -4    1    3    3    0  502  0.46512513911E+03  0.10512398811E+04  0.11592413649E+04  0.16325712351E+04  0.12699999809E+01 0.  1.
</event>
<event>
 5   0  0.3669347E-08  0.3922152E+04  0.7818609E-02  0.8020438E-01
        2   -1    0    0  501    0  0.00000000000E+00  0.00000000000E+00  0.13312042523E+04  0.13312042523E+04  0.25500000920E-02 0. -1.
       -2   -1    0    0    0  501  0.00000000000E+00  0.00000000000E+00 -0.28889778082E+04  0.28889778082E+04  0.25500000920E-02 0.  1.
    10030    2    1    2    0    0  0.00000000000E+00  0.00000000000E+00 -0.15577735559E+04  0.42201820605E+04  0.39221522373E+04 0.  0.
        5    1    3    3  502    0 -0.40061751412E+03  0.84878295759E+03 -0.26316060052E+04  0.27939755114E+04  0.46999998093E+01 0.  1.
       -5    1    3    3    0  502  0.40061751412E+03 -0.84878295759E+03  0.10738324493E+04  0.14262065492E+04  0.46999998093E+01 0. -1.
</event>
<event>
 5   0  0.3769985E-08  0.3883746E+04  0.7818609E-02  0.8028418E-01
        2   -1    0    0  501    0  0.00000000000E+00  0.00000000000E+00  0.12733095305E+04  0.12733095305E+04  0.25500000920E-02 0.  1.
       -2   -1    0    0    0  501  0.00000000000E+00  0.00000000000E+00 -0.29614727252E+04  0.29614727252E+04  0.25500000920E-02 0. -1.
    10030    2    1    2    0    0  0.00000000000E+00  0.00000000000E+00 -0.16881631948E+04  0.42347822557E+04  0.38837463590E+04 0.  0.
        1    1    3    3  502    0  0.10888086810E+04  0.43831321564E+03 -0.25309225444E+04  0.27898372255E+04  0.50400001928E-02 0. -1.
       -1    1    3    3    0  502 -0.10888086810E+04 -0.43831321564E+03  0.84275934964E+03  0.14449450302E+04  0.50400001928E-02 0.  1.
</event>
<event>
 5   0  0.3769985E-08  0.3901859E+04  0.7818609E-02  0.8024643E-01
       -2   -1    0    0    0  501  0.00000000000E+00  0.00000000000E+00  0.19849721436E+04  0.19849721436E+04  0.25500000920E-02 0. -1.
        2   -1    0    0  501    0  0.00000000000E+00  0.00000000000E+00 -0.19174710859E+04  0.19174710859E+04  0.25500000920E-02 0.  1.
    10030    2    1    2    0    0  0.00000000000E+00  0.00000000000E+00  0.67501057671E+02  0.39024432295E+04  0.39018593986E+04 0.  0.
        1    1    3    3  502    0  0.12433212465E+04 -0.12338512636E+04  0.89288431629E+03  0.19660821613E+04  0.50400001928E-02 0. -1.
       -1    1    3    3    0  502 -0.12433212465E+04  0.12338512636E+04 -0.82538325862E+03  0.19363610682E+04  0.50400001928E-02 0.  1.
</event>
<event>
 5   0  0.1164500E-08  0.3903371E+04  0.7818609E-02  0.8024328E-01
        1   -1    0    0  501    0  0.00000000000E+00  0.00000000000E+00  0.24656198001E+04  0.24656198001E+04  0.50400001928E-02 0. -1.
       -1   -1    0    0    0  501  0.00000000000E+00  0.00000000000E+00 -0.15448757692E+04  0.15448757692E+04  0.50400001928E-02 0.  1.
    10030    2    1    2    0    0  0.00000000000E+00  0.00000000000E+00  0.92074403090E+03  0.40104955692E+04  0.39033709970E+04 0.  0.
        1    1    3    3  502    0  0.77398748176E+03 -0.64185137434E+03 -0.12582709784E+04  0.16106755303E+04  0.50400001928E-02 0.  1.
       -1    1    3    3    0  502 -0.77398748176E+03  0.64185137434E+03  0.21790150093E+04  0.23998200390E+04  0.50400001928E-02 0. -1.
</event>
<event>
 5   0  0.1164500E-08  0.3899418E+04  0.7818609E-02  0.8025150E-01
        1   -1    0    0  501    0  0.00000000000E+00  0.00000000000E+00  0.12842560947E+04  0.12842560947E+04  0.50400001928E-02 0.  1.
       -1   -1    0    0    0  501  0.00000000000E+00  0.00000000000E+00 -0.29599749519E+04  0.29599749519E+04  0.50400001928E-02 0. -1.
    10030    2    1    2    0    0  0.00000000000E+00  0.00000000000E+00 -0.16757188572E+04  0.42442310466E+04  0.38994183526E+04 0.  0.
        2    1    3    3  502    0 -0.11455336967E+04  0.33365198775E+03  0.84050540228E+03  0.14594589513E+04  0.25500000920E-02 0.  1.
       -2    1    3    3    0  502  0.11455336967E+04 -0.33365198775E+03 -0.25162242595E+04  0.27847720954E+04  0.25500000920E-02 0. -1.
</event>
<event>
 5   0  0.3769985E-08  0.3903023E+04  0.7818609E-02  0.8024401E-01
        2   -1    0    0  501    0  0.00000000000E+00  0.00000000000E+00  0.21142092253E+04  0.21142092253E+04  0.25500000920E-02 0. -1.
       -2   -1    0    0    0  501  0.00000000000E+00  0.00000000000E+00 -0.18013340288E+04  0.18013340288E+04  0.25500000920E-02 0.  1.
    10030    2    1    2    0    0  0.00000000000E+00  0.00000000000E+00  0.31287519651E+03  0.39155432541E+04  0.39030229420E+04 0.  0.
        1    1    3    3  502    0 -0.12744927433E+04  0.49906804570E+03 -0.12390661181E+04  0.18462625793E+04  0.50400001928E-02 0.  1.
       -1    1    3    3    0  502  0.12744927433E+04 -0.49906804570E+03  0.15519413146E+04  0.20692806747E+04  0.50400001928E-02 0. -1.
</event>
<event>
 5   0  0.1164500E-08  0.3901565E+04  0.7818609E-02  0.8024704E-01
        1   -1    0    0  501    0  0.00000000000E+00  0.00000000000E+00  0.26882558002E+04  0.26882558002E+04  0.50400001928E-02 0.  1.
       -1   -1    0    0    0  501  0.00000000000E+00  0.00000000000E+00 -0.14156216613E+04  0.14156216613E+04  0.50400001928E-02 0. -1.
    10030    2    1    2    0    0  0.00000000000E+00  0.00000000000E+00  0.12726341389E+04  0.41038774615E+04  0.39015653996E+04 0.  0.
        5    1    3    3  502    0  0.88841056686E+03 -0.17093282741E+04  0.31304589861E+03  0.19516906283E+04  0.46999998093E+01 0. -1.
       -5    1    3    3    0  502 -0.88841056686E+03  0.17093282741E+04  0.95958824027E+03  0.21521868332E+04  0.46999998093E+01 0.  1.
</event>
<event>
 5   0  0.3669347E-08  0.3905889E+04  0.7818609E-02  0.8023805E-01
       -2   -1    0    0    0  501  0.00000000000E+00  0.00000000000E+00  0.23247701046E+04  0.23247701046E+04  0.25500000920E-02 0.  1.
        2   -1    0    0  501    0  0.00000000000E+00  0.00000000000E+00 -0.16405892760E+04  0.16405892760E+04  0.25500000920E-02 0. -1.
    10030    2    1    2    0    0  0.00000000000E+00  0.00000000000E+00  0.68418082863E+03  0.39653593806E+04  0.39058893496E+04 0.  0.
        5    1    3    3  502    0 -0.11768568970E+04  0.14717929524E+04 -0.17835925497E+03  0.18928816035E+04  0.46999998093E+01 0. -1.
       -5    1    3    3    0  502  0.11768568970E+04 -0.14717929524E+04  0.86254008361E+03  0.20724777771E+04  0.46999998093E+01 0.  1.
</event>
<event>
 5   0  0.1164500E-08  0.3902285E+04  0.7818609E-02  0.8024554E-01
        1   -1    0    0  501    0  0.00000000000E+00  0.00000000000E+00  0.14350865496E+04  0.14350865496E+04  0.50400001928E-02 0. -1.
       -1   -1    0    0    0  501  0.00000000000E+00  0.00000000000E+00 -0.26527716560E+04  0.26527716560E+04  0.50400001928E-02 0.  1.
    10030    2    1    2    0    0  0.00000000000E+00  0.00000000000E+00 -0.12176851064E+04  0.40878582056E+04  0.39022849321E+04 0.  0.
        3    1    3    3  502    0 -0.10638139515E+04  0.10350492638E+04 -0.19355327676E+04  0.24391216055E+04  0.10100000352E+00 0.  1.
       -3    1    3    3    0  502  0.10638139515E+04 -0.10350492638E+04  0.71784766118E+03  0.16487366001E+04  0.10100000352E+00 0. -1.
</event>
<event>
 5   0  0.3872969E-08  0.3892534E+04  0.7818609E-02  0.8026584E-01
        2   -1    0    0  501    0  0.00000000000E+00  0.00000000000E+00  0.20909105903E+04  0.20909105903E+04  0.25500000920E-02 0.  1.
       -2   -1    0    0    0  501  0.00000000000E+00  0.00000000000E+00 -0.18116296357E+04  0.18116296357E+04  0.25500000920E-02 0. -1.
    10030    2    1    2    0    0  0.00000000000E+00  0.00000000000E+00  0.27928095461E+03  0.39025402260E+04  0.38925341828E+04 0.  0.
        2    1    3    3  502    0 -0.76707457081E+03  0.31219015276E+03 -0.16261619736E+04  0.18249024229E+04  0.25500000920E-02 0. -1.
       -2    1    3    3    0  502  0.76707457081E+03 -0.31219015276E+03  0.19054429282E+04  0.20776378032E+04  0.25500000920E-02 0.  1.
</event>
<event>
 5   0  0.1164500E-08  0.3907966E+04  0.7818609E-02  0.8023374E-01
       -1   -1    0    0    0  501  0.00000000000E+00  0.00000000000E+00  0.28888167153E+04  0.28888167153E+04  0.50400001928E-02 0.  1.
        1   -1    0    0  501    0  0.00000000000E+00  0.00000000000E+00 -0.13216657706E+04  0.13216657706E+04  0.50400001928E-02 0. -1.
    10030    2    1    2    0    0  0.00000000000E+00  0.00000000000E+00  0.15671509448E+04  0.42104824859E+04  0.39079663101E+04 0.  0.
        4    1    3    3  502    0  0.18710876444E+03  0.43135350331E+03 -0.12598069088E+04  0.13446897765E+04  0.12699999809E+01 0. -1.
       -4    1    3    3    0  502 -0.18710876444E+03 -0.43135350331E+03  0.28269578536E+04  0.28657927094E+04  0.12699999809E+01 0.  1.
</event>
<event>
 5   0  0.1164500E-08  0.3912902E+04  0.7818609E-02  0.8022351E-01
       -1   -1    0    0    0  501  0.00000000000E+00  0.00000000000E+00  0.15836215711E+04  0.15836215711E+04  0.50400001928E-02 0.  1.
        1   -1    0    0  501    0  0.00000000000E+00  0.00000000000E+00 -0.24170552370E+04  0.24170552370E+04  0.50400001928E-02 0. -1.
    10030    2    1    2    0    0  0.00000000000E+00  0.00000000000E+00 -0.83343366591E+03  0.40006768082E+04  0.39129021516E+04 0.  0.
        5    1    3    3  502    0  0.62262494333E+03  0.17712177934E+03  0.14709500349E+04  0.16070936625E+04  0.46999998093E+01 0.  1.
       -5    1    3    3    0  502 -0.62262494333E+03 -0.17712177934E+03 -0.23043837008E+04  0.23935831457E+04  0.46999998093E+01 0. -1.
</event>
<event>
 5   0  0.1164500E-08  0.3900576E+04  0.7818609E-02  0.8024909E-01
        1   -1    0    0  501    0  0.00000000000E+00  0.00000000000E+00  0.20743289567E+04  0.20743289567E+04  0.50400001928E-02 0.  1.
       -1   -1    0    0    0  501  0.00000000000E+00  0.00000000000E+00 -0.18336642453E+04  0.18336642453E+04  0.50400001928E-02 0. -1.
    10030    2    1    2    0    0  0.00000000000E+00  0.00000000000E+00  0.24066471136E+03  0.39079932020E+04  0.39005757734E+04 0.  0.
        3    1    3    3  502    0  0.12803621614E+04 -0.92889425724E+03 -0.10226486034E+04  0.18836087655E+04  0.10100000352E+00 0. -1.
       -3    1    3    3    0  502 -0.12803621614E+04  0.92889425724E+03  0.12633133147E+04  0.20243844365E+04  0.10100000352E+00 0.  1.
</event>
<event>
 5   0  0.1164500E-08  0.3886695E+04  0.7818609E-02  0.8027802E-01
       -1   -1    0    0    0  501  0.00000000000E+00  0.00000000000E+00  0.18810608409E+04  0.18810608409E+04  0.50400001928E-02 0. -1.
        1   -1    0    0  501    0  0.00000000000E+00  0.00000000000E+00 -0.20076963162E+04  0.20076963162E+04  0.50400001928E-02 0.  1.
    10030    2    1    2    0    0  0.00000000000E+00  0.00000000000E+00 -0.12663547530E+03  0.38887571572E+04  0.38866946991E+04 0.  0.
        2    1    3    3  502    0  0.33531633412E+03  0.10448952160E+04  0.15413899019E+04  0.18921220590E+04  0.25500000920E-02 0. -1.
       -2    1    3    3    0  502 -0.33531633412E+03 -0.10448952160E+04 -0.16680253772E+04  0.19966350982E+04  0.25500000920E-02 0.  1.
</event>
<event>
 5   0  0.3690572E-08  0.3901729E+04  0.7818609E-02  0.8024670E-01
        2   -1    0    0  501    0  0.00000000000E+00  0.00000000000E+00  0.25174021091E+04  0.25174021091E+04  0.25500000920E-02 0. -1.
       -2   -1    0    0    0  501  0.00000000000E+00  0.00000000000E+00 -0.15118250112E+04  0.15118250112E+04  0.25500000920E-02 0.  1.
    10030    2    1    2    0    0  0.00000000000E+00  0.00000000000E+00  0.10055770979E+04  0.40292271203E+04  0.39017285768E+04 0.  0.
        3    1    3    3  502    0  0.63448056905E+03  0.87989256060E+03  0.21772217610E+04  0.24325030560E+04  0.10100000352E+00 0. -1.
       -3    1    3    3    0  502 -0.63448056905E+03 -0.87989256060E+03 -0.11716446631E+04  0.15967240643E+04  0.10100000352E+00 0.  1.
</event>
<event>
 5   0  0.3769985E-08  0.3900829E+04  0.7818609E-02  0.8024857E-01
        2   -1    0    0  501    0  0.00000000000E+00  0.00000000000E+00  0.23975987449E+04  0.23975987449E+04  0.25500000920E-02 0. -1.
       -2   -1    0    0    0  501  0.00000000000E+00  0.00000000000E+00 -0.15866360730E+04  0.15866360730E+04  0.25500000920E-02 0.  1.
    10030    2    1    2    0    0  0.00000000000E+00  0.00000000000E+00  0.81096267188E+03  0.39842348179E+04  0.39008289669E+04 0.  0.
        1    1    3    3  502    0  0.15184040361E+03 -0.19444165810E+04  0.38763464854E+03  0.19884848426E+04  0.50400001928E-02 0.  1.
       -1    1    3    3    0  502 -0.15184040361E+03  0.19444165810E+04  0.42332802333E+03  0.19957499753E+04  0.50400001928E-02 0. -1.
</event>
<event>
 5   0  0.1164500E-08  0.3904231E+04  0.7818609E-02  0.8024150E-01
        1   -1    0    0  501    0  0.00000000000E+00  0.00000000000E+00  0.25527893528E+04  0.25527893528E+04  0.50400001928E-02 0.  1.
       -1   -1    0    0    0  501  0.00000000000E+00  0.00000000000E+00 -0.14927811711E+04  0.14927811712E+04  0.50400001928E-02 0. -1.
    10030    2    1    2    0    0  0.00000000000E+00  0.00000000000E+00  0.10600081816E+04  0.40455705239E+04  0.39042314889E+04 0.  0.
        2    1    3    3  502    0  0.49252020568E+03 -0.16421471320E+04 -0.43735121010E+03  0.17693217449E+04  0.25500000920E-02 0. -1.
       -2    1    3    3    0  502 -0.49252020568E+03  0.16421471320E+04  0.14973593917E+04  0.22762487790E+04  0.25500000920E-02 0.  1.
</event>
<event>
 5   0  0.1164500E-08  0.3900190E+04  0.7818609E-02  0.8024990E-01
       -1   -1    0    0    0  501  0.00000000000E+00  0.00000000000E+00  0.19803683319E+04  0.19803683320E+04  0.50400001928E-02 0. -1.
        1   -1    0    0  501    0  0.00000000000E+00  0.00000000000E+00 -0.19202841516E+04  0.19202841516E+04  0.50400001928E-02 0.  1.
    10030    2    1    2    0    0  0.00000000000E+00  0.00000000000E+00  0.60084180318E+02  0.39006524836E+04  0.39001896991E+04 0.  0.
        4    1    3    3  502    0 -0.68197642415E+03 -0.13030561522E+03 -0.17924795231E+04  0.19222528060E+04  0.12699999809E+01 0.  1.
       -4    1    3    3    0  502  0.68197642415E+03  0.13030561522E+03  0.18525637034E+04  0.19783996776E+04  0.12699999809E+01 0. -1.
</event>
<event>
 5   0  0.1164500E-08  0.3903518E+04  0.7818609E-02  0.8024298E-01
        1   -1    0    0  501    0  0.00000000000E+00  0.00000000000E+00  0.21902227275E+04  0.21902227275E+04  0.50400001928E-02 0.  1.
       -1   -1    0    0    0  501  0.00000000000E+00  0.00000000000E+00 -0.17392583533E+04  0.17392583533E+04  0.50400001928E-02 0. -1.
    10030    2    1    2    0    0  0.00000000000E+00  0.00000000000E+00  0.45096437413E+03  0.39294810808E+04  0.39035179899E+04 0.  0.
        3    1    3    3  502    0  0.20197400165E+03 -0.17174762360E+04 -0.68543706265E+03  0.18601994774E+04  0.10100000352E+00 0. -1.
       -3    1    3    3    0  502 -0.20197400165E+03  0.17174762360E+04  0.11364014368E+04  0.20692816034E+04  0.10100000352E+00 0.  1.
</event>
<event>
 5   0  0.1164500E-08  0.3890015E+04  0.7818609E-02  0.8027109E-01
       -1   -1    0    0    0  501  0.00000000000E+00  0.00000000000E+00  0.22305938048E+04  0.22305938048E+04  0.50400001928E-02 0.  1.
        1   -1    0    0  501    0  0.00000000000E+00  0.00000000000E+00 -0.16959849272E+04  0.16959849272E+04  0.50400001928E-02 0. -1.
    10030    2    1    2    0    0  0.00000000000E+00  0.00000000000E+00  0.53460887762E+03  0.39265787321E+04  0.38900146384E+04 0.  0.
        4    1    3    3  502    0  0.10760973996E+04  0.15417806041E+03 -0.13607087107E+04  0.17416332267E+04  0.12699999809E+01 0. -1.
       -4    1    3    3    0  502 -0.10760973996E+04 -0.15417806041E+03  0.18953175884E+04  0.21849455054E+04  0.12699999809E+01 0.  1.
</event>
<event>
 5   0  0.3872969E-08  0.3899824E+04  0.7818609E-02  0.8025066E-01
       -2   -1    0    0    0  501  0.00000000000E+00  0.00000000000E+00  0.18367423762E+04  0.18367423762E+04  0.25500000920E-02 0.  1.
        2   -1    0    0  501    0  0.00000000000E+00  0.00000000000E+00 -0.20700548349E+04  0.20700548349E+04  0.25500000920E-02 0. -1.
    10030    2    1    2    0    0  0.00000000000E+00  0.00000000000E+00 -0.23331245870E+03  0.39067972112E+04  0.38998243224E+04 0.  0.
        2    1    3    3  502    0  0.91597939668E+02  0.37349918577E+02 -0.20675395908E+04  0.20699046255E+04  0.25500000920E-02 0. -1.
       -2    1    3    3    0  502 -0.91597939668E+02 -0.37349918577E+02  0.18342271321E+04  0.18368925857E+04  0.25500000920E-02 0.  1.
</event>
<event>
 5   0  0.3769985E-08  0.3897442E+04  0.7818609E-02  0.8025562E-01
        2   -1    0    0  501    0  0.00000000000E+00  0.00000000000E+00  0.23449995054E+04  0.23449995054E+04  0.25500000920E-02 0. -1.
       -2   -1    0    0    0  501  0.00000000000E+00  0.00000000000E+00 -0.16194086934E+04  0.16194086934E+04  0.25500000920E-02 0.  1.
    10030    2    1    2    0    0  0.00000000000E+00  0.00000000000E+00  0.72559081204E+03  0.39644081988E+04  0.38974415121E+04 0.  0.
        1    1    3    3  502    0 -0.14963880005E+04 -0.79034738308E+03  0.13456727190E+04  0.21620964596E+04  0.50400001928E-02 0. -1.
       -1    1    3    3    0  502  0.14963880005E+04  0.79034738308E+03 -0.62008190697E+03  0.18023117392E+04  0.50400001928E-02 0.  1.
</event>
<event>
 5   0  0.1164500E-08  0.3901209E+04  0.7818609E-02  0.8024778E-01
        1   -1    0    0  501    0  0.00000000000E+00  0.00000000000E+00  0.23240177903E+04  0.23240177903E+04  0.50400001928E-02 0. -1.
       -1   -1    0    0    0  501  0.00000000000E+00  0.00000000000E+00 -0.16371893672E+04  0.16371893672E+04  0.50400001928E-02 0.  1.
    10030    2    1    2    0    0  0.00000000000E+00  0.00000000000E+00  0.68682842313E+03  0.39612071575E+04  0.39012086411E+04 0.  0.
        1    1    3    3  502    0 -0.72991784036E+03 -0.16739677205E+04  0.10394560837E+04  0.21012893501E+04  0.50400001928E-02 0. -1.
       -1    1    3    3    0  502  0.72991784036E+03  0.16739677205E+04 -0.35262766061E+03  0.18599178073E+04  0.50400001928E-02 0.  1.
</event>
<event>
 5   0  0.3872969E-08  0.3903340E+04  0.7818609E-02  0.8024335E-01
       -2   -1    0    0    0  501  0.00000000000E+00  0.00000000000E+00  0.13662057893E+04  0.13662057893E+04  0.25500000920E-02 0.  1.
        2   -1    0    0  501    0  0.00000000000E+00  0.00000000000E+00 -0.27880245718E+04  0.27880245718E+04  0.25500000920E-02 0. -1.
    10030    2    1    2    0    0  0.00000000000E+00  0.00000000000E+00 -0.14218187825E+04  0.41542303611E+04  0.39033397550E+04 0.  0.
        2    1    3    3  502    0  0.14504742234E+04  0.41977599043E+03 -0.20268846714E+04  0.25275183137E+04  0.25500000920E-02 0. -1.
       -2    1    3    3    0  502 -0.14504742234E+04 -0.41977599043E+03  0.60506588898E+03  0.16267120473E+04  0.25500000920E-02 0.  1.
</event>
<event>
 5   0  0.1164500E-08  0.3905012E+04  0.7818609E-02  0.8023988E-01
        1   -1    0    0  501    0  0.00000000000E+00  0.00000000000E+00  0.22918818515E+04  0.22918818516E+04  0.50400001928E-02 0. -1.
       -1   -1    0    0    0  501  0.00000000000E+00  0.00000000000E+00 -0.16633836890E+04  0.16633836890E+04  0.50400001928E-02 0.  1.
    10030    2    1    2    0    0  0.00000000000E+00  0.00000000000E+00  0.62849816252E+03  0.39552655406E+04  0.39050115949E+04 0.  0.
        3    1    3    3  502    0  0.63046420665E+03  0.15057674335E+04 -0.77073097362E+03  0.18052276653E+04  0.10100000352E+00 0. -1.
       -3    1    3    3    0  502 -0.63046420665E+03 -0.15057674335E+04  0.13992291361E+04  0.21500378753E+04  0.10100000352E+00 0.  1.
</event>
<event>
 5   0  0.3769985E-08  0.3911434E+04  0.7818609E-02  0.8022655E-01
       -2   -1    0    0    0  501  0.00000000000E+00  0.00000000000E+00  0.16673505166E+04  0.16673505166E+04  0.25500000920E-02 0.  1.
        2   -1    0    0  501    0  0.00000000000E+00  0.00000000000E+00 -0.22939563264E+04  0.22939563264E+04  0.25500000920E-02 0. -1.
    10030    2    1    2    0    0  0.00000000000E+00  0.00000000000E+00 -0.62660580981E+03  0.39613068429E+04  0.39114341440E+04 0.  0.
        1    1    3    3  502    0 -0.26803497225E+03 -0.18324174903E+04  0.32338833511E+03  0.18799405896E+04  0.50400001928E-02 0. -1.
       -1    1    3    3    0  502  0.26803497225E+03  0.18324174903E+04 -0.94999414492E+03  0.20813662533E+04  0.50400001928E-02 0.  1.
</event>
<event>
 5   0  0.1164500E-08  0.3897198E+04  0.7818609E-02  0.8025612E-01
        1   -1    0    0  501    0  0.00000000000E+00  0.00000000000E+00  0.25652908813E+04  0.25652908813E+04  0.50400001928E-02 0.  1.
       -1   -1    0    0    0  501  0.00000000000E+00  0.00000000000E+00 -0.14801586547E+04  0.14801586547E+04  0.50400001928E-02 0. -1.
    10030    2    1    2    0    0  0.00000000000E+00  0.00000000000E+00  0.10851322266E+04  0.40454495360E+04  0.38971977110E+04 0.  0.
        3    1    3    3  502    0  0.21784029246E+03  0.18487463076E+04 -0.55294990756E+02  0.18623573365E+04  0.10100000352E+00 0. -1.
       -3    1    3    3    0  502 -0.21784029246E+03 -0.18487463076E+04  0.11404272174E+04  0.21830921994E+04  0.10100000352E+00 0.  1.
</event>
<event>
 5   0  0.3669347E-08  0.3901326E+04  0.7818609E-02  0.8024754E-01
        2   -1    0    0  501    0  0.00000000000E+00  0.00000000000E+00  0.29171464100E+04  0.29171464100E+04  0.25500000920E-02 0. -1.
       -2   -1    0    0    0  501  0.00000000000E+00  0.00000000000E+00 -0.13043860932E+04  0.13043860932E+04  0.25500000920E-02 0.  1.
    10030    2    1    2    0    0  0.00000000000E+00  0.00000000000E+00  0.16127603168E+04  0.42215325032E+04  0.39013255230E+04 0.  0.
        5    1    3    3  502    0  0.67557376339E+03 -0.10920211334E+04 -0.78252414532E+03  0.15037540336E+04  0.46999998093E+01 0.  1.
       -5    1    3    3    0  502 -0.67557376339E+03  0.10920211334E+04  0.23952844621E+04  0.27177784696E+04  0.46999998093E+01 0. -1.
</event>
<event>
 5   0  0.3769985E-08  0.3900831E+04  0.7818609E-02  0.8024856E-01
        2   -1    0    0  501    0  0.00000000000E+00  0.00000000000E+00  0.19566795681E+04  0.19566795681E+04  0.25500000920E-02 0. -1.
       -2   -1    0    0    0  501  0.00000000000E+00  0.00000000000E+00 -0.19441714680E+04  0.19441714680E+04  0.25500000920E-02 0.  1.
    10030    2    1    2    0    0  0.00000000000E+00  0.00000000000E+00  0.12508100130E+02  0.39008510361E+04  0.39008309824E+04 0.  0.
        1    1    3    3  502    0 -0.17611546127E+03  0.13545426567E+04  0.13984961458E+04  0.19548897499E+04  0.50400001928E-02 0. -1.
       -1    1    3    3    0  502  0.17611546127E+03 -0.13545426567E+04 -0.13859880457E+04  0.19459612862E+04  0.50400001928E-02 0.  1.
</event>
<event>
 5   0  0.1164500E-08  0.3896423E+04  0.7818609E-02  0.8025774E-01
        1   -1    0    0  501    0  0.00000000000E+00  0.00000000000E+00  0.14146948604E+04  0.14146948604E+04  0.50400001928E-02 0. -1.
       -1   -1    0    0    0  501  0.00000000000E+00  0.00000000000E+00 -0.26829308446E+04  0.26829308446E+04  0.50400001928E-02 0.  1.
    10030    2    1    2    0    0  0.00000000000E+00  0.00000000000E+00 -0.12682359842E+04  0.40976257050E+04  0.38964232197E+04 0.  0.
        2    1    3    3  502    0 -0.23757638522E+03  0.10710258137E+04 -0.23272187099E+04  0.25728361308E+04  0.25500000920E-02 0.  1.
       -2    1    3    3    0  502  0.23757638522E+03 -0.10710258137E+04  0.10589827257E+04  0.15247895742E+04  0.25500000920E-02 0. -1.
</event>
<event>
 5   0  0.3872969E-08  0.3910524E+04  0.7818609E-02  0.8022844E-01
       -2   -1    0    0    0  501  0.00000000000E+00  0.00000000000E+00  0.24954025207E+04  0.24954025207E+04  0.25500000920E-02 0. -1.
        2   -1    0    0  501    0  0.00000000000E+00  0.00000000000E+00 -0.15320374151E+04  0.15320374151E+04  0.25500000920E-02 0.  1.
    10030    2    1    2    0    0  0.00000000000E+00  0.00000000000E+00  0.96336510561E+03  0.40274399357E+04  0.39105242755E+04 0.  0.
        2    1    3    3  502    0 -0.79844286563E+03 -0.88716550855E+03 -0.11133215655E+04  0.16321943994E+04  0.25500000920E-02 0.  1.
       -2    1    3    3    0  502  0.79844286563E+03  0.88716550855E+03  0.20766866711E+04  0.23952455363E+04  0.25500000920E-02 0. -1.
</event>
<event>
 5   0  0.3769985E-08  0.3902348E+04  0.7818609E-02  0.8024541E-01
       -2   -1    0    0    0  501  0.00000000000E+00  0.00000000000E+00  0.18826666808E+04  0.18826666808E+04  0.25500000920E-02 0.  1.
        2   -1    0    0  501    0  0.00000000000E+00  0.00000000000E+00 -0.20221745368E+04  0.20221745368E+04  0.25500000920E-02 0. -1.
    10030    2    1    2    0    0  0.00000000000E+00  0.00000000000E+00 -0.13950785600E+03  0.39048412177E+04  0.39023483306E+04 0.  0.
        1    1    3    3  502    0  0.54305160374E+03 -0.13165201794E+04 -0.14043788828E+04  0.20001026158E+04  0.50400001928E-02 0. -1.
       -1    1    3    3    0  502 -0.54305160374E+03  0.13165201794E+04  0.12648710268E+04  0.19047386019E+04  0.50400001928E-02 0.  1.
</event>
<event>
 5   0  0.1164500E-08  0.3900060E+04  0.7818609E-02  0.8025017E-01
       -1   -1    0    0    0  501  0.00000000000E+00  0.00000000000E+00  0.27439915710E+04  0.27439915710E+04  0.50400001928E-02 0. -1.
        1   -1    0    0  501    0  0.00000000000E+00  0.00000000000E+00 -0.13857973653E+04  0.13857973653E+04  0.50400001928E-02 0.  1.
    10030    2    1    2    0    0  0.00000000000E+00  0.00000000000E+00  0.13581942057E+04  0.41297889363E+04  0.39000596352E+04 0.  0.
        2    1    3    3  502    0 -0.75144853263E+03 -0.19260054777E+03  0.25735727508E+04  0.26879446743E+04  0.25500000920E-02 0. -1.
       -2    1    3    3    0  502  0.75144853263E+03  0.19260054777E+03 -0.12153785451E+04  0.14418442621E+04  0.25500000920E-02 0.  1.
</event>
<event>
 5   0  0.1164500E-08  0.3896228E+04  0.7818609E-02  0.8025814E-01
       -1   -1    0    0    0  501  0.00000000000E+00  0.00000000000E+00  0.17985515863E+04  0.17985515863E+04  0.50400001928E-02 0.  1.
        1   -1    0    0  501    0  0.00000000000E+00  0.00000000000E+00 -0.21101134581E+04  0.21101134581E+04  0.50400001928E-02 0. -1.
    10030    2    1    2    0    0  0.00000000000E+00  0.00000000000E+00 -0.31156187183E+03  0.39086650444E+04  0.38962278719E+04 0.  0.
        4    1    3    3  502    0 -0.16321909181E+04  0.82664326956E+03 -0.82706564714E+03  0.20078410011E+04  0.12699999809E+01 0.  1.
       -4    1    3    3    0  502  0.16321909181E+04 -0.82664326956E+03  0.51550377531E+03  0.19008240433E+04  0.12699999809E+01 0. -1.
</event>
<event>
 5   0  0.3669347E-08  0.3889545E+04  0.7818609E-02  0.8027207E-01
       -2   -1    0    0    0  501  0.00000000000E+00  0.00000000000E+00  0.23342463043E+04  0.23342463043E+04  0.25500000920E-02 0.  1.
        2   -1    0    0  501    0  0.00000000000E+00  0.00000000000E+00 -0.16202829050E+04  0.16202829051E+04  0.25500000920E-02 0. -1.
    10030    2    1    2    0    0  0.00000000000E+00  0.00000000000E+00  0.71396339923E+03  0.39545292093E+04  0.38895446433E+04 0.  0.
        5    1    3    3  502    0  0.42643927190E+02  0.37526705358E+03 -0.15826322708E+04  0.16270804714E+04  0.46999998093E+01 0. -1.
       -5    1    3    3    0  502 -0.42643927190E+02 -0.37526705358E+03  0.22965956700E+04  0.23274487379E+04  0.46999998093E+01 0.  1.
</event>
<event>
 5   0  0.1164500E-08  0.3899730E+04  0.7818609E-02  0.8025085E-01
        1   -1    0    0  501    0  0.00000000000E+00  0.00000000000E+00  0.12399673832E+04  0.12399673832E+04  0.50400001928E-02 0.  1.
       -1   -1    0    0    0  501  0.00000000000E+00  0.00000000000E+00 -0.30661890816E+04  0.30661890816E+04  0.50400001928E-02 0. -1.
    10030    2    1    2    0    0  0.00000000000E+00  0.00000000000E+00 -0.18262216984E+04  0.43061564649E+04  0.38997304789E+04 0.  0.
        5    1    3    3  502    0  0.12345621288E+04  0.92742778417E+03 -0.22278672759E+04  0.27106605531E+04  0.46999998093E+01 0. -1.
       -5    1    3    3    0  502 -0.12345621288E+04 -0.92742778417E+03  0.40164557752E+03  0.15954959118E+04  0.46999998093E+01 0.  1.
</event>
<event>
 5   0  0.1164500E-08  0.3907567E+04  0.7818609E-02  0.8023457E-01
       -1   -1    0    0    0  501  0.00000000000E+00  0.00000000000E+00  0.15484061106E+04  0.15484061106E+04  0.50400001928E-02 0.  1.
        1   -1    0    0  501    0  0.00000000000E+00  0.00000000000E+00 -0.24652897948E+04  0.24652897948E+04  0.50400001928E-02 0. -1.
    10030    2    1    2    0    0  0.00000000000E+00  0.00000000000E+00 -0.91688368424E+03  0.40136959054E+04  0.39075669067E+04 0.  0.
        3    1    3    3  502    0  0.14998079118E+03 -0.23844914423E+03 -0.24443213791E+04  0.24604997961E+04  0.10100000352E+00 0. -1.
       -3    1    3    3    0  502 -0.14998079118E+03  0.23844914423E+03  0.15274376948E+04  0.15531961093E+04  0.10100000352E+00 0.  1.
</event>
<event>
 5   0  0.3690572E-08  0.3906206E+04  0.7818609E-02  0.8023740E-01
        2   -1    0    0  501    0  0.00000000000E+00  0.00000000000E+00  0.28002679768E+04  0.28002679768E+04  0.25500000920E-02 0.  1.
       -2   -1    0    0    0  501  0.00000000000E+00  0.00000000000E+00 -0.13622310970E+04  0.13622310970E+04  0.25500000920E-02 0. -1.
    10030    2    1    2    0    0  0.00000000000E+00  0.00000000000E+00  0.14380368798E+04  0.41624990738E+04  0.39062064041E+04 0.  0.
        3    1    3    3  502    0 -0.32789829922E+03  0.12611493109E+04 -0.83128986579E+03  0.15456577015E+04  0.10100000352E+00 0. -1.
       -3    1    3    3    0  502  0.32789829922E+03 -0.12611493109E+04  0.22693267456E+04  0.26168413723E+04  0.10100000352E+00 0.  1.
</event>
<event>
 5   0  0.3669347E-08  0.3922996E+04  0.7818609E-02  0.8020263E-01
       -2   -1    0    0    0  501  0.00000000000E+00  0.00000000000E+00  0.17155869783E+04  0.17155869783E+04  0.25500000920E-02 0. -1.
        2   -1    0    0  501    0  0.00000000000E+00  0.00000000000E+00 -0.22426582860E+04  0.22426582860E+04  0.25500000920E-02 0.  1.
    10030    2    1    2    0    0  0.00000000000E+00  0.00000000000E+00 -0.52707130773E+03  0.39582452643E+04  0.39229964834E+04 0.  0.
        5    1    3    3  502    0 -0.17782091697E+04  0.79896493096E+03 -0.48246555736E+03  0.20082748607E+04  0.46999998093E+01 0.  1.
       -5    1    3    3    0  502  0.17782091697E+04 -0.79896493096E+03 -0.44605750370E+02  0.19499704036E+04  0.46999998093E+01 0. -1.
</event>
<event>
 5   0  0.1164500E-08  0.3895046E+04  0.7818609E-02  0.8026060E-01
       -1   -1    0    0    0  501  0.00000000000E+00  0.00000000000E+00  0.14335147027E+04  0.14335147027E+04  0.50400001928E-02 0. -1.
        1   -1    0    0  501    0  0.00000000000E+00  0.00000000000E+00 -0.26458361690E+04  0.26458361690E+04  0.50400001928E-02 0.  1.
    10030    2    1    2    0    0  0.00000000000E+00  0.00000000000E+00 -0.12123214663E+04  0.40793508717E+04  0.38950455962E+04 0.  0.
        5    1    3    3  502    0  0.13750752538E+04 -0.45859547854E+03 -0.19683510095E+04  0.24444978120E+04  0.46999998093E+01 0.  1.
       -5    1    3    3    0  502 -0.13750752538E+04  0.45859547854E+03  0.75602954320E+03  0.16348530597E+04  0.46999998093E+01 0. -1.
</event>
<event>
 5   0  0.1164500E-08  0.3901003E+04  0.7818609E-02  0.8024821E-01
       -1   -1    0    0    0  501  0.00000000000E+00  0.00000000000E+00  0.15804741882E+04  0.15804741882E+04  0.50400001928E-02 0.  1.
        1   -1    0    0  501    0  0.00000000000E+00  0.00000000000E+00 -0.24071607236E+04  0.24071607236E+04  0.50400001928E-02 0. -1.
    10030    2    1    2    0    0  0.00000000000E+00  0.00000000000E+00 -0.82668653539E+03  0.39876349119E+04  0.39010026356E+04 0.  0.
        2    1    3    3  502    0  0.11519779112E+04  0.15087340744E+04 -0.87177096859E+03  0.20888552455E+04  0.25500000920E-02 0.  1.
       -2    1    3    3    0  502 -0.11519779112E+04 -0.15087340744E+04  0.45084433199E+02  0.18987796663E+04  0.25500000920E-02 0. -1.
</event>
<event>
 5   0  0.3724293E-08  0.3899268E+04  0.7818609E-02  0.8025181E-01
       -2   -1    0    0    0  501  0.00000000000E+00  0.00000000000E+00  0.17530082781E+04  0.17530082781E+04  0.25500000920E-02 0. -1.
        2   -1    0    0  501    0  0.00000000000E+00  0.00000000000E+00 -0.21683141914E+04  0.21683141914E+04  0.25500000920E-02 0.  1.
    10030    2    1    2    0    0  0.00000000000E+00  0.00000000000E+00 -0.41530591325E+03  0.39213224695E+04  0.38992679964E+04 0.  0.
        4    1    3    3  502    0 -0.64873210587E+03  0.97477913989E+03 -0.17753231472E+04  0.21266926451E+04  0.12699999809E+01 0.  1.
       -4    1    3    3    0  502  0.64873210587E+03 -0.97477913989E+03  0.13600172340E+04  0.17946298243E+04  0.12699999809E+01 0. -1.
</event>
<event>
 5   0  0.3669347E-08  0.3866929E+04  0.7818609E-02  0.8031943E-01
        2   -1    0    0  501    0  0.00000000000E+00  0.00000000000E+00  0.18444965423E+04  0.18444965423E+04  0.25500000920E-02 0.  1.
       -2   -1    0    0    0  501  0.00000000000E+00  0.00000000000E+00 -0.20267240192E+04  0.20267240192E+04  0.25500000920E-02 0. -1.
    10030    2    1    2    0    0  0.00000000000E+00  0.00000000000E+00 -0.18222747690E+03  0.38712205615E+04  0.38669292446E+04 0.  0.
        5    1    3    3  502    0  0.62394857190E+03  0.17552986874E+04 -0.60925748064E+03  0.19600005281E+04  0.46999998093E+01 0.  1.
       -5    1    3    3    0  502 -0.62394857190E+03 -0.17552986874E+04  0.42703000374E+03  0.19112200335E+04  0.46999998093E+01 0. -1.
</event>
<event>
 5   0  0.1164500E-08  0.3906749E+04  0.7818609E-02  0.8023627E-01
        1   -1    0    0  501    0  0.00000000000E+00  0.00000000000E+00  0.21901413940E+04  0.21901413940E+04  0.50400001928E-02 0.  1.
       -1   -1    0    0    0  501  0.00000000000E+00  0.00000000000E+00 -0.17422030316E+04  0.17422030316E+04  0.50400001928E-02 0. -1.
    10030    2    1    2    0    0  0.00000000000E+00  0.00000000000E+00  0.44793836246E+03  0.39323444256E+04  0.39067485081E+04 0.  0.
        1    1    3    3  502    0 -0.12912765093E+04  0.14656954333E+04  0.22757730744E+03  0.19665832191E+04  0.50400001928E-02 0. -1.
       -1    1    3    3    0  502  0.12912765093E+04 -0.14656954333E+04  0.22036105502E+03  0.19657612066E+04  0.50400001928E-02 0.  1.
</event>
<event>
 5   0  0.3872969E-08  0.3902598E+04  0.7818609E-02  0.8024489E-01
        2   -1    0    0  501    0  0.00000000000E+00  0.00000000000E+00  0.19634657031E+04  0.19634657031E+04  0.25500000920E-02 0.  1.
       -2   -1    0    0    0  501  0.00000000000E+00  0.00000000000E+00 -0.19392077324E+04  0.19392077324E+04  0.25500000920E-02 0. -1.
    10030    2    1    2    0    0  0.00000000000E+00  0.00000000000E+00  0.24257970688E+02  0.39026734354E+04  0.39025980442E+04 0.  0.
        2    1    3    3  502    0  0.13518412799E+04  0.13677796242E+04  0.34269841669E+03  0.19533914486E+04  0.25500000920E-02 0.  1.
       -2    1    3    3    0  502 -0.13518412799E+04 -0.13677796242E+04 -0.31844044600E+03  0.19492819868E+04  0.25500000920E-02 0. -1.
</event>
<event>
 5   0  0.1164500E-08  0.3897667E+04  0.7818609E-02  0.8025515E-01
        1   -1    0    0  501    0  0.00000000000E+00  0.00000000000E+00  0.27581103226E+04  0.27581103226E+04  0.50400001928E-02 0.  1.
       -1   -1    0    0    0  501  0.00000000000E+00  0.00000000000E+00 -0.13770125228E+04  0.13770125228E+04  0.50400001928E-02 0. -1.
    10030    2    1    2    0    0  0.00000000000E+00  0.00000000000E+00  0.13810977999E+04  0.41351228454E+04  0.38976672272E+04 0.  0.
        2    1    3    3  502    0  0.31797169450E+03 -0.65439437282E+03  0.26086235580E+04  0.27081829446E+04  0.25500000920E-02 0.  1.
       -2    1    3    3    0  502 -0.31797169450E+03  0.65439437282E+03 -0.12275257582E+04  0.14269399009E+04  0.25500000920E-02 0. -1.
</event>
<event>
 5   0  0.3769985E-08  0.3891758E+04  0.7818609E-02  0.8026745E-01
       -2   -1    0    0    0  501  0.00000000000E+00  0.00000000000E+00  0.19139649396E+04  0.19139649396E+04  0.25500000920E-02 0. -1.
        2   -1    0    0  501    0  0.00000000000E+00  0.00000000000E+00 -0.19783256394E+04  0.19783256394E+04  0.25500000920E-02 0.  1.
    10030    2    1    2    0    0  0.00000000000E+00  0.00000000000E+00 -0.64360699802E+02  0.38922905791E+04  0.38917584268E+04 0.  0.
        1    1    3    3  502    0  0.64475883972E+03  0.15770919662E+04 -0.97226253686E+03  0.19616899531E+04  0.50400001928E-02 0.  1.
       -1    1    3    3    0  502 -0.64475883972E+03 -0.15770919662E+04  0.90790183706E+03  0.19306006260E+04  0.50400001928E-02 0. -1.
</event>
<event>
 5   0  0.1164500E-08  0.3889445E+04  0.7818609E-02  0.8027228E-01
       -1   -1    0    0    0  501  0.00000000000E+00  0.00000000000E+00  0.17460475842E+04  0.17460475842E+04  0.50400001928E-02 0.  1.
        1   -1    0    0  501    0  0.00000000000E+00  0.00000000000E+00 -0.21660042884E+04  0.21660042884E+04  0.50400001928E-02 0. -1.
    10030    2    1    2    0    0  0.00000000000E+00  0.00000000000E+00 -0.41995670424E+03  0.39120518726E+04  0.38894454901E+04 0.  0.
        3    1    3    3  502    0 -0.42204745240E+03 -0.18982538565E+04 -0.23142808873E+03  0.19583285542E+04  0.10100000352E+00 0. -1.
       -3    1    3    3    0  502  0.42204745240E+03  0.18982538565E+04 -0.18852861551E+03  0.19537233184E+04  0.10100000352E+00 0.  1.
</event>
<event>
 5   0  0.1164500E-08  0.3900749E+04  0.7818609E-02  0.8024874E-01
       -1   -1    0    0    0  501  0.00000000000E+00  0.00000000000E+00  0.26108067444E+04  0.26108067445E+04  0.50400001928E-02 0. -1.
        1   -1    0    0  501    0  0.00000000000E+00  0.00000000000E+00 -0.14570054834E+04  0.14570054834E+04  0.50400001928E-02 0.  1.
    10030    2    1    2    0    0  0.00000000000E+00  0.00000000000E+00  0.11538012610E+04  0.40678122279E+04  0.39007485142E+04 0.  0.
        3    1    3    3  502    0  0.68440928916E+03  0.17545878547E+03 -0.13188568075E+04  0.14961902116E+04  0.10100000352E+00 0.  1.
       -3    1    3    3    0  502 -0.68440928916E+03 -0.17545878547E+03  0.24726580685E+04  0.25716220163E+04  0.10100000352E+00 0. -1.
</event>
<event>
 5   0  0.3724293E-08  0.3899909E+04  0.7818609E-02  0.8025048E-01
       -2   -1    0    0    0  501  0.00000000000E+00  0.00000000000E+00  0.19859302954E+04  0.19859302954E+04  0.25500000920E-02 0. -1.
        2   -1    0    0  501    0  0.00000000000E+00  0.00000000000E+00 -0.19146306372E+04  0.19146306372E+04  0.25500000920E-02 0.  1.
    10030    2    1    2    0    0  0.00000000000E+00  0.00000000000E+00  0.71299658234E+02  0.39005609326E+04  0.38999092230E+04 0.  0.
        4    1    3    3  502    0 -0.90559738327E+03  0.17224769242E+04  0.15931513947E+03  0.19525409859E+04  0.12699999809E+01 0. -1.
       -4    1    3    3    0  502  0.90559738327E+03 -0.17224769242E+04 -0.88015481241E+02  0.19480199467E+04  0.12699999809E+01 0.  1.
</event>
<event>
 5   0  0.3769985E-08  0.3901856E+04  0.7818609E-02  0.8024643E-01
       -2   -1    0    0    0  501  0.00000000000E+00  0.00000000000E+00  0.23578952782E+04  0.23578952782E+04  0.25500000920E-02 0.  1.
        2   -1    0    0  501    0  0.00000000000E+00  0.00000000000E+00 -0.16142022182E+04  0.16142022182E+04  0.25500000920E-02 0. -1.
    10030    2    1    2    0    0  0.00000000000E+00  0.00000000000E+00  0.74369305999E+03  0.39720974964E+04  0.39018558602E+04 0.  0.
        1    1    3    3  502    0  0.56812454472E+03  0.16456103314E+04 -0.52452784187E+03  0.18182211961E+04  0.50400001928E-02 0.  1.
       -1    1    3    3    0  502 -0.56812454472E+03 -0.16456103314E+04  0.12682209019E+04  0.21538763003E+04  0.50400001928E-02 0. -1.
</event>
<event>
 5   0  0.1164500E-08  0.3901945E+04  0.7818609E-02  0.8024625E-01
       -1   -1    0    0    0  501  0.00000000000E+00  0.00000000000E+00  0.17554882010E+04  0.17554882010E+04  0.50400001928E-02 0.  1.
        1   -1    0    0  501    0  0.00000000000E+00  0.00000000000E+00 -0.21682249445E+04  0.21682249445E+04  0.50400001928E-02 0. -1.
    10030    2    1    2    0    0  0.00000000000E+00  0.00000000000E+00 -0.41273674346E+03  0.39237131455E+04  0.39019448008E+04 0.  0.
        2    1    3    3  502    0  0.14896446669E+04 -0.92909920805E+03  0.64927625959E+03  0.18718510179E+04  0.25500000920E-02 0.  1.
       -2    1    3    3    0  502 -0.14896446669E+04  0.92909920805E+03 -0.10620130030E+04  0.20518621276E+04  0.25500000920E-02 0. -1.
</event>
<event>
 5   0  0.1164500E-08  0.3903037E+04  0.7818609E-02  0.8024398E-01
       -1   -1    0    0    0  501  0.00000000000E+00  0.00000000000E+00  0.15840363937E+04  0.15840363937E+04  0.50400001928E-02 0. -1.
        1   -1    0    0  501    0  0.00000000000E+00  0.00000000000E+00 -0.24042532893E+04  0.24042532893E+04  0.50400001928E-02 0.  1.
    10030    2    1    2    0    0  0.00000000000E+00  0.00000000000E+00 -0.82021689556E+03  0.39882896830E+04  0.39030371302E+04 0.  0.
        1    1    3    3  502    0  0.18170511532E+02 -0.58520393422E+03  0.14921747227E+04  0.16029283250E+04  0.50400001928E-02 0. -1.
       -1    1    3    3    0  502 -0.18170511532E+02  0.58520393422E+03 -0.23123916182E+04  0.23853613580E+04  0.50400001928E-02 0.  1.
</event>
<event>
 5   0  0.1164500E-08  0.3900322E+04  0.7818609E-02  0.8024962E-01
        1   -1    0    0  501    0  0.00000000000E+00  0.00000000000E+00  0.19787115583E+04  0.19787115583E+04  0.50400001928E-02 0. -1.
       -1   -1    0    0    0  501  0.00000000000E+00  0.00000000000E+00 -0.19220228046E+04  0.19220228046E+04  0.50400001928E-02 0.  1.
    10030    2    1    2    0    0  0.00000000000E+00  0.00000000000E+00  0.56688753680E+02  0.39007343630E+04  0.39003224169E+04 0.  0.
        5    1    3    3  502    0 -0.59629437218E+02 -0.11383281654E+04  0.16108388892E+04  0.19733653232E+04  0.46999998093E+01 0. -1.
       -5    1    3    3    0  502  0.59629437218E+02  0.11383281654E+04 -0.15541501355E+04  0.19273690398E+04  0.46999998093E+01 0.  1.
</event>
<event>
 5   0  0.3872969E-08  0.3906067E+04  0.7818609E-02  0.8023769E-01
        2   -1    0    0  501    0  0.00000000000E+00  0.00000000000E+00  0.29737990370E+04  0.29737990370E+04  0.25500000920E-02 0. -1.
       -2   -1    0    0    0  501  0.00000000000E+00  0.00000000000E+00 -0.12826489046E+04  0.12826489046E+04  0.25500000920E-02 0.  1.
    10030    2    1    2    0    0  0.00000000000E+00  0.00000000000E+00  0.16911501324E+04  0.42564479417E+04  0.39060671154E+04 0.  0.
        2    1    3    3  502    0 -0.13566456727E+03 -0.14499105568E+03  0.29627711728E+04  0.29694175024E+04  0.25500000920E-02 0. -1.
       -2    1    3    3    0  502  0.13566456727E+03  0.14499105568E+03 -0.12716210405E+04  0.12870304393E+04  0.25500000920E-02 0.  1.
</event>
<event>
 5   0  0.1164500E-08  0.3924641E+04  0.7818609E-02  0.8019924E-01
        1   -1    0    0  501    0  0.00000000000E+00  0.00000000000E+00  0.12063248323E+04  0.12063248323E+04  0.50400001928E-02 0.  1.
       -1   -1    0    0    0  501  0.00000000000E+00  0.00000000000E+00 -0.31920936604E+04  0.31920936604E+04  0.50400001928E-02 0. -1.
    10030    2    1    2    0    0  0.00000000000E+00  0.00000000000E+00 -0.19857688281E+04  0.43984184927E+04  0.39246410535E+04 0.  0.
        4    1    3    3  502    0  0.16472345106E+02 -0.14455811368E+03  0.12002712055E+04  0.12090578836E+04  0.12699999809E+01 0.  1.
       -4    1    3    3    0  502 -0.16472345106E+02  0.14455811368E+03 -0.31860400336E+04  0.31893606091E+04  0.12699999809E+01 0. -1.
</event>
<event>
 5   0  0.3669347E-08  0.3895172E+04  0.7818609E-02  0.8026034E-01
       -2   -1    0    0    0  501  0.00000000000E+00  0.00000000000E+00  0.16031126150E+04  0.16031126150E+04  0.25500000920E-02 0.  1.
        2   -1    0    0  501    0  0.00000000000E+00  0.00000000000E+00 -0.23660786762E+04  0.23660786762E+04  0.25500000920E-02 0. -1.
    10030    2    1    2    0    0  0.00000000000E+00  0.00000000000E+00 -0.76296606116E+03  0.39691912912E+04  0.38951716644E+04 0.  0.
        5    1    3    3  502    0 -0.11579483741E+04 -0.55757899126E+03 -0.18726188385E+04  0.22712248178E+04  0.46999998093E+01 0. -1.
       -5    1    3    3    0  502  0.11579483741E+04  0.55757899126E+03  0.11096527773E+04  0.16979664734E+04  0.46999998093E+01 0.  1.
</event>
<event>
 5   0  0.1164500E-08  0.3950793E+04  0.7818609E-02  0.8014547E-01
        1   -1    0    0  501    0  0.00000000000E+00  0.00000000000E+00  0.17937212406E+04  0.17937212406E+04  0.50400001928E-02 0. -1.
       -1   -1    0    0    0  501  0.00000000000E+00  0.00000000000E+00 -0.21754727761E+04  0.21754727761E+04  0.50400001928E-02 0.  1.
    10030    2    1    2    0    0  0.00000000000E+00  0.00000000000E+00 -0.38175153553E+03  0.39691940167E+04  0.39507931997E+04 0.  0.
        5    1    3    3  502    0  0.14936053207E+04  0.85270295984E+02  0.11051097273E+04  0.18599509339E+04  0.46999998093E+01 0. -1.
       -5    1    3    3    0  502 -0.14936053207E+04 -0.85270295984E+02 -0.14868612628E+04  0.21092430827E+04  0.46999998093E+01 0.  1.
</event>
<event>
 5   0  0.1164500E-08  0.3901533E+04  0.7818609E-02  0.8024710E-01
        1   -1    0    0  501    0  0.00000000000E+00  0.00000000000E+00  0.14609189734E+04  0.14609189734E+04  0.50400001928E-02 0. -1.
       -1   -1    0    0    0  501  0.00000000000E+00  0.00000000000E+00 -0.26048601316E+04  0.26048601316E+04  0.50400001928E-02 0.  1.
    10030    2    1    2    0    0  0.00000000000E+00  0.00000000000E+00 -0.11439411581E+04  0.40657791050E+04  0.39015328215E+04 0.  0.
        1    1    3    3  502    0  0.70880611066E+03  0.17474447917E+04 -0.10925192696E+04  0.21793503061E+04  0.50400001928E-02 0.  1.
       -1    1    3    3    0  502 -0.70880611066E+03 -0.17474447917E+04 -0.51421888585E+02  0.18864287988E+04  0.50400001928E-02 0. -1.
</event>
<event>
 5   0  0.3872969E-08  0.3895588E+04  0.7818609E-02  0.8025947E-01
        2   -1    0    0  501    0  0.00000000000E+00  0.00000000000E+00  0.28294323515E+04  0.28294323515E+04  0.25500000920E-02 0.  1.
       -2   -1    0    0    0  501  0.00000000000E+00  0.00000000000E+00 -0.13408702374E+04  0.13408702374E+04  0.25500000920E-02 0. -1.
    10030    2    1    2    0    0  0.00000000000E+00  0.00000000000E+00  0.14885621141E+04  0.41703025889E+04  0.38955880834E+04 0.  0.
        2    1    3    3  502    0  0.16901130192E+04 -0.21648667335E+03  0.17545208159E+04  0.24457497400E+04  0.25500000920E-02 0.  1.
       -2    1    3    3    0  502 -0.16901130192E+04  0.21648667335E+03 -0.26595870178E+03  0.17245528489E+04  0.25500000920E-02 0. -1.
</event>
<event>
 5   0  0.1164500E-08  0.3906596E+04  0.7818609E-02  0.8023659E-01
        1   -1    0    0  501    0  0.00000000000E+00  0.00000000000E+00  0.20614954191E+04  0.20614954191E+04  0.50400001928E-02 0. -1.
       -1   -1    0    0    0  501  0.00000000000E+00  0.00000000000E+00 -0.18507791751E+04  0.18507791751E+04  0.50400001928E-02 0.  1.
    10030    2    1    2    0    0  0.00000000000E+00  0.00000000000E+00  0.21071624407E+03  0.39122745942E+04  0.39065958538E+04 0.  0.
        5    1    3    3  502    0 -0.92973609538E+03 -0.10983588038E+04 -0.12173757791E+04  0.18848944656E+04  0.46999998093E+01 0.  1.
       -5    1    3    3    0  502  0.92973609538E+03  0.10983588038E+04  0.14280920232E+04  0.20273801286E+04  0.46999998093E+01 0. -1.
</event>
<event>
 5   0  0.3769985E-08  0.3898106E+04  0.7818609E-02  0.8025423E-01
        2   -1    0    0  501    0  0.00000000000E+00  0.00000000000E+00  0.20149046245E+04  0.20149046245E+04  0.25500000920E-02 0.  1.
       -2   -1    0    0    0  501  0.00000000000E+00  0.00000000000E+00 -0.18853537012E+04  0.18853537012E+04  0.25500000920E-02 0. -1.
    10030    2    1    2    0    0  0.00000000000E+00  0.00000000000E+00  0.12955092330E+03  0.39002583256E+04  0.38981061511E+04 0.  0.
        1    1    3    3  502    0 -0.17232669047E+03  0.20514340361E+03 -0.18668415202E+04  0.18859686015E+04  0.50400001928E-02 0. -1.
       -1    1    3    3    0  502  0.17232669047E+03 -0.20514340361E+03  0.19963924435E+04  0.20142897241E+04  0.50400001928E-02 0.  1.
</event>
<event>
 5   0  0.1164500E-08  0.3885860E+04  0.7818609E-02  0.8027977E-01
       -1   -1    0    0    0  501  0.00000000000E+00  0.00000000000E+00  0.16611541449E+04  0.16611541449E+04  0.50400001928E-02 0. -1.
        1   -1    0    0  501    0  0.00000000000E+00  0.00000000000E+00 -0.22725022665E+04  0.22725022665E+04  0.50400001928E-02 0.  1.
    10030    2    1    2    0    0  0.00000000000E+00  0.00000000000E+00 -0.61134812167E+03  0.39336564114E+04  0.38858597809E+04 0.  0.
        1    1    3    3  502    0 -0.51057240871E+03  0.17240617185E+04 -0.10508696960E+04  0.20826425789E+04  0.50400001928E-02 0.  1.
       -1    1    3    3    0  502  0.51057240871E+03 -0.17240617185E+04  0.43952157431E+03  0.18510138325E+04  0.50400001928E-02 0. -1.
</event>
<event>
 5   0  0.1164500E-08  0.3891702E+04  0.7818609E-02  0.8026757E-01
       -1   -1    0    0    0  501  0.00000000000E+00  0.00000000000E+00  0.20129560570E+04  0.20129560570E+04  0.50400001928E-02 0.  1.
        1   -1    0    0  501    0  0.00000000000E+00  0.00000000000E+00 -0.18809830596E+04  0.18809830597E+04  0.50400001928E-02 0. -1.
    10030    2    1    2    0    0  0.00000000000E+00  0.00000000000E+00  0.13197299739E+03  0.38939391167E+04  0.38917020663E+04 0.  0.
        2    1    3    3  502    0 -0.10535373636E+04  0.59824773560E+03  0.15895222353E+04  0.19986050801E+04  0.25500000920E-02 0.  1.
       -2    1    3    3    0  502  0.10535373636E+04 -0.59824773560E+03 -0.14575492379E+04  0.18953340366E+04  0.25500000920E-02 0. -1.
</event>
<event>
 5   0  0.3724293E-08  0.3894740E+04  0.7818609E-02  0.8026124E-01
       -2   -1    0    0    0  501  0.00000000000E+00  0.00000000000E+00  0.16382469164E+04  0.16382469164E+04  0.25500000920E-02 0.  1.
        2   -1    0    0  501    0  0.00000000000E+00  0.00000000000E+00 -0.23148213741E+04  0.23148213741E+04  0.25500000920E-02 0. -1.
    10030    2    1    2    0    0  0.00000000000E+00  0.00000000000E+00 -0.67657445775E+03  0.39530682905E+04  0.38947395179E+04 0.  0.
        4    1    3    3  502    0 -0.10183716122E+04 -0.65567261418E+02 -0.20217004771E+04  0.22646532269E+04  0.12699999809E+01 0. -1.
       -4    1    3    3    0  502  0.10183716122E+04  0.65567261418E+02  0.13451260193E+04  0.16884150636E+04  0.12699999809E+01 0.  1.
</event>
<event>
 5   0  0.3872969E-08  0.3914073E+04  0.7818609E-02  0.8022109E-01
       -2   -1    0    0    0  501  0.00000000000E+00  0.00000000000E+00  0.12988898974E+04  0.12988898974E+04  0.25500000920E-02 0. -1.
        2   -1    0    0  501    0  0.00000000000E+00  0.00000000000E+00 -0.29486658759E+04  0.29486658759E+04  0.25500000920E-02 0.  1.
    10030    2    1    2    0    0  0.00000000000E+00  0.00000000000E+00 -0.16497759785E+04  0.42475557732E+04  0.39140732323E+04 0.  0.
        2    1    3    3  502    0 -0.10148441453E+03 -0.10925918220E+04  0.93365196457E+03  0.14407504873E+04  0.25500000920E-02 0. -1.
       -2    1    3    3    0  502  0.10148441453E+03  0.10925918220E+04 -0.25834279431E+04  0.28068052859E+04  0.25500000920E-02 0.  1.
</event>
<event>
 5   0  0.3724293E-08  0.3877830E+04  0.7818609E-02  0.8029656E-01
       -2   -1    0    0    0  501  0.00000000000E+00  0.00000000000E+00  0.13541059695E+04  0.13541059695E+04  0.25500000920E-02 0. -1.
        2   -1    0    0  501    0  0.00000000000E+00  0.00000000000E+00 -0.27762908375E+04  0.27762908375E+04  0.25500000920E-02 0.  1.
    10030    2    1    2    0    0  0.00000000000E+00  0.00000000000E+00 -0.14221848680E+04  0.41303968070E+04  0.38778303192E+04 0.  0.
        4    1    3    3  502    0 -0.10306732992E+04 -0.91483898275E+03 -0.21638046625E+04  0.25653986132E+04  0.12699999809E+01 0.  1.
       -4    1    3    3    0  502  0.10306732992E+04  0.91483898275E+03  0.74161979454E+03  0.15649981938E+04  0.12699999809E+01 0. -1.
</event>
<event>
 5   0  0.1164500E-08  0.3899196E+04  0.7818609E-02  0.8025197E-01
        1   -1    0    0  501    0  0.00000000000E+00  0.00000000000E+00  0.15785596186E+04  0.15785596186E+04  0.50400001928E-02 0.  1.
       -1   -1    0    0    0  501  0.00000000000E+00  0.00000000000E+00 -0.24078478738E+04  0.24078478738E+04  0.50400001928E-02 0. -1.
    10030    2    1    2    0    0  0.00000000000E+00  0.00000000000E+00 -0.82928825520E+03  0.39864074924E+04  0.38991955177E+04 0.  0.
        2    1    3    3  502    0  0.16921399655E+03 -0.41066621611E+03  0.15261436942E+04  0.15894636495E+04  0.25500000920E-02 0.  1.
       -2    1    3    3    0  502 -0.16921399655E+03  0.41066621611E+03 -0.23554319494E+04  0.23969438429E+04  0.25500000920E-02 0. -1.
</event>
<event>
 5   0  0.3769985E-08  0.3889498E+04  0.7818609E-02  0.8027217E-01
        2   -1    0    0  501    0  0.00000000000E+00  0.00000000000E+00  0.20285141415E+04  0.20285141415E+04  0.25500000920E-02 0. -1.
       -2   -1    0    0    0  501  0.00000000000E+00  0.00000000000E+00 -0.18644431301E+04  0.18644431301E+04  0.25500000920E-02 0.  1.
    10030    2    1    2    0    0  0.00000000000E+00  0.00000000000E+00  0.16407101145E+03  0.38929572717E+04  0.38894982995E+04 0.  0.
        1    1    3    3  502    0 -0.16478629271E+04 -0.21515965811E+03  0.10930344625E+04  0.19890877912E+04  0.50400001928E-02 0. -1.
       -1    1    3    3    0  502  0.16478629271E+04  0.21515965811E+03 -0.92896345109E+03  0.19038694804E+04  0.50400001928E-02 0.  1.
</event>
<event>
 5   0  0.1164500E-08  0.3899246E+04  0.7818609E-02  0.8025186E-01
       -1   -1    0    0    0  501  0.00000000000E+00  0.00000000000E+00  0.15420801184E+04  0.15420801184E+04  0.50400001928E-02 0. -1.
        1   -1    0    0  501    0  0.00000000000E+00  0.00000000000E+00 -0.24648721197E+04  0.24648721197E+04  0.50400001928E-02 0.  1.
    10030    2    1    2    0    0  0.00000000000E+00  0.00000000000E+00 -0.92279200135E+03  0.40069522381E+04  0.38992462298E+04 0.  0.
        4    1    3    3  502    0 -0.15816827828E+04 -0.16963940169E+03 -0.16197094283E+04  0.22702330711E+04  0.12699999809E+01 0.  1.
       -4    1    3    3    0  502  0.15816827828E+04  0.16963940169E+03  0.69691742697E+03  0.17367191670E+04  0.12699999809E+01 0. -1.
</event>
<event>
 5   0  0.1164500E-08  0.3904505E+04  0.7818609E-02  0.8024093E-01
        1   -1    0    0  501    0  0.00000000000E+00  0.00000000000E+00  0.21466536539E+04  0.21466536539E+04  0.50400001928E-02 0. -1.
       -1   -1    0    0    0  501  0.00000000000E+00  0.00000000000E+00 -0.17754566701E+04  0.17754566701E+04  0.50400001928E-02 0.  1.
    10030    2    1    2    0    0  0.00000000000E+00  0.00000000000E+00  0.37119698383E+03  0.39221103240E+04  0.39045053710E+04 0.  0.
        2    1    3    3  502    0 -0.90364751318E+03 -0.17154632891E+04 -0.43238737324E+02  0.19393975128E+04  0.25500000920E-02 0. -1.
       -2    1    3    3    0  502  0.90364751318E+03  0.17154632891E+04  0.41443572116E+03  0.19827128111E+04  0.25500000920E-02 0.  1.
</event>
<event>
 5   0  0.1164500E-08  0.3893029E+04  0.7818609E-02  0.8026481E-01
       -1   -1    0    0    0  501  0.00000000000E+00  0.00000000000E+00  0.19413520092E+04  0.19413520092E+04  0.50400001928E-02 0.  1.
        1   -1    0    0  501    0  0.00000000000E+00  0.00000000000E+00 -0.19516905145E+04  0.19516905146E+04  0.50400001928E-02 0. -1.
    10030    2    1    2    0    0  0.00000000000E+00  0.00000000000E+00 -0.10338505323E+02  0.38930425238E+04  0.38930287961E+04 0.  0.
        1    1    3    3  502    0  0.14503225069E+04 -0.77463587756E+03 -0.10470088948E+04  0.19492880091E+04  0.50400001928E-02 0.  1.
       -1    1    3    3    0  502 -0.14503225069E+04  0.77463587756E+03  0.10366703895E+04  0.19437545146E+04  0.50400001928E-02 0. -1.
</event>
<event>
 5   0  0.3769985E-08  0.3927711E+04  0.7818609E-02  0.8019290E-01
       -2   -1    0    0    0  501  0.00000000000E+00  0.00000000000E+00  0.21857267052E+04  0.21857267052E+04  0.25500000920E-02 0. -1.
        2   -1    0    0  501    0  0.00000000000E+00  0.00000000000E+00 -0.17645059235E+04  0.17645059235E+04  0.25500000920E-02 0.  1.
    10030    2    1    2    0    0  0.00000000000E+00  0.00000000000E+00  0.42122078171E+03  0.39502326286E+04  0.39277106402E+04 0.  0.
        1    1    3    3  502    0  0.32061339804E+03 -0.90699136393E+03 -0.15113114191E+04  0.17915045327E+04  0.50400001928E-02 0.  1.
       -1    1    3    3    0  502 -0.32061339804E+03  0.90699136393E+03  0.19325322008E+04  0.21587280959E+04  0.50400001928E-02 0. -1.
</event>
<event>
 5   0  0.1164500E-08  0.3898918E+04  0.7818609E-02  0.8025254E-01
       -1   -1    0    0    0  501  0.00000000000E+00  0.00000000000E+00  0.18400715844E+04  0.18400715844E+04  0.50400001928E-02 0.  1.
        1   -1    0    0  501    0  0.00000000000E+00  0.00000000000E+00 -0.20653496691E+04  0.20653496691E+04  0.50400001928E-02 0. -1.
    10030    2    1    2    0    0  0.00000000000E+00  0.00000000000E+00 -0.22527808468E+03  0.39054212536E+04  0.38989184337E+04 0.  0.
        3    1    3    3  502    0 -0.25026014955E+02  0.68877374695E+03 -0.19392362355E+04  0.20580750140E+04  0.10100000352E+00 0. -1.
       -3    1    3    3    0  502  0.25026014955E+02 -0.68877374695E+03  0.17139581508E+04  0.18473462396E+04  0.10100000352E+00 0.  1.
</event>
<event>
 5   0  0.1164500E-08  0.3905551E+04  0.7818609E-02  0.8023876E-01
        1   -1    0    0  501    0  0.00000000000E+00  0.00000000000E+00  0.21252175915E+04  0.21252175915E+04  0.50400001928E-02 0.  1.
       -1   -1    0    0    0  501  0.00000000000E+00  0.00000000000E+00 -0.17943259214E+04  0.17943259214E+04  0.50400001928E-02 0. -1.
    10030    2    1    2    0    0  0.00000000000E+00  0.00000000000E+00  0.33089167011E+03  0.39195435129E+04  0.39055514402E+04 0.  0.
        5    1    3    3  502    0  0.60372660394E+03 -0.23395624434E+03 -0.16834599379E+04  0.18036853354E+04  0.46999998093E+01 0. -1.
       -5    1    3    3    0  502 -0.60372660394E+03  0.23395624434E+03  0.20143516080E+04  0.21158581775E+04  0.46999998093E+01 0.  1.
</event>
<event>
 5   0  0.1164500E-08  0.3893458E+04  0.7818609E-02  0.8026391E-01
       -1   -1    0    0    0  501  0.00000000000E+00  0.00000000000E+00  0.17400726251E+04  0.17400726251E+04  0.50400001928E-02 0.  1.
        1   -1    0    0  501    0  0.00000000000E+00  0.00000000000E+00 -0.21779280438E+04  0.21779280438E+04  0.50400001928E-02 0. -1.
    10030    2    1    2    0    0  0.00000000000E+00  0.00000000000E+00 -0.43785541875E+03  0.39180006689E+04  0.38934575731E+04 0.  0.
        3    1    3    3  502    0 -0.18840354761E+04 -0.43169404192E+03  0.14490360137E+02  0.19329147425E+04  0.10100000352E+00 0. -1.
       -3    1    3    3    0  502  0.18840354761E+04  0.43169404192E+03 -0.45234577889E+03  0.19850859264E+04  0.10100000352E+00 0.  1.
</event>
<event>
 5   0  0.3872969E-08  0.3898804E+04  0.7818609E-02  0.8025278E-01
       -2   -1    0    0    0  501  0.00000000000E+00  0.00000000000E+00  0.19998381512E+04  0.19998381512E+04  0.25500000920E-02 0. -1.
        2   -1    0    0  501    0  0.00000000000E+00  0.00000000000E+00 -0.19002374511E+04  0.19002374511E+04  0.25500000920E-02 0.  1.
    10030    2    1    2    0    0  0.00000000000E+00  0.00000000000E+00  0.99600700110E+02  0.39000756023E+04  0.38988035862E+04 0.  0.
        2    1    3    3  502    0  0.12614047358E+04 -0.11678777676E+04  0.96938639084E+03  0.19735223237E+04  0.25500000920E-02 0.  1.
       -2    1    3    3    0  502 -0.12614047358E+04  0.11678777676E+04 -0.86978569073E+03  0.19265532786E+04  0.25500000920E-02 0. -1.
</event>
<event>
 5   0  0.3724293E-08  0.3909119E+04  0.7818609E-02  0.8023135E-01
       -2   -1    0    0    0  501  0.00000000000E+00  0.00000000000E+00  0.27242037811E+04  0.27242037811E+04  0.25500000920E-02 0.  1.
        2   -1    0    0  501    0  0.00000000000E+00  0.00000000000E+00 -0.14023558811E+04  0.14023558811E+04  0.25500000920E-02 0. -1.
    10030    2    1    2    0    0  0.00000000000E+00  0.00000000000E+00  0.13218479000E+04  0.41265596622E+04  0.39091191815E+04 0.  0.
        4    1    3    3  502    0  0.84738554973E+03 -0.73915302557E+03  0.23485665377E+04  0.26038770824E+04  0.12699999809E+01 0.  1.
       -4    1    3    3    0  502 -0.84738554973E+03  0.73915302557E+03 -0.10267186377E+04  0.15226825799E+04  0.12699999809E+01 0. -1.
</event>
<event>
 5   0  0.3724293E-08  0.3898169E+04  0.7818609E-02  0.8025410E-01
       -2   -1    0    0    0  501  0.00000000000E+00  0.00000000000E+00  0.15550013972E+04  0.15550013972E+04  0.25500000920E-02 0.  1.
        2   -1    0    0  501    0  0.00000000000E+00  0.00000000000E+00 -0.24430399836E+04  0.24430399836E+04  0.25500000920E-02 0. -1.
    10030    2    1    2    0    0  0.00000000000E+00  0.00000000000E+00 -0.88803858638E+03  0.39980413808E+04  0.38981691025E+04 0.  0.
        4    1    3    3  502    0  0.74425294966E+03  0.17705152645E+04 -0.10340799512E+03  0.19233646512E+04  0.12699999809E+01 0.  1.
       -4    1    3    3    0  502 -0.74425294966E+03 -0.17705152645E+04 -0.78463059126E+03  0.20746767297E+04  0.12699999809E+01 0. -1.
</event>
<event>
 5   0  0.1164500E-08  0.3895643E+04  0.7818609E-02  0.8025936E-01
       -1   -1    0    0    0  501  0.00000000000E+00  0.00000000000E+00  0.14923208635E+04  0.14923208635E+04  0.50400001928E-02 0.  1.
        1   -1    0    0  501    0  0.00000000000E+00  0.00000000000E+00 -0.25423540382E+04  0.25423540382E+04  0.50400001928E-02 0. -1.
    10030    2    1    2    0    0  0.00000000000E+00  0.00000000000E+00 -0.10500331747E+04  0.40346749018E+04  0.38956426806E+04 0.  0.
        3    1    3    3  502    0  0.11107103079E+02  0.18277128650E+04 -0.12223594739E+04  0.21988224981E+04  0.10100000352E+00 0.  1.
       -3    1    3    3    0  502 -0.11107103079E+02 -0.18277128650E+04  0.17232629919E+03  0.18358524037E+04  0.10100000352E+00 0. -1.
</event>
<event>
 5   0  0.1164500E-08  0.3889722E+04  0.7818609E-02  0.8027170E-01
        1   -1    0    0  501    0  0.00000000000E+00  0.00000000000E+00  0.20962853646E+04  0.20962853646E+04  0.50400001928E-02 0.  1.
       -1   -1    0    0    0  501  0.00000000000E+00  0.00000000000E+00 -0.18043744593E+04  0.18043744593E+04  0.50400001928E-02 0. -1.
    10030    2    1    2    0    0  0.00000000000E+00  0.00000000000E+00  0.29191090533E+03  0.39006598239E+04  0.38897217233E+04 0.  0.
        4    1    3    3  502    0 -0.74313347497E+03  0.17410459629E+04  0.59329703002E+03  0.19838072954E+04  0.12699999809E+01 0.  1.
       -4    1    3    3    0  502  0.74313347497E+03 -0.17410459629E+04 -0.30138612469E+03  0.19168525284E+04  0.12699999809E+01 0. -1.
</event>
<event>
 5   0  0.3669347E-08  0.3908558E+04  0.7818609E-02  0.8023252E-01
        2   -1    0    0  501    0  0.00000000000E+00  0.00000000000E+00  0.30425909132E+04  0.30425909132E+04  0.25500000920E-02 0. -1.
       -2   -1    0    0    0  501  0.00000000000E+00  0.00000000000E+00 -0.12552478107E+04  0.12552478107E+04  0.25500000920E-02 0.  1.
    10030    2    1    2    0    0  0.00000000000E+00  0.00000000000E+00  0.17873431024E+04  0.42978387239E+04  0.39085575768E+04 0.  0.
        5    1    3    3  502    0  0.82932428034E+03  0.24148795848E+03 -0.10339471010E+04  0.13472801839E+04  0.46999998093E+01 0.  1.
       -5    1    3    3    0  502 -0.82932428034E+03 -0.24148795848E+03  0.28212902035E+04  0.29505585400E+04  0.46999998093E+01 0. -1.
</event>
<event>
 5   0  0.1164500E-08  0.3911525E+04  0.7818609E-02  0.8022637E-01
       -1   -1    0    0    0  501  0.00000000000E+00  0.00000000000E+00  0.19818059145E+04  0.19818059145E+04  0.50400001928E-02 0.  1.
        1   -1    0    0  501    0  0.00000000000E+00  0.00000000000E+00 -0.19300610645E+04  0.19300610645E+04  0.50400001928E-02 0. -1.
    10030    2    1    2    0    0  0.00000000000E+00  0.00000000000E+00  0.51744849912E+02  0.39118669790E+04  0.39115247324E+04 0.  0.
        5    1    3    3  502    0  0.28204121531E+03  0.16262111744E+04 -0.10234449564E+04  0.19420534750E+04  0.46999998093E+01 0. -1.
       -5    1    3    3    0  502 -0.28204121531E+03 -0.16262111744E+04  0.10751898063E+04  0.19698135040E+04  0.46999998093E+01 0.  1.
</event>
<event>
 5   0  0.1164500E-08  0.3900416E+04  0.7818609E-02  0.8024943E-01
       -1   -1    0    0    0  501  0.00000000000E+00  0.00000000000E+00  0.14567416609E+04  0.14567416609E+04  0.50400001928E-02 0. -1.
        1   -1    0    0  501    0  0.00000000000E+00  0.00000000000E+00 -0.26108345277E+04  0.26108345277E+04  0.50400001928E-02 0.  1.
    10030    2    1    2    0    0  0.00000000000E+00  0.00000000000E+00 -0.11540928668E+04  0.40675761887E+04  0.39004160939E+04 0.  0.
        2    1    3    3  502    0  0.12916555282E+03 -0.14469033759E+04 -0.19340026792E+04  0.24187971147E+04  0.25500000920E-02 0.  1.
       -2    1    3    3    0  502 -0.12916555282E+03  0.14469033759E+04  0.77990981237E+03  0.16487790739E+04  0.25500000920E-02 0. -1.
</event>
<event>
 5   0  0.3690572E-08  0.3894798E+04  0.7818609E-02  0.8026112E-01
        2   -1    0    0  501    0  0.00000000000E+00  0.00000000000E+00  0.13681678977E+04  0.13681678977E+04  0.25500000920E-02 0. -1.
       -2   -1    0    0    0  501  0.00000000000E+00  0.00000000000E+00 -0.27718548367E+04  0.27718548367E+04  0.25500000920E-02 0.  1.
    10030    2    1    2    0    0  0.00000000000E+00  0.00000000000E+00 -0.14036869390E+04  0.41400227344E+04  0.38947979689E+04 0.  0.
        3    1    3    3  502    0  0.30965615569E+03  0.66911949332E+03 -0.26177586087E+04  0.27196080554E+04  0.10100000352E+00 0.  1.
       -3    1    3    3    0  502 -0.30965615569E+03 -0.66911949332E+03  0.12140716697E+04  0.14204146790E+04  0.10100000352E+00 0. -1.
</event>
<event>
 5   0  0.1164500E-08  0.3903632E+04  0.7818609E-02  0.8024274E-01
       -1   -1    0    0    0  501  0.00000000000E+00  0.00000000000E+00  0.15640149793E+04  0.15640149793E+04  0.50400001928E-02 0.  1.
        1   -1    0    0  501    0  0.00000000000E+00  0.00000000000E+00 -0.24357735403E+04  0.24357735403E+04  0.50400001928E-02 0. -1.
    10030    2    1    2    0    0  0.00000000000E+00  0.00000000000E+00 -0.87175856099E+03  0.39997885197E+04  0.39036323102E+04 0.  0.
        5    1    3    3  502    0 -0.10616167026E+04  0.39384779690E+03 -0.20648252202E+04  0.23549249224E+04  0.46999998093E+01 0. -1.
       -5    1    3    3    0  502  0.10616167026E+04 -0.39384779690E+03  0.11930666592E+04  0.16448635973E+04  0.46999998093E+01 0.  1.
</event>
<event>
 5   0  0.1164500E-08  0.3898330E+04  0.7818609E-02  0.8025377E-01
       -1   -1    0    0    0  501  0.00000000000E+00  0.00000000000E+00  0.15979615717E+04  0.15979615717E+04  0.50400001928E-02 0.  1.
        1   -1    0    0  501    0  0.00000000000E+00  0.00000000000E+00 -0.23775566268E+04  0.23775566269E+04  0.50400001928E-02 0. -1.
    10030    2    1    2    0    0  0.00000000000E+00  0.00000000000E+00 -0.77959505512E+03  0.39755181986E+04  0.38983299626E+04 0.  0.
        5    1    3    3  502    0 -0.45161552103E+03  0.29421425409E+03  0.15204448726E+04  0.16131625172E+04  0.46999998093E+01 0.  1.
       -5    1    3    3    0  502  0.45161552103E+03 -0.29421425409E+03 -0.23000399278E+04  0.23623556814E+04  0.46999998093E+01 0. -1.
</event>
<event>
 5   0  0.1164500E-08  0.3898653E+04  0.7818609E-02  0.8025309E-01
       -1   -1    0    0    0  501  0.00000000000E+00  0.00000000000E+00  0.14442981294E+04  0.14442981294E+04  0.50400001928E-02 0.  1.
        1   -1    0    0  501    0  0.00000000000E+00  0.00000000000E+00 -0.26309481694E+04  0.26309481694E+04  0.50400001928E-02 0. -1.
    10030    2    1    2    0    0  0.00000000000E+00  0.00000000000E+00 -0.11866500400E+04  0.40752462988E+04  0.38986528543E+04 0.  0.
        3    1    3    3  502    0 -0.16265798128E+04 -0.94371681346E+03 -0.11299093790E+04  0.21938683931E+04  0.10100000352E+00 0.  1.
       -3    1    3    3    0  502  0.16265798128E+04  0.94371681346E+03 -0.56740660974E+02  0.18813779057E+04  0.10100000352E+00 0. -1.
</event>
<event>
 5   0  0.1164500E-08  0.3902146E+04  0.7818609E-02  0.8024583E-01
        1   -1    0    0  501    0  0.00000000000E+00  0.00000000000E+00  0.14472979356E+04  0.14472979356E+04  0.50400001928E-02 0.  1.
       -1   -1    0    0    0  501  0.00000000000E+00  0.00000000000E+00 -0.26302016054E+04  0.26302016054E+04  0.50400001928E-02 0. -1.
    10030    2    1    2    0    0  0.00000000000E+00  0.00000000000E+00 -0.11829036697E+04  0.40774995410E+04  0.39021457450E+04 0.  0.
        2    1    3    3  502    0 -0.16318547559E+04  0.94549803387E+02 -0.17045905396E+04  0.23616770561E+04  0.25500000920E-02 0. -1.
       -2    1    3    3    0  502  0.16318547559E+04 -0.94549803387E+02  0.52168686987E+03  0.17158224849E+04  0.25500000920E-02 0.  1.
</event>
<event>
 5   0  0.1164500E-08  0.3915681E+04  0.7818609E-02  0.8021776E-01
        1   -1    0    0  501    0  0.00000000000E+00  0.00000000000E+00  0.26522879913E+04  0.26522879913E+04  0.50400001928E-02 0.  1.
       -1   -1    0    0    0  501  0.00000000000E+00  0.00000000000E+00 -0.14452199855E+04  0.14452199855E+04  0.50400001928E-02 0. -1.
    10030    2    1    2    0    0  0.00000000000E+00  0.00000000000E+00  0.12070680058E+04  0.40975079768E+04  0.39156810965E+04 0.  0.
        4    1    3    3  502    0  0.70409346296E+03 -0.16427765793E+04 -0.23274775487E+03  0.18023971883E+04  0.12699999809E+01 0.  1.
       -4    1    3    3    0  502 -0.70409346296E+03  0.16427765793E+04  0.14398157606E+04  0.22951107885E+04  0.12699999809E+01 0. -1.
</event>
<event>
 5   0  0.1164500E-08  0.3894714E+04  0.7818609E-02  0.8026130E-01
       -1   -1    0    0    0  501  0.00000000000E+00  0.00000000000E+00  0.28446019698E+04  0.28446019698E+04  0.50400001928E-02 0.  1.
        1   -1    0    0  501    0  0.00000000000E+00  0.00000000000E+00 -0.13331211393E+04  0.13331211393E+04  0.50400001928E-02 0. -1.
    10030    2    1    2    0    0  0.00000000000E+00  0.00000000000E+00  0.15114808305E+04  0.41777231091E+04  0.38947138630E+04 0.  0.
        4    1    3    3  502    0  0.20269838011E+03 -0.12193641402E+04  0.23698292087E+04  0.26728313884E+04  0.12699999809E+01 0.  1.
       -4    1    3    3    0  502 -0.20269838011E+03  0.12193641402E+04 -0.85834837812E+03  0.15048917207E+04  0.12699999809E+01 0. -1.
</event>
<event>
 5   0  0.3690572E-08  0.3901965E+04  0.7818609E-02  0.8024621E-01
        2   -1    0    0  501    0  0.00000000000E+00  0.00000000000E+00  0.29263217201E+04  0.29263217201E+04  0.25500000920E-02 0. -1.
       -2   -1    0    0    0  501  0.00000000000E+00  0.00000000000E+00 -0.13007227282E+04  0.13007227282E+04  0.25500000920E-02 0.  1.
    10030    2    1    2    0    0  0.00000000000E+00  0.00000000000E+00  0.16255989918E+04  0.42270444483E+04  0.39019652338E+04 0.  0.
        3    1    3    3  502    0  0.87845855546E+03  0.11854668161E+04 -0.56998839510E+03  0.15817420101E+04  0.10100000352E+00 0.  1.
       -3    1    3    3    0  502 -0.87845855546E+03 -0.11854668161E+04  0.21955873869E+04  0.26453024382E+04  0.10100000352E+00 0. -1.
</event>
<event>
 5   0  0.3724293E-08  0.3900849E+04  0.7818609E-02  0.8024853E-01
        2   -1    0    0  501    0  0.00000000000E+00  0.00000000000E+00  0.27658195061E+04  0.27658195061E+04  0.25500000920E-02 0.  1.
       -2   -1    0    0    0  501  0.00000000000E+00  0.00000000000E+00 -0.13754170006E+04  0.13754170006E+04  0.25500000920E-02 0. -1.
    10030    2    1    2    0    0  0.00000000000E+00  0.00000000000E+00  0.13904025055E+04  0.41412365067E+04  0.39008487124E+04 0.  0.
        4    1    3    3  502    0  0.43097919551E+02  0.90757797500E+03 -0.11370157055E+04  0.14554592192E+04  0.12699999809E+01 0. -1.
       -4    1    3    3    0  502 -0.43097919551E+02 -0.90757797500E+03  0.25274182110E+04  0.26857772874E+04  0.12699999809E+01 0.  1.
</event>
<event>
 5   0  0.3724293E-08  0.3902512E+04  0.7818609E-02  0.8024507E-01
       -2   -1    0    0    0  501  0.00000000000E+00  0.00000000000E+00  0.18039940397E+04  0.18039940397E+04  0.25500000920E-02 0. -1.
        2   -1    0    0  501    0  0.00000000000E+00  0.00000000000E+00 -0.21105392777E+04  0.21105392777E+04  0.25500000920E-02 0.  1.
    10030    2    1    2    0    0  0.00000000000E+00  0.00000000000E+00 -0.30654523802E+03  0.39145333174E+04  0.39025121538E+04 0.  0.
        4    1    3    3  502    0 -0.14936775485E+04  0.92065026735E+03  0.70301328526E+03  0.18902113177E+04  0.12699999809E+01 0. -1.
       -4    1    3    3    0  502  0.14936775485E+04 -0.92065026735E+03 -0.10095585233E+04  0.20243219997E+04  0.12699999809E+01 0.  1.
</event>
<event>
 5   0  0.1164500E-08  0.3898541E+04  0.7818609E-02  0.8025333E-01
       -1   -1    0    0    0  501  0.00000000000E+00  0.00000000000E+00  0.16499661755E+04  0.16499661755E+04  0.50400001928E-02 0.  1.
        1   -1    0    0  501    0  0.00000000000E+00  0.00000000000E+00 -0.23028690345E+04  0.23028690345E+04  0.50400001928E-02 0. -1.
    10030    2    1    2    0    0  0.00000000000E+00  0.00000000000E+00 -0.65290285903E+03  0.39528352101E+04  0.38985412727E+04 0.  0.
        5    1    3    3  502    0 -0.19248890162E+04  0.30700923588E+03 -0.34011230579E+03  0.19786740171E+04  0.46999998093E+01 0. -1.
       -5    1    3    3    0  502  0.19248890162E+04 -0.30700923588E+03 -0.31279055324E+03  0.19741611929E+04  0.46999998093E+01 0.  1.
</event>
<event>
 5   0  0.1164500E-08  0.3910606E+04  0.7818609E-02  0.8022827E-01
       -1   -1    0    0    0  501  0.00000000000E+00  0.00000000000E+00  0.16240935228E+04  0.16240935228E+04  0.50400001928E-02 0.  1.
        1   -1    0    0  501    0  0.00000000000E+00  0.00000000000E+00 -0.23540581166E+04  0.23540581166E+04  0.50400001928E-02 0. -1.
    10030    2    1    2    0    0  0.00000000000E+00  0.00000000000E+00 -0.72996459380E+03  0.39781516393E+04  0.39106063670E+04 0.  0.
        3    1    3    3  502    0  0.81220113027E+03  0.13665004124E+04  0.79319753825E+03  0.17765574570E+04  0.10100000352E+00 0.  1.
       -3    1    3    3    0  502 -0.81220113027E+03 -0.13665004124E+04 -0.15231621321E+04  0.22015941824E+04  0.10100000352E+00 0. -1.
</event>
<event>
 5   0  0.3724293E-08  0.3859527E+04  0.7818609E-02  0.8033500E-01
       -2   -1    0    0    0  501  0.00000000000E+00  0.00000000000E+00  0.17221503396E+04  0.17221503396E+04  0.25500000920E-02 0.  1.
        2   -1    0    0  501    0  0.00000000000E+00  0.00000000000E+00 -0.21624053417E+04  0.21624053417E+04  0.25500000920E-02 0. -1.
    10030    2    1    2    0    0  0.00000000000E+00  0.00000000000E+00 -0.44025500211E+03  0.38845556813E+04  0.38595269625E+04 0.  0.
        4    1    3    3  502    0  0.29246332131E+03  0.71493933005E+02  0.16983656372E+04  0.17248459720E+04  0.12699999809E+01 0.  1.
       -4    1    3    3    0  502 -0.29246332131E+03 -0.71493933005E+02 -0.21386206393E+04  0.21597097093E+04  0.12699999809E+01 0. -1.
</event>
<event>
 5   0  0.3669347E-08  0.3887916E+04  0.7818609E-02  0.8027547E-01
       -2   -1    0    0    0  501  0.00000000000E+00  0.00000000000E+00  0.16840923862E+04  0.16840923862E+04  0.25500000920E-02 0.  1.
        2   -1    0    0  501    0  0.00000000000E+00  0.00000000000E+00 -0.22439220881E+04  0.22439220881E+04  0.25500000920E-02 0. -1.
    10030    2    1    2    0    0  0.00000000000E+00  0.00000000000E+00 -0.55982970182E+03  0.39280144743E+04  0.38879156903E+04 0.  0.
        5    1    3    3  502    0 -0.44856040270E+03 -0.46081412227E+03  0.15735066376E+04  0.16998533227E+04  0.46999998093E+01 0.  1.
       -5    1    3    3    0  502  0.44856040270E+03  0.46081412227E+03 -0.21333363394E+04  0.22281611516E+04  0.46999998093E+01 0. -1.
</event>
<event>
 5   0  0.1164500E-08  0.3859938E+04  0.7818609E-02  0.8033413E-01
        1   -1    0    0  501    0  0.00000000000E+00  0.00000000000E+00  0.14632652295E+04  0.14632652295E+04  0.50400001928E-02 0.  1.
       -1   -1    0    0    0  501  0.00000000000E+00  0.00000000000E+00 -0.25455264538E+04  0.25455264538E+04  0.50400001928E-02 0. -1.
    10030    2    1    2    0    0  0.00000000000E+00  0.00000000000E+00 -0.10822612243E+04  0.40087916833E+04  0.38599380050E+04 0.  0.
        5    1    3    3  502    0 -0.11367161270E+04 -0.61404588001E+03 -0.20301508513E+04  0.24063895081E+04  0.46999998093E+01 0. -1.
       -5    1    3    3    0  502  0.11367161270E+04  0.61404588001E+03  0.94788962701E+03  0.16024021752E+04  0.46999998093E+01 0.  1.
</event>
<event>
 5   0  0.1164500E-08  0.3891658E+04  0.7818609E-02  0.8026766E-01
        1   -1    0    0  501    0  0.00000000000E+00  0.00000000000E+00  0.28882770821E+04  0.28882770821E+04  0.50400001928E-02 0.  1.
       -1   -1    0    0    0  501  0.00000000000E+00  0.00000000000E+00 -0.13109027310E+04  0.13109027310E+04  0.50400001928E-02 0. -1.
    10030    2    1    2    0    0  0.00000000000E+00  0.00000000000E+00  0.15773743510E+04  0.41991798131E+04  0.38916579063E+04 0.  0.
        3    1    3    3  502    0 -0.15510952788E+04 -0.11658904032E+04  0.94525048525E+03  0.21584011411E+04  0.10100000352E+00 0. -1.
       -3    1    3    3    0  502  0.15510952788E+04  0.11658904032E+04  0.63212386578E+03  0.20407786720E+04  0.10100000352E+00 0.  1.
</event>
<event>
 5   0  0.3872969E-08  0.3902668E+04  0.7818609E-02  0.8024475E-01
       -2   -1    0    0    0  501  0.00000000000E+00  0.00000000000E+00  0.12797852434E+04  0.12797852434E+04  0.25500000920E-02 0. -1.
        2   -1    0    0  501    0  0.00000000000E+00  0.00000000000E+00 -0.29752679632E+04  0.29752679632E+04  0.25500000920E-02 0.  1.
    10030    2    1    2    0    0  0.00000000000E+00  0.00000000000E+00 -0.16954827198E+04  0.42550532066E+04  0.39026678232E+04 0.  0.
        2    1    3    3  502    0 -0.31060651129E+03 -0.19030794421E+04 -0.52153352432E+03  0.19975447391E+04  0.25500000920E-02 0.  1.
       -2    1    3    3    0  502  0.31060651129E+03  0.19030794421E+04 -0.11739491954E+04  0.22575084676E+04  0.25500000920E-02 0. -1.
</event>
<event>
 5   0  0.3669347E-08  0.3897495E+04  0.7818609E-02  0.8025550E-01
        2   -1    0    0  501    0  0.00000000000E+00  0.00000000000E+00  0.34602433603E+04  0.34602433603E+04  0.25500000920E-02 0.  1.
       -2   -1    0    0    0  501  0.00000000000E+00  0.00000000000E+00 -0.10974997486E+04  0.10974997486E+04  0.25500000920E-02 0. -1.
    10030    2    1    2    0    0  0.00000000000E+00  0.00000000000E+00  0.23627436117E+04  0.45577431089E+04  0.38974946917E+04 0.  0.
        5    1    3    3  502    0  0.12335836588E+04  0.37052359218E+03  0.28914927780E+04  0.31654018625E+04  0.46999998093E+01 0.  1.
       -5    1    3    3    0  502 -0.12335836588E+04 -0.37052359218E+03 -0.52874916631E+03  0.13923412464E+04  0.46999998093E+01 0. -1.
</event>
<event>
 5   0  0.3769985E-08  0.3902199E+04  0.7818609E-02  0.8024572E-01
        2   -1    0    0  501    0  0.00000000000E+00  0.00000000000E+00  0.25646634842E+04  0.25646634842E+04  0.25500000920E-02 0. -1.
       -2   -1    0    0    0  501  0.00000000000E+00  0.00000000000E+00 -0.14843227723E+04  0.14843227723E+04  0.25500000920E-02 0.  1.
    10030    2    1    2    0    0  0.00000000000E+00  0.00000000000E+00  0.10803407119E+04  0.40489862565E+04  0.39021985664E+04 0.  0.
        1    1    3    3  502    0  0.10712678741E+04 -0.14201779296E+04  0.13717333391E+04  0.22463687505E+04  0.50400001928E-02 0. -1.
       -1    1    3    3    0  502 -0.10712678741E+04  0.14201779296E+04 -0.29139262720E+03  0.18026175060E+04  0.50400001928E-02 0.  1.
</event>
<event>
 5   0  0.3724293E-08  0.3895374E+04  0.7818609E-02  0.8025992E-01
       -2   -1    0    0    0  501  0.00000000000E+00  0.00000000000E+00  0.15669526865E+04  0.15669526865E+04  0.25500000920E-02 0.  1.
        2   -1    0    0  501    0  0.00000000000E+00  0.00000000000E+00 -0.24209313703E+04  0.24209313703E+04  0.25500000920E-02 0. -1.
    10030    2    1    2    0    0  0.00000000000E+00  0.00000000000E+00 -0.85397868377E+03  0.39878840568E+04  0.38953741358E+04 0.  0.
        4    1    3    3  502    0  0.27508985188E+03 -0.59622515083E+03  0.14502219410E+04  0.15919497945E+04  0.12699999809E+01 0.  1.
       -4    1    3    3    0  502 -0.27508985188E+03  0.59622515083E+03 -0.23042006248E+04  0.23959342623E+04  0.12699999809E+01 0. -1.
</event>
<event>
 5   0  0.3669347E-08  0.3904514E+04  0.7818609E-02  0.8024091E-01
        2   -1    0    0  501    0  0.00000000000E+00  0.00000000000E+00  0.23237818390E+04  0.23237818390E+04  0.25500000920E-02 0. -1.
       -2   -1    0    0    0  501  0.00000000000E+00  0.00000000000E+00 -0.16401311013E+04  0.16401311013E+04  0.25500000920E-02 0.  1.
    10030    2    1    2    0    0  0.00000000000E+00  0.00000000000E+00  0.68365073764E+03  0.39639129403E+04  0.39045137300E+04 0.  0.
        5    1    3    3  502    0  0.15075031403E+04  0.84645369319E+03 -0.57874117397E+03  0.18231875957E+04  0.46999998093E+01 0.  1.
       -5    1    3    3    0  502 -0.15075031403E+04 -0.84645369319E+03  0.12623919116E+04  0.21407253446E+04  0.46999998093E+01 0. -1.
</event>
<event>
 5   0  0.3690572E-08  0.3905969E+04  0.7818609E-02  0.8023789E-01
        2   -1    0    0  501    0  0.00000000000E+00  0.00000000000E+00  0.23350860842E+04  0.23350860842E+04  0.25500000920E-02 0.  1.
       -2   -1    0    0    0  501  0.00000000000E+00  0.00000000000E+00 -0.16334080408E+04  0.16334080408E+04  0.25500000920E-02 0. -1.
    10030    2    1    2    0    0  0.00000000000E+00  0.00000000000E+00  0.70167804348E+03  0.39684941250E+04  0.39059689635E+04 0.  0.
        3    1    3    3  502    0  0.18503593609E+04  0.97918176611E+01  0.98551671687E+03  0.20964658007E+04  0.10100000352E+00 0. -1.
       -3    1    3    3    0  502 -0.18503593609E+04 -0.97918176611E+01 -0.28383867339E+03  0.18720283243E+04  0.10100000352E+00 0.  1.
</event>
<event>
 5   0  0.1164500E-08  0.3903402E+04  0.7818609E-02  0.8024322E-01
        1   -1    0    0  501    0  0.00000000000E+00  0.00000000000E+00  0.14372820594E+04  0.14372820594E+04  0.50400001928E-02 0. -1.
       -1   -1    0    0    0  501  0.00000000000E+00  0.00000000000E+00 -0.26502355477E+04  0.26502355477E+04  0.50400001928E-02 0.  1.
    10030    2    1    2    0    0  0.00000000000E+00  0.00000000000E+00 -0.12129534883E+04  0.40875176071E+04  0.39034015965E+04 0.  0.
        4    1    3    3  502    0 -0.67118498200E+03 -0.16639013243E+04  0.19792115361E+03  0.18050571440E+04  0.12699999809E+01 0. -1.
       -4    1    3    3    0  502  0.67118498200E+03  0.16639013243E+04 -0.14108746419E+04  0.22824604631E+04  0.12699999809E+01 0.  1.
</event>
<event>
 5   0  0.3669347E-08  0.3901405E+04  0.7818609E-02  0.8024737E-01
       -2   -1    0    0    0  501  0.00000000000E+00  0.00000000000E+00  0.22201889460E+04  0.22201889460E+04  0.25500000920E-02 0.  1.
        2   -1    0    0  501    0  0.00000000000E+00  0.00000000000E+00 -0.17139260007E+04  0.17139260007E+04  0.25500000920E-02 0. -1.
    10030    2    1    2    0    0  0.00000000000E+00  0.00000000000E+00  0.50626294533E+03  0.39341149467E+04  0.39014046501E+04 0.  0.
        5    1    3    3  502    0 -0.11280582881E+04 -0.34212099181E+03  0.18204003876E+04  0.21687420168E+04  0.46999998093E+01 0.  1.
       -5    1    3    3    0  502  0.11280582881E+04  0.34212099181E+03 -0.13141374423E+04  0.17653729299E+04  0.46999998093E+01 0. -1.
</event>
<event>
 5   0  0.1164500E-08  0.3887235E+04  0.7818609E-02  0.8027689E-01
        1   -1    0    0  501    0  0.00000000000E+00  0.00000000000E+00  0.32091019201E+04  0.32091019201E+04  0.50400001928E-02 0. -1.
       -1   -1    0    0    0  501  0.00000000000E+00  0.00000000000E+00 -0.11771669165E+04  0.11771669165E+04  0.50400001928E-02 0.  1.
    10030    2    1    2    0    0  0.00000000000E+00  0.00000000000E+00  0.20319350037E+04  0.43862688366E+04  0.38872348074E+04 0.  0.
        5    1    3    3  502    0  0.87055629134E+03  0.10540402209E+04  0.25749091053E+04  0.29153126820E+04  0.46999998093E+01 0. -1.
       -5    1    3    3    0  502 -0.87055629134E+03 -0.10540402209E+04 -0.54297410160E+03  0.14709561546E+04  0.46999998093E+01 0.  1.
</event>
<event>
 5   0  0.1164500E-08  0.3927121E+04  0.7818609E-02  0.8019412E-01
        1   -1    0    0  501    0  0.00000000000E+00  0.00000000000E+00  0.22844103081E+04  0.22844103081E+04  0.50400001928E-02 0.  1.
       -1   -1    0    0    0  501  0.00000000000E+00  0.00000000000E+00 -0.16877745866E+04  0.16877745866E+04  0.50400001928E-02 0. -1.
    10030    2    1    2    0    0  0.00000000000E+00  0.00000000000E+00  0.59663572150E+03  0.39721848948E+04  0.39271209116E+04 0.  0.
        5    1    3    3  502    0 -0.71609570271E+03  0.18273852906E+04  0.35744822776E+03  0.19949740302E+04  0.46999998093E+01 0.  1.
       -5    1    3    3    0  502  0.71609570271E+03 -0.18273852906E+04  0.23918749374E+03  0.19772108645E+04  0.46999998093E+01 0. -1.
</event>
<event>
 5   0  0.1164500E-08  0.3906935E+04  0.7818609E-02  0.8023588E-01
        1   -1    0    0  501    0  0.00000000000E+00  0.00000000000E+00  0.28769954644E+04  0.28769954644E+04  0.50400001928E-02 0.  1.
       -1   -1    0    0    0  501  0.00000000000E+00  0.00000000000E+00 -0.13263962650E+04  0.13263962650E+04  0.50400001928E-02 0. -1.
    10030    2    1    2    0    0  0.00000000000E+00  0.00000000000E+00  0.15505991994E+04  0.42033917294E+04  0.39069353915E+04 0.  0.
        5    1    3    3  502    0  0.14913790342E+04  0.71562759975E+03 -0.34262135428E+03  0.16893033379E+04  0.46999998093E+01 0. -1.
       -5    1    3    3    0  502 -0.14913790342E+04 -0.71562759975E+03  0.18932205537E+04  0.25140883915E+04  0.46999998093E+01 0.  1.
</event>
<event>
 5   0  0.1164500E-08  0.3898762E+04  0.7818609E-02  0.8025287E-01
        1   -1    0    0  501    0  0.00000000000E+00  0.00000000000E+00  0.15484129472E+04  0.15484129472E+04  0.50400001928E-02 0.  1.
       -1   -1    0    0    0  501  0.00000000000E+00  0.00000000000E+00 -0.24541813435E+04  0.24541813435E+04  0.50400001928E-02 0. -1.
    10030    2    1    2    0    0  0.00000000000E+00  0.00000000000E+00 -0.90576839633E+03  0.40025942907E+04  0.38987619405E+04 0.  0.
        1    1    3    3  502    0 -0.10874145477E+04  0.16154537065E+04 -0.54427804901E+03  0.20219791470E+04  0.50400001928E-02 0. -1.
       -1    1    3    3    0  502  0.10874145477E+04 -0.16154537065E+04 -0.36149034732E+03  0.19806151437E+04  0.50400001928E-02 0.  1.
</event>
<event>
 5   0  0.3690572E-08  0.3907279E+04  0.7818609E-02  0.8023517E-01
        2   -1    0    0  501    0  0.00000000000E+00  0.00000000000E+00  0.22369258564E+04  0.22369258564E+04  0.25500000920E-02 0. -1.
       -2   -1    0    0    0  501  0.00000000000E+00  0.00000000000E+00 -0.17062289283E+04  0.17062289283E+04  0.25500000920E-02 0.  1.
    10030    2    1    2    0    0  0.00000000000E+00  0.00000000000E+00  0.53069692806E+03  0.39431547847E+04  0.39072791591E+04 0.  0.
        3    1    3    3  502    0  0.80479817462E+03 -0.12500321918E+04  0.15444348711E+04  0.21437256503E+04  0.10100000352E+00 0. -1.
       -3    1    3    3    0  502 -0.80479817462E+03  0.12500321918E+04 -0.10137379431E+04  0.17994291344E+04  0.10100000352E+00 0.  1.
</event>
<event>
 5   0  0.1164500E-08  0.3890731E+04  0.7818609E-02  0.8026960E-01
        1   -1    0    0  501    0  0.00000000000E+00  0.00000000000E+00  0.27047793402E+04  0.27047793402E+04  0.50400001928E-02 0. -1.
       -1   -1    0    0    0  501  0.00000000000E+00  0.00000000000E+00 -0.13991706446E+04  0.13991706446E+04  0.50400001928E-02 0.  1.
    10030    2    1    2    0    0  0.00000000000E+00  0.00000000000E+00  0.13056086956E+04  0.41039499848E+04  0.38907314752E+04 0.  0.
        2    1    3    3  502    0  0.77610154388E+03  0.12451303998E+04 -0.69460496843E+03  0.16233174000E+04  0.25500000920E-02 0.  1.
       -2    1    3    3    0  502 -0.77610154388E+03 -0.12451303998E+04  0.20002136640E+04  0.24806325848E+04  0.25500000920E-02 0. -1.
</event>
<event>
 5   0  0.1164500E-08  0.3898266E+04  0.7818609E-02  0.8025390E-01
       -1   -1    0    0    0  501  0.00000000000E+00  0.00000000000E+00  0.18508333651E+04  0.18508333651E+04  0.50400001928E-02 0.  1.
        1   -1    0    0  501    0  0.00000000000E+00  0.00000000000E+00 -0.20526534195E+04  0.20526534196E+04  0.50400001928E-02 0. -1.
    10030    2    1    2    0    0  0.00000000000E+00  0.00000000000E+00 -0.20182005444E+03  0.39034867847E+04  0.38982659919E+04 0.  0.
        4    1    3    3  502    0 -0.13975429740E+04  0.12488575977E+04 -0.63673990440E+03  0.19794471405E+04  0.12699999809E+01 0. -1.
       -4    1    3    3    0  502  0.13975429740E+04 -0.12488575977E+04  0.43491984996E+03  0.19240396441E+04  0.12699999809E+01 0.  1.
</event>
<event>
 5   0  0.3724293E-08  0.3893335E+04  0.7818609E-02  0.8026417E-01
       -2   -1    0    0    0  501  0.00000000000E+00  0.00000000000E+00  0.25080151403E+04  0.25080151403E+04  0.25500000920E-02 0.  1.
        2   -1    0    0  501    0  0.00000000000E+00  0.00000000000E+00 -0.15109612352E+04  0.15109612352E+04  0.25500000920E-02 0. -1.
    10030    2    1    2    0    0  0.00000000000E+00  0.00000000000E+00  0.99705390509E+03  0.40189763755E+04  0.38933346398E+04 0.  0.
        4    1    3    3  502    0 -0.17154249894E+04  0.37846004666E+03  0.13644030524E+04  0.22243003852E+04  0.12699999809E+01 0.  1.
       -4    1    3    3    0  502  0.17154249894E+04 -0.37846004666E+03 -0.36734914729E+03  0.17946759903E+04  0.12699999809E+01 0. -1.
</event>
<event>
 5   0  0.3872969E-08  0.3894292E+04  0.7818609E-02  0.8026217E-01
        2   -1    0    0  501    0  0.00000000000E+00  0.00000000000E+00  0.12917002349E+04  0.12917002349E+04  0.25500000920E-02 0.  1.
       -2   -1    0    0    0  501  0.00000000000E+00  0.00000000000E+00 -0.29351845047E+04  0.29351845047E+04  0.25500000920E-02 0. -1.
    10030    2    1    2    0    0  0.00000000000E+00  0.00000000000E+00 -0.16434842698E+04  0.42268847396E+04  0.38942924976E+04 0.  0.
        2    1    3    3  502    0  0.16897707852E+04  0.96242332383E+03 -0.92916188894E+03  0.21552089868E+04  0.25500000920E-02 0. -1.
       -2    1    3    3    0  502 -0.16897707852E+04 -0.96242332383E+03 -0.71432238085E+03  0.20716757528E+04  0.25500000920E-02 0.  1.
</event>
<event>
 5   0  0.1164500E-08  0.3913369E+04  0.7818609E-02  0.8022254E-01
        1   -1    0    0  501    0  0.00000000000E+00  0.00000000000E+00  0.29905583041E+04  0.29905583041E+04  0.50400001928E-02 0. -1.
       -1   -1    0    0    0  501  0.00000000000E+00  0.00000000000E+00 -0.12802339504E+04  0.12802339504E+04  0.50400001928E-02 0.  1.
    10030    2    1    2    0    0  0.00000000000E+00  0.00000000000E+00  0.17103243537E+04  0.42707922545E+04  0.39133690200E+04 0.  0.
        1    1    3    3  502    0  0.14606687251E+04  0.46558955440E+03 -0.47173447479E+03  0.16040137694E+04  0.50400001928E-02 0.  1.
       -1    1    3    3    0  502 -0.14606687251E+04 -0.46558955440E+03  0.21820588285E+04  0.26667784851E+04  0.50400001928E-02 0. -1.
</event>
<event>
 5   0  0.3669347E-08  0.3901990E+04  0.7818609E-02  0.8024615E-01
       -2   -1    0    0    0  501  0.00000000000E+00  0.00000000000E+00  0.17887078142E+04  0.17887078142E+04  0.25500000920E-02 0. -1.
        2   -1    0    0  501    0  0.00000000000E+00  0.00000000000E+00 -0.21280063268E+04  0.21280063268E+04  0.25500000920E-02 0.  1.
    10030    2    1    2    0    0  0.00000000000E+00  0.00000000000E+00 -0.33929851264E+03  0.39167141410E+04  0.39019900284E+04 0.  0.
        5    1    3    3  502    0 -0.18957751014E+04  0.45757558025E+03 -0.22481853810E+03  0.19631362948E+04  0.46999998093E+01 0.  1.
       -5    1    3    3    0  502  0.18957751014E+04 -0.45757558025E+03 -0.11447997454E+03  0.19535778462E+04  0.46999998093E+01 0. -1.
</event>
<event>
 5   0  0.1164500E-08  0.3898040E+04  0.7818609E-02  0.8025437E-01
        1   -1    0    0  501    0  0.00000000000E+00  0.00000000000E+00  0.13637584128E+04  0.13637584128E+04  0.50400001928E-02 0. -1.
       -1   -1    0    0    0  501  0.00000000000E+00  0.00000000000E+00 -0.27854490034E+04  0.27854490034E+04  0.50400001928E-02 0.  1.
    10030    2    1    2    0    0  0.00000000000E+00  0.00000000000E+00 -0.14216905906E+04  0.41492074162E+04  0.38980402829E+04 0.  0.
        3    1    3    3  502    0  0.15286794335E+03 -0.60377488220E+03  0.12549796201E+04  0.14010305398E+04  0.10100000352E+00 0. -1.
       -3    1    3    3    0  502 -0.15286794335E+03  0.60377488220E+03 -0.26766702107E+04  0.27481768763E+04  0.10100000352E+00 0.  1.
</event>
<event>
 5   0  0.3724293E-08  0.3892635E+04  0.7818609E-02  0.8026563E-01
       -2   -1    0    0    0  501  0.00000000000E+00  0.00000000000E+00  0.15446802409E+04  0.15446802409E+04  0.25500000920E-02 0.  1.
        2   -1    0    0  501    0  0.00000000000E+00  0.00000000000E+00 -0.24523859479E+04  0.24523859479E+04  0.25500000920E-02 0. -1.
    10030    2    1    2    0    0  0.00000000000E+00  0.00000000000E+00 -0.90770570694E+03  0.39970661888E+04  0.38926351572E+04 0.  0.
        4    1    3    3  502    0 -0.83070049684E+03  0.14856784224E+04 -0.14230210510E+04  0.22186243969E+04  0.12699999809E+01 0. -1.
       -4    1    3    3    0  502  0.83070049684E+03 -0.14856784224E+04  0.51531534406E+03  0.17784417918E+04  0.12699999809E+01 0.  1.
</event>
<event>
 5   0  0.1164500E-08  0.3909832E+04  0.7818609E-02  0.8022987E-01
        1   -1    0    0  501    0  0.00000000000E+00  0.00000000000E+00  0.23908564632E+04  0.23908564633E+04  0.50400001928E-02 0.  1.
       -1   -1    0    0    0  501  0.00000000000E+00  0.00000000000E+00 -0.15984637967E+04  0.15984637967E+04  0.50400001928E-02 0. -1.
    10030    2    1    2    0    0  0.00000000000E+00  0.00000000000E+00  0.79239266651E+03  0.39893202600E+04  0.39098324771E+04 0.  0.
        2    1    3    3  502    0  0.16063906710E+04  0.10404143822E+04 -0.10331227351E+02  0.19139121738E+04  0.25500000920E-02 0. -1.
       -2    1    3    3    0  502 -0.16063906710E+04 -0.10404143822E+04  0.80272389386E+03  0.20754080862E+04  0.25500000920E-02 0.  1.
</event>
<event>
 5   0  0.1164500E-08  0.3897618E+04  0.7818609E-02  0.8025525E-01
       -1   -1    0    0    0  501  0.00000000000E+00  0.00000000000E+00  0.21243101123E+04  0.21243101123E+04  0.50400001928E-02 0.  1.
        1   -1    0    0  501    0  0.00000000000E+00  0.00000000000E+00 -0.17878071401E+04  0.17878071401E+04  0.50400001928E-02 0. -1.
    10030    2    1    2    0    0  0.00000000000E+00  0.00000000000E+00  0.33650297220E+03  0.39121172524E+04  0.38976181376E+04 0.  0.
        3    1    3    3  502    0 -0.16666968603E+04  0.54047320018E+03 -0.68807349096E+03  0.18824013503E+04  0.10100000352E+00 0. -1.
       -3    1    3    3    0  502  0.16666968603E+04 -0.54047320018E+03  0.10245764632E+04  0.20297159022E+04  0.10100000352E+00 0.  1.
</event>
<event>
 5   0  0.1164500E-08  0.3898369E+04  0.7818609E-02  0.8025369E-01
        1   -1    0    0  501    0  0.00000000000E+00  0.00000000000E+00  0.16757595324E+04  0.16757595324E+04  0.50400001928E-02 0. -1.
       -1   -1    0    0    0  501  0.00000000000E+00  0.00000000000E+00 -0.22672228385E+04  0.22672228385E+04  0.50400001928E-02 0.  1.
    10030    2    1    2    0    0  0.00000000000E+00  0.00000000000E+00 -0.59146330609E+03  0.39429823708E+04  0.38983690351E+04 0.  0.
        1    1    3    3  502    0 -0.49041172471E+03 -0.41038591492E+03  0.15666443104E+04  0.16921272571E+04  0.50400001928E-02 0. -1.
       -1    1    3    3    0  502  0.49041172471E+03  0.41038591492E+03 -0.21581076165E+04  0.22508551138E+04  0.50400001928E-02 0.  1.
</event>
<event>
 5   0  0.1164500E-08  0.3889920E+04  0.7818609E-02  0.8027129E-01
        1   -1    0    0  501    0  0.00000000000E+00  0.00000000000E+00  0.24433042871E+04  0.24433042871E+04  0.50400001928E-02 0.  1.
       -1   -1    0    0    0  501  0.00000000000E+00  0.00000000000E+00 -0.15482599127E+04  0.15482599127E+04  0.50400001928E-02 0. -1.
    10030    2    1    2    0    0  0.00000000000E+00  0.00000000000E+00  0.89504437445E+03  0.39915641998E+04  0.38899203500E+04 0.  0.
        3    1    3    3  502    0  0.28525358011E+03  0.24229810066E+03 -0.15109598962E+04  0.15566238443E+04  0.10100000352E+00 0. -1.
       -3    1    3    3    0  502 -0.28525358011E+03 -0.24229810066E+03  0.24060042706E+04  0.24349403555E+04  0.10100000352E+00 0.  1.
</event>
<event>
 5   0  0.3724293E-08  0.3903904E+04  0.7818609E-02  0.8024218E-01
        2   -1    0    0  501    0  0.00000000000E+00  0.00000000000E+00  0.17727613183E+04  0.17727613183E+04  0.25500000920E-02 0. -1.
       -2   -1    0    0    0  501  0.00000000000E+00  0.00000000000E+00 -0.21492551142E+04  0.21492551142E+04  0.25500000920E-02 0.  1.
    10030    2    1    2    0    0  0.00000000000E+00  0.00000000000E+00 -0.37649379591E+03  0.39220164324E+04  0.39039038561E+04 0.  0.
        4    1    3    3  502    0 -0.17757627845E+04  0.60470010330E+03 -0.73030469638E+03  0.20130430309E+04  0.12699999809E+01 0. -1.
       -4    1    3    3    0  502  0.17757627845E+04 -0.60470010330E+03  0.35381090047E+03  0.19089734016E+04  0.12699999809E+01 0.  1.
</event>
<event>
 5   0  0.3769985E-08  0.3922904E+04  0.7818609E-02  0.8020282E-01
        2   -1    0    0  501    0  0.00000000000E+00  0.00000000000E+00  0.28163813342E+04  0.28163813342E+04  0.25500000920E-02 0. -1.
       -2   -1    0    0    0  501  0.00000000000E+00  0.00000000000E+00 -0.13660413685E+04  0.13660413685E+04  0.25500000920E-02 0.  1.
    10030    2    1    2    0    0  0.00000000000E+00  0.00000000000E+00  0.14503399658E+04  0.41824227027E+04  0.39229037266E+04 0.  0.
        1    1    3    3  502    0  0.15390033888E+04  0.11085030089E+04  0.19211063501E+03  0.19063622026E+04  0.50400001928E-02 0.  1.
       -1    1    3    3    0  502 -0.15390033888E+04 -0.11085030089E+04  0.12582293307E+04  0.22760605001E+04  0.50400001928E-02 0. -1.
</event>
<event>
 5   0  0.1164500E-08  0.3972045E+04  0.7818609E-02  0.8010210E-01
       -1   -1    0    0    0  501  0.00000000000E+00  0.00000000000E+00  0.15623121912E+04  0.15623121912E+04  0.50400001928E-02 0. -1.
        1   -1    0    0  501    0  0.00000000000E+00  0.00000000000E+00 -0.25246465725E+04  0.25246465725E+04  0.50400001928E-02 0.  1.
    10030    2    1    2    0    0  0.00000000000E+00  0.00000000000E+00 -0.96233438133E+03  0.40869587638E+04  0.39720453768E+04 0.  0.
        2    1    3    3  502    0  0.89917161273E+03  0.15245274740E+04 -0.14081145466E+04  0.22617427317E+04  0.25500000920E-02 0.  1.
       -2    1    3    3    0  502 -0.89917161273E+03 -0.15245274740E+04  0.44578016524E+03  0.18252160321E+04  0.25500000920E-02 0. -1.
</event>
<event>
 5   0  0.1164500E-08  0.3901221E+04  0.7818609E-02  0.8024775E-01
       -1   -1    0    0    0  501  0.00000000000E+00  0.00000000000E+00  0.19581793534E+04  0.19581793534E+04  0.50400001928E-02 0. -1.
        1   -1    0    0  501    0  0.00000000000E+00  0.00000000000E+00 -0.19430710451E+04  0.19430710451E+04  0.50400001928E-02 0.  1.
    10030    2    1    2    0    0  0.00000000000E+00  0.00000000000E+00  0.15108308349E+02  0.39012503985E+04  0.39012211435E+04 0.  0.
        2    1    3    3  502    0  0.76299410984E+02  0.74769249994E+03 -0.17924637684E+04  0.19436542994E+04  0.25500000920E-02 0.  1.
       -2    1    3    3    0  502 -0.76299410984E+02 -0.74769249994E+03  0.18075720767E+04  0.19575960991E+04  0.25500000920E-02 0. -1.
</event>
<event>
 5   0  0.3724293E-08  0.3884752E+04  0.7818609E-02  0.8028208E-01
        2   -1    0    0  501    0  0.00000000000E+00  0.00000000000E+00  0.16009952769E+04  0.16009952769E+04  0.25500000920E-02 0.  1.
       -2   -1    0    0    0  501  0.00000000000E+00  0.00000000000E+00 -0.23565489149E+04  0.23565489149E+04  0.25500000920E-02 0. -1.
    10030    2    1    2    0    0  0.00000000000E+00  0.00000000000E+00 -0.75555363801E+03  0.39575441919E+04  0.38847515661E+04 0.  0.
        4    1    3    3  502    0 -0.71218713900E+03 -0.18057346631E+04 -0.30621908071E+03  0.19651106668E+04  0.12699999809E+01 0. -1.
       -4    1    3    3    0  502  0.71218713900E+03  0.18057346631E+04 -0.44933455730E+03  0.19924335251E+04  0.12699999809E+01 0.  1.
</event>
<event>
 5   0  0.1164500E-08  0.3899378E+04  0.7818609E-02  0.8025159E-01
        1   -1    0    0  501    0  0.00000000000E+00  0.00000000000E+00  0.20136755728E+04  0.20136755728E+04  0.50400001928E-02 0. -1.
       -1   -1    0    0    0  501  0.00000000000E+00  0.00000000000E+00 -0.18877358923E+04  0.18877358923E+04  0.50400001928E-02 0.  1.
    10030    2    1    2    0    0  0.00000000000E+00  0.00000000000E+00  0.12593968048E+03  0.39014114651E+04  0.38993782347E+04 0.  0.
        3    1    3    3  502    0 -0.10958105715E+04  0.15886048984E+04 -0.21434125957E+03  0.19417539797E+04  0.10100000352E+00 0. -1.
       -3    1    3    3    0  502  0.10958105715E+04 -0.15886048984E+04  0.34028094005E+03  0.19596574854E+04  0.10100000352E+00 0.  1.
</event>
<event>
 5   0  0.3724293E-08  0.3898421E+04  0.7818609E-02  0.8025358E-01
       -2   -1    0    0    0  501  0.00000000000E+00  0.00000000000E+00  0.19833240414E+04  0.19833240414E+04  0.25500000920E-02 0.  1.
        2   -1    0    0  501    0  0.00000000000E+00  0.00000000000E+00 -0.19156834158E+04  0.19156834158E+04  0.25500000920E-02 0. -1.
    10030    2    1    2    0    0  0.00000000000E+00  0.00000000000E+00  0.67640625550E+02  0.38990074572E+04  0.38984206927E+04 0.  0.
        4    1    3    3  502    0 -0.11179448750E+04  0.82252515724E+03  0.14026281410E+04  0.19732500330E+04  0.12699999809E+01 0.  1.
       -4    1    3    3    0  502  0.11179448750E+04 -0.82252515724E+03 -0.13349875155E+04  0.19257574243E+04  0.12699999809E+01 0. -1.
</event>
<event>
 5   0  0.1164500E-08  0.3906935E+04  0.7818609E-02  0.8023588E-01
       -1   -1    0    0    0  501  0.00000000000E+00  0.00000000000E+00  0.21321770110E+04  0.21321770110E+04  0.50400001928E-02 0. -1.
        1   -1    0    0  501    0  0.00000000000E+00  0.00000000000E+00 -0.17897366690E+04  0.17897366690E+04  0.50400001928E-02 0.  1.
    10030    2    1    2    0    0  0.00000000000E+00  0.00000000000E+00  0.34244034200E+03  0.39219136801E+04  0.39069350553E+04 0.  0.
        3    1    3    3  502    0  0.86107272523E+03 -0.18373354266E+03  0.19217035410E+04  0.21137996032E+04  0.10100000352E+00 0. -1.
       -3    1    3    3    0  502 -0.86107272523E+03  0.18373354266E+03 -0.15792631990E+04  0.18081140768E+04  0.10100000352E+00 0.  1.
</event>
<event>
 5   0  0.1164500E-08  0.3899265E+04  0.7818609E-02  0.8025182E-01
       -1   -1    0    0    0  501  0.00000000000E+00  0.00000000000E+00  0.28368680985E+04  0.28368680985E+04  0.50400001928E-02 0. -1.
        1   -1    0    0  501    0  0.00000000000E+00  0.00000000000E+00 -0.13398811854E+04  0.13398811854E+04  0.50400001928E-02 0.  1.
    10030    2    1    2    0    0  0.00000000000E+00  0.00000000000E+00  0.14969869132E+04  0.41767492839E+04  0.38992646438E+04 0.  0.
        3    1    3    3  502    0 -0.28729790806E+03 -0.85506473035E+03 -0.11029126228E+04  0.14248129859E+04  0.10100000352E+00 0.  1.
       -3    1    3    3    0  502  0.28729790806E+03  0.85506473035E+03  0.25998995360E+04  0.27519362980E+04  0.10100000352E+00 0. -1.
</event>
<event>
 5   0  0.3769985E-08  0.3897161E+04  0.7818609E-02  0.8025620E-01
        2   -1    0    0  501    0  0.00000000000E+00  0.00000000000E+00  0.18281291317E+04  0.18281291317E+04  0.25500000920E-02 0. -1.
       -2   -1    0    0    0  501  0.00000000000E+00  0.00000000000E+00 -0.20769677397E+04  0.20769677397E+04  0.25500000920E-02 0.  1.
    10030    2    1    2    0    0  0.00000000000E+00  0.00000000000E+00 -0.24883860805E+03  0.39050968714E+04  0.38971606231E+04 0.  0.
        1    1    3    3  502    0  0.19383731575E+02 -0.85778737528E+03 -0.18774934926E+04  0.20642569426E+04  0.50400001928E-02 0.  1.
       -1    1    3    3    0  502 -0.19383731575E+02  0.85778737528E+03  0.16286548846E+04  0.18408399288E+04  0.50400001928E-02 0. -1.
</event>
<event>
 5   0  0.3769985E-08  0.3901445E+04  0.7818609E-02  0.8024729E-01
       -2   -1    0    0    0  501  0.00000000000E+00  0.00000000000E+00  0.25096586433E+04  0.25096586433E+04  0.25500000920E-02 0.  1.
        2   -1    0    0  501    0  0.00000000000E+00  0.00000000000E+00 -0.15162695395E+04  0.15162695395E+04  0.25500000920E-02 0. -1.
    10030    2    1    2    0    0  0.00000000000E+00  0.00000000000E+00  0.99338910385E+03  0.40259281828E+04  0.39014453503E+04 0.  0.
        1    1    3    3  502    0  0.17782673243E+03  0.51543964099E+03 -0.14360365624E+04  0.15360668537E+04  0.50400001928E-02 0. -1.
       -1    1    3    3    0  502 -0.17782673243E+03 -0.51543964099E+03  0.24294256663E+04  0.24898613291E+04  0.50400001928E-02 0.  1.
</event>
<event>
 5   0  0.3724293E-08  0.3899170E+04  0.7818609E-02  0.8025202E-01
        2   -1    0    0  501    0  0.00000000000E+00  0.00000000000E+00  0.14832301540E+04  0.14832301540E+04  0.25500000920E-02 0. -1.
       -2   -1    0    0    0  501  0.00000000000E+00  0.00000000000E+00 -0.25625700417E+04  0.25625700417E+04  0.25500000920E-02 0.  1.
    10030    2    1    2    0    0  0.00000000000E+00  0.00000000000E+00 -0.10793398877E+04  0.40458001957E+04  0.38991697360E+04 0.  0.
        4    1    3    3  502    0  0.29175058315E+03 -0.73605668643E+03  0.13088940899E+04  0.15297395857E+04  0.12699999809E+01 0. -1.
       -4    1    3    3    0  502 -0.29175058315E+03  0.73605668643E+03 -0.23882339777E+04  0.25160606100E+04  0.12699999809E+01 0.  1.
</event>
<event>
 5   0  0.3724293E-08  0.3899430E+04  0.7818609E-02  0.8025148E-01
       -2   -1    0    0    0  501  0.00000000000E+00  0.00000000000E+00  0.19797012854E+04  0.19797012854E+04  0.25500000920E-02 0. -1.
        2   -1    0    0  501    0  0.00000000000E+00  0.00000000000E+00 -0.19201833658E+04  0.19201833658E+04  0.25500000920E-02 0.  1.
    10030    2    1    2    0    0  0.00000000000E+00  0.00000000000E+00  0.59517919612E+02  0.38998846512E+04  0.38994304596E+04 0.  0.
        4    1    3    3  502    0 -0.88960215011E+03 -0.89702099893E+03 -0.14554558323E+04  0.19272757848E+04  0.12699999809E+01 0.  1.
       -4    1    3    3    0  502  0.88960215011E+03  0.89702099893E+03  0.15149737519E+04  0.19726088664E+04  0.12699999809E+01 0. -1.
</event>
<event>
 5   0  0.1164500E-08  0.3925009E+04  0.7818609E-02  0.8019848E-01
       -1   -1    0    0    0  501  0.00000000000E+00  0.00000000000E+00  0.15975032596E+04  0.15975032596E+04  0.50400001928E-02 0.  1.
        1   -1    0    0  501    0  0.00000000000E+00  0.00000000000E+00 -0.24109016829E+04  0.24109016829E+04  0.50400001928E-02 0. -1.
    10030    2    1    2    0    0  0.00000000000E+00  0.00000000000E+00 -0.81339842327E+03  0.40084049426E+04  0.39250086864E+04 0.  0.
        1    1    3    3  502    0  0.20091700049E+03  0.55409054894E+03  0.15049819134E+04  0.16162779888E+04  0.50400001928E-02 0.  1.
       -1    1    3    3    0  502 -0.20091700049E+03 -0.55409054894E+03 -0.23183803366E+04  0.23921269538E+04  0.50400001928E-02 0. -1.
</event>
<event>
 5   0  0.1164500E-08  0.3893252E+04  0.7818609E-02  0.8026434E-01
       -1   -1    0    0    0  501  0.00000000000E+00  0.00000000000E+00  0.16987453380E+04  0.16987453381E+04  0.50400001928E-02 0.  1.
        1   -1    0    0  501    0  0.00000000000E+00  0.00000000000E+00 -0.22306770394E+04  0.22306770394E+04  0.50400001928E-02 0. -1.
    10030    2    1    2    0    0  0.00000000000E+00  0.00000000000E+00 -0.53193170133E+03  0.39294223774E+04  0.38932517110E+04 0.  0.
        3    1    3    3  502    0 -0.47061362907E+03 -0.51451790740E+02  0.16397575606E+04  0.17067306005E+04  0.10100000352E+00 0.  1.
       -3    1    3    3    0  502  0.47061362907E+03  0.51451790740E+02 -0.21716892620E+04  0.22226917770E+04  0.10100000352E+00 0. -1.
</event>
<event>
 5   0  0.3872969E-08  0.3901941E+04  0.7818609E-02  0.8024626E-01
        2   -1    0    0  501    0  0.00000000000E+00  0.00000000000E+00  0.19639449115E+04  0.19639449115E+04  0.25500000920E-02 0. -1.
       -2   -1    0    0    0  501  0.00000000000E+00  0.00000000000E+00 -0.19380817775E+04  0.19380817775E+04  0.25500000920E-02 0.  1.
    10030    2    1    2    0    0  0.00000000000E+00  0.00000000000E+00  0.25863133944E+02  0.39020266890E+04  0.39019409760E+04 0.  0.
        2    1    3    3  502    0 -0.90684070766E+03  0.81955715845E+03  0.15335740057E+04  0.19610923579E+04  0.25500000920E-02 0. -1.
       -2    1    3    3    0  502  0.90684070766E+03 -0.81955715845E+03 -0.15077108718E+04  0.19409343312E+04  0.25500000920E-02 0.  1.
</event>
<event>
 5   0  0.1164500E-08  0.3896281E+04  0.7818609E-02  0.8025803E-01
        1   -1    0    0  501    0  0.00000000000E+00  0.00000000000E+00  0.15305342874E+04  0.15305342874E+04  0.50400001928E-02 0.  1.
       -1   -1    0    0    0  501  0.00000000000E+00  0.00000000000E+00 -0.24796905554E+04  0.24796905554E+04  0.50400001928E-02 0. -1.
    10030    2    1    2    0    0  0.00000000000E+00  0.00000000000E+00 -0.94915626804E+03  0.40102248428E+04  0.38962810048E+04 0.  0.
        2    1    3    3  502    0 -0.16298825195E+04  0.86453520865E+03 -0.11184222570E+04  0.21575000577E+04  0.25500000920E-02 0. -1.
       -2    1    3    3    0  502  0.16298825195E+04 -0.86453520865E+03  0.16926598894E+03  0.18527247851E+04  0.25500000920E-02 0.  1.
</event>
<event>
 5   0  0.1164500E-08  0.3901923E+04  0.7818609E-02  0.8024629E-01
        1   -1    0    0  501    0  0.00000000000E+00  0.00000000000E+00  0.21028004384E+04  0.21028004384E+04  0.50400001928E-02 0. -1.
       -1   -1    0    0    0  501  0.00000000000E+00  0.00000000000E+00 -0.18100861952E+04  0.18100861953E+04  0.50400001928E-02 0.  1.
    10030    2    1    2    0    0  0.00000000000E+00  0.00000000000E+00  0.29271424317E+03  0.39128866337E+04  0.39019226261E+04 0.  0.
        4    1    3    3  502    0 -0.70823259203E+03 -0.13448886522E+04  0.13728758427E+04  0.20481964221E+04  0.12699999809E+01 0. -1.
       -4    1    3    3    0  502  0.70823259203E+03  0.13448886522E+04 -0.10801615995E+04  0.18646902116E+04  0.12699999809E+01 0.  1.
</event>
<event>
 5   0  0.1164500E-08  0.3887403E+04  0.7818609E-02  0.8027654E-01
        1   -1    0    0  501    0  0.00000000000E+00  0.00000000000E+00  0.23798888682E+04  0.23798888682E+04  0.50400001928E-02 0. -1.
       -1   -1    0    0    0  501  0.00000000000E+00  0.00000000000E+00 -0.15874591809E+04  0.15874591809E+04  0.50400001928E-02 0.  1.
    10030    2    1    2    0    0  0.00000000000E+00  0.00000000000E+00  0.79242968725E+03  0.39673480491E+04  0.38874034693E+04 0.  0.
        4    1    3    3  502    0  0.36074699802E+03 -0.48652534003E+03 -0.14886915559E+04  0.16071868169E+04  0.12699999809E+01 0.  1.
       -4    1    3    3    0  502 -0.36074699802E+03  0.48652534003E+03  0.22811212431E+04  0.23601612322E+04  0.12699999809E+01 0. -1.
</event>
<event>
 5   0  0.3872969E-08  0.3900309E+04  0.7818609E-02  0.8024965E-01
       -2   -1    0    0    0  501  0.00000000000E+00  0.00000000000E+00  0.13783347359E+04  0.13783347359E+04  0.25500000920E-02 0.  1.
        2   -1    0    0  501    0  0.00000000000E+00  0.00000000000E+00 -0.27592006638E+04  0.27592006638E+04  0.25500000920E-02 0. -1.
    10030    2    1    2    0    0  0.00000000000E+00  0.00000000000E+00 -0.13808659279E+04  0.41375353996E+04  0.39003087663E+04 0.  0.
        2    1    3    3  502    0  0.75598159985E+02  0.12974652486E+04  0.85195008075E+03  0.15540109694E+04  0.25500000920E-02 0.  1.
       -2    1    3    3    0  502 -0.75598159985E+02 -0.12974652486E+04 -0.22328160087E+04  0.25835244302E+04  0.25500000920E-02 0. -1.
</event>
<event>
 5   0  0.1164500E-08  0.3897562E+04  0.7818609E-02  0.8025536E-01
        1   -1    0    0  501    0  0.00000000000E+00  0.00000000000E+00  0.23181892847E+04  0.23181892847E+04  0.50400001928E-02 0.  1.
       -1   -1    0    0    0  501  0.00000000000E+00  0.00000000000E+00 -0.16382390480E+04  0.16382390480E+04  0.50400001928E-02 0. -1.
    10030    2    1    2    0    0  0.00000000000E+00  0.00000000000E+00  0.67995023670E+03  0.39564283327E+04  0.38975624212E+04 0.  0.
        1    1    3    3  502    0 -0.10552469897E+04 -0.52961406484E+03 -0.12338314153E+04  0.17077403867E+04  0.50400001928E-02 0. -1.
       -1    1    3    3    0  502  0.10552469897E+04  0.52961406484E+03  0.19137816520E+04  0.22486879460E+04  0.50400001928E-02 0.  1.
</event>
<event>
 5   0  0.3872969E-08  0.3896343E+04  0.7818609E-02  0.8025790E-01
       -2   -1    0    0    0  501  0.00000000000E+00  0.00000000000E+00  0.25677251790E+04  0.25677251790E+04  0.25500000920E-02 0.  1.
        2   -1    0    0  501    0  0.00000000000E+00  0.00000000000E+00 -0.14781068239E+04  0.14781068239E+04  0.25500000920E-02 0. -1.
    10030    2    1    2    0    0  0.00000000000E+00  0.00000000000E+00  0.10896183551E+04  0.40458320029E+04  0.38963429567E+04 0.  0.
        2    1    3    3  502    0 -0.14832023337E+04 -0.68321241052E+01  0.18563759302E+04  0.23761454995E+04  0.25500000920E-02 0.  1.
       -2    1    3    3    0  502  0.14832023337E+04  0.68321241052E+01 -0.76675757517E+03  0.16696865034E+04  0.25500000920E-02 0. -1.
</event>
<event>
 5   0  0.3872969E-08  0.3900256E+04  0.7818609E-02  0.8024976E-01
       -2   -1    0    0    0  501  0.00000000000E+00  0.00000000000E+00  0.16295108155E+04  0.16295108155E+04  0.25500000920E-02 0.  1.
        2   -1    0    0  501    0  0.00000000000E+00  0.00000000000E+00 -0.23338291230E+04  0.23338291230E+04  0.25500000920E-02 0. -1.
    10030    2    1    2    0    0  0.00000000000E+00  0.00000000000E+00 -0.70431830749E+03  0.39633399386E+04  0.39002562980E+04 0.  0.
        2    1    3    3  502    0 -0.96959776562E+03  0.33192014298E+03 -0.20381232718E+04  0.22812797460E+04  0.25500000920E-02 0. -1.
       -2    1    3    3    0  502  0.96959776562E+03 -0.33192014298E+03  0.13338049643E+04  0.16820601925E+04  0.25500000920E-02 0.  1.
</event>
<event>
 5   0  0.3872969E-08  0.3915319E+04  0.7818609E-02  0.8021851E-01
        2   -1    0    0  501    0  0.00000000000E+00  0.00000000000E+00  0.16135736710E+04  0.16135736710E+04  0.25500000920E-02 0.  1.
       -2   -1    0    0    0  501  0.00000000000E+00  0.00000000000E+00 -0.23751200519E+04  0.23751200519E+04  0.25500000920E-02 0. -1.
    10030    2    1    2    0    0  0.00000000000E+00  0.00000000000E+00 -0.76154638091E+03  0.39886937229E+04  0.39153192366E+04 0.  0.
        2    1    3    3  502    0  0.92961786690E+02 -0.30511618788E+03  0.15869241151E+04  0.16186617711E+04  0.25500000920E-02 0.  1.
       -2    1    3    3    0  502 -0.92961786690E+02  0.30511618788E+03 -0.23484704960E+04  0.23700319518E+04  0.25500000920E-02 0. -1.
</event>
<event>
 5   0  0.3769985E-08  0.3898253E+04  0.7818609E-02  0.8025393E-01
       -2   -1    0    0    0  501  0.00000000000E+00  0.00000000000E+00  0.17109446202E+04  0.17109446202E+04  0.25500000920E-02 0.  1.
        2   -1    0    0  501    0  0.00000000000E+00  0.00000000000E+00 -0.22204654859E+04  0.22204654859E+04  0.25500000920E-02 0. -1.
    10030    2    1    2    0    0  0.00000000000E+00  0.00000000000E+00 -0.50952086571E+03  0.39314101060E+04  0.38982526739E+04 0.  0.
        1    1    3    3  502    0  0.69560183604E+03 -0.90695955847E+03 -0.18470041040E+04  0.21720639298E+04  0.50400001928E-02 0. -1.
       -1    1    3    3    0  502 -0.69560183604E+03  0.90695955847E+03  0.13374832383E+04  0.17593461762E+04  0.50400001928E-02 0.  1.
</event>
<event>
 5   0  0.1164500E-08  0.3900949E+04  0.7818609E-02  0.8024832E-01
       -1   -1    0    0    0  501  0.00000000000E+00  0.00000000000E+00  0.19736659977E+04  0.19736659977E+04  0.50400001928E-02 0.  1.
        1   -1    0    0  501    0  0.00000000000E+00  0.00000000000E+00 -0.19275554281E+04  0.19275554281E+04  0.50400001928E-02 0. -1.
    10030    2    1    2    0    0  0.00000000000E+00  0.00000000000E+00  0.46110569589E+02  0.39012214259E+04  0.39009489139E+04 0.  0.
        2    1    3    3  502    0 -0.53362831248E+03 -0.18759341910E+04  0.44558938687E+02  0.19508648758E+04  0.25500000920E-02 0.  1.
       -2    1    3    3    0  502  0.53362831248E+03  0.18759341910E+04  0.15516309013E+01  0.19503565500E+04  0.25500000920E-02 0. -1.
</event>
<event>
 5   0  0.3724293E-08  0.3844620E+04  0.7818609E-02  0.8036647E-01
        2   -1    0    0  501    0  0.00000000000E+00  0.00000000000E+00  0.17891325195E+04  0.17891325195E+04  0.25500000920E-02 0. -1.
       -2   -1    0    0    0  501  0.00000000000E+00  0.00000000000E+00 -0.20654010611E+04  0.20654010611E+04  0.25500000920E-02 0.  1.
    10030    2    1    2    0    0  0.00000000000E+00  0.00000000000E+00 -0.27626854160E+03  0.38545335805E+04  0.38446202435E+04 0.  0.
        4    1    3    3  502    0  0.97573425521E+03 -0.47953501082E+03 -0.17275495771E+04  0.20411860076E+04  0.12699999809E+01 0.  1.
       -4    1    3    3    0  502 -0.97573425521E+03  0.47953501082E+03  0.14512810355E+04  0.18133475729E+04  0.12699999809E+01 0. -1.
</event>
<event>
 5   0  0.3669347E-08  0.3905190E+04  0.7818609E-02  0.8023951E-01
       -2   -1    0    0    0  501  0.00000000000E+00  0.00000000000E+00  0.27226128655E+04  0.27226128655E+04  0.25500000920E-02 0. -1.
        2   -1    0    0  501    0  0.00000000000E+00  0.00000000000E+00 -0.14003563411E+04  0.14003563411E+04  0.25500000920E-02 0.  1.
    10030    2    1    2    0    0  0.00000000000E+00  0.00000000000E+00  0.13222565245E+04  0.41229692066E+04  0.39051904899E+04 0.  0.
        5    1    3    3  502    0  0.12156540160E+04 -0.15092126667E+04  0.40891596824E+03  0.19805988788E+04  0.46999998093E+01 0.  1.
       -5    1    3    3    0  502 -0.12156540160E+04  0.15092126667E+04  0.91334055621E+03  0.21423703278E+04  0.46999998093E+01 0. -1.
</event>
<event>
 5   0  0.1164500E-08  0.3920752E+04  0.7818609E-02  0.8020727E-01
        1   -1    0    0  501    0  0.00000000000E+00  0.00000000000E+00  0.19601531136E+04  0.19601531136E+04  0.50400001928E-02 0. -1.
       -1   -1    0    0    0  501  0.00000000000E+00  0.00000000000E+00 -0.19605987598E+04  0.19605987598E+04  0.50400001928E-02 0.  1.
    10030    2    1    2    0    0  0.00000000000E+00  0.00000000000E+00 -0.44564625520E+00  0.39207518734E+04  0.39207518481E+04 0.  0.
        5    1    3    3  502    0 -0.57729365692E+03  0.18729792853E+04 -0.41843780857E+02  0.19603806675E+04  0.46999998093E+01 0. -1.
       -5    1    3    3    0  502  0.57729365692E+03 -0.18729792853E+04  0.41398134602E+02  0.19603712059E+04  0.46999998093E+01 0.  1.
</event>
<event>
 5   0  0.3669347E-08  0.3960968E+04  0.7818609E-02  0.8012467E-01
       -2   -1    0    0    0  501  0.00000000000E+00  0.00000000000E+00  0.17252314481E+04  0.17252314481E+04  0.25500000920E-02 0. -1.
        2   -1    0    0  501    0  0.00000000000E+00  0.00000000000E+00 -0.22735024004E+04  0.22735024004E+04  0.25500000920E-02 0.  1.
    10030    2    1    2    0    0  0.00000000000E+00  0.00000000000E+00 -0.54827095230E+03  0.39987338484E+04  0.39609684868E+04 0.  0.
        5    1    3    3  502    0 -0.19530089562E+04 -0.27403886527E+03 -0.90871017427E+02  0.19742393256E+04  0.46999998093E+01 0.  1.
       -5    1    3    3    0  502  0.19530089562E+04  0.27403886527E+03 -0.45739993487E+03  0.20244945229E+04  0.46999998093E+01 0. -1.
</event>
<event>
 5   0  0.1164500E-08  0.3902804E+04  0.7818609E-02  0.8024446E-01
        1   -1    0    0  501    0  0.00000000000E+00  0.00000000000E+00  0.13813984985E+04  0.13813984986E+04  0.50400001928E-02 0.  1.
       -1   -1    0    0    0  501  0.00000000000E+00  0.00000000000E+00 -0.27566052962E+04  0.27566052962E+04  0.50400001928E-02 0. -1.
    10030    2    1    2    0    0  0.00000000000E+00  0.00000000000E+00 -0.13752067977E+04  0.41380037948E+04  0.39028043340E+04 0.  0.
        5    1    3    3  502    0  0.58784573340E+03 -0.13145149537E+04  0.70874330873E+03  0.16049458986E+04  0.46999998093E+01 0.  1.
       -5    1    3    3    0  502 -0.58784573340E+03  0.13145149537E+04 -0.20839501064E+04  0.25330578962E+04  0.46999998093E+01 0. -1.
</event>
<event>
 5   0  0.3669347E-08  0.3901272E+04  0.7818609E-02  0.8024765E-01
        2   -1    0    0  501    0  0.00000000000E+00  0.00000000000E+00  0.19893424152E+04  0.19893424152E+04  0.25500000920E-02 0. -1.
       -2   -1    0    0    0  501  0.00000000000E+00  0.00000000000E+00 -0.19126823999E+04  0.19126823999E+04  0.25500000920E-02 0.  1.
    10030    2    1    2    0    0  0.00000000000E+00  0.00000000000E+00  0.76660015334E+02  0.39020248151E+04  0.39012717029E+04 0.  0.
        5    1    3    3  502    0  0.55191944020E+03  0.18432526132E+04  0.35895837446E+03  0.19573115411E+04  0.46999998093E+01 0.  1.
       -5    1    3    3    0  502 -0.55191944020E+03 -0.18432526132E+04 -0.28229835913E+03  0.19447132740E+04  0.46999998093E+01 0. -1.
</event>
<event>
 5   0  0.3872969E-08  0.3901031E+04  0.7818609E-02  0.8024815E-01
       -2   -1    0    0    0  501  0.00000000000E+00  0.00000000000E+00  0.27168943443E+04  0.27168943443E+04  0.25500000920E-02 0. -1.
        2   -1    0    0  501    0  0.00000000000E+00  0.00000000000E+00 -0.14003159789E+04  0.14003159789E+04  0.25500000920E-02 0.  1.
    10030    2    1    2    0    0  0.00000000000E+00  0.00000000000E+00  0.13165783654E+04  0.41172103232E+04  0.39010309218E+04 0.  0.
        2    1    3    3  502    0 -0.19414717501E+04 -0.18103822076E+03  0.71024277295E+03  0.20752185885E+04  0.25500000920E-02 0.  1.
       -2    1    3    3    0  502  0.19414717501E+04  0.18103822076E+03  0.60633559242E+03  0.20419917346E+04  0.25500000920E-02 0. -1.
</event>
<event>
 5   0  0.1164500E-08  0.3904546E+04  0.7818609E-02  0.8024084E-01
       -1   -1    0    0    0  501  0.00000000000E+00  0.00000000000E+00  0.22304690367E+04  0.22304690367E+04  0.50400001928E-02 0.  1.
        1   -1    0    0  501    0  0.00000000000E+00  0.00000000000E+00 -0.17087748378E+04  0.17087748378E+04  0.50400001928E-02 0. -1.
    10030    2    1    2    0    0  0.00000000000E+00  0.00000000000E+00  0.52169419894E+03  0.39392438745E+04  0.39045457439E+04 0.  0.
        1    1    3    3  502    0  0.29139514763E+03  0.12029567933E+04 -0.12623221576E+04  0.17679008480E+04  0.50400001928E-02 0. -1.
       -1    1    3    3    0  502 -0.29139514763E+03 -0.12029567933E+04  0.17840163566E+04  0.21713430266E+04  0.50400001928E-02 0.  1.
</event>
<event>
 5   0  0.1164500E-08  0.3937900E+04  0.7818609E-02  0.8017193E-01
       -1   -1    0    0    0  501  0.00000000000E+00  0.00000000000E+00  0.14134483897E+04  0.14134483897E+04  0.50400001928E-02 0.  1.
        1   -1    0    0  501    0  0.00000000000E+00  0.00000000000E+00 -0.27427700536E+04  0.27427700536E+04  0.50400001928E-02 0. -1.
    10030    2    1    2    0    0  0.00000000000E+00  0.00000000000E+00 -0.13293216639E+04  0.41562184433E+04  0.39378999051E+04 0.  0.
        3    1    3    3  502    0 -0.14249508264E+04 -0.13416444880E+04 -0.43763290113E+03  0.20054967854E+04  0.10100000352E+00 0.  1.
       -3    1    3    3    0  502  0.14249508264E+04  0.13416444880E+04 -0.89168876277E+03  0.21507216579E+04  0.10100000352E+00 0. -1.
</event>
<event>
 5   0  0.3724293E-08  0.3887478E+04  0.7818609E-02  0.8027639E-01
       -2   -1    0    0    0  501  0.00000000000E+00  0.00000000000E+00  0.12500527580E+04  0.12500527580E+04  0.25500000920E-02 0.  1.
        2   -1    0    0  501    0  0.00000000000E+00  0.00000000000E+00 -0.30223701009E+04  0.30223701009E+04  0.25500000920E-02 0. -1.
    10030    2    1    2    0    0  0.00000000000E+00  0.00000000000E+00 -0.17723173430E+04  0.42724228589E+04  0.38874784014E+04 0.  0.
        4    1    3    3  502    0  0.12274400479E+04 -0.11760518423E+03  0.76518502827E+03  0.14511890955E+04  0.12699999809E+01 0.  1.
       -4    1    3    3    0  502 -0.12274400479E+04  0.11760518423E+03 -0.25375023713E+04  0.28212337634E+04  0.12699999809E+01 0. -1.
</event>
<event>
 5   0  0.3724293E-08  0.3883467E+04  0.7818609E-02  0.8028476E-01
        2   -1    0    0  501    0  0.00000000000E+00  0.00000000000E+00  0.14459679035E+04  0.14459679036E+04  0.25500000920E-02 0. -1.
       -2   -1    0    0    0  501  0.00000000000E+00  0.00000000000E+00 -0.26074782020E+04  0.26074782020E+04  0.25500000920E-02 0.  1.
    10030    2    1    2    0    0  0.00000000000E+00  0.00000000000E+00 -0.11615102985E+04  0.40534461056E+04  0.38834674142E+04 0.  0.
        4    1    3    3  502    0  0.13562936982E+04  0.12460763060E+04  0.61048231121E+02  0.18428150356E+04  0.12699999809E+01 0. -1.
       -4    1    3    3    0  502 -0.13562936982E+04 -0.12460763060E+04 -0.12225585296E+04  0.22106310699E+04  0.12699999809E+01 0.  1.
</event>
<event>
 5   0  0.3769985E-08  0.3907692E+04  0.7818609E-02  0.8023431E-01
        2   -1    0    0  501    0  0.00000000000E+00  0.00000000000E+00  0.17825982053E+04  0.17825982053E+04  0.25500000920E-02 0.  1.
       -2   -1    0    0    0  501  0.00000000000E+00  0.00000000000E+00 -0.21415450643E+04  0.21415450643E+04  0.25500000920E-02 0. -1.
    10030    2    1    2    0    0  0.00000000000E+00  0.00000000000E+00 -0.35894685903E+03  0.39241432696E+04  0.39076921006E+04 0.  0.
        1    1    3    3  502    0 -0.19272924466E+04  0.86434159396E+02 -0.48994706534E+03  0.19904710914E+04  0.50400001928E-02 0. -1.
       -1    1    3    3    0  502  0.19272924466E+04 -0.86434159396E+02  0.13100020631E+03  0.19336721782E+04  0.50400001928E-02 0.  1.
</event>
<event>
 5   0  0.3669347E-08  0.3899682E+04  0.7818609E-02  0.8025095E-01
       -2   -1    0    0    0  501  0.00000000000E+00  0.00000000000E+00  0.19595588147E+04  0.19595588147E+04  0.25500000920E-02 0. -1.
        2   -1    0    0  501    0  0.00000000000E+00  0.00000000000E+00 -0.19401711086E+04  0.19401711086E+04  0.25500000920E-02 0.  1.
    10030    2    1    2    0    0  0.00000000000E+00  0.00000000000E+00  0.19387706078E+02  0.38997299232E+04  0.38996817295E+04 0.  0.
        5    1    3    3  502    0 -0.11244071814E+04 -0.15894290612E+04 -0.96519783247E+02  0.19493369151E+04  0.46999998093E+01 0.  1.
       -5    1    3    3    0  502  0.11244071814E+04  0.15894290612E+04  0.11590748932E+03  0.19503930081E+04  0.46999998093E+01 0. -1.
</event>
<event>
 5   0  0.1164500E-08  0.3908535E+04  0.7818609E-02  0.8023256E-01
        1   -1    0    0  501    0  0.00000000000E+00  0.00000000000E+00  0.15525806915E+04  0.15525806915E+04  0.50400001928E-02 0. -1.
       -1   -1    0    0    0  501  0.00000000000E+00  0.00000000000E+00 -0.24598795588E+04  0.24598795588E+04  0.50400001928E-02 0.  1.
    10030    2    1    2    0    0  0.00000000000E+00  0.00000000000E+00 -0.90729886734E+03  0.40124602503E+04  0.39085350229E+04 0.  0.
        3    1    3    3  502    0 -0.16646754895E+04 -0.60477067151E+03 -0.13016081260E+04  0.21979708311E+04  0.10100000352E+00 0.  1.
       -3    1    3    3    0  502  0.16646754895E+04  0.60477067151E+03  0.39430925865E+03  0.18144894192E+04  0.10100000352E+00 0. -1.
</event>
<event>
 5   0  0.1164500E-08  0.3903268E+04  0.7818609E-02  0.8024350E-01
        1   -1    0    0  501    0  0.00000000000E+00  0.00000000000E+00  0.33006817407E+04  0.33006817407E+04  0.50400001928E-02 0.  1.
       -1   -1    0    0    0  501  0.00000000000E+00  0.00000000000E+00 -0.11539664796E+04  0.11539664796E+04  0.50400001928E-02 0. -1.
    10030    2    1    2    0    0  0.00000000000E+00  0.00000000000E+00  0.21467152611E+04  0.44546482203E+04  0.39032684194E+04 0.  0.
        1    1    3    3  502    0  0.94668135219E+03  0.16558039734E+04  0.60144417439E+03  0.19999068668E+04  0.50400001928E-02 0. -1.
       -1    1    3    3    0  502 -0.94668135219E+03 -0.16558039734E+04  0.15452710867E+04  0.24547413535E+04  0.50400001928E-02 0.  1.
</event>
<event>
 5   0  0.3872969E-08  0.3886061E+04  0.7818609E-02  0.8027935E-01
        2   -1    0    0  501    0  0.00000000000E+00  0.00000000000E+00  0.20428284425E+04  0.20428284425E+04  0.25500000920E-02 0.  1.
       -2   -1    0    0    0  501  0.00000000000E+00  0.00000000000E+00 -0.18481077219E+04  0.18481077219E+04  0.25500000920E-02 0. -1.
    10030    2    1    2    0    0  0.00000000000E+00  0.00000000000E+00  0.19472072058E+03  0.38909361644E+04  0.38860607401E+04 0.  0.
        2    1    3    3  502    0  0.43695038861E+03 -0.74307822625E+03  0.18408882332E+04  0.20327224059E+04  0.25500000920E-02 0.  1.
       -2    1    3    3    0  502 -0.43695038861E+03  0.74307822625E+03 -0.16461675126E+04  0.18582137584E+04  0.25500000920E-02 0. -1.
</event>
<event>
 5   0  0.1164500E-08  0.3884949E+04  0.7818609E-02  0.8028167E-01
        1   -1    0    0  501    0  0.00000000000E+00  0.00000000000E+00  0.30071021818E+04  0.30071021818E+04  0.50400001928E-02 0. -1.
       -1   -1    0    0    0  501  0.00000000000E+00  0.00000000000E+00 -0.12547653805E+04  0.12547653805E+04  0.50400001928E-02 0.  1.
    10030    2    1    2    0    0  0.00000000000E+00  0.00000000000E+00  0.17523368013E+04  0.42618675623E+04  0.38849492730E+04 0.  0.
        5    1    3    3  502    0  0.36923011519E+02  0.98511417015E+02 -0.12516315446E+04  0.12560539086E+04  0.46999998093E+01 0.  1.
       -5    1    3    3    0  502 -0.36923011519E+02 -0.98511417015E+02  0.30039683458E+04  0.30058136537E+04  0.46999998093E+01 0. -1.
</event>
<event>
 5   0  0.1164500E-08  0.3910110E+04  0.7818609E-02  0.8022930E-01
       -1   -1    0    0    0  501  0.00000000000E+00  0.00000000000E+00  0.21289340295E+04  0.21289340295E+04  0.50400001928E-02 0.  1.
        1   -1    0    0  501    0  0.00000000000E+00  0.00000000000E+00 -0.17953777651E+04  0.17953777651E+04  0.50400001928E-02 0. -1.
    10030    2    1    2    0    0  0.00000000000E+00  0.00000000000E+00  0.33355626437E+03  0.39243117946E+04  0.39101103923E+04 0.  0.
        3    1    3    3  502    0 -0.74412169939E+03 -0.14744819706E+04  0.12167261833E+04  0.20513987424E+04  0.10100000352E+00 0.  1.
       -3    1    3    3    0  502  0.74412169939E+03  0.14744819706E+04 -0.88316991894E+03  0.18729130522E+04  0.10100000352E+00 0. -1.
</event>
<event>
 5   0  0.1164500E-08  0.3903286E+04  0.7818609E-02  0.8024346E-01
        1   -1    0    0  501    0  0.00000000000E+00  0.00000000000E+00  0.12063021537E+04  0.12063021537E+04  0.50400001928E-02 0.  1.
       -1   -1    0    0    0  501  0.00000000000E+00  0.00000000000E+00 -0.31575089038E+04  0.31575089038E+04  0.50400001928E-02 0. -1.
    10030    2    1    2    0    0  0.00000000000E+00  0.00000000000E+00 -0.19512067501E+04  0.43638110575E+04  0.39032856883E+04 0.  0.
        2    1    3    3  502    0 -0.10544855334E+04  0.92928547190E+03 -0.24893878346E+04  0.28587694939E+04  0.25500000920E-02 0. -1.
       -2    1    3    3    0  502  0.10544855334E+04 -0.92928547190E+03  0.53818108449E+03  0.15050415636E+04  0.25500000920E-02 0.  1.
</event>
<event>
 5   0  0.3872969E-08  0.3900962E+04  0.7818609E-02  0.8024829E-01
       -2   -1    0    0    0  501  0.00000000000E+00  0.00000000000E+00  0.20720364214E+04  0.20720364214E+04  0.25500000920E-02 0. -1.
        2   -1    0    0  501    0  0.00000000000E+00  0.00000000000E+00 -0.18360564827E+04  0.18360564827E+04  0.25500000920E-02 0.  1.
    10030    2    1    2    0    0  0.00000000000E+00  0.00000000000E+00  0.23597993874E+03  0.39080929042E+04  0.39009618834E+04 0.  0.
        2    1    3    3  502    0 -0.17101780817E+04 -0.92886310466E+03  0.24815116428E+03  0.19619058944E+04  0.25500000920E-02 0. -1.
       -2    1    3    3    0  502  0.17101780817E+04  0.92886310466E+03 -0.12171225545E+02  0.19461870097E+04  0.25500000920E-02 0.  1.
</event>
<event>
 5   0  0.3690572E-08  0.3904711E+04  0.7818609E-02  0.8024050E-01
       -2   -1    0    0    0  501  0.00000000000E+00  0.00000000000E+00  0.12688898277E+04  0.12688898277E+04  0.25500000920E-02 0.  1.
        2   -1    0    0  501    0  0.00000000000E+00  0.00000000000E+00 -0.30039579503E+04  0.30039579503E+04  0.25500000920E-02 0. -1.
    10030    2    1    2    0    0  0.00000000000E+00  0.00000000000E+00 -0.17350681226E+04  0.42728477780E+04  0.39047108400E+04 0.  0.
        3    1    3    3  502    0  0.20589359501E+03  0.36583698953E+02  0.12565991556E+04  0.12738806803E+04  0.10100000352E+00 0.  1.
       -3    1    3    3    0  502 -0.20589359501E+03 -0.36583698953E+02 -0.29916672782E+04  0.29989670977E+04  0.10100000352E+00 0. -1.
</event>
<event>
 5   0  0.1164500E-08  0.3898492E+04  0.7818609E-02  0.8025343E-01
        1   -1    0    0  501    0  0.00000000000E+00  0.00000000000E+00  0.22943450018E+04  0.22943450018E+04  0.50400001928E-02 0. -1.
       -1   -1    0    0    0  501  0.00000000000E+00  0.00000000000E+00 -0.16560543972E+04  0.16560543972E+04  0.50400001928E-02 0.  1.
    10030    2    1    2    0    0  0.00000000000E+00  0.00000000000E+00  0.63829060456E+03  0.39503993990E+04  0.38984920823E+04 0.  0.
        5    1    3    3  502    0  0.72911338229E+03  0.83975595084E+02  0.21489795266E+04  0.22708573977E+04  0.46999998093E+01 0. -1.
       -5    1    3    3    0  502 -0.72911338229E+03 -0.83975595084E+02 -0.15106889221E+04  0.16795420013E+04  0.46999998093E+01 0.  1.
</event>
<event>
 5   0  0.1164500E-08  0.3895970E+04  0.7818609E-02  0.8025868E-01
        1   -1    0    0  501    0  0.00000000000E+00  0.00000000000E+00  0.21734329600E+04  0.21734329600E+04  0.50400001928E-02 0. -1.
       -1   -1    0    0    0  501  0.00000000000E+00  0.00000000000E+00 -0.17459223345E+04  0.17459223345E+04  0.50400001928E-02 0.  1.
    10030    2    1    2    0    0  0.00000000000E+00  0.00000000000E+00  0.42751062544E+03  0.39193552945E+04  0.38959697881E+04 0.  0.
        1    1    3    3  502    0  0.12789860052E+04  0.98267390054E+03 -0.88513466309E+03  0.18398142755E+04  0.50400001928E-02 0.  1.
       -1    1    3    3    0  502 -0.12789860052E+04 -0.98267390054E+03  0.13126452885E+04  0.20795410190E+04  0.50400001928E-02 0. -1.
</event>
<event>
 5   0  0.1164500E-08  0.3897159E+04  0.7818609E-02  0.8025620E-01
        1   -1    0    0  501    0  0.00000000000E+00  0.00000000000E+00  0.12583562612E+04  0.12583562612E+04  0.50400001928E-02 0.  1.
       -1   -1    0    0    0  501  0.00000000000E+00  0.00000000000E+00 -0.30173985336E+04  0.30173985337E+04  0.50400001928E-02 0. -1.
    10030    2    1    2    0    0  0.00000000000E+00  0.00000000000E+00 -0.17590422724E+04  0.42757547949E+04  0.38971591384E+04 0.  0.
        5    1    3    3  502    0 -0.49018137144E+03 -0.16451512439E+03  0.11817125288E+04  0.12898874345E+04  0.46999998093E+01 0.  1.
       -5    1    3    3    0  502  0.49018137144E+03  0.16451512439E+03 -0.29407548012E+04  0.29858673604E+04  0.46999998093E+01 0. -1.
</event>
<event>
 5   0  0.3669347E-08  0.3902292E+04  0.7818609E-02  0.8024553E-01
        2   -1    0    0  501    0  0.00000000000E+00  0.00000000000E+00  0.28133359390E+04  0.28133359390E+04  0.25500000920E-02 0. -1.
       -2   -1    0    0    0  501  0.00000000000E+00  0.00000000000E+00 -0.13531870831E+04  0.13531870831E+04  0.25500000920E-02 0.  1.
    10030    2    1    2    0    0  0.00000000000E+00  0.00000000000E+00  0.14601488559E+04  0.41665230221E+04  0.39022915591E+04 0.  0.
        5    1    3    3  502    0  0.10265755666E+04 -0.13265151927E+04 -0.33413377042E+03  0.17103120817E+04  0.46999998093E+01 0.  1.
       -5    1    3    3    0  502 -0.10265755666E+04  0.13265151927E+04  0.17942826263E+04  0.24562109404E+04  0.46999998093E+01 0. -1.
</event>
<event>
 5   0  0.3872969E-08  0.3929784E+04  0.7818609E-02  0.8018863E-01
        2   -1    0    0  501    0  0.00000000000E+00  0.00000000000E+00  0.19789498639E+04  0.19789498639E+04  0.25500000920E-02 0.  1.
       -2   -1    0    0    0  501  0.00000000000E+00  0.00000000000E+00 -0.19509343885E+04  0.19509343885E+04  0.25500000920E-02 0. -1.
    10030    2    1    2    0    0  0.00000000000E+00  0.00000000000E+00  0.28015475374E+02  0.39298842524E+04  0.39297843923E+04 0.  0.
        2    1    3    3  502    0  0.12447020688E+04  0.15192174610E+04 -0.45124201759E+02  0.19645205847E+04  0.25500000920E-02 0. -1.
       -2    1    3    3    0  502 -0.12447020688E+04 -0.15192174610E+04  0.73139677133E+02  0.19653636677E+04  0.25500000920E-02 0.  1.
</event>
<event>
 5   0  0.3872969E-08  0.3895057E+04  0.7818609E-02  0.8026058E-01
        2   -1    0    0  501    0  0.00000000000E+00  0.00000000000E+00  0.21195999588E+04  0.21195999588E+04  0.25500000920E-02 0. -1.
       -2   -1    0    0    0  501  0.00000000000E+00  0.00000000000E+00 -0.17894257485E+04  0.17894257485E+04  0.25500000920E-02 0.  1.
    10030    2    1    2    0    0  0.00000000000E+00  0.00000000000E+00  0.33017421030E+03  0.39090257073E+04  0.38950567353E+04 0.  0.
        2    1    3    3  502    0  0.15493454228E+04 -0.59951951268E+03 -0.85491010386E+03  0.18683592189E+04  0.25500000920E-02 0.  1.
       -2    1    3    3    0  502 -0.15493454228E+04  0.59951951268E+03  0.11850843142E+04  0.20406664884E+04  0.25500000920E-02 0. -1.
</event>
<event>
 5   0  0.3669347E-08  0.3882381E+04  0.7818609E-02  0.8028704E-01
       -2   -1    0    0    0  501  0.00000000000E+00  0.00000000000E+00  0.14088559097E+04  0.14088559097E+04  0.25500000920E-02 0.  1.
        2   -1    0    0  501    0  0.00000000000E+00  0.00000000000E+00 -0.26746672842E+04  0.26746672842E+04  0.25500000920E-02 0. -1.
    10030    2    1    2    0    0  0.00000000000E+00  0.00000000000E+00 -0.12658113746E+04  0.40835231939E+04  0.38823811301E+04 0.  0.
        5    1    3    3  502    0 -0.17785228734E+04 -0.38115403608E+03 -0.13461040591E+04  0.22628389775E+04  0.46999998093E+01 0. -1.
       -5    1    3    3    0  502  0.17785228734E+04  0.38115403608E+03  0.80292684490E+02  0.18206842163E+04  0.46999998093E+01 0.  1.
</event>
<event>
 5   0  0.3769985E-08  0.3903302E+04  0.7818609E-02  0.8024343E-01
       -2   -1    0    0    0  501  0.00000000000E+00  0.00000000000E+00  0.14176299594E+04  0.14176299594E+04  0.25500000920E-02 0.  1.
        2   -1    0    0  501    0  0.00000000000E+00  0.00000000000E+00 -0.26868380213E+04  0.26868380213E+04  0.25500000920E-02 0. -1.
    10030    2    1    2    0    0  0.00000000000E+00  0.00000000000E+00 -0.12692080619E+04  0.41044679807E+04  0.39033022302E+04 0.  0.
        1    1    3    3  502    0 -0.60792314386E+03  0.68192306705E+03  0.11789099481E+04  0.14914483846E+04  0.50400001928E-02 0.  1.
       -1    1    3    3    0  502  0.60792314386E+03 -0.68192306705E+03 -0.24481180100E+04  0.26130195960E+04  0.50400001928E-02 0. -1.
</event>
<event>
 5   0  0.3872969E-08  0.3897423E+04  0.7818609E-02  0.8025565E-01
        2   -1    0    0  501    0  0.00000000000E+00  0.00000000000E+00  0.24239478945E+04  0.24239478945E+04  0.25500000920E-02 0. -1.
       -2   -1    0    0    0  501  0.00000000000E+00  0.00000000000E+00 -0.15666491527E+04  0.15666491527E+04  0.25500000920E-02 0.  1.
    10030    2    1    2    0    0  0.00000000000E+00  0.00000000000E+00  0.85729874174E+03  0.39905970472E+04  0.38974226946E+04 0.  0.
        2    1    3    3  502    0 -0.93877775000E+03 -0.16013256931E+04  0.10360670780E+04  0.21257898836E+04  0.25500000920E-02 0.  1.
       -2    1    3    3    0  502  0.93877775000E+03  0.16013256931E+04 -0.17876833625E+03  0.18648071636E+04  0.25500000920E-02 0. -1.
</event>
<event>
 5   0  0.3769985E-08  0.3899970E+04  0.7818609E-02  0.8025035E-01
       -2   -1    0    0    0  501  0.00000000000E+00  0.00000000000E+00  0.17672784797E+04  0.17672784797E+04  0.25500000920E-02 0. -1.
        2   -1    0    0  501    0  0.00000000000E+00  0.00000000000E+00 -0.21515799896E+04  0.21515799896E+04  0.25500000920E-02 0.  1.
    10030    2    1    2    0    0  0.00000000000E+00  0.00000000000E+00 -0.38430150991E+03  0.39188584692E+04  0.38999697501E+04 0.  0.
        1    1    3    3  502    0 -0.13534721989E+04  0.17073273383E+03 -0.15922420009E+04  0.20967287018E+04  0.50400001928E-02 0.  1.
       -1    1    3    3    0  502  0.13534721989E+04 -0.17073273383E+03  0.12079404910E+04  0.18221297674E+04  0.50400001928E-02 0. -1.
</event>
<event>
 5   0  0.1164500E-08  0.3897503E+04  0.7818609E-02  0.8025549E-01
       -1   -1    0    0    0  501  0.00000000000E+00  0.00000000000E+00  0.11992648196E+04  0.11992648196E+04  0.50400001928E-02 0.  1.
        1   -1    0    0  501    0  0.00000000000E+00  0.00000000000E+00 -0.31666329225E+04  0.31666329225E+04  0.50400001928E-02 0. -1.
    10030    2    1    2    0    0  0.00000000000E+00  0.00000000000E+00 -0.19673681029E+04  0.43658977421E+04  0.38975025134E+04 0.  0.
        4    1    3    3  502    0  0.18167376277E+04  0.33557136690E+03 -0.28909573175E+03  0.18699523270E+04  0.12699999809E+01 0.  1.
       -4    1    3    3    0  502 -0.18167376277E+04 -0.33557136690E+03 -0.16782723712E+04  0.24959454151E+04  0.12699999809E+01 0. -1.
</event>
<event>
 5   0  0.1164500E-08  0.3902798E+04  0.7818609E-02  0.8024448E-01
       -1   -1    0    0    0  501  0.00000000000E+00  0.00000000000E+00  0.15349735803E+04  0.15349735803E+04  0.50400001928E-02 0. -1.
        1   -1    0    0  501    0  0.00000000000E+00  0.00000000000E+00 -0.24807969497E+04  0.24807969497E+04  0.50400001928E-02 0.  1.
    10030    2    1    2    0    0  0.00000000000E+00  0.00000000000E+00 -0.94582336944E+03  0.40157705300E+04  0.39027978558E+04 0.  0.
        1    1    3    3  502    0  0.12047195675E+04 -0.30063006647E+03  0.10760648281E+04  0.16430590944E+04  0.50400001928E-02 0.  1.
       -1    1    3    3    0  502 -0.12047195675E+04  0.30063006647E+03 -0.20218881975E+04  0.23727114356E+04  0.50400001928E-02 0. -1.
</event>
<event>
 5   0  0.1164500E-08  0.3901711E+04  0.7818609E-02  0.8024673E-01
        1   -1    0    0  501    0  0.00000000000E+00  0.00000000000E+00  0.20705903096E+04  0.20705903096E+04  0.50400001928E-02 0. -1.
       -1   -1    0    0    0  501  0.00000000000E+00  0.00000000000E+00 -0.18380446032E+04  0.18380446032E+04  0.50400001928E-02 0.  1.
    10030    2    1    2    0    0  0.00000000000E+00  0.00000000000E+00  0.23254570636E+03  0.39086349128E+04  0.39017110831E+04 0.  0.
        1    1    3    3  502    0  0.19186751141E+03 -0.18965969300E+04  0.53167034977E+03  0.19790316869E+04  0.50400001928E-02 0. -1.
       -1    1    3    3    0  502 -0.19186751141E+03  0.18965969300E+04 -0.29912464341E+03  0.19296032259E+04  0.50400001928E-02 0.  1.
</event>
<event>
 5   0  0.3724293E-08  0.3902675E+04  0.7818609E-02  0.8024473E-01
       -2   -1    0    0    0  501  0.00000000000E+00  0.00000000000E+00  0.25756058018E+04  0.25756058018E+04  0.25500000920E-02 0.  1.
        2   -1    0    0  501    0  0.00000000000E+00  0.00000000000E+00 -0.14783772978E+04  0.14783772978E+04  0.25500000920E-02 0. -1.
    10030    2    1    2    0    0  0.00000000000E+00  0.00000000000E+00  0.10972285040E+04  0.40539830996E+04  0.39026745422E+04 0.  0.
        4    1    3    3  502    0 -0.25696067956E+03  0.17127379502E+04  0.14824772633E+04  0.22797457152E+04  0.12699999809E+01 0.  1.
       -4    1    3    3    0  502  0.25696067956E+03 -0.17127379502E+04 -0.38524875927E+03  0.17742373844E+04  0.12699999809E+01 0. -1.
</event>
<event>
 5   0  0.1164500E-08  0.3890697E+04  0.7818609E-02  0.8026967E-01
       -3   -1    0    0    0  501  0.00000000000E+00  0.00000000000E+00  0.20697051757E+04  0.20697051782E+04  0.10100000352E+00 0. -1.
        3   -1    0    0  501    0  0.00000000000E+00  0.00000000000E+00 -0.18284635549E+04  0.18284635576E+04  0.10100000352E+00 0.  1.
    10030    2    1    2    0    0  0.00000000000E+00  0.00000000000E+00  0.24124162087E+03  0.38981687358E+04  0.38906968493E+04 0.  0.
        4    1    3    3  502    0 -0.14538808709E+04  0.12921200910E+04  0.88388169030E+02  0.19470896224E+04  0.12699999809E+01 0. -1.
       -4    1    3    3    0  502  0.14538808709E+04 -0.12921200910E+04  0.15285345184E+03  0.19510791135E+04  0.12699999809E+01 0.  1.
</event>
<event>
 5   0  0.1164500E-08  0.3874384E+04  0.7818609E-02  0.8030378E-01
       -1   -1    0    0    0  501  0.00000000000E+00  0.00000000000E+00  0.13754617880E+04  0.13754617880E+04  0.50400001928E-02 0. -1.
        1   -1    0    0  501    0  0.00000000000E+00  0.00000000000E+00 -0.27283301031E+04  0.27283301031E+04  0.50400001928E-02 0.  1.
    10030    2    1    2    0    0  0.00000000000E+00  0.00000000000E+00 -0.13528683151E+04  0.41037918911E+04  0.38743844940E+04 0.  0.
        2    1    3    3  502    0 -0.79714259914E+02 -0.78998097859E+03 -0.25480606970E+04  0.26689019512E+04  0.25500000920E-02 0.  1.
       -2    1    3    3    0  502  0.79714259914E+02  0.78998097859E+03  0.11951923819E+04  0.14348899398E+04  0.25500000920E-02 0. -1.
</event>
<event>
 5   0  0.1164500E-08  0.3891348E+04  0.7818609E-02  0.8026831E-01
        1   -1    0    0  501    0  0.00000000000E+00  0.00000000000E+00  0.25211543940E+04  0.25211543940E+04  0.50400001928E-02 0. -1.
       -1   -1    0    0    0  501  0.00000000000E+00  0.00000000000E+00 -0.15015528090E+04  0.15015528090E+04  0.50400001928E-02 0.  1.
    10030    2    1    2    0    0  0.00000000000E+00  0.00000000000E+00  0.10196015851E+04  0.40227072030E+04  0.38913475621E+04 0.  0.
        4    1    3    3  502    0 -0.48823945074E+03  0.66043358869E+03  0.23331716396E+04  0.24735079946E+04  0.12699999809E+01 0. -1.
       -4    1    3    3    0  502  0.48823945074E+03 -0.66043358869E+03 -0.13135700546E+04  0.15491992085E+04  0.12699999809E+01 0.  1.
</event>
<event>
 5   0  0.1164500E-08  0.3912234E+04  0.7818609E-02  0.8022490E-01
        1   -1    0    0  501    0  0.00000000000E+00  0.00000000000E+00  0.22245333201E+04  0.22245333201E+04  0.50400001928E-02 0. -1.
       -1   -1    0    0    0  501  0.00000000000E+00  0.00000000000E+00 -0.17200880126E+04  0.17200880126E+04  0.50400001928E-02 0.  1.
    10030    2    1    2    0    0  0.00000000000E+00  0.00000000000E+00  0.50444530749E+03  0.39446213327E+04  0.39122336830E+04 0.  0.
        1    1    3    3  502    0  0.82299899594E+02 -0.56772054209E+03 -0.16333696433E+04  0.17311777145E+04  0.50400001928E-02 0.  1.
       -1    1    3    3    0  502 -0.82299899594E+02  0.56772054209E+03  0.21378149508E+04  0.22134436183E+04  0.50400001928E-02 0. -1.
</event>
<event>
 5   0  0.3690572E-08  0.3902115E+04  0.7818609E-02  0.8024590E-01
       -2   -1    0    0    0  501  0.00000000000E+00  0.00000000000E+00  0.16321292483E+04  0.16321292483E+04  0.25500000920E-02 0.  1.
        2   -1    0    0  501    0  0.00000000000E+00  0.00000000000E+00 -0.23323057986E+04  0.23323057986E+04  0.25500000920E-02 0. -1.
    10030    2    1    2    0    0  0.00000000000E+00  0.00000000000E+00 -0.70017655030E+03  0.39644350468E+04  0.39021145599E+04 0.  0.
        3    1    3    3  502    0 -0.95869922287E+03 -0.14178063266E+04 -0.13017149840E+04  0.21502885596E+04  0.10100000352E+00 0. -1.
       -3    1    3    3    0  502  0.95869922287E+03  0.14178063266E+04  0.60153843367E+03  0.18141464872E+04  0.10100000352E+00 0.  1.
</event>
<event>
 5   0  0.1164500E-08  0.3900608E+04  0.7818609E-02  0.8024903E-01
       -1   -1    0    0    0  501  0.00000000000E+00  0.00000000000E+00  0.17007052707E+04  0.17007052707E+04  0.50400001928E-02 0. -1.
        1   -1    0    0  501    0  0.00000000000E+00  0.00000000000E+00 -0.22365342690E+04  0.22365342690E+04  0.50400001928E-02 0.  1.
    10030    2    1    2    0    0  0.00000000000E+00  0.00000000000E+00 -0.53582899826E+03  0.39372395397E+04  0.39006079625E+04 0.  0.
        2    1    3    3  502    0 -0.11108509583E+04  0.15106557125E+04 -0.80924857496E+03  0.20422913087E+04  0.25500000920E-02 0.  1.
       -2    1    3    3    0  502  0.11108509583E+04 -0.15106557125E+04  0.27341957670E+03  0.18949482310E+04  0.25500000920E-02 0. -1.
</event>
<event>
 5   0  0.3690572E-08  0.3904171E+04  0.7818609E-02  0.8024162E-01
        2   -1    0    0  501    0  0.00000000000E+00  0.00000000000E+00  0.21302874748E+04  0.21302874748E+04  0.25500000920E-02 0. -1.
       -2   -1    0    0    0  501  0.00000000000E+00  0.00000000000E+00 -0.17887907611E+04  0.17887907611E+04  0.25500000920E-02 0.  1.
    10030    2    1    2    0    0  0.00000000000E+00  0.00000000000E+00  0.34149671371E+03  0.39190782360E+04  0.39041713864E+04 0.  0.
        3    1    3    3  502    0 -0.15970302980E+02  0.17669410332E+04  0.10035562869E+04  0.20321075012E+04  0.10100000352E+00 0. -1.
       -3    1    3    3    0  502  0.15970302980E+02 -0.17669410332E+04 -0.66205957317E+03  0.18869707348E+04  0.10100000352E+00 0.  1.
</event>
<event>
 5   0  0.1164500E-08  0.3911429E+04  0.7818609E-02  0.8022656E-01
        3   -1    0    0  501    0  0.00000000000E+00  0.00000000000E+00  0.22234728522E+04  0.22234728544E+04  0.10100000352E+00 0. -1.
       -3   -1    0    0    0  501  0.00000000000E+00  0.00000000000E+00 -0.17202008726E+04  0.17202008756E+04  0.10100000352E+00 0.  1.
    10030    2    1    2    0    0  0.00000000000E+00  0.00000000000E+00  0.50327197953E+03  0.39436737300E+04  0.39114293811E+04 0.  0.
        5    1    3    3  502    0 -0.13342474325E+04 -0.65654419976E+03  0.15323559838E+04  0.21352759654E+04  0.46999998093E+01 0. -1.
       -5    1    3    3    0  502  0.13342474325E+04  0.65654419976E+03 -0.10290840042E+04  0.18083977646E+04  0.46999998093E+01 0.  1.
</event>
<event>
 5   0  0.3690572E-08  0.3897954E+04  0.7818609E-02  0.8025455E-01
        2   -1    0    0  501    0  0.00000000000E+00  0.00000000000E+00  0.21808864679E+04  0.21808864679E+04  0.25500000920E-02 0.  1.
       -2   -1    0    0    0  501  0.00000000000E+00  0.00000000000E+00 -0.17417281860E+04  0.17417281860E+04  0.25500000920E-02 0. -1.
    10030    2    1    2    0    0  0.00000000000E+00  0.00000000000E+00  0.43915828189E+03  0.39226146538E+04  0.38979540436E+04 0.  0.
        3    1    3    3  502    0 -0.87149872602E+02 -0.17913867841E+04  0.98719571488E+03  0.20472462237E+04  0.10100000352E+00 0.  1.
       -3    1    3    3    0  502  0.87149872602E+02  0.17913867841E+04 -0.54803743300E+03  0.18753684302E+04  0.10100000352E+00 0. -1.
</event>
<event>
 5   0  0.1164500E-08  0.3904697E+04  0.7818609E-02  0.8024053E-01
        1   -1    0    0  501    0  0.00000000000E+00  0.00000000000E+00  0.23714835634E+04  0.23714835634E+04  0.50400001928E-02 0. -1.
       -1   -1    0    0    0  501  0.00000000000E+00  0.00000000000E+00 -0.16072912172E+04  0.16072912172E+04  0.50400001928E-02 0.  1.
    10030    2    1    2    0    0  0.00000000000E+00  0.00000000000E+00  0.76419234624E+03  0.39787747806E+04  0.39046970193E+04 0.  0.
        3    1    3    3  502    0  0.18103849643E+04 -0.59901574235E+03 -0.44597575901E+02  0.19074334936E+04  0.10100000352E+00 0.  1.
       -3    1    3    3    0  502 -0.18103849643E+04  0.59901574235E+03  0.80878992214E+03  0.20713412870E+04  0.10100000352E+00 0. -1.
</event>
<event>
 5   0  0.1164500E-08  0.3900504E+04  0.7818609E-02  0.8024924E-01
       -1   -1    0    0    0  501  0.00000000000E+00  0.00000000000E+00  0.19824211078E+04  0.19824211078E+04  0.50400001928E-02 0.  1.
        1   -1    0    0  501    0  0.00000000000E+00  0.00000000000E+00 -0.19186050978E+04  0.19186050978E+04  0.50400001928E-02 0. -1.
    10030    2    1    2    0    0  0.00000000000E+00  0.00000000000E+00  0.63816010050E+02  0.39010262056E+04  0.39005041948E+04 0.  0.
        5    1    3    3  502    0  0.17135742012E+04  0.25571358838E+03 -0.86360848300E+03  0.19358635500E+04  0.46999998093E+01 0. -1.
       -5    1    3    3    0  502 -0.17135742012E+04 -0.25571358838E+03  0.92742449305E+03  0.19651626555E+04  0.46999998093E+01 0.  1.
</event>
<event>
 5   0  0.3669347E-08  0.3899738E+04  0.7818609E-02  0.8025084E-01
       -2   -1    0    0    0  501  0.00000000000E+00  0.00000000000E+00  0.14496170328E+04  0.14496170328E+04  0.25500000920E-02 0. -1.
        2   -1    0    0  501    0  0.00000000000E+00  0.00000000000E+00 -0.26227542557E+04  0.26227542557E+04  0.25500000920E-02 0.  1.
    10030    2    1    2    0    0  0.00000000000E+00  0.00000000000E+00 -0.11731372229E+04  0.40723712884E+04  0.38997380639E+04 0.  0.
        5    1    3    3  502    0  0.72041451035E+03 -0.73136831441E+03  0.11445461606E+04  0.15374994900E+04  0.46999998093E+01 0. -1.
       -5    1    3    3    0  502 -0.72041451035E+03  0.73136831441E+03 -0.23176833835E+04  0.25348717984E+04  0.46999998093E+01 0.  1.
</event>
<event>
 5   0  0.1164500E-08  0.3903756E+04  0.7818609E-02  0.8024249E-01
        1   -1    0    0  501    0  0.00000000000E+00  0.00000000000E+00  0.22137659156E+04  0.22137659156E+04  0.50400001928E-02 0.  1.
       -1   -1    0    0    0  501  0.00000000000E+00  0.00000000000E+00 -0.17209710236E+04  0.17209710237E+04  0.50400001928E-02 0. -1.
    10030    2    1    2    0    0  0.00000000000E+00  0.00000000000E+00  0.49279489200E+03  0.39347369393E+04  0.39037556245E+04 0.  0.
        3    1    3    3  502    0 -0.13730022995E+03  0.15974430693E+04 -0.87560871811E+03  0.18268460116E+04  0.10100000352E+00 0. -1.
       -3    1    3    3    0  502  0.13730022995E+03 -0.15974430693E+04  0.13684036101E+04  0.21078909277E+04  0.10100000352E+00 0.  1.
</event>
<event>
 5   0  0.1164500E-08  0.3901729E+04  0.7818609E-02  0.8024670E-01
        1   -1    0    0  501    0  0.00000000000E+00  0.00000000000E+00  0.22484876078E+04  0.22484876078E+04  0.50400001928E-02 0. -1.
       -1   -1    0    0    0  501  0.00000000000E+00  0.00000000000E+00 -0.16926369699E+04  0.16926369699E+04  0.50400001928E-02 0.  1.
    10030    2    1    2    0    0  0.00000000000E+00  0.00000000000E+00  0.55585063791E+03  0.39411245776E+04  0.39017294889E+04 0.  0.
        2    1    3    3  502    0  0.13348639835E+03  0.98501442694E+03 -0.14176542807E+04  0.17314201395E+04  0.25500000920E-02 0.  1.
       -2    1    3    3    0  502 -0.13348639835E+03 -0.98501442694E+03  0.19735049187E+04  0.22097044381E+04  0.25500000920E-02 0. -1.
</event>
<event>
 5   0  0.3872969E-08  0.3904564E+04  0.7818609E-02  0.8024081E-01
        2   -1    0    0  501    0  0.00000000000E+00  0.00000000000E+00  0.14283239108E+04  0.14283239108E+04  0.25500000920E-02 0. -1.
       -2   -1    0    0    0  501  0.00000000000E+00  0.00000000000E+00 -0.26684455004E+04  0.26684455004E+04  0.25500000920E-02 0.  1.
    10030    2    1    2    0    0  0.00000000000E+00  0.00000000000E+00 -0.12401215896E+04  0.40967694112E+04  0.39045637467E+04 0.  0.
        2    1    3    3  502    0  0.93236284645E+02 -0.19410585994E+04 -0.42376012907E+03  0.19889630811E+04  0.25500000920E-02 0.  1.
       -2    1    3    3    0  502 -0.93236284645E+02  0.19410585994E+04 -0.81636146053E+03  0.21078063301E+04  0.25500000920E-02 0. -1.
</event>
<event>
 5   0  0.3872969E-08  0.3905259E+04  0.7818609E-02  0.8023936E-01
        2   -1    0    0  501    0  0.00000000000E+00  0.00000000000E+00  0.26109104249E+04  0.26109104249E+04  0.25500000920E-02 0. -1.
       -2   -1    0    0    0  501  0.00000000000E+00  0.00000000000E+00 -0.14603190270E+04  0.14603190270E+04  0.25500000920E-02 0.  1.
    10030    2    1    2    0    0  0.00000000000E+00  0.00000000000E+00  0.11505913979E+04  0.40712294519E+04  0.39052591060E+04 0.  0.
        2    1    3    3  502    0 -0.82054211529E+03  0.98962623962E+03  0.21074903168E+04  0.24686362415E+04  0.25500000920E-02 0. -1.
       -2    1    3    3    0  502  0.82054211529E+03 -0.98962623962E+03 -0.95689891891E+03  0.16025932104E+04  0.25500000920E-02 0.  1.
</event>
<event>
 5   0  0.3724293E-08  0.3900714E+04  0.7818609E-02  0.8024881E-01
       -2   -1    0    0    0  501  0.00000000000E+00  0.00000000000E+00  0.14483364936E+04  0.14483364936E+04  0.25500000920E-02 0.  1.
        2   -1    0    0  501    0  0.00000000000E+00  0.00000000000E+00 -0.26263877466E+04  0.26263877466E+04  0.25500000920E-02 0. -1.
    10030    2    1    2    0    0  0.00000000000E+00  0.00000000000E+00 -0.11780512530E+04  0.40747242402E+04  0.39007144063E+04 0.  0.
        4    1    3    3  502    0  0.12638315267E+04  0.62270763015E+03  0.81978723926E+03  0.16300575606E+04  0.12699999809E+01 0.  1.
       -4    1    3    3    0  502 -0.12638315267E+04 -0.62270763015E+03 -0.19978384922E+04  0.24446666796E+04  0.12699999809E+01 0. -1.
</event>
<event>
 5   0  0.3769985E-08  0.3914531E+04  0.7818609E-02  0.8022014E-01
       -2   -1    0    0    0  501  0.00000000000E+00  0.00000000000E+00  0.33628936669E+04  0.33628936669E+04  0.25500000920E-02 0.  1.
        2   -1    0    0  501    0  0.00000000000E+00  0.00000000000E+00 -0.11391640268E+04  0.11391640268E+04  0.25500000920E-02 0. -1.
    10030    2    1    2    0    0  0.00000000000E+00  0.00000000000E+00  0.22237296400E+04  0.45020576937E+04  0.39145306188E+04 0.  0.
        1    1    3    3  502    0  0.42841581258E+03 -0.16025193692E+03  0.33005616138E+04  0.33321056043E+04  0.50400001928E-02 0.  1.
       -1    1    3    3    0  502 -0.42841581258E+03  0.16025193692E+03 -0.10768319738E+04  0.11699520894E+04  0.50400001928E-02 0. -1.
</event>
<event>
 5   0  0.1164500E-08  0.3905246E+04  0.7818609E-02  0.8023939E-01
       -1   -1    0    0    0  501  0.00000000000E+00  0.00000000000E+00  0.15287705380E+04  0.15287705380E+04  0.50400001928E-02 0.  1.
        1   -1    0    0  501    0  0.00000000000E+00  0.00000000000E+00 -0.24939889867E+04  0.24939889867E+04  0.50400001928E-02 0. -1.
    10030    2    1    2    0    0  0.00000000000E+00  0.00000000000E+00 -0.96521844865E+03  0.40227595247E+04  0.39052461561E+04 0.  0.
        2    1    3    3  502    0 -0.15208463068E+04 -0.81844154274E+03 -0.14210199133E+04  0.22365414465E+04  0.25500000920E-02 0. -1.
       -2    1    3    3    0  502  0.15208463068E+04  0.81844154274E+03  0.45580146462E+03  0.17862180782E+04  0.25500000920E-02 0.  1.
</event>
<event>
 5   0  0.3724293E-08  0.3901816E+04  0.7818609E-02  0.8024652E-01
       -2   -1    0    0    0  501  0.00000000000E+00  0.00000000000E+00  0.16141059400E+04  0.16141059400E+04  0.25500000920E-02 0. -1.
        2   -1    0    0  501    0  0.00000000000E+00  0.00000000000E+00 -0.23579875818E+04  0.23579875818E+04  0.25500000920E-02 0.  1.
    10030    2    1    2    0    0  0.00000000000E+00  0.00000000000E+00 -0.74388164183E+03  0.39720935218E+04  0.39018158656E+04 0.  0.
        4    1    3    3  502    0 -0.21655901305E+03 -0.18507076886E+04  0.21641646725E+03  0.18758609903E+04  0.12699999809E+01 0. -1.
       -4    1    3    3    0  502  0.21655901305E+03  0.18507076886E+04 -0.96029810908E+03  0.20962325315E+04  0.12699999809E+01 0.  1.
</event>
<event>
 5   0  0.3690572E-08  0.3896340E+04  0.7818609E-02  0.8025791E-01
       -2   -1    0    0    0  501  0.00000000000E+00  0.00000000000E+00  0.22985509029E+04  0.22985509029E+04  0.25500000920E-02 0. -1.
        2   -1    0    0  501    0  0.00000000000E+00  0.00000000000E+00 -0.16511998738E+04  0.16511998738E+04  0.25500000920E-02 0.  1.
    10030    2    1    2    0    0  0.00000000000E+00  0.00000000000E+00  0.64735102915E+03  0.39497507767E+04  0.38963403141E+04 0.  0.
        3    1    3    3  502    0 -0.13275372987E+04 -0.98435935795E+03 -0.72199169020E+03  0.18034940077E+04  0.10100000352E+00 0.  1.
       -3    1    3    3    0  502  0.13275372987E+04  0.98435935795E+03  0.13693427194E+04  0.21462567690E+04  0.10100000352E+00 0. -1.
</event>
<event>
 5   0  0.1164500E-08  0.3812306E+04  0.7818609E-02  0.8043519E-01
        1   -1    0    0  501    0  0.00000000000E+00  0.00000000000E+00  0.22400748936E+04  0.22400748936E+04  0.50400001928E-02 0.  1.
       -1   -1    0    0    0  501  0.00000000000E+00  0.00000000000E+00 -0.16220078529E+04  0.16220078529E+04  0.50400001928E-02 0. -1.
    10030    2    1    2    0    0  0.00000000000E+00  0.00000000000E+00  0.61806704078E+03  0.38620827465E+04  0.38123058999E+04 0.  0.
        3    1    3    3  502    0  0.18245586363E+04  0.20939639945E+03 -0.20808016310E+03  0.18482852686E+04  0.10100000352E+00 0. -1.
       -3    1    3    3    0  502 -0.18245586363E+04 -0.20939639945E+03  0.82614720388E+03  0.20137974780E+04  0.10100000352E+00 0.  1.
</event>
<event>
 5   0  0.3669347E-08  0.3901086E+04  0.7818609E-02  0.8024803E-01
        2   -1    0    0  501    0  0.00000000000E+00  0.00000000000E+00  0.23400991591E+04  0.23400991591E+04  0.25500000920E-02 0.  1.
       -2   -1    0    0    0  501  0.00000000000E+00  0.00000000000E+00 -0.16258364282E+04  0.16258364282E+04  0.25500000920E-02 0. -1.
    10030    2    1    2    0    0  0.00000000000E+00  0.00000000000E+00  0.71426273089E+03  0.39659355872E+04  0.39010862376E+04 0.  0.
        5    1    3    3  502    0 -0.83324480221E+03  0.71054589896E+03  0.19980963329E+04  0.22785046457E+04  0.46999998093E+01 0.  1.
       -5    1    3    3    0  502  0.83324480221E+03 -0.71054589896E+03 -0.12838336020E+04  0.16874309416E+04  0.46999998093E+01 0. -1.
</event>
<event>
 5   0  0.1164500E-08  0.3894090E+04  0.7818609E-02  0.8026260E-01
       -1   -1    0    0    0  501  0.00000000000E+00  0.00000000000E+00  0.26462835878E+04  0.26462835878E+04  0.50400001928E-02 0.  1.
        1   -1    0    0  501    0  0.00000000000E+00  0.00000000000E+00 -0.14325689108E+04  0.14325689108E+04  0.50400001928E-02 0. -1.
    10030    2    1    2    0    0  0.00000000000E+00  0.00000000000E+00  0.12137146770E+04  0.40788524987E+04  0.38940896739E+04 0.  0.
        4    1    3    3  502    0  0.21109152510E+03  0.19355421023E+04  0.59642891608E+03  0.20363231390E+04  0.12699999809E+01 0. -1.
       -4    1    3    3    0  502 -0.21109152510E+03 -0.19355421023E+04  0.61728576093E+03  0.20425293597E+04  0.12699999809E+01 0.  1.
</event>
<event>
 5   0  0.3769985E-08  0.3905577E+04  0.7818609E-02  0.8023870E-01
        2   -1    0    0  501    0  0.00000000000E+00  0.00000000000E+00  0.11619009862E+04  0.11619009862E+04  0.25500000920E-02 0. -1.
       -2   -1    0    0    0  501  0.00000000000E+00  0.00000000000E+00 -0.32820208061E+04  0.32820208061E+04  0.25500000920E-02 0.  1.
    10030    2    1    2    0    0  0.00000000000E+00  0.00000000000E+00 -0.21201198200E+04  0.44439217923E+04  0.39055771462E+04 0.  0.
        1    1    3    3  502    0 -0.87411599099E+03  0.69158530290E+03  0.76439622159E+03  0.13515437768E+04  0.50400001928E-02 0. -1.
       -1    1    3    3    0  502  0.87411599099E+03 -0.69158530290E+03 -0.28845160416E+04  0.30923780155E+04  0.50400001928E-02 0.  1.
</event>
<event>
 5   0  0.3872969E-08  0.3910658E+04  0.7818609E-02  0.8022816E-01
        2   -1    0    0  501    0  0.00000000000E+00  0.00000000000E+00  0.23878505478E+04  0.23878505478E+04  0.25500000920E-02 0.  1.
       -2   -1    0    0    0  501  0.00000000000E+00  0.00000000000E+00 -0.16011520302E+04  0.16011520302E+04  0.25500000920E-02 0. -1.
    10030    2    1    2    0    0  0.00000000000E+00  0.00000000000E+00  0.78669851759E+03  0.39890025779E+04  0.39106581299E+04 0.  0.
        2    1    3    3  502    0  0.70419264542E+03 -0.30361208440E+03  0.22280616633E+04  0.23563374875E+04  0.25500000920E-02 0.  1.
       -2    1    3    3    0  502 -0.70419264542E+03  0.30361208440E+03 -0.14413631457E+04  0.16326650904E+04  0.25500000920E-02 0. -1.
</event>
<event>
 5   0  0.1164500E-08  0.3888758E+04  0.7818609E-02  0.8027371E-01
       -3   -1    0    0    0  501  0.00000000000E+00  0.00000000000E+00  0.14402853094E+04  0.14402853129E+04  0.10100000352E+00 0.  1.
        3   -1    0    0  501    0  0.00000000000E+00  0.00000000000E+00 -0.26249029016E+04  0.26249029035E+04  0.10100000352E+00 0. -1.
    10030    2    1    2    0    0  0.00000000000E+00  0.00000000000E+00 -0.11846175922E+04  0.40651882164E+04  0.38887576931E+04 0.  0.
        1    1    3    3  502    0 -0.79910416375E+03  0.10739705131E+04 -0.20664756969E+04  0.24621742289E+04  0.50400001928E-02 0. -1.
       -1    1    3    3    0  502  0.79910416375E+03 -0.10739705131E+04  0.88185810468E+03  0.16030139876E+04  0.50400001928E-02 0.  1.
</event>
<event>
 5   0  0.3724293E-08  0.3909676E+04  0.7818609E-02  0.8023020E-01
        2   -1    0    0  501    0  0.00000000000E+00  0.00000000000E+00  0.31348065641E+04  0.31348065641E+04  0.25500000920E-02 0.  1.
       -2   -1    0    0    0  501  0.00000000000E+00  0.00000000000E+00 -0.12190196331E+04  0.12190196332E+04  0.25500000920E-02 0. -1.
    10030    2    1    2    0    0  0.00000000000E+00  0.00000000000E+00  0.19157869310E+04  0.43538261973E+04  0.39096755609E+04 0.  0.
        4    1    3    3  502    0  0.16275153934E+04 -0.21809800445E+03  0.21390561707E+04  0.26966527418E+04  0.12699999809E+01 0.  1.
       -4    1    3    3    0  502 -0.16275153934E+04  0.21809800445E+03 -0.22326923973E+03  0.16571734555E+04  0.12699999809E+01 0. -1.
</event>
<event>
 5   0  0.3669347E-08  0.3946734E+04  0.7818609E-02  0.8015379E-01
       -2   -1    0    0    0  501  0.00000000000E+00  0.00000000000E+00  0.25892581020E+04  0.25892581020E+04  0.25500000920E-02 0. -1.
        2   -1    0    0  501    0  0.00000000000E+00  0.00000000000E+00 -0.15039743126E+04  0.15039743126E+04  0.25500000920E-02 0.  1.
    10030    2    1    2    0    0  0.00000000000E+00  0.00000000000E+00  0.10852837894E+04  0.40932324147E+04  0.39467341812E+04 0.  0.
        5    1    3    3  502    0 -0.18785888051E+04 -0.59261040268E+03  0.66479581248E+03  0.20790042209E+04  0.46999998093E+01 0. -1.
       -5    1    3    3    0  502  0.18785888051E+04  0.59261040268E+03  0.42048797693E+03  0.20142281938E+04  0.46999998093E+01 0.  1.
</event>
<event>
 5   0  0.1164500E-08  0.3901099E+04  0.7818609E-02  0.8024801E-01
       -1   -1    0    0    0  501  0.00000000000E+00  0.00000000000E+00  0.26946009266E+04  0.26946009266E+04  0.50400001928E-02 0. -1.
        1   -1    0    0  501    0  0.00000000000E+00  0.00000000000E+00 -0.14119505858E+04  0.14119505859E+04  0.50400001928E-02 0.  1.
    10030    2    1    2    0    0  0.00000000000E+00  0.00000000000E+00  0.12826503408E+04  0.41065515125E+04  0.39010990026E+04 0.  0.
        4    1    3    3  502    0 -0.12543686769E+03 -0.15566307825E+04 -0.58890144921E+03  0.16690237657E+04  0.12699999809E+01 0.  1.
       -4    1    3    3    0  502  0.12543686769E+03  0.15566307825E+04  0.18715517900E+04  0.24375277468E+04  0.12699999809E+01 0. -1.
</event>
<event>
 5   0  0.3690572E-08  0.3871573E+04  0.7818609E-02  0.8030968E-01
        2   -1    0    0  501    0  0.00000000000E+00  0.00000000000E+00  0.15232428716E+04  0.15232428716E+04  0.25500000920E-02 0. -1.
       -2   -1    0    0    0  501  0.00000000000E+00  0.00000000000E+00 -0.24600606484E+04  0.24600606484E+04  0.25500000920E-02 0.  1.
    10030    2    1    2    0    0  0.00000000000E+00  0.00000000000E+00 -0.93681777676E+03  0.39833035200E+04  0.38715732442E+04 0.  0.
        3    1    3    3  502    0  0.10043720614E+04  0.74581801365E+03  0.10514713706E+04  0.16341969896E+04  0.10100000352E+00 0. -1.
       -3    1    3    3    0  502 -0.10043720614E+04 -0.74581801365E+03 -0.19882891474E+04  0.23491065304E+04  0.10100000352E+00 0.  1.
</event>
<event>
 5   0  0.1164500E-08  0.3901751E+04  0.7818609E-02  0.8024665E-01
       -1   -1    0    0    0  501  0.00000000000E+00  0.00000000000E+00  0.23791599504E+04  0.23791599504E+04  0.50400001928E-02 0.  1.
        1   -1    0    0  501    0  0.00000000000E+00  0.00000000000E+00 -0.15996890606E+04  0.15996890606E+04  0.50400001928E-02 0. -1.
    10030    2    1    2    0    0  0.00000000000E+00  0.00000000000E+00  0.77947088988E+03  0.39788490110E+04  0.39017514765E+04 0.  0.
        3    1    3    3  502    0  0.92282806173E+03 -0.73464744566E+02 -0.13614350277E+04  0.16463638860E+04  0.10100000352E+00 0. -1.
       -3    1    3    3    0  502 -0.92282806173E+03  0.73464744566E+02  0.21409059176E+04  0.23324851250E+04  0.10100000352E+00 0.  1.
</event>
<event>
 5   0  0.1164500E-08  0.3902733E+04  0.7818609E-02  0.8024461E-01
        1   -1    0    0  501    0  0.00000000000E+00  0.00000000000E+00  0.20907155596E+04  0.20907155596E+04  0.50400001928E-02 0. -1.
       -1   -1    0    0    0  501  0.00000000000E+00  0.00000000000E+00 -0.18213053659E+04  0.18213053659E+04  0.50400001928E-02 0.  1.
    10030    2    1    2    0    0  0.00000000000E+00  0.00000000000E+00  0.26941019372E+03  0.39120209255E+04  0.39027331281E+04 0.  0.
        5    1    3    3  502    0 -0.10677251280E+04  0.92858416202E+03 -0.12121830395E+04  0.18632539564E+04  0.46999998093E+01 0.  1.
       -5    1    3    3    0  502  0.10677251280E+04 -0.92858416202E+03  0.14815932332E+04  0.20487669691E+04  0.46999998093E+01 0. -1.
</event>
<event>
 5   0  0.1164500E-08  0.3876552E+04  0.7818609E-02  0.8029924E-01
       -1   -1    0    0    0  501  0.00000000000E+00  0.00000000000E+00  0.27994150225E+04  0.27994150225E+04  0.50400001928E-02 0. -1.
        1   -1    0    0  501    0  0.00000000000E+00  0.00000000000E+00 -0.13420356398E+04  0.13420356398E+04  0.50400001928E-02 0.  1.
    10030    2    1    2    0    0  0.00000000000E+00  0.00000000000E+00  0.14573793827E+04  0.41414506624E+04  0.38765524534E+04 0.  0.
        1    1    3    3  502    0 -0.79282739306E+03 -0.17515942543E+04  0.46644260827E+03  0.19784403994E+04  0.50400001928E-02 0. -1.
       -1    1    3    3    0  502  0.79282739306E+03  0.17515942543E+04  0.99093677442E+03  0.21630102630E+04  0.50400001928E-02 0.  1.
</event>
<event>
 5   0  0.3690572E-08  0.3900248E+04  0.7818609E-02  0.8024978E-01
        2   -1    0    0  501    0  0.00000000000E+00  0.00000000000E+00  0.21794164888E+04  0.21794164888E+04  0.25500000920E-02 0. -1.
       -2   -1    0    0    0  501  0.00000000000E+00  0.00000000000E+00 -0.17449546810E+04  0.17449546810E+04  0.25500000920E-02 0.  1.
    10030    2    1    2    0    0  0.00000000000E+00  0.00000000000E+00  0.43446180776E+03  0.39243711698E+04  0.39002476865E+04 0.  0.
        3    1    3    3  502    0  0.83882683123E+03  0.16606889324E+04  0.80519508022E+03  0.20272783012E+04  0.10100000352E+00 0. -1.
       -3    1    3    3    0  502 -0.83882683123E+03 -0.16606889324E+04 -0.37073327246E+03  0.18970928687E+04  0.10100000352E+00 0.  1.
</event>
<event>
 5   0  0.3690572E-08  0.3898450E+04  0.7818609E-02  0.8025352E-01
       -2   -1    0    0    0  501  0.00000000000E+00  0.00000000000E+00  0.13236767665E+04  0.13236767665E+04  0.25500000920E-02 0.  1.
        2   -1    0    0  501    0  0.00000000000E+00  0.00000000000E+00 -0.28703977893E+04  0.28703977893E+04  0.25500000920E-02 0. -1.
    10030    2    1    2    0    0  0.00000000000E+00  0.00000000000E+00 -0.15467210228E+04  0.41940745557E+04  0.38984503917E+04 0.  0.
        3    1    3    3  502    0  0.27006387321E+03  0.17287155196E+04 -0.16976285078E+04  0.24378954867E+04  0.10100000352E+00 0. -1.
       -3    1    3    3    0  502 -0.27006387321E+03 -0.17287155196E+04  0.15090748501E+03  0.17561790691E+04  0.10100000352E+00 0.  1.
</event>
<event>
 5   0  0.3669347E-08  0.3906137E+04  0.7818609E-02  0.8023754E-01
        2   -1    0    0  501    0  0.00000000000E+00  0.00000000000E+00  0.32604844165E+04  0.32604844165E+04  0.25500000920E-02 0. -1.
       -2   -1    0    0    0  501  0.00000000000E+00  0.00000000000E+00 -0.11699109484E+04  0.11699109484E+04  0.25500000920E-02 0.  1.
    10030    2    1    2    0    0  0.00000000000E+00  0.00000000000E+00  0.20905734681E+04  0.44303953649E+04  0.39061369233E+04 0.  0.
        5    1    3    3  502    0 -0.50632411399E+03 -0.16550318451E+03 -0.10859189378E+04  0.12095443117E+04  0.46999998093E+01 0.  1.
       -5    1    3    3    0  502  0.50632411399E+03  0.16550318451E+03  0.31764924059E+04  0.32208510532E+04  0.46999998093E+01 0. -1.
</event>
<event>
 5   0  0.1164500E-08  0.3894767E+04  0.7818609E-02  0.8026118E-01
       -1   -1    0    0    0  501  0.00000000000E+00  0.00000000000E+00  0.23045302504E+04  0.23045302504E+04  0.50400001928E-02 0.  1.
        1   -1    0    0  501    0  0.00000000000E+00  0.00000000000E+00 -0.16455859076E+04  0.16455859076E+04  0.50400001928E-02 0. -1.
    10030    2    1    2    0    0  0.00000000000E+00  0.00000000000E+00  0.65894434280E+03  0.39501161580E+04  0.38947670039E+04 0.  0.
        4    1    3    3  502    0  0.18082078225E+04 -0.62913830682E+03  0.69072267231E+03  0.20353206040E+04  0.12699999809E+01 0.  1.
       -4    1    3    3    0  502 -0.18082078225E+04  0.62913830682E+03 -0.31778329512E+02  0.19147955540E+04  0.12699999809E+01 0. -1.
</event>
<event>
 5   0  0.1164500E-08  0.3901959E+04  0.7818609E-02  0.8024622E-01
       -1   -1    0    0    0  501  0.00000000000E+00  0.00000000000E+00  0.14189540099E+04  0.14189540099E+04  0.50400001928E-02 0.  1.
        1   -1    0    0  501    0  0.00000000000E+00  0.00000000000E+00 -0.26824842606E+04  0.26824842606E+04  0.50400001928E-02 0. -1.
    10030    2    1    2    0    0  0.00000000000E+00  0.00000000000E+00 -0.12635302507E+04  0.41014382705E+04  0.39019594043E+04 0.  0.
        1    1    3    3  502    0  0.17803272825E+04  0.61921831372E+03 -0.10272005899E+03  0.18877362007E+04  0.50400001928E-02 0.  1.
       -1    1    3    3    0  502 -0.17803272825E+04 -0.61921831372E+03 -0.11608101918E+04  0.22137020699E+04  0.50400001928E-02 0. -1.
</event>
<event>
 5   0  0.3872969E-08  0.3900785E+04  0.7818609E-02  0.8024866E-01
       -2   -1    0    0    0  501  0.00000000000E+00  0.00000000000E+00  0.17734521908E+04  0.17734521908E+04  0.25500000920E-02 0. -1.
        2   -1    0    0  501    0  0.00000000000E+00  0.00000000000E+00 -0.21449863417E+04  0.21449863417E+04  0.25500000920E-02 0.  1.
    10030    2    1    2    0    0  0.00000000000E+00  0.00000000000E+00 -0.37153415088E+03  0.39184385326E+04  0.39007849092E+04 0.  0.
        2    1    3    3  502    0 -0.93406002085E+03 -0.76785548923E+03 -0.17230394489E+04  0.21049786501E+04  0.25500000920E-02 0.  1.
       -2    1    3    3    0  502  0.93406002085E+03  0.76785548923E+03  0.13515052980E+04  0.18134598825E+04  0.25500000920E-02 0. -1.
</event>
<event>
 5   0  0.3690572E-08  0.3904370E+04  0.7818609E-02  0.8024121E-01
       -2   -1    0    0    0  501  0.00000000000E+00  0.00000000000E+00  0.29035938985E+04  0.29035938985E+04  0.25500000920E-02 0. -1.
        2   -1    0    0  501    0  0.00000000000E+00  0.00000000000E+00 -0.13125205635E+04  0.13125205635E+04  0.25500000920E-02 0.  1.
    10030    2    1    2    0    0  0.00000000000E+00  0.00000000000E+00  0.15910733350E+04  0.42161144620E+04  0.39043702180E+04 0.  0.
        3    1    3    3  502    0  0.19162552806E+04  0.88969501203E+02  0.40458385222E+03  0.19605198230E+04  0.10100000352E+00 0.  1.
       -3    1    3    3    0  502 -0.19162552806E+04 -0.88969501203E+02  0.11864894828E+04  0.22555946390E+04  0.10100000352E+00 0. -1.
</event>
<event>
 5   0  0.1164500E-08  0.3902714E+04  0.7818609E-02  0.8024465E-01
       -1   -1    0    0    0  501  0.00000000000E+00  0.00000000000E+00  0.14979226974E+04  0.14979226974E+04  0.50400001928E-02 0. -1.
        1   -1    0    0  501    0  0.00000000000E+00  0.00000000000E+00 -0.25420492104E+04  0.25420492104E+04  0.50400001928E-02 0.  1.
    10030    2    1    2    0    0  0.00000000000E+00  0.00000000000E+00 -0.10441265130E+04  0.40399719079E+04  0.39027135228E+04 0.  0.
        1    1    3    3  502    0  0.18100731564E+04 -0.20874162093E+03 -0.12450947127E+04  0.22068526774E+04  0.50400001928E-02 0. -1.
       -1    1    3    3    0  502 -0.18100731564E+04  0.20874162093E+03  0.20096819967E+03  0.18331192305E+04  0.50400001928E-02 0.  1.
</event>
<event>
 5   0  0.3669347E-08  0.3886365E+04  0.7818609E-02  0.8027871E-01
       -2   -1    0    0    0  501  0.00000000000E+00  0.00000000000E+00  0.21495055440E+04  0.21495055440E+04  0.25500000920E-02 0.  1.
        2   -1    0    0  501    0  0.00000000000E+00  0.00000000000E+00 -0.17566639882E+04  0.17566639882E+04  0.25500000920E-02 0. -1.
    10030    2    1    2    0    0  0.00000000000E+00  0.00000000000E+00  0.39284155582E+03  0.39061695323E+04  0.38863653877E+04 0.  0.
        5    1    3    3  502    0 -0.82479397880E+03  0.53629549720E+03  0.18806803350E+04  0.21224699245E+04  0.46999998093E+01 0.  1.
       -5    1    3    3    0  502  0.82479397880E+03 -0.53629549720E+03 -0.14878387792E+04  0.17836996078E+04  0.46999998093E+01 0. -1.
</event>
<event>
 5   0  0.1164500E-08  0.3898308E+04  0.7818609E-02  0.8025381E-01
        1   -1    0    0  501    0  0.00000000000E+00  0.00000000000E+00  0.18424022985E+04  0.18424022985E+04  0.50400001928E-02 0.  1.
       -1   -1    0    0    0  501  0.00000000000E+00  0.00000000000E+00 -0.20620914897E+04  0.20620914897E+04  0.50400001928E-02 0. -1.
    10030    2    1    2    0    0  0.00000000000E+00  0.00000000000E+00 -0.21968919120E+03  0.39044937883E+04  0.38983084026E+04 0.  0.
        1    1    3    3  502    0  0.17141835020E+03 -0.18681030097E+04 -0.63984296512E+03  0.19820676390E+04  0.50400001928E-02 0.  1.
       -1    1    3    3    0  502 -0.17141835020E+03  0.18681030097E+04  0.42015377392E+03  0.19224261493E+04  0.50400001928E-02 0. -1.
</event>
<event>
 5   0  0.1164500E-08  0.3884026E+04  0.7818609E-02  0.8028360E-01
        1   -1    0    0  501    0  0.00000000000E+00  0.00000000000E+00  0.19097518450E+04  0.19097518451E+04  0.50400001928E-02 0. -1.
       -1   -1    0    0    0  501  0.00000000000E+00  0.00000000000E+00 -0.19748189134E+04  0.19748189134E+04  0.50400001928E-02 0.  1.
    10030    2    1    2    0    0  0.00000000000E+00  0.00000000000E+00 -0.65067068342E+02  0.38845707584E+04  0.38840257793E+04 0.  0.
        5    1    3    3  502    0  0.67952015310E+03  0.90589545777E+02 -0.18497744107E+04  0.19727244016E+04  0.46999998093E+01 0.  1.
       -5    1    3    3    0  502 -0.67952015310E+03 -0.90589545777E+02  0.17847073424E+04  0.19118463568E+04  0.46999998093E+01 0. -1.
</event>
<event>
 5   0  0.3872969E-08  0.3900726E+04  0.7818609E-02  0.8024878E-01
       -2   -1    0    0    0  501  0.00000000000E+00  0.00000000000E+00  0.23220417178E+04  0.23220417178E+04  0.25500000920E-02 0.  1.
        2   -1    0    0  501    0  0.00000000000E+00  0.00000000000E+00 -0.16381768623E+04  0.16381768623E+04  0.25500000920E-02 0. -1.
    10030    2    1    2    0    0  0.00000000000E+00  0.00000000000E+00  0.68386485548E+03  0.39602185800E+04  0.39007255814E+04 0.  0.
        2    1    3    3  502    0  0.11505727474E+04 -0.14992072520E+04  0.83144276961E+03  0.20646397048E+04  0.25500000920E-02 0.  1.
       -2    1    3    3    0  502 -0.11505727474E+04  0.14992072520E+04 -0.14757791413E+03  0.18955788752E+04  0.25500000920E-02 0. -1.
</event>
<event>
 5   0  0.1164500E-08  0.3902840E+04  0.7818609E-02  0.8024439E-01
        1   -1    0    0  501    0  0.00000000000E+00  0.00000000000E+00  0.13565850074E+04  0.13565850074E+04  0.50400001928E-02 0. -1.
       -1   -1    0    0    0  501  0.00000000000E+00  0.00000000000E+00 -0.28070774629E+04  0.28070774629E+04  0.50400001928E-02 0.  1.
    10030    2    1    2    0    0  0.00000000000E+00  0.00000000000E+00 -0.14504924555E+04  0.41636624703E+04  0.39028395820E+04 0.  0.
        1    1    3    3  502    0 -0.93258185676E+03 -0.15241863331E+04  0.11150844027E+03  0.17903315418E+04  0.50400001928E-02 0. -1.
       -1    1    3    3    0  502  0.93258185676E+03  0.15241863331E+04 -0.15620008958E+04  0.23733309285E+04  0.50400001928E-02 0.  1.
</event>
<event>
 5   0  0.1164500E-08  0.3900469E+04  0.7818609E-02  0.8024932E-01
       -1   -1    0    0    0  501  0.00000000000E+00  0.00000000000E+00  0.23067088982E+04  0.23067088982E+04  0.50400001928E-02 0. -1.
        1   -1    0    0  501    0  0.00000000000E+00  0.00000000000E+00 -0.16488493155E+04  0.16488493155E+04  0.50400001928E-02 0.  1.
    10030    2    1    2    0    0  0.00000000000E+00  0.00000000000E+00  0.65785958269E+03  0.39555582137E+04  0.39004694014E+04 0.  0.
        2    1    3    3  502    0 -0.15511270875E+04  0.65366228103E+03  0.13278007855E+04  0.21439040429E+04  0.25500000920E-02 0. -1.
       -2    1    3    3    0  502  0.15511270875E+04 -0.65366228103E+03 -0.66994120286E+03  0.18116541708E+04  0.25500000920E-02 0.  1.
</event>
<event>
 5   0  0.3669347E-08  0.3899632E+04  0.7818609E-02  0.8025106E-01
       -2   -1    0    0    0  501  0.00000000000E+00  0.00000000000E+00  0.20104886658E+04  0.20104886658E+04  0.25500000920E-02 0. -1.
        2   -1    0    0  501    0  0.00000000000E+00  0.00000000000E+00 -0.18909747944E+04  0.18909747944E+04  0.25500000920E-02 0.  1.
    10030    2    1    2    0    0  0.00000000000E+00  0.00000000000E+00  0.11951387146E+03  0.39014634602E+04  0.38996324911E+04 0.  0.
        5    1    3    3  502    0 -0.11773959143E+04 -0.96772590630E+02  0.16116574585E+04  0.19982712346E+04  0.46999998093E+01 0. -1.
       -5    1    3    3    0  502  0.11773959143E+04  0.96772590630E+02 -0.14921435871E+04  0.19031922256E+04  0.46999998093E+01 0.  1.
</event>
<event>
 5   0  0.3724293E-08  0.3775940E+04  0.7818609E-02  0.8051338E-01
       -2   -1    0    0    0  501  0.00000000000E+00  0.00000000000E+00  0.17469024254E+04  0.17469024254E+04  0.25500000920E-02 0. -1.
        2   -1    0    0  501    0  0.00000000000E+00  0.00000000000E+00 -0.20404296971E+04  0.20404296971E+04  0.25500000920E-02 0.  1.
    10030    2    1    2    0    0  0.00000000000E+00  0.00000000000E+00 -0.29352727175E+03  0.37873321225E+04  0.37759404586E+04 0.  0.
        4    1    3    3  502    0 -0.15165992303E+04 -0.48899264058E+03 -0.11623611960E+04  0.19723772942E+04  0.12699999809E+01 0.  1.
       -4    1    3    3    0  502  0.15165992303E+04  0.48899264058E+03  0.86883392424E+03  0.18149548283E+04  0.12699999809E+01 0. -1.
</event>
<event>
 5   0  0.1164500E-08  0.3898683E+04  0.7818609E-02  0.8025303E-01
       -1   -1    0    0    0  501  0.00000000000E+00  0.00000000000E+00  0.32331703274E+04  0.32331703274E+04  0.50400001928E-02 0.  1.
        1   -1    0    0  501    0  0.00000000000E+00  0.00000000000E+00 -0.11752962729E+04  0.11752962729E+04  0.50400001928E-02 0. -1.
    10030    2    1    2    0    0  0.00000000000E+00  0.00000000000E+00  0.20578740545E+04  0.44084666003E+04  0.38986833856E+04 0.  0.
        2    1    3    3  502    0 -0.56234052967E+02  0.15494978418E+04  0.23648723002E+04  0.28278484448E+04  0.25500000920E-02 0.  1.
       -2    1    3    3    0  502  0.56234052967E+02 -0.15494978418E+04 -0.30699824567E+03  0.15806181555E+04  0.25500000920E-02 0. -1.
</event>
<event>
 5   0  0.1164500E-08  0.3913402E+04  0.7818609E-02  0.8022248E-01
       -1   -1    0    0    0  501  0.00000000000E+00  0.00000000000E+00  0.26345775626E+04  0.26345775626E+04  0.50400001928E-02 0. -1.
        1   -1    0    0  501    0  0.00000000000E+00  0.00000000000E+00 -0.14532417268E+04  0.14532417268E+04  0.50400001928E-02 0.  1.
    10030    2    1    2    0    0  0.00000000000E+00  0.00000000000E+00  0.11813358358E+04  0.40878192893E+04  0.39134016131E+04 0.  0.
        5    1    3    3  502    0 -0.81011560728E+03  0.19880740307E+02 -0.12697136944E+04  0.15062793555E+04  0.46999998093E+01 0.  1.
       -5    1    3    3    0  502  0.81011560728E+03 -0.19880740307E+02  0.24510495302E+04  0.25815399339E+04  0.46999998093E+01 0. -1.
</event>
<event>
 5   0  0.1164500E-08  0.3912434E+04  0.7818609E-02  0.8022448E-01
        1   -1    0    0  501    0  0.00000000000E+00  0.00000000000E+00  0.23741490762E+04  0.23741490762E+04  0.50400001928E-02 0.  1.
       -1   -1    0    0    0  501  0.00000000000E+00  0.00000000000E+00 -0.16118549757E+04  0.16118549757E+04  0.50400001928E-02 0. -1.
    10030    2    1    2    0    0  0.00000000000E+00  0.00000000000E+00  0.76229410053E+03  0.39860040519E+04  0.39124335146E+04 0.  0.
        2    1    3    3  502    0  0.15486508456E+04  0.41227691430E+03 -0.76177351605E+03  0.17744268329E+04  0.25500000920E-02 0. -1.
       -2    1    3    3    0  502 -0.15486508456E+04 -0.41227691430E+03  0.15240676166E+04  0.22115772190E+04  0.25500000920E-02 0.  1.
</event>
<event>
 5   0  0.3690572E-08  0.3894841E+04  0.7818609E-02  0.8026103E-01
        2   -1    0    0  501    0  0.00000000000E+00  0.00000000000E+00  0.21031500032E+04  0.21031500032E+04  0.25500000920E-02 0. -1.
       -2   -1    0    0    0  501  0.00000000000E+00  0.00000000000E+00 -0.18032218313E+04  0.18032218313E+04  0.25500000920E-02 0.  1.
    10030    2    1    2    0    0  0.00000000000E+00  0.00000000000E+00  0.29992817191E+03  0.39063718345E+04  0.38948406901E+04 0.  0.
        3    1    3    3  502    0  0.97364398761E+03 -0.16481379783E+04 -0.20901257191E+03  0.19256239704E+04  0.10100000352E+00 0.  1.
       -3    1    3    3    0  502 -0.97364398761E+03  0.16481379783E+04  0.50894074382E+03  0.19807478641E+04  0.10100000352E+00 0. -1.
</event>
<event>
 5   0  0.1164500E-08  0.3901613E+04  0.7818609E-02  0.8024694E-01
       -1   -1    0    0    0  501  0.00000000000E+00  0.00000000000E+00  0.25968415307E+04  0.25968415307E+04  0.50400001928E-02 0. -1.
        1   -1    0    0  501    0  0.00000000000E+00  0.00000000000E+00 -0.14654903459E+04  0.14654903459E+04  0.50400001928E-02 0.  1.
    10030    2    1    2    0    0  0.00000000000E+00  0.00000000000E+00  0.11313511848E+04  0.40623318766E+04  0.39016130987E+04 0.  0.
        4    1    3    3  502    0 -0.11268153823E+04 -0.34149481772E+03  0.21851616981E+04  0.24821895327E+04  0.12699999809E+01 0. -1.
       -4    1    3    3    0  502  0.11268153823E+04  0.34149481772E+03 -0.10538105133E+04  0.15801423439E+04  0.12699999809E+01 0.  1.
</event>
<event>
 5   0  0.1164500E-08  0.3911614E+04  0.7818609E-02  0.8022618E-01
       -1   -1    0    0    0  501  0.00000000000E+00  0.00000000000E+00  0.13916313498E+04  0.13916313498E+04  0.50400001928E-02 0. -1.
        1   -1    0    0  501    0  0.00000000000E+00  0.00000000000E+00 -0.27487021615E+04  0.27487021615E+04  0.50400001928E-02 0.  1.
    10030    2    1    2    0    0  0.00000000000E+00  0.00000000000E+00 -0.13570708117E+04  0.41403335113E+04  0.39116135286E+04 0.  0.
        3    1    3    3  502    0 -0.86352261721E+03  0.14270326258E+04  0.40249916486E+03  0.17158377002E+04  0.10100000352E+00 0. -1.
       -3    1    3    3    0  502  0.86352261721E+03 -0.14270326258E+04 -0.17595699766E+04  0.24244958111E+04  0.10100000352E+00 0.  1.
</event>
<event>
 5   0  0.3769985E-08  0.3901674E+04  0.7818609E-02  0.8024681E-01
        2   -1    0    0  501    0  0.00000000000E+00  0.00000000000E+00  0.27601728355E+04  0.27601728355E+04  0.25500000920E-02 0.  1.
       -2   -1    0    0    0  501  0.00000000000E+00  0.00000000000E+00 -0.13788139592E+04  0.13788139592E+04  0.25500000920E-02 0. -1.
    10030    2    1    2    0    0  0.00000000000E+00  0.00000000000E+00  0.13813588763E+04  0.41389867948E+04  0.39016739154E+04 0.  0.
        1    1    3    3  502    0 -0.19339960124E+04  0.25499536038E+03  0.71193897815E+03  0.20765886252E+04  0.50400001928E-02 0.  1.
       -1    1    3    3    0  502  0.19339960124E+04 -0.25499536038E+03  0.66941989818E+03  0.20623981696E+04  0.50400001928E-02 0. -1.
</event>
<event>
 5   0  0.1164500E-08  0.3918218E+04  0.7818609E-02  0.8021251E-01
       -1   -1    0    0    0  501  0.00000000000E+00  0.00000000000E+00  0.13924974305E+04  0.13924974305E+04  0.50400001928E-02 0. -1.
        1   -1    0    0  501    0  0.00000000000E+00  0.00000000000E+00 -0.27562769172E+04  0.27562769172E+04  0.50400001928E-02 0.  1.
    10030    2    1    2    0    0  0.00000000000E+00  0.00000000000E+00 -0.13637794867E+04  0.41487743477E+04  0.39182182303E+04 0.  0.
        3    1    3    3  502    0 -0.52802755002E+03  0.11018277995E+04 -0.23034298792E+04  0.26074176520E+04  0.10100000352E+00 0.  1.
       -3    1    3    3    0  502  0.52802755002E+03 -0.11018277995E+04  0.93965039246E+03  0.15413566958E+04  0.10100000352E+00 0. -1.
</event>
<event>
 5   0  0.3690572E-08  0.3896647E+04  0.7818609E-02  0.8025727E-01
        2   -1    0    0  501    0  0.00000000000E+00  0.00000000000E+00  0.20603428454E+04  0.20603428454E+04  0.25500000920E-02 0. -1.
       -2   -1    0    0    0  501  0.00000000000E+00  0.00000000000E+00 -0.18423941451E+04  0.18423941451E+04  0.25500000920E-02 0.  1.
    10030    2    1    2    0    0  0.00000000000E+00  0.00000000000E+00  0.21794870035E+03  0.39027369905E+04  0.38966465558E+04 0.  0.
        3    1    3    3  502    0 -0.57115274631E+03  0.16280101432E+04 -0.79760952339E+03  0.19007402368E+04  0.10100000352E+00 0.  1.
       -3    1    3    3    0  502  0.57115274631E+03 -0.16280101432E+04  0.10155582237E+04  0.20019967537E+04  0.10100000352E+00 0. -1.
</event>
<event>
 5   0  0.3690572E-08  0.3906125E+04  0.7818609E-02  0.8023757E-01
       -2   -1    0    0    0  501  0.00000000000E+00  0.00000000000E+00  0.22239840234E+04  0.22239840234E+04  0.25500000920E-02 0. -1.
        2   -1    0    0  501    0  0.00000000000E+00  0.00000000000E+00 -0.17151439019E+04  0.17151439019E+04  0.25500000920E-02 0.  1.
    10030    2    1    2    0    0  0.00000000000E+00  0.00000000000E+00  0.50884012151E+03  0.39391279254E+04  0.39061247475E+04 0.  0.
        3    1    3    3  502    0  0.10173234586E+04  0.14873644993E+04 -0.50510510317E+03  0.18714516688E+04  0.10100000352E+00 0.  1.
       -3    1    3    3    0  502 -0.10173234586E+04 -0.14873644993E+04  0.10139452247E+04  0.20676762566E+04  0.10100000352E+00 0. -1.
</event>
<event>
 5   0  0.3724293E-08  0.3901842E+04  0.7818609E-02  0.8024646E-01
        2   -1    0    0  501    0  0.00000000000E+00  0.00000000000E+00  0.25957597868E+04  0.25957597868E+04  0.25500000920E-02 0. -1.
       -2   -1    0    0    0  501  0.00000000000E+00  0.00000000000E+00 -0.14662733177E+04  0.14662733177E+04  0.25500000920E-02 0.  1.
    10030    2    1    2    0    0  0.00000000000E+00  0.00000000000E+00  0.11294864691E+04  0.40620331045E+04  0.39018422903E+04 0.  0.
        4    1    3    3  502    0 -0.10747446758E+04 -0.16121791144E+04  0.80189845186E+03  0.20969597886E+04  0.12699999809E+01 0. -1.
       -4    1    3    3    0  502  0.10747446758E+04  0.16121791144E+04  0.32758801720E+03  0.19650733159E+04  0.12699999809E+01 0.  1.
</event>
<event>
 5   0  0.1164500E-08  0.3905976E+04  0.7818609E-02  0.8023787E-01
       -1   -1    0    0    0  501  0.00000000000E+00  0.00000000000E+00  0.15870098329E+04  0.15870098329E+04  0.50400001928E-02 0.  1.
        1   -1    0    0  501    0  0.00000000000E+00  0.00000000000E+00 -0.24033639386E+04  0.24033639387E+04  0.50400001928E-02 0. -1.
    10030    2    1    2    0    0  0.00000000000E+00  0.00000000000E+00 -0.81635410572E+03  0.39903737716E+04  0.39059760382E+04 0.  0.
        5    1    3    3  502    0 -0.19108793295E+04  0.37991465759E+03 -0.54654792581E+03  0.20234949183E+04  0.46999998093E+01 0.  1.
       -5    1    3    3    0  502  0.19108793295E+04 -0.37991465759E+03 -0.26980617991E+03  0.19668788533E+04  0.46999998093E+01 0. -1.
</event>
<event>
 5   0  0.3724293E-08  0.3976239E+04  0.7818609E-02  0.8009357E-01
        2   -1    0    0  501    0  0.00000000000E+00  0.00000000000E+00  0.24723884547E+04  0.24723884547E+04  0.25500000920E-02 0.  1.
       -2   -1    0    0    0  501  0.00000000000E+00  0.00000000000E+00 -0.15987047758E+04  0.15987047758E+04  0.25500000920E-02 0. -1.
    10030    2    1    2    0    0  0.00000000000E+00  0.00000000000E+00  0.87368367894E+03  0.40710932305E+04  0.39762390422E+04 0.  0.
        4    1    3    3  502    0  0.14543248738E+04  0.59460356997E+03  0.16840990028E+04  0.23032162964E+04  0.12699999809E+01 0.  1.
       -4    1    3    3    0  502 -0.14543248738E+04 -0.59460356997E+03 -0.81041532387E+03  0.17678769341E+04  0.12699999809E+01 0. -1.
</event>
<event>
 5   0  0.1164500E-08  0.3906016E+04  0.7818609E-02  0.8023779E-01
        1   -1    0    0  501    0  0.00000000000E+00  0.00000000000E+00  0.11459707336E+04  0.11459707336E+04  0.50400001928E-02 0.  1.
       -1   -1    0    0    0  501  0.00000000000E+00  0.00000000000E+00 -0.33283927775E+04  0.33283927775E+04  0.50400001928E-02 0. -1.
    10030    2    1    2    0    0  0.00000000000E+00  0.00000000000E+00 -0.21824220439E+04  0.44743635112E+04  0.39060162381E+04 0.  0.
        5    1    3    3  502    0 -0.73268965350E+03  0.48806562572E+03 -0.30881977434E+04  0.32112348989E+04  0.46999998093E+01 0. -1.
       -5    1    3    3    0  502  0.73268965350E+03 -0.48806562572E+03  0.90577569952E+03  0.12631286123E+04  0.46999998093E+01 0.  1.
</event>
<event>
 5   0  0.3769985E-08  0.3901416E+04  0.7818609E-02  0.8024735E-01
        2   -1    0    0  501    0  0.00000000000E+00  0.00000000000E+00  0.26240330873E+04  0.26240330873E+04  0.25500000920E-02 0.  1.
       -2   -1    0    0    0  501  0.00000000000E+00  0.00000000000E+00 -0.14501577358E+04  0.14501577358E+04  0.25500000920E-02 0. -1.
    10030    2    1    2    0    0  0.00000000000E+00  0.00000000000E+00  0.11738753515E+04  0.40741908231E+04  0.39014160919E+04 0.  0.
        1    1    3    3  502    0  0.11291793713E+04  0.13246083090E+04 -0.33276196776E+03  0.17721071503E+04  0.50400001928E-02 0. -1.
       -1    1    3    3    0  502 -0.11291793713E+04 -0.13246083090E+04  0.15066373193E+04  0.23020836728E+04  0.50400001928E-02 0.  1.
</event>
<event>
 5   0  0.1164500E-08  0.3902298E+04  0.7818609E-02  0.8024551E-01
        1   -1    0    0  501    0  0.00000000000E+00  0.00000000000E+00  0.19526501183E+04  0.19526501183E+04  0.50400001928E-02 0.  1.
       -1   -1    0    0    0  501  0.00000000000E+00  0.00000000000E+00 -0.19496492457E+04  0.19496492457E+04  0.50400001928E-02 0. -1.
    10030    2    1    2    0    0  0.00000000000E+00  0.00000000000E+00  0.30008725894E+01  0.39022993640E+04  0.39022982101E+04 0.  0.
        2    1    3    3  502    0  0.36740802748E+03  0.33949911697E+03 -0.18844307990E+04  0.19496993987E+04  0.25500000920E-02 0. -1.
       -2    1    3    3    0  502 -0.36740802748E+03 -0.33949911697E+03  0.18874316716E+04  0.19525999652E+04  0.25500000920E-02 0.  1.
</event>
<event>
 5   0  0.3669347E-08  0.3901269E+04  0.7818609E-02  0.8024765E-01
        2   -1    0    0  501    0  0.00000000000E+00  0.00000000000E+00  0.24374373766E+04  0.24374373766E+04  0.25500000920E-02 0.  1.
       -2   -1    0    0    0  501  0.00000000000E+00  0.00000000000E+00 -0.15610557008E+04  0.15610557008E+04  0.25500000920E-02 0. -1.
    10030    2    1    2    0    0  0.00000000000E+00  0.00000000000E+00  0.87638167582E+03  0.39984930774E+04  0.39012692868E+04 0.  0.
        5    1    3    3  502    0  0.62456369211E+03 -0.97563208090E+03 -0.11703200548E+04  0.16466963543E+04  0.46999998093E+01 0. -1.
       -5    1    3    3    0  502 -0.62456369211E+03  0.97563208090E+03  0.20467017306E+04  0.23517967231E+04  0.46999998093E+01 0.  1.
</event>
<event>
 5   0  0.1164500E-08  0.3902419E+04  0.7818609E-02  0.8024526E-01
        1   -1    0    0  501    0  0.00000000000E+00  0.00000000000E+00  0.22024942066E+04  0.22024942066E+04  0.50400001928E-02 0. -1.
       -1   -1    0    0    0  501  0.00000000000E+00  0.00000000000E+00 -0.17285940111E+04  0.17285940111E+04  0.50400001928E-02 0.  1.
    10030    2    1    2    0    0  0.00000000000E+00  0.00000000000E+00  0.47390019555E+03  0.39310882177E+04  0.39024188883E+04 0.  0.
        3    1    3    3  502    0 -0.57021757019E+03  0.70478996358E+03  0.19774576039E+04  0.21753656142E+04  0.10100000352E+00 0. -1.
       -3    1    3    3    0  502  0.57021757019E+03 -0.70478996358E+03 -0.15035574083E+04  0.17557226035E+04  0.10100000352E+00 0.  1.
</event>
<event>
 5   0  0.1164500E-08  0.3869472E+04  0.7818609E-02  0.8031408E-01
        1   -1    0    0  501    0  0.00000000000E+00  0.00000000000E+00  0.19358106155E+04  0.19358106155E+04  0.50400001928E-02 0.  1.
       -1   -1    0    0    0  501  0.00000000000E+00  0.00000000000E+00 -0.19336623757E+04  0.19336623757E+04  0.50400001928E-02 0. -1.
    10030    2    1    2    0    0  0.00000000000E+00  0.00000000000E+00  0.21482397892E+01  0.38694729912E+04  0.38694723949E+04 0.  0.
        3    1    3    3  502    0  0.10285456632E+04 -0.59700523628E+03  0.15271420830E+04  0.19355837324E+04  0.10100000352E+00 0.  1.
       -3    1    3    3    0  502 -0.10285456632E+04  0.59700523628E+03 -0.15249938432E+04  0.19338892588E+04  0.10100000352E+00 0. -1.
</event>
<event>
 5   0  0.1164500E-08  0.3904751E+04  0.7818609E-02  0.8024042E-01
       -1   -1    0    0    0  501  0.00000000000E+00  0.00000000000E+00  0.17006271303E+04  0.17006271303E+04  0.50400001928E-02 0.  1.
        1   -1    0    0  501    0  0.00000000000E+00  0.00000000000E+00 -0.22413911753E+04  0.22413911753E+04  0.50400001928E-02 0. -1.
    10030    2    1    2    0    0  0.00000000000E+00  0.00000000000E+00 -0.54076404504E+03  0.39420183056E+04  0.39047512814E+04 0.  0.
        3    1    3    3  502    0  0.58006700242E+03 -0.13256539662E+02  0.16115762360E+04  0.17128430862E+04  0.10100000352E+00 0.  1.
       -3    1    3    3    0  502 -0.58006700242E+03  0.13256539662E+02 -0.21523402811E+04  0.22291752194E+04  0.10100000352E+00 0. -1.
</event>
<event>
 5   0  0.1164500E-08  0.3899484E+04  0.7818609E-02  0.8025137E-01
       -1   -1    0    0    0  501  0.00000000000E+00  0.00000000000E+00  0.26928421921E+04  0.26928421921E+04  0.50400001928E-02 0.  1.
        1   -1    0    0  501    0  0.00000000000E+00  0.00000000000E+00 -0.14117029437E+04  0.14117029437E+04  0.50400001928E-02 0. -1.
    10030    2    1    2    0    0  0.00000000000E+00  0.00000000000E+00  0.12811392484E+04  0.41045451358E+04  0.38994836835E+04 0.  0.
        4    1    3    3  502    0  0.11088949261E+04  0.53261707980E+03 -0.95164416813E+03  0.15552996967E+04  0.12699999809E+01 0. -1.
       -4    1    3    3    0  502 -0.11088949261E+04 -0.53261707980E+03  0.22327834166E+04  0.25492454391E+04  0.12699999809E+01 0.  1.
</event>
<event>
 5   0  0.1164500E-08  0.3902180E+04  0.7818609E-02  0.8024576E-01
        1   -1    0    0  501    0  0.00000000000E+00  0.00000000000E+00  0.22061456277E+04  0.22061456277E+04  0.50400001928E-02 0. -1.
       -1   -1    0    0    0  501  0.00000000000E+00  0.00000000000E+00 -0.17255215753E+04  0.17255215753E+04  0.50400001928E-02 0.  1.
    10030    2    1    2    0    0  0.00000000000E+00  0.00000000000E+00  0.48062405247E+03  0.39316672030E+04  0.39021798415E+04 0.  0.
        5    1    3    3  502    0 -0.66194598836E+03  0.15884882250E+04 -0.68601696949E+03  0.18525951271E+04  0.46999998093E+01 0.  1.
       -5    1    3    3    0  502  0.66194598836E+03 -0.15884882250E+04  0.11666410220E+04  0.20790720759E+04  0.46999998093E+01 0. -1.
</event>
<event>
 5   0  0.3669347E-08  0.3897490E+04  0.7818609E-02  0.8025552E-01
       -2   -1    0    0    0  501  0.00000000000E+00  0.00000000000E+00  0.17837807724E+04  0.17837807724E+04  0.25500000920E-02 0.  1.
        2   -1    0    0  501    0  0.00000000000E+00  0.00000000000E+00 -0.21289646688E+04  0.21289646688E+04  0.25500000920E-02 0. -1.
    10030    2    1    2    0    0  0.00000000000E+00  0.00000000000E+00 -0.34518389641E+03  0.39127454412E+04  0.38974895722E+04 0.  0.
        5    1    3    3  502    0  0.94392697469E+03 -0.16418402251E+04 -0.63367907070E+03  0.19970500026E+04  0.46999998093E+01 0. -1.
       -5    1    3    3    0  502 -0.94392697469E+03  0.16418402251E+04  0.28849517428E+03  0.19156954387E+04  0.46999998093E+01 0.  1.
</event>
<event>
 5   0  0.3769985E-08  0.3895136E+04  0.7818609E-02  0.8026042E-01
       -2   -1    0    0    0  501  0.00000000000E+00  0.00000000000E+00  0.12513365130E+04  0.12513365130E+04  0.25500000920E-02 0. -1.
        2   -1    0    0  501    0  0.00000000000E+00  0.00000000000E+00 -0.30311763197E+04  0.30311763197E+04  0.25500000920E-02 0.  1.
    10030    2    1    2    0    0  0.00000000000E+00  0.00000000000E+00 -0.17798398067E+04  0.42825128328E+04  0.38951362525E+04 0.  0.
        1    1    3    3  502    0 -0.17892568948E+04 -0.37228905025E+03 -0.14994565938E+03  0.18337183735E+04  0.50400001928E-02 0. -1.
       -1    1    3    3    0  502  0.17892568948E+04  0.37228905025E+03 -0.16298941473E+04  0.24487944593E+04  0.50400001928E-02 0.  1.
</event>
<event>
 5   0  0.1164500E-08  0.3928158E+04  0.7818609E-02  0.8019198E-01
       -1   -1    0    0    0  501  0.00000000000E+00  0.00000000000E+00  0.19244394391E+04  0.19244394391E+04  0.50400001928E-02 0.  1.
        1   -1    0    0  501    0  0.00000000000E+00  0.00000000000E+00 -0.20045354861E+04  0.20045354862E+04  0.50400001928E-02 0. -1.
    10030    2    1    2    0    0  0.00000000000E+00  0.00000000000E+00 -0.80096047050E+02  0.39289749253E+04  0.39281584218E+04 0.  0.
        1    1    3    3  502    0 -0.17821807270E+04 -0.10783687087E+02  0.78554629736E+03  0.19476569043E+04  0.50400001928E-02 0.  1.
       -1    1    3    3    0  502  0.17821807270E+04  0.10783687087E+02 -0.86564234441E+03  0.19813180209E+04  0.50400001928E-02 0. -1.
</event>
<event>
 5   0  0.3724293E-08  0.3901660E+04  0.7818609E-02  0.8024684E-01
       -2   -1    0    0    0  501  0.00000000000E+00  0.00000000000E+00  0.23735992958E+04  0.23735992958E+04  0.25500000920E-02 0. -1.
        2   -1    0    0  501    0  0.00000000000E+00  0.00000000000E+00 -0.16033612180E+04  0.16033612180E+04  0.25500000920E-02 0.  1.
    10030    2    1    2    0    0  0.00000000000E+00  0.00000000000E+00  0.77023807783E+03  0.39769605137E+04  0.39016596765E+04 0.  0.
        4    1    3    3  502    0 -0.15045857533E+04  0.11250169168E+04  0.92090051408E+03  0.20922477678E+04  0.12699999809E+01 0. -1.
       -4    1    3    3    0  502  0.15045857533E+04 -0.11250169168E+04 -0.15066243625E+03  0.18847127459E+04  0.12699999809E+01 0.  1.
</event>
<event>
 5   0  0.3690572E-08  0.3895779E+04  0.7818609E-02  0.8025908E-01
       -2   -1    0    0    0  501  0.00000000000E+00  0.00000000000E+00  0.32957026064E+04  0.32957026064E+04  0.25500000920E-02 0. -1.
        2   -1    0    0  501    0  0.00000000000E+00  0.00000000000E+00 -0.11512791296E+04  0.11512791296E+04  0.25500000920E-02 0.  1.
    10030    2    1    2    0    0  0.00000000000E+00  0.00000000000E+00  0.21444234769E+04  0.44469817360E+04  0.38957790636E+04 0.  0.
        3    1    3    3  502    0  0.18926222814E+03  0.62781154708E+03 -0.10215091082E+04  0.12138568276E+04  0.10100000352E+00 0.  1.
       -3    1    3    3    0  502 -0.18926222814E+03 -0.62781154708E+03  0.31659325851E+04  0.32331249084E+04  0.10100000352E+00 0. -1.
</event>
<event>
 5   0  0.1164500E-08  0.3916497E+04  0.7818609E-02  0.8021607E-01
       -1   -1    0    0    0  501  0.00000000000E+00  0.00000000000E+00  0.31262859316E+04  0.31262859316E+04  0.50400001928E-02 0.  1.
        1   -1    0    0  501    0  0.00000000000E+00  0.00000000000E+00 -0.12266113194E+04  0.12266113194E+04  0.50400001928E-02 0. -1.
    10030    2    1    2    0    0  0.00000000000E+00  0.00000000000E+00  0.18996746122E+04  0.43528972510E+04  0.39164972674E+04 0.  0.
        3    1    3    3  502    0  0.92760200596E+03 -0.15828727187E+04  0.18885028412E+03  0.18443416075E+04  0.10100000352E+00 0. -1.
       -3    1    3    3    0  502 -0.92760200596E+03  0.15828727187E+04  0.17108243280E+04  0.25085556435E+04  0.10100000352E+00 0.  1.
</event>
<event>
 5   0  0.1164500E-08  0.3897997E+04  0.7818609E-02  0.8025446E-01
       -3   -1    0    0    0  501  0.00000000000E+00  0.00000000000E+00  0.22267491729E+04  0.22267491752E+04  0.10100000352E+00 0. -1.
        3   -1    0    0  501    0  0.00000000000E+00  0.00000000000E+00 -0.17058930667E+04  0.17058930696E+04  0.10100000352E+00 0.  1.
    10030    2    1    2    0    0  0.00000000000E+00  0.00000000000E+00  0.52085610622E+03  0.39326422448E+04  0.38979974272E+04 0.  0.
        2    1    3    3  502    0  0.83017818527E+02 -0.47041531717E+03  0.21667758960E+04  0.22188060556E+04  0.25500000920E-02 0. -1.
       -2    1    3    3    0  502 -0.83017818527E+02  0.47041531717E+03 -0.16459197898E+04  0.17138361892E+04  0.25500000920E-02 0.  1.
</event>
<event>
 5   0  0.1164500E-08  0.3898074E+04  0.7818609E-02  0.8025430E-01
       -1   -1    0    0    0  501  0.00000000000E+00  0.00000000000E+00  0.15097305748E+04  0.15097305748E+04  0.50400001928E-02 0.  1.
        1   -1    0    0  501    0  0.00000000000E+00  0.00000000000E+00 -0.25161739778E+04  0.25161739778E+04  0.50400001928E-02 0. -1.
    10030    2    1    2    0    0  0.00000000000E+00  0.00000000000E+00 -0.10064434030E+04  0.40259045526E+04  0.38980737735E+04 0.  0.
        4    1    3    3  502    0  0.38491197221E+03  0.14619352559E+04  0.76729512414E+03  0.16953334006E+04  0.12699999809E+01 0. -1.
       -4    1    3    3    0  502 -0.38491197221E+03 -0.14619352559E+04 -0.17737385271E+04  0.23305711520E+04  0.12699999809E+01 0.  1.
</event>
<event>
 5   0  0.3669347E-08  0.3897682E+04  0.7818609E-02  0.8025511E-01
        2   -1    0    0  501    0  0.00000000000E+00  0.00000000000E+00  0.28201392341E+04  0.28201392341E+04  0.25500000920E-02 0.  1.
       -2   -1    0    0    0  501  0.00000000000E+00  0.00000000000E+00 -0.13467356822E+04  0.13467356822E+04  0.25500000920E-02 0. -1.
    10030    2    1    2    0    0  0.00000000000E+00  0.00000000000E+00  0.14734035519E+04  0.41668749163E+04  0.38976824578E+04 0.  0.
        5    1    3    3  502    0  0.12271081198E+04 -0.12023601239E+04  0.17202970274E+04  0.24312359321E+04  0.46999998093E+01 0.  1.
       -5    1    3    3    0  502 -0.12271081198E+04  0.12023601239E+04 -0.24689347549E+03  0.17356389842E+04  0.46999998093E+01 0. -1.
</event>
<event>
 5   0  0.3872969E-08  0.3915695E+04  0.7818609E-02  0.8021773E-01
        2   -1    0    0  501    0  0.00000000000E+00  0.00000000000E+00  0.21559647499E+04  0.21559647499E+04  0.25500000920E-02 0. -1.
       -2   -1    0    0    0  501  0.00000000000E+00  0.00000000000E+00 -0.17779360330E+04  0.17779360330E+04  0.25500000920E-02 0.  1.
    10030    2    1    2    0    0  0.00000000000E+00  0.00000000000E+00  0.37802871693E+03  0.39339007829E+04  0.39156952970E+04 0.  0.
        2    1    3    3  502    0  0.13563416203E+04 -0.11547260189E+04  0.10052650062E+04  0.20453881056E+04  0.25500000920E-02 0. -1.
       -2    1    3    3    0  502 -0.13563416203E+04  0.11547260189E+04 -0.62723628928E+03  0.18885126773E+04  0.25500000920E-02 0.  1.
</event>
<event>
 5   0  0.3690572E-08  0.3914923E+04  0.7818609E-02  0.8021933E-01
       -2   -1    0    0    0  501  0.00000000000E+00  0.00000000000E+00  0.18784662861E+04  0.18784662861E+04  0.25500000920E-02 0.  1.
        2   -1    0    0  501    0  0.00000000000E+00  0.00000000000E+00 -0.20397788216E+04  0.20397788216E+04  0.25500000920E-02 0. -1.
    10030    2    1    2    0    0  0.00000000000E+00  0.00000000000E+00 -0.16131253543E+03  0.39182451077E+04  0.39149231142E+04 0.  0.
        3    1    3    3  502    0 -0.86071435115E+03  0.11225830745E+04  0.12735009820E+04  0.19033724583E+04  0.10100000352E+00 0.  1.
       -3    1    3    3    0  502  0.86071435115E+03 -0.11225830745E+04 -0.14348135174E+04  0.20148726494E+04  0.10100000352E+00 0. -1.
</event>
<event>
 5   0  0.3872969E-08  0.3904078E+04  0.7818609E-02  0.8024182E-01
       -2   -1    0    0    0  501  0.00000000000E+00  0.00000000000E+00  0.13062771882E+04  0.13062771882E+04  0.25500000920E-02 0.  1.
        2   -1    0    0  501    0  0.00000000000E+00  0.00000000000E+00 -0.29170347736E+04  0.29170347736E+04  0.25500000920E-02 0. -1.
    10030    2    1    2    0    0  0.00000000000E+00  0.00000000000E+00 -0.16107575854E+04  0.42233119618E+04  0.39040778588E+04 0.  0.
        2    1    3    3  502    0  0.94373594472E+03  0.12805384052E+04 -0.20292802050E+04  0.25784480392E+04  0.25500000920E-02 0. -1.
       -2    1    3    3    0  502 -0.94373594472E+03 -0.12805384052E+04  0.41852261964E+03  0.16448639226E+04  0.25500000920E-02 0.  1.
</event>
<event>
 5   0  0.3690572E-08  0.3901475E+04  0.7818609E-02  0.8024723E-01
        2   -1    0    0  501    0  0.00000000000E+00  0.00000000000E+00  0.13546329997E+04  0.13546329997E+04  0.25500000920E-02 0. -1.
       -2   -1    0    0    0  501  0.00000000000E+00  0.00000000000E+00 -0.28091565651E+04  0.28091565651E+04  0.25500000920E-02 0.  1.
    10030    2    1    2    0    0  0.00000000000E+00  0.00000000000E+00 -0.14545235654E+04  0.41637895648E+04  0.39014746875E+04 0.  0.
        3    1    3    3  502    0 -0.15147152861E+02  0.94995422914E+03 -0.25455535668E+04  0.27170729554E+04  0.10100000352E+00 0.  1.
       -3    1    3    3    0  502  0.15147152861E+02 -0.94995422914E+03  0.10910300014E+04  0.14467166093E+04  0.10100000352E+00 0. -1.
</event>
<event>
 5   0  0.3669347E-08  0.3901233E+04  0.7818609E-02  0.8024773E-01
       -2   -1    0    0    0  501  0.00000000000E+00  0.00000000000E+00  0.21639499821E+04  0.21639499821E+04  0.25500000920E-02 0. -1.
        2   -1    0    0  501    0  0.00000000000E+00  0.00000000000E+00 -0.17583142042E+04  0.17583142042E+04  0.25500000920E-02 0.  1.
    10030    2    1    2    0    0  0.00000000000E+00  0.00000000000E+00  0.40563577782E+03  0.39222641863E+04  0.39012326210E+04 0.  0.
        5    1    3    3  502    0 -0.13936708853E+04  0.12182681531E+04 -0.41562922343E+03  0.18971730472E+04  0.46999998093E+01 0. -1.
       -5    1    3    3    0  502  0.13936708853E+04 -0.12182681531E+04  0.82126500125E+03  0.20250911391E+04  0.46999998093E+01 0.  1.
</event>
<event>
 5   0  0.3724293E-08  0.3896794E+04  0.7818609E-02  0.8025696E-01
        2   -1    0    0  501    0  0.00000000000E+00  0.00000000000E+00  0.14345068516E+04  0.14345068516E+04  0.25500000920E-02 0. -1.
       -2   -1    0    0    0  501  0.00000000000E+00  0.00000000000E+00 -0.26463808261E+04  0.26463808261E+04  0.25500000920E-02 0.  1.
    10030    2    1    2    0    0  0.00000000000E+00  0.00000000000E+00 -0.12118739745E+04  0.40808876777E+04  0.38967942861E+04 0.  0.
        4    1    3    3  502    0  0.60550245663E+02 -0.11454843354E+04  0.10434111075E+04  0.15506479442E+04  0.12699999809E+01 0. -1.
       -4    1    3    3    0  502 -0.60550245663E+02  0.11454843354E+04 -0.22552850820E+04  0.25302397335E+04  0.12699999809E+01 0.  1.
</event>
<event>
 5   0  0.3724293E-08  0.3894143E+04  0.7818609E-02  0.8026249E-01
       -2   -1    0    0    0  501  0.00000000000E+00  0.00000000000E+00  0.30189032022E+04  0.30189032022E+04  0.25500000920E-02 0. -1.
        2   -1    0    0  501    0  0.00000000000E+00  0.00000000000E+00 -0.12557827486E+04  0.12557827486E+04  0.25500000920E-02 0.  1.
    10030    2    1    2    0    0  0.00000000000E+00  0.00000000000E+00  0.17631204536E+04  0.42746859509E+04  0.38941425558E+04 0.  0.
        4    1    3    3  502    0 -0.13860932356E+04 -0.13548894135E+04  0.10842829637E+04  0.22209572124E+04  0.12699999809E+01 0.  1.
       -4    1    3    3    0  502  0.13860932356E+04  0.13548894135E+04  0.67883748984E+03  0.20537287385E+04  0.12699999809E+01 0. -1.
</event>
<event>
 5   0  0.1164500E-08  0.3890162E+04  0.7818609E-02  0.8027078E-01
        1   -1    0    0  501    0  0.00000000000E+00  0.00000000000E+00  0.29638341959E+04  0.29638341959E+04  0.50400001928E-02 0.  1.
       -1   -1    0    0    0  501  0.00000000000E+00  0.00000000000E+00 -0.12765020247E+04  0.12765020247E+04  0.50400001928E-02 0. -1.
    10030    2    1    2    0    0  0.00000000000E+00  0.00000000000E+00  0.16873321711E+04  0.42403362206E+04  0.38901621313E+04 0.  0.
        1    1    3    3  502    0  0.11966469929E+04  0.99594267272E+03  0.21145858326E+04  0.26258977658E+04  0.50400001928E-02 0.  1.
       -1    1    3    3    0  502 -0.11966469929E+04 -0.99594267272E+03 -0.42725366146E+03  0.16144384548E+04  0.50400001928E-02 0. -1.
</event>
<event>
 5   0  0.3872969E-08  0.3905317E+04  0.7818609E-02  0.8023924E-01
        2   -1    0    0  501    0  0.00000000000E+00  0.00000000000E+00  0.17212316953E+04  0.17212316953E+04  0.25500000920E-02 0. -1.
       -2   -1    0    0    0  501  0.00000000000E+00  0.00000000000E+00 -0.22152013156E+04  0.22152013156E+04  0.25500000920E-02 0.  1.
    10030    2    1    2    0    0  0.00000000000E+00  0.00000000000E+00 -0.49396962024E+03  0.39364330109E+04  0.39053167431E+04 0.  0.
        2    1    3    3  502    0  0.93651960934E+03  0.12846710774E+04  0.89581493563E+03  0.18248104435E+04  0.25500000920E-02 0. -1.
       -2    1    3    3    0  502 -0.93651960934E+03 -0.12846710774E+04 -0.13897845559E+04  0.21116225675E+04  0.25500000920E-02 0.  1.
</event>
<event>
 5   0  0.1164500E-08  0.3898342E+04  0.7818609E-02  0.8025374E-01
       -3   -1    0    0    0  501  0.00000000000E+00  0.00000000000E+00  0.11961504196E+04  0.11961504238E+04  0.10100000352E+00 0. -1.
        3   -1    0    0  501    0  0.00000000000E+00  0.00000000000E+00 -0.31762456386E+04  0.31762456402E+04  0.10100000352E+00 0.  1.
    10030    2    1    2    0    0  0.00000000000E+00  0.00000000000E+00 -0.19800952191E+04  0.43723960640E+04  0.38983419891E+04 0.  0.
        2    1    3    3  502    0 -0.25809499232E+03 -0.83211584584E+03 -0.29457075207E+04  0.30718435187E+04  0.25500000920E-02 0.  1.
       -2    1    3    3    0  502  0.25809499232E+03  0.83211584584E+03  0.96561230166E+03  0.13005525453E+04  0.25500000920E-02 0. -1.
</event>
<event>
 5   0  0.1164500E-08  0.3894590E+04  0.7818609E-02  0.8026155E-01
        1   -1    0    0  501    0  0.00000000000E+00  0.00000000000E+00  0.20712415487E+04  0.20712415487E+04  0.50400001928E-02 0. -1.
       -1   -1    0    0    0  501  0.00000000000E+00  0.00000000000E+00 -0.18307657950E+04  0.18307657950E+04  0.50400001928E-02 0.  1.
    10030    2    1    2    0    0  0.00000000000E+00  0.00000000000E+00  0.24047575375E+03  0.39020073437E+04  0.38945901867E+04 0.  0.
        1    1    3    3  502    0 -0.87193442085E+03  0.58925782161E+03 -0.15213158082E+04  0.18498368044E+04  0.50400001928E-02 0.  1.
       -1    1    3    3    0  502  0.87193442085E+03 -0.58925782161E+03  0.17617915620E+04  0.20521705393E+04  0.50400001928E-02 0. -1.
</event>
<event>
 5   0  0.1164500E-08  0.3898089E+04  0.7818609E-02  0.8025427E-01
        1   -1    0    0  501    0  0.00000000000E+00  0.00000000000E+00  0.23195694690E+04  0.23195694690E+04  0.50400001928E-02 0.  1.
       -1   -1    0    0    0  501  0.00000000000E+00  0.00000000000E+00 -0.16377065822E+04  0.16377065822E+04  0.50400001928E-02 0. -1.
    10030    2    1    2    0    0  0.00000000000E+00  0.00000000000E+00  0.68186288676E+03  0.39572760512E+04  0.38980888586E+04 0.  0.
        5    1    3    3  502    0 -0.16815693745E+04  0.58689920750E+03  0.11445477997E+04  0.21171060429E+04  0.46999998093E+01 0.  1.
       -5    1    3    3    0  502  0.16815693745E+04 -0.58689920750E+03 -0.46268491294E+03  0.18401700084E+04  0.46999998093E+01 0. -1.
</event>
<event>
 5   0  0.3769985E-08  0.3925722E+04  0.7818609E-02  0.8019701E-01
        2   -1    0    0  501    0  0.00000000000E+00  0.00000000000E+00  0.32473087320E+04  0.32473087320E+04  0.25500000920E-02 0.  1.
       -2   -1    0    0    0  501  0.00000000000E+00  0.00000000000E+00 -0.11864664298E+04  0.11864664298E+04  0.25500000920E-02 0. -1.
    10030    2    1    2    0    0  0.00000000000E+00  0.00000000000E+00  0.20608423021E+04  0.44337751618E+04  0.39257217414E+04 0.  0.
        1    1    3    3  502    0 -0.13833831468E+04 -0.11328471430E+04  0.11585087459E+03  0.17917904469E+04  0.50400001928E-02 0. -1.
       -1    1    3    3    0  502  0.13833831468E+04  0.11328471430E+04  0.19449914276E+04  0.26419847149E+04  0.50400001928E-02 0.  1.
</event>
<event>
 5   0  0.3690572E-08  0.3904569E+04  0.7818609E-02  0.8024080E-01
        2   -1    0    0  501    0  0.00000000000E+00  0.00000000000E+00  0.22126481199E+04  0.22126481199E+04  0.25500000920E-02 0.  1.
       -2   -1    0    0    0  501  0.00000000000E+00  0.00000000000E+00 -0.17225581061E+04  0.17225581061E+04  0.25500000920E-02 0. -1.
    10030    2    1    2    0    0  0.00000000000E+00  0.00000000000E+00  0.49009001378E+03  0.39352062259E+04  0.39045690952E+04 0.  0.
        3    1    3    3  502    0 -0.12066272249E+04 -0.13264400704E+04 -0.53303755813E+03  0.18707008229E+04  0.10100000352E+00 0. -1.
       -3    1    3    3    0  502  0.12066272249E+04  0.13264400704E+04  0.10231275719E+04  0.20645054030E+04  0.10100000352E+00 0.  1.
</event>
<event>
 5   0  0.3669347E-08  0.3905262E+04  0.7818609E-02  0.8023936E-01
        2   -1    0    0  501    0  0.00000000000E+00  0.00000000000E+00  0.18515475334E+04  0.18515475334E+04  0.25500000920E-02 0. -1.
       -2   -1    0    0    0  501  0.00000000000E+00  0.00000000000E+00 -0.20592335354E+04  0.20592335354E+04  0.25500000920E-02 0.  1.
    10030    2    1    2    0    0  0.00000000000E+00  0.00000000000E+00 -0.20768600200E+03  0.39107810689E+04  0.39052624871E+04 0.  0.
        5    1    3    3  502    0 -0.87777296214E+03 -0.15793876779E+04 -0.84502122731E+03  0.19947515572E+04  0.46999998093E+01 0. -1.
       -5    1    3    3    0  502  0.87777296214E+03  0.15793876779E+04  0.63733522530E+03  0.19160295117E+04  0.46999998093E+01 0.  1.
</event>
<event>
 5   0  0.1164500E-08  0.3888653E+04  0.7818609E-02  0.8027393E-01
        3   -1    0    0  501    0  0.00000000000E+00  0.00000000000E+00  0.15235795258E+04  0.15235795292E+04  0.10100000352E+00 0.  1.
       -3   -1    0    0    0  501  0.00000000000E+00  0.00000000000E+00 -0.24812661994E+04  0.24812662015E+04  0.10100000352E+00 0. -1.
    10030    2    1    2    0    0  0.00000000000E+00  0.00000000000E+00 -0.95768667357E+03  0.40048457306E+04  0.38886534381E+04 0.  0.
        4    1    3    3  502    0 -0.38761016484E+03  0.75074178698E+03  0.13246376577E+04  0.15711528912E+04  0.12699999809E+01 0.  1.
       -4    1    3    3    0  502  0.38761016484E+03 -0.75074178698E+03 -0.22823243313E+04  0.24336928394E+04  0.12699999809E+01 0. -1.
</event>
<event>
 5   0  0.3690572E-08  0.3892214E+04  0.7818609E-02  0.8026650E-01
       -2   -1    0    0    0  501  0.00000000000E+00  0.00000000000E+00  0.22031704488E+04  0.22031704488E+04  0.25500000920E-02 0. -1.
        2   -1    0    0  501    0  0.00000000000E+00  0.00000000000E+00 -0.17190374161E+04  0.17190374161E+04  0.25500000920E-02 0.  1.
    10030    2    1    2    0    0  0.00000000000E+00  0.00000000000E+00  0.48413303268E+03  0.39222078649E+04  0.38922139898E+04 0.  0.
        3    1    3    3  502    0  0.56083867634E+03  0.62678188792E+03  0.20105654580E+04  0.21793964823E+04  0.10100000352E+00 0. -1.
       -3    1    3    3    0  502 -0.56083867634E+03 -0.62678188792E+03 -0.15264324253E+04  0.17428113826E+04  0.10100000352E+00 0.  1.
</event>
<event>
 5   0  0.3724293E-08  0.3886065E+04  0.7818609E-02  0.8027934E-01
        2   -1    0    0  501    0  0.00000000000E+00  0.00000000000E+00  0.29275410267E+04  0.29275410267E+04  0.25500000920E-02 0.  1.
       -2   -1    0    0    0  501  0.00000000000E+00  0.00000000000E+00 -0.12896064133E+04  0.12896064133E+04  0.25500000920E-02 0. -1.
    10030    2    1    2    0    0  0.00000000000E+00  0.00000000000E+00  0.16379346134E+04  0.42171474400E+04  0.38860651992E+04 0.  0.
        4    1    3    3  502    0 -0.10588238153E+04  0.70305809316E+03 -0.77593143886E+03  0.14891171092E+04  0.12699999809E+01 0. -1.
       -4    1    3    3    0  502  0.10588238153E+04 -0.70305809316E+03  0.24138660523E+04  0.27280303308E+04  0.12699999809E+01 0.  1.
</event>
<event>
 5   0  0.3669347E-08  0.3903636E+04  0.7818609E-02  0.8024273E-01
       -2   -1    0    0    0  501  0.00000000000E+00  0.00000000000E+00  0.17936605155E+04  0.17936605155E+04  0.25500000920E-02 0.  1.
        2   -1    0    0  501    0  0.00000000000E+00  0.00000000000E+00 -0.21239213280E+04  0.21239213280E+04  0.25500000920E-02 0. -1.
    10030    2    1    2    0    0  0.00000000000E+00  0.00000000000E+00 -0.33026081256E+03  0.39175818435E+04  0.39036361634E+04 0.  0.
        5    1    3    3  502    0 -0.53563136023E+03 -0.14768683878E+04 -0.13275128137E+04  0.20567823291E+04  0.46999998093E+01 0. -1.
       -5    1    3    3    0  502  0.53563136023E+03  0.14768683878E+04  0.99725200116E+03  0.18607995144E+04  0.46999998093E+01 0.  1.
</event>
<event>
 5   0  0.1164500E-08  0.3901149E+04  0.7818609E-02  0.8024790E-01
       -1   -1    0    0    0  501  0.00000000000E+00  0.00000000000E+00  0.19106260356E+04  0.19106260356E+04  0.50400001928E-02 0.  1.
        1   -1    0    0  501    0  0.00000000000E+00  0.00000000000E+00 -0.19913581816E+04  0.19913581816E+04  0.50400001928E-02 0. -1.
    10030    2    1    2    0    0  0.00000000000E+00  0.00000000000E+00 -0.80732146017E+02  0.39019842172E+04  0.39011489528E+04 0.  0.
        5    1    3    3  502    0  0.87137841952E+03 -0.13731224347E+04 -0.11176078701E+04  0.19732802669E+04  0.46999998093E+01 0. -1.
       -5    1    3    3    0  502 -0.87137841952E+03  0.13731224347E+04  0.10368757241E+04  0.19287039503E+04  0.46999998093E+01 0.  1.
</event>
<event>
 5   0  0.3690572E-08  0.3919184E+04  0.7818609E-02  0.8021051E-01
       -2   -1    0    0    0  501  0.00000000000E+00  0.00000000000E+00  0.16802036036E+04  0.16802036036E+04  0.25500000920E-02 0.  1.
        2   -1    0    0  501    0  0.00000000000E+00  0.00000000000E+00 -0.22854382262E+04  0.22854382262E+04  0.25500000920E-02 0. -1.
    10030    2    1    2    0    0  0.00000000000E+00  0.00000000000E+00 -0.60523462253E+03  0.39656418298E+04  0.39191843761E+04 0.  0.
        3    1    3    3  502    0 -0.11473672503E+04 -0.19764974419E+03  0.12922917962E+04  0.17394065439E+04  0.10100000352E+00 0.  1.
       -3    1    3    3    0  502  0.11473672503E+04  0.19764974419E+03 -0.18975264187E+04  0.22262352859E+04  0.10100000352E+00 0. -1.
</event>
<event>
 5   0  0.3769985E-08  0.3898686E+04  0.7818609E-02  0.8025303E-01
       -2   -1    0    0    0  501  0.00000000000E+00  0.00000000000E+00  0.21520908124E+04  0.21520908124E+04  0.25500000920E-02 0.  1.
        2   -1    0    0  501    0  0.00000000000E+00  0.00000000000E+00 -0.17656961564E+04  0.17656961564E+04  0.25500000920E-02 0. -1.
    10030    2    1    2    0    0  0.00000000000E+00  0.00000000000E+00  0.38639465599E+03  0.39177869688E+04  0.38986861765E+04 0.  0.
        1    1    3    3  502    0  0.71831458795E+03 -0.23281471360E+03 -0.16127607334E+04  0.17807795263E+04  0.50400001928E-02 0. -1.
       -1    1    3    3    0  502 -0.71831458795E+03  0.23281471360E+03  0.19991553894E+04  0.21370074425E+04  0.50400001928E-02 0.  1.
</event>
<event>
 5   0  0.3724293E-08  0.3904549E+04  0.7818609E-02  0.8024084E-01
       -2   -1    0    0    0  501  0.00000000000E+00  0.00000000000E+00  0.19711842515E+04  0.19711842516E+04  0.25500000920E-02 0.  1.
        2   -1    0    0  501    0  0.00000000000E+00  0.00000000000E+00 -0.19335463042E+04  0.19335463042E+04  0.25500000920E-02 0. -1.
    10030    2    1    2    0    0  0.00000000000E+00  0.00000000000E+00  0.37637947370E+02  0.39047305557E+04  0.39045491542E+04 0.  0.
        4    1    3    3  502    0  0.17488907226E+04 -0.12061093918E+03 -0.84041164027E+03  0.19440830991E+04  0.12699999809E+01 0. -1.
       -4    1    3    3    0  502 -0.17488907226E+04  0.12061093918E+03  0.87804958764E+03  0.19606474567E+04  0.12699999809E+01 0.  1.
</event>
<event>
 5   0  0.3769985E-08  0.3894680E+04  0.7818609E-02  0.8026137E-01
        2   -1    0    0  501    0  0.00000000000E+00  0.00000000000E+00  0.24252378636E+04  0.24252378636E+04  0.25500000920E-02 0. -1.
       -2   -1    0    0    0  501  0.00000000000E+00  0.00000000000E+00 -0.15636127885E+04  0.15636127885E+04  0.25500000920E-02 0.  1.
    10030    2    1    2    0    0  0.00000000000E+00  0.00000000000E+00  0.86162507503E+03  0.39888506521E+04  0.38946799297E+04 0.  0.
        1    1    3    3  502    0 -0.18419271782E+03 -0.18506836742E+04  0.10219831079E+04  0.21221231096E+04  0.50400001928E-02 0.  1.
       -1    1    3    3    0  502  0.18419271782E+03  0.18506836742E+04 -0.16035803287E+03  0.18667275425E+04  0.50400001928E-02 0. -1.
</event>
<event>
 5   0  0.3690572E-08  0.3901658E+04  0.7818609E-02  0.8024685E-01
        2   -1    0    0  501    0  0.00000000000E+00  0.00000000000E+00  0.29290807906E+04  0.29290807906E+04  0.25500000920E-02 0. -1.
       -2   -1    0    0    0  501  0.00000000000E+00  0.00000000000E+00 -0.12992925494E+04  0.12992925494E+04  0.25500000920E-02 0.  1.
    10030    2    1    2    0    0  0.00000000000E+00  0.00000000000E+00  0.16297882411E+04  0.42283733400E+04  0.39016575185E+04 0.  0.
        3    1    3    3  502    0 -0.97533428157E+03 -0.29778807069E+03 -0.98742981737E+03  0.14194972174E+04  0.10100000352E+00 0.  1.
       -3    1    3    3    0  502  0.97533428157E+03  0.29778807069E+03  0.26172180585E+04  0.28088761226E+04  0.10100000352E+00 0. -1.
</event>
<event>
 5   0  0.3872969E-08  0.3900596E+04  0.7818609E-02  0.8024905E-01
        2   -1    0    0  501    0  0.00000000000E+00  0.00000000000E+00  0.11967135411E+04  0.11967135411E+04  0.25500000920E-02 0. -1.
       -2   -1    0    0    0  501  0.00000000000E+00  0.00000000000E+00 -0.31784236889E+04  0.31784236889E+04  0.25500000920E-02 0.  1.
    10030    2    1    2    0    0  0.00000000000E+00  0.00000000000E+00 -0.19817101478E+04  0.43751372300E+04  0.39005961943E+04 0.  0.
        2    1    3    3  502    0 -0.18775538097E+04 -0.44285467847E+03 -0.13127028707E+04  0.23333489669E+04  0.25500000920E-02 0. -1.
       -2    1    3    3    0  502  0.18775538097E+04  0.44285467847E+03 -0.66900727717E+03  0.20417882631E+04  0.25500000920E-02 0.  1.
</event>
<event>
 5   0  0.3769985E-08  0.3897284E+04  0.7818609E-02  0.8025594E-01
       -2   -1    0    0    0  501  0.00000000000E+00  0.00000000000E+00  0.33716362891E+04  0.33716362891E+04  0.25500000920E-02 0. -1.
        2   -1    0    0  501    0  0.00000000000E+00  0.00000000000E+00 -0.11262206994E+04  0.11262206994E+04  0.25500000920E-02 0.  1.
    10030    2    1    2    0    0  0.00000000000E+00  0.00000000000E+00  0.22454155897E+04  0.44978569885E+04  0.38972844801E+04 0.  0.
        1    1    3    3  502    0 -0.19706110121E+03 -0.10395479617E+04 -0.76582961350E+03  0.13061347707E+04  0.50400001928E-02 0.  1.
       -1    1    3    3    0  502  0.19706110121E+03  0.10395479617E+04  0.30112452032E+04  0.31917222178E+04  0.50400001928E-02 0. -1.
</event>
<event>
 5   0  0.3872969E-08  0.3908312E+04  0.7818609E-02  0.8023303E-01
       -2   -1    0    0    0  501  0.00000000000E+00  0.00000000000E+00  0.18601101684E+04  0.18601101684E+04  0.25500000920E-02 0.  1.
        2   -1    0    0  501    0  0.00000000000E+00  0.00000000000E+00 -0.20529571599E+04  0.20529571599E+04  0.25500000920E-02 0. -1.
    10030    2    1    2    0    0  0.00000000000E+00  0.00000000000E+00 -0.19284699146E+03  0.39130673284E+04  0.39083124177E+04 0.  0.
        2    1    3    3  502    0  0.11244377174E+04 -0.15181367229E+04  0.40381141766E+03  0.19318806772E+04  0.25500000920E-02 0.  1.
       -2    1    3    3    0  502 -0.11244377174E+04  0.15181367229E+04 -0.59665840912E+03  0.19811866512E+04  0.25500000920E-02 0. -1.
</event>
<event>
 5   0  0.1164500E-08  0.3896169E+04  0.7818609E-02  0.8025826E-01
        1   -1    0    0  501    0  0.00000000000E+00  0.00000000000E+00  0.23807996845E+04  0.23807996845E+04  0.50400001928E-02 0.  1.
       -1   -1    0    0    0  501  0.00000000000E+00  0.00000000000E+00 -0.15940161407E+04  0.15940161407E+04  0.50400001928E-02 0. -1.
    10030    2    1    2    0    0  0.00000000000E+00  0.00000000000E+00  0.78678354384E+03  0.39748158252E+04  0.38961689516E+04 0.  0.
        1    1    3    3  502    0 -0.27894752838E+03  0.11013117379E+04 -0.12210609872E+04  0.16678396812E+04  0.50400001928E-02 0. -1.
       -1    1    3    3    0  502  0.27894752838E+03 -0.11013117379E+04  0.20078445311E+04  0.23069761439E+04  0.50400001928E-02 0.  1.
</event>
<event>
 5   0  0.1164500E-08  0.3900397E+04  0.7818609E-02  0.8024947E-01
        1   -1    0    0  501    0  0.00000000000E+00  0.00000000000E+00  0.17599427750E+04  0.17599427750E+04  0.50400001928E-02 0. -1.
       -1   -1    0    0    0  501  0.00000000000E+00  0.00000000000E+00 -0.21610219972E+04  0.21610219972E+04  0.50400001928E-02 0.  1.
    10030    2    1    2    0    0  0.00000000000E+00  0.00000000000E+00 -0.40107922221E+03  0.39209647722E+04  0.39003974416E+04 0.  0.
        2    1    3    3  502    0 -0.15875239953E+04 -0.55952938438E+03  0.78952403230E+03  0.18592078327E+04  0.25500000920E-02 0. -1.
       -2    1    3    3    0  502  0.15875239953E+04  0.55952938438E+03 -0.11906032545E+04  0.20617569395E+04  0.25500000920E-02 0.  1.
</event>
<event>
 5   0  0.1164500E-08  0.3897524E+04  0.7818609E-02  0.8025544E-01
        1   -1    0    0  501    0  0.00000000000E+00  0.00000000000E+00  0.20882599883E+04  0.20882599883E+04  0.50400001928E-02 0. -1.
       -1   -1    0    0    0  501  0.00000000000E+00  0.00000000000E+00 -0.18185829965E+04  0.18185829965E+04  0.50400001928E-02 0.  1.
    10030    2    1    2    0    0  0.00000000000E+00  0.00000000000E+00  0.26967699183E+03  0.39068429848E+04  0.38975243974E+04 0.  0.
        4    1    3    3  502    0 -0.67560453709E+03  0.18207695992E+04 -0.26882512897E+02  0.19422584036E+04  0.12699999809E+01 0. -1.
       -4    1    3    3    0  502  0.67560453709E+03 -0.18207695992E+04  0.29655950473E+03  0.19645845812E+04  0.12699999809E+01 0.  1.
</event>
<event>
 5   0  0.3690572E-08  0.3894229E+04  0.7818609E-02  0.8026231E-01
        2   -1    0    0  501    0  0.00000000000E+00  0.00000000000E+00  0.21389931105E+04  0.21389931105E+04  0.25500000920E-02 0. -1.
       -2   -1    0    0    0  501  0.00000000000E+00  0.00000000000E+00 -0.17724485162E+04  0.17724485162E+04  0.25500000920E-02 0.  1.
    10030    2    1    2    0    0  0.00000000000E+00  0.00000000000E+00  0.36654459422E+03  0.39114416267E+04  0.38942291483E+04 0.  0.
        3    1    3    3  502    0  0.15751210023E+04 -0.11430297169E+04  0.12191177665E+03  0.19499706657E+04  0.10100000352E+00 0. -1.
       -3    1    3    3    0  502 -0.15751210023E+04  0.11430297169E+04  0.24463281758E+03  0.19614709611E+04  0.10100000352E+00 0.  1.
</event>
<event>
 5   0  0.3690572E-08  0.3892804E+04  0.7818609E-02  0.8026528E-01
       -2   -1    0    0    0  501  0.00000000000E+00  0.00000000000E+00  0.21544115136E+04  0.21544115136E+04  0.25500000920E-02 0. -1.
        2   -1    0    0  501    0  0.00000000000E+00  0.00000000000E+00 -0.17584755906E+04  0.17584755906E+04  0.25500000920E-02 0.  1.
    10030    2    1    2    0    0  0.00000000000E+00  0.00000000000E+00  0.39593592304E+03  0.39128871042E+04  0.38928036472E+04 0.  0.
        3    1    3    3  502    0  0.15479931956E+04 -0.11751644964E+04  0.91660698958E+02  0.19456865681E+04  0.10100000352E+00 0.  1.
       -3    1    3    3    0  502 -0.15479931956E+04  0.11751644964E+04  0.30427522409E+03  0.19672005362E+04  0.10100000352E+00 0. -1.
</event>
<event>
 5   0  0.1164500E-08  0.3897666E+04  0.7818609E-02  0.8025515E-01
       -1   -1    0    0    0  501  0.00000000000E+00  0.00000000000E+00  0.24204876744E+04  0.24204876744E+04  0.50400001928E-02 0.  1.
        1   -1    0    0  501    0  0.00000000000E+00  0.00000000000E+00 -0.15690843903E+04  0.15690843903E+04  0.50400001928E-02 0. -1.
    10030    2    1    2    0    0  0.00000000000E+00  0.00000000000E+00  0.85140328407E+03  0.39895720647E+04  0.38976656741E+04 0.  0.
        3    1    3    3  502    0 -0.74999997376E+03 -0.10375695654E+04 -0.10782638709E+04  0.16738290084E+04  0.10100000352E+00 0. -1.
       -3    1    3    3    0  502  0.74999997376E+03  0.10375695654E+04  0.19296671550E+04  0.23157430563E+04  0.10100000352E+00 0.  1.
</event>
<event>
 5   0  0.1164500E-08  0.3907857E+04  0.7818609E-02  0.8023397E-01
        1   -1    0    0  501    0  0.00000000000E+00  0.00000000000E+00  0.21338175333E+04  0.21338175333E+04  0.50400001928E-02 0.  1.
       -1   -1    0    0    0  501  0.00000000000E+00  0.00000000000E+00 -0.17892047655E+04  0.17892047655E+04  0.50400001928E-02 0. -1.
    10030    2    1    2    0    0  0.00000000000E+00  0.00000000000E+00  0.34461276781E+03  0.39230222988E+04  0.39078569571E+04 0.  0.
        4    1    3    3  502    0 -0.18259522777E+03  0.28813418625E+03  0.21036937462E+04  0.21311713486E+04  0.12699999809E+01 0.  1.
       -4    1    3    3    0  502  0.18259522777E+03 -0.28813418625E+03 -0.17590809784E+04  0.17918509502E+04  0.12699999809E+01 0. -1.
</event>
<event>
 5   0  0.1164500E-08  0.3883798E+04  0.7818609E-02  0.8028407E-01
        3   -1    0    0  501    0  0.00000000000E+00  0.00000000000E+00  0.30270796958E+04  0.30270796975E+04  0.10100000352E+00 0. -1.
       -3   -1    0    0    0  501  0.00000000000E+00  0.00000000000E+00 -0.12457456881E+04  0.12457456922E+04  0.10100000352E+00 0.  1.
    10030    2    1    2    0    0  0.00000000000E+00  0.00000000000E+00  0.17813340077E+04  0.42728253896E+04  0.38837978788E+04 0.  0.
        5    1    3    3  502    0  0.10743871845E+04 -0.10943728395E+03  0.26662233851E+04  0.28766392840E+04  0.46999998093E+01 0. -1.
       -5    1    3    3    0  502 -0.10743871845E+04  0.10943728395E+03 -0.88488937737E+03  0.13961861056E+04  0.46999998093E+01 0.  1.
</event>
<event>
 5   0  0.3724293E-08  0.3877269E+04  0.7818609E-02  0.8029773E-01
        2   -1    0    0  501    0  0.00000000000E+00  0.00000000000E+00  0.14450619651E+04  0.14450619651E+04  0.25500000920E-02 0. -1.
       -2   -1    0    0    0  501  0.00000000000E+00  0.00000000000E+00 -0.26007909506E+04  0.26007909506E+04  0.25500000920E-02 0.  1.
    10030    2    1    2    0    0  0.00000000000E+00  0.00000000000E+00 -0.11557289855E+04  0.40458529157E+04  0.38772691843E+04 0.  0.
        4    1    3    3  502    0 -0.18791301829E+04 -0.45709204549E+03 -0.43694026020E+03  0.19826703676E+04  0.12699999809E+01 0.  1.
       -4    1    3    3    0  502  0.18791301829E+04  0.45709204549E+03 -0.71878872530E+03  0.20631825482E+04  0.12699999809E+01 0. -1.
</event>
<event>
 5   0  0.3724293E-08  0.3911779E+04  0.7818609E-02  0.8022584E-01
       -2   -1    0    0    0  501  0.00000000000E+00  0.00000000000E+00  0.18877706838E+04  0.18877706838E+04  0.25500000920E-02 0. -1.
        2   -1    0    0  501    0  0.00000000000E+00  0.00000000000E+00 -0.20264661981E+04  0.20264661981E+04  0.25500000920E-02 0.  1.
    10030    2    1    2    0    0  0.00000000000E+00  0.00000000000E+00 -0.13869551432E+03  0.39142368819E+04  0.39117788692E+04 0.  0.
        4    1    3    3  502    0  0.37964581103E+03 -0.18426032657E+04 -0.60464570998E+03  0.19760859759E+04  0.12699999809E+01 0.  1.
       -4    1    3    3    0  502 -0.37964581103E+03  0.18426032657E+04  0.46595019566E+03  0.19381509060E+04  0.12699999809E+01 0. -1.
</event>
<event>
 5   0  0.3690572E-08  0.3900748E+04  0.7818609E-02  0.8024874E-01
       -2   -1    0    0    0  501  0.00000000000E+00  0.00000000000E+00  0.21524477360E+04  0.21524477360E+04  0.25500000920E-02 0. -1.
        2   -1    0    0  501    0  0.00000000000E+00  0.00000000000E+00 -0.17672710152E+04  0.17672710152E+04  0.25500000920E-02 0.  1.
    10030    2    1    2    0    0  0.00000000000E+00  0.00000000000E+00  0.38517672073E+03  0.39197187512E+04  0.39007478747E+04 0.  0.
        3    1    3    3  502    0 -0.48958324387E+03  0.17784823884E+04 -0.44394888015E+03  0.18973091411E+04  0.10100000352E+00 0.  1.
       -3    1    3    3    0  502  0.48958324387E+03 -0.17784823884E+04  0.82912560088E+03  0.20224096101E+04  0.10100000352E+00 0. -1.
</event>
<event>
 5   0  0.1164500E-08  0.3901537E+04  0.7818609E-02  0.8024710E-01
       -1   -1    0    0    0  501  0.00000000000E+00  0.00000000000E+00  0.20167427184E+04  0.20167427184E+04  0.50400001928E-02 0.  1.
        1   -1    0    0  501    0  0.00000000000E+00  0.00000000000E+00 -0.18869524482E+04  0.18869524482E+04  0.50400001928E-02 0. -1.
    10030    2    1    2    0    0  0.00000000000E+00  0.00000000000E+00  0.12979027024E+03  0.39036951666E+04  0.39015369330E+04 0.  0.
        1    1    3    3  502    0  0.32202291073E+03 -0.19046882279E+04 -0.20721414318E+03  0.19428004791E+04  0.50400001928E-02 0. -1.
       -1    1    3    3    0  502 -0.32202291073E+03  0.19046882279E+04  0.33700441343E+03  0.19608946874E+04  0.50400001928E-02 0.  1.
</event>
<event>
 5   0  0.3724293E-08  0.3896196E+04  0.7818609E-02  0.8025821E-01
       -2   -1    0    0    0  501  0.00000000000E+00  0.00000000000E+00  0.18090310080E+04  0.18090310080E+04  0.25500000920E-02 0. -1.
        2   -1    0    0  501    0  0.00000000000E+00  0.00000000000E+00 -0.20978554428E+04  0.20978554428E+04  0.25500000920E-02 0.  1.
    10030    2    1    2    0    0  0.00000000000E+00  0.00000000000E+00 -0.28882443476E+03  0.39068864508E+04  0.38961958607E+04 0.  0.
        4    1    3    3  502    0 -0.16601449991E+04  0.45766841188E+03  0.76887890234E+03  0.18859263434E+04  0.12699999809E+01 0. -1.
       -4    1    3    3    0  502  0.16601449991E+04 -0.45766841188E+03 -0.10577033371E+04  0.20209601074E+04  0.12699999809E+01 0.  1.
</event>
<event>
 5   0  0.1164500E-08  0.3902709E+04  0.7818609E-02  0.8024466E-01
        1   -1    0    0  501    0  0.00000000000E+00  0.00000000000E+00  0.19400058188E+04  0.19400058188E+04  0.50400001928E-02 0. -1.
       -1   -1    0    0    0  501  0.00000000000E+00  0.00000000000E+00 -0.19627695084E+04  0.19627695084E+04  0.50400001928E-02 0.  1.
    10030    2    1    2    0    0  0.00000000000E+00  0.00000000000E+00 -0.22763689606E+02  0.39027753272E+04  0.39027089399E+04 0.  0.
        4    1    3    3  502    0 -0.23603722477E+01  0.15655931432E+04 -0.11761742511E+04  0.19581815399E+04  0.12699999809E+01 0.  1.
       -4    1    3    3    0  502  0.23603722477E+01 -0.15655931432E+04  0.11534105615E+04  0.19445937873E+04  0.12699999809E+01 0. -1.
</event>
<event>
 5   0  0.3769985E-08  0.3898681E+04  0.7818609E-02  0.8025304E-01
       -2   -1    0    0    0  501  0.00000000000E+00  0.00000000000E+00  0.18111391345E+04  0.18111391345E+04  0.25500000920E-02 0. -1.
        2   -1    0    0  501    0  0.00000000000E+00  0.00000000000E+00 -0.20980876724E+04  0.20980876724E+04  0.25500000920E-02 0.  1.
    10030    2    1    2    0    0  0.00000000000E+00  0.00000000000E+00 -0.28694853788E+03  0.39092268069E+04  0.38986811570E+04 0.  0.
        1    1    3    3  502    0 -0.15627932893E+04  0.73466319931E+03 -0.10502853756E+04  0.20211759576E+04  0.50400001928E-02 0.  1.
       -1    1    3    3    0  502  0.15627932893E+04 -0.73466319931E+03  0.76333683775E+03  0.18880508492E+04  0.50400001928E-02 0. -1.
</event>
<event>
 5   0  0.3669347E-08  0.3912698E+04  0.7818609E-02  0.8022393E-01
        2   -1    0    0  501    0  0.00000000000E+00  0.00000000000E+00  0.33258817391E+04  0.33258817391E+04  0.25500000920E-02 0. -1.
       -2   -1    0    0    0  501  0.00000000000E+00  0.00000000000E+00 -0.11507628727E+04  0.11507628727E+04  0.25500000920E-02 0.  1.
    10030    2    1    2    0    0  0.00000000000E+00  0.00000000000E+00  0.21751188664E+04  0.44766446119E+04  0.39126979053E+04 0.  0.
        5    1    3    3  502    0 -0.10824151220E+04  0.15089791986E+04  0.38353353049E+03  0.18962491337E+04  0.46999998093E+01 0.  1.
       -5    1    3    3    0  502  0.10824151220E+04 -0.15089791986E+04  0.17915853359E+04  0.25803954782E+04  0.46999998093E+01 0. -1.
</event>
<event>
 5   0  0.1164500E-08  0.3900429E+04  0.7818609E-02  0.8024940E-01
        1   -1    0    0  501    0  0.00000000000E+00  0.00000000000E+00  0.17736333456E+04  0.17736333456E+04  0.50400001928E-02 0. -1.
       -1   -1    0    0    0  501  0.00000000000E+00  0.00000000000E+00 -0.21443758454E+04  0.21443758454E+04  0.50400001928E-02 0.  1.
    10030    2    1    2    0    0  0.00000000000E+00  0.00000000000E+00 -0.37074249983E+03  0.39180091910E+04  0.39004289533E+04 0.  0.
        1    1    3    3  502    0  0.17577825025E+04 -0.51432446766E+03  0.48772920895E+03  0.18953123134E+04  0.50400001928E-02 0. -1.
       -1    1    3    3    0  502 -0.17577825025E+04  0.51432446766E+03 -0.85847170878E+03  0.20226968776E+04  0.50400001928E-02 0.  1.
</event>
<event>
 5   0  0.1164500E-08  0.3896042E+04  0.7818609E-02  0.8025853E-01
        1   -1    0    0  501    0  0.00000000000E+00  0.00000000000E+00  0.27403749358E+04  0.27403749358E+04  0.50400001928E-02 0.  1.
       -1   -1    0    0    0  501  0.00000000000E+00  0.00000000000E+00 -0.13847686577E+04  0.13847686577E+04  0.50400001928E-02 0. -1.
    10030    2    1    2    0    0  0.00000000000E+00  0.00000000000E+00  0.13556062781E+04  0.41251435935E+04  0.38960417458E+04 0.  0.
        1    1    3    3  502    0 -0.10999199378E+04 -0.15147627363E+04  0.12484338286E+04  0.22500926739E+04  0.50400001928E-02 0.  1.
       -1    1    3    3    0  502  0.10999199378E+04  0.15147627363E+04  0.10717244948E+03  0.18750509195E+04  0.50400001928E-02 0. -1.
</event>
<event>
 5   0  0.1164500E-08  0.3889847E+04  0.7818609E-02  0.8027144E-01
        1   -1    0    0  501    0  0.00000000000E+00  0.00000000000E+00  0.24585938689E+04  0.24585938689E+04  0.50400001928E-02 0.  1.
       -1   -1    0    0    0  501  0.00000000000E+00  0.00000000000E+00 -0.15385738750E+04  0.15385738750E+04  0.50400001928E-02 0. -1.
    10030    2    1    2    0    0  0.00000000000E+00  0.00000000000E+00  0.92001999393E+03  0.39971677440E+04  0.38898474500E+04 0.  0.
        4    1    3    3  502    0 -0.78062060057E+03  0.12514279914E+03 -0.13660080353E+04  0.15782930044E+04  0.12699999809E+01 0. -1.
       -4    1    3    3    0  502  0.78062060057E+03 -0.12514279914E+03  0.22860280293E+04  0.24188747396E+04  0.12699999809E+01 0.  1.
</event>
<event>
 5   0  0.3724293E-08  0.3840143E+04  0.7818609E-02  0.8037595E-01
        2   -1    0    0  501    0  0.00000000000E+00  0.00000000000E+00  0.23425218319E+04  0.23425218319E+04  0.25500000920E-02 0. -1.
       -2   -1    0    0    0  501  0.00000000000E+00  0.00000000000E+00 -0.15738055430E+04  0.15738055430E+04  0.25500000920E-02 0.  1.
    10030    2    1    2    0    0  0.00000000000E+00  0.00000000000E+00  0.76871628883E+03  0.39163273749E+04  0.38401426243E+04 0.  0.
        4    1    3    3  502    0  0.96356286588E+03 -0.10450950522E+04  0.17006994288E+04  0.22165417264E+04  0.12699999809E+01 0. -1.
       -4    1    3    3    0  502 -0.96356286588E+03  0.10450950522E+04 -0.93198314001E+03  0.16997856485E+04  0.12699999809E+01 0.  1.
</event>
<event>
 5   0  0.1164500E-08  0.3888074E+04  0.7818609E-02  0.8027514E-01
        1   -1    0    0  501    0  0.00000000000E+00  0.00000000000E+00  0.18488718314E+04  0.18488718314E+04  0.50400001928E-02 0.  1.
       -1   -1    0    0    0  501  0.00000000000E+00  0.00000000000E+00 -0.20441002735E+04  0.20441002735E+04  0.50400001928E-02 0. -1.
    10030    2    1    2    0    0  0.00000000000E+00  0.00000000000E+00 -0.19522844211E+03  0.38929721049E+04  0.38880737730E+04 0.  0.
        1    1    3    3  502    0 -0.85774915440E+03  0.15152172711E+04  0.76814987787E+03  0.19030688967E+04  0.50400001928E-02 0.  1.
       -1    1    3    3    0  502  0.85774915440E+03 -0.15152172711E+04 -0.96337831998E+03  0.19899032082E+04  0.50400001928E-02 0. -1.
</event>
<event>
 5   0  0.3769985E-08  0.3975519E+04  0.7818609E-02  0.8009504E-01
        2   -1    0    0  501    0  0.00000000000E+00  0.00000000000E+00  0.27499651350E+04  0.27499651350E+04  0.25500000920E-02 0. -1.
       -2   -1    0    0    0  501  0.00000000000E+00  0.00000000000E+00 -0.14368134515E+04  0.14368134515E+04  0.25500000920E-02 0.  1.
    10030    2    1    2    0    0  0.00000000000E+00  0.00000000000E+00  0.13131516835E+04  0.41867785865E+04  0.39755185308E+04 0.  0.
        1    1    3    3  502    0  0.38075416659E+03  0.51068473979E+03  0.26395621045E+04  0.27153380530E+04  0.50400001928E-02 0. -1.
       -1    1    3    3    0  502 -0.38075416659E+03 -0.51068473979E+03 -0.13264104210E+04  0.14714405335E+04  0.50400001928E-02 0.  1.
</event>
<event>
 5   0  0.3690572E-08  0.3895005E+04  0.7818609E-02  0.8026069E-01
        2   -1    0    0  501    0  0.00000000000E+00  0.00000000000E+00  0.13402571814E+04  0.13402571814E+04  0.25500000920E-02 0. -1.
       -2   -1    0    0    0  501  0.00000000000E+00  0.00000000000E+00 -0.28298789764E+04  0.28298789764E+04  0.25500000920E-02 0.  1.
    10030    2    1    2    0    0  0.00000000000E+00  0.00000000000E+00 -0.14896217950E+04  0.41701361579E+04  0.38950048117E+04 0.  0.
        3    1    3    3  502    0 -0.19107181160E+02 -0.58607835672E+03 -0.27331174172E+04  0.27953146068E+04  0.10100000352E+00 0.  1.
       -3    1    3    3    0  502  0.19107181160E+02  0.58607835672E+03  0.12434956222E+04  0.13748215511E+04  0.10100000352E+00 0. -1.
</event>
<event>
 5   0  0.1164500E-08  0.3900798E+04  0.7818609E-02  0.8024863E-01
       -1   -1    0    0    0  501  0.00000000000E+00  0.00000000000E+00  0.27972333720E+04  0.27972333720E+04  0.50400001928E-02 0.  1.
        1   -1    0    0  501    0  0.00000000000E+00  0.00000000000E+00 -0.13599355650E+04  0.13599355650E+04  0.50400001928E-02 0. -1.
    10030    2    1    2    0    0  0.00000000000E+00  0.00000000000E+00  0.14372978070E+04  0.41571689370E+04  0.39007984548E+04 0.  0.
        1    1    3    3  502    0  0.14379259175E+04 -0.11542860805E+04  0.13960745503E+04  0.23127973213E+04  0.50400001928E-02 0.  1.
       -1    1    3    3    0  502 -0.14379259175E+04  0.11542860805E+04  0.41223256731E+02  0.18443716157E+04  0.50400001928E-02 0. -1.
</event>
<event>
 5   0  0.3669347E-08  0.3897176E+04  0.7818609E-02  0.8025617E-01
       -2   -1    0    0    0  501  0.00000000000E+00  0.00000000000E+00  0.20634866557E+04  0.20634866557E+04  0.25500000920E-02 0.  1.
        2   -1    0    0  501    0  0.00000000000E+00  0.00000000000E+00 -0.18400869858E+04  0.18400869858E+04  0.25500000920E-02 0. -1.
    10030    2    1    2    0    0  0.00000000000E+00  0.00000000000E+00  0.22339966989E+03  0.39035736415E+04  0.38971758701E+04 0.  0.
        5    1    3    3  502    0  0.17206955737E+04  0.82547218708E+03  0.50576055363E+03  0.19743387290E+04  0.46999998093E+01 0.  1.
       -5    1    3    3    0  502 -0.17206955737E+04 -0.82547218708E+03 -0.28236088375E+03  0.19292349125E+04  0.46999998093E+01 0. -1.
</event>
<event>
 5   0  0.1164500E-08  0.3901014E+04  0.7818609E-02  0.8024818E-01
       -1   -1    0    0    0  501  0.00000000000E+00  0.00000000000E+00  0.16268311962E+04  0.16268311963E+04  0.50400001928E-02 0. -1.
        1   -1    0    0  501    0  0.00000000000E+00  0.00000000000E+00 -0.23385813976E+04  0.23385813976E+04  0.50400001928E-02 0.  1.
    10030    2    1    2    0    0  0.00000000000E+00  0.00000000000E+00 -0.71175020132E+03  0.39654125938E+04  0.39010138029E+04 0.  0.
        1    1    3    3  502    0 -0.13134169736E+04 -0.97213418528E+03 -0.14385246688E+04  0.21770306024E+04  0.50400001928E-02 0.  1.
       -1    1    3    3    0  502  0.13134169736E+04  0.97213418528E+03  0.72677446748E+03  0.17883819915E+04  0.50400001928E-02 0. -1.
</event>
<event>
 5   0  0.1164500E-08  0.3896867E+04  0.7818609E-02  0.8025681E-01
        3   -1    0    0  501    0  0.00000000000E+00  0.00000000000E+00  0.25537866709E+04  0.25537866729E+04  0.10100000352E+00 0. -1.
       -3   -1    0    0    0  501  0.00000000000E+00  0.00000000000E+00 -0.14865741049E+04  0.14865741084E+04  0.10100000352E+00 0.  1.
    10030    2    1    2    0    0  0.00000000000E+00  0.00000000000E+00  0.10672125660E+04  0.40403607813E+04  0.38968670213E+04 0.  0.
        3    1    3    3  502    0  0.10386696177E+04 -0.10749428095E+04 -0.76223834428E+03  0.16778986627E+04  0.10100000352E+00 0.  1.
       -3    1    3    3    0  502 -0.10386696177E+04  0.10749428095E+04  0.18294509103E+04  0.23624621186E+04  0.10100000352E+00 0. -1.
</event>
<event>
 5   0  0.1164500E-08  0.3909777E+04  0.7818609E-02  0.8022999E-01
       -1   -1    0    0    0  501  0.00000000000E+00  0.00000000000E+00  0.15917675765E+04  0.15917675765E+04  0.50400001928E-02 0. -1.
        1   -1    0    0  501    0  0.00000000000E+00  0.00000000000E+00 -0.24008465996E+04  0.24008465996E+04  0.50400001928E-02 0.  1.
    10030    2    1    2    0    0  0.00000000000E+00  0.00000000000E+00 -0.80907902306E+03  0.39926141761E+04  0.39097773713E+04 0.  0.
        3    1    3    3  502    0  0.31932408202E+03 -0.19097788915E+04 -0.12982978371E+03  0.19406388295E+04  0.10100000352E+00 0. -1.
       -3    1    3    3    0  502 -0.31932408202E+03  0.19097788915E+04 -0.67924923936E+03  0.20519753466E+04  0.10100000352E+00 0.  1.
</event>
<event>
 5   0  0.3724293E-08  0.3896715E+04  0.7818609E-02  0.8025713E-01
        2   -1    0    0  501    0  0.00000000000E+00  0.00000000000E+00  0.33235076876E+04  0.33235076876E+04  0.25500000920E-02 0. -1.
       -2   -1    0    0    0  501  0.00000000000E+00  0.00000000000E+00 -0.11421958034E+04  0.11421958034E+04  0.25500000920E-02 0.  1.
    10030    2    1    2    0    0  0.00000000000E+00  0.00000000000E+00  0.21813118843E+04  0.44657034910E+04  0.38967147872E+04 0.  0.
        4    1    3    3  502    0 -0.94697336650E+03 -0.13134005277E+04 -0.15123553221E+03  0.16262390052E+04  0.12699999809E+01 0.  1.
       -4    1    3    3    0  502  0.94697336650E+03  0.13134005277E+04  0.23325474165E+04  0.28394644858E+04  0.12699999809E+01 0. -1.
</event>
<event>
 5   0  0.1164500E-08  0.3906493E+04  0.7818609E-02  0.8023680E-01
       -1   -1    0    0    0  501  0.00000000000E+00  0.00000000000E+00  0.13787708955E+04  0.13787708955E+04  0.50400001928E-02 0. -1.
        1   -1    0    0  501    0  0.00000000000E+00  0.00000000000E+00 -0.27670813559E+04  0.27670813559E+04  0.50400001928E-02 0.  1.
    10030    2    1    2    0    0  0.00000000000E+00  0.00000000000E+00 -0.13883104604E+04  0.41458522515E+04  0.39064926669E+04 0.  0.
        2    1    3    3  502    0  0.13514145519E+04 -0.11313491413E+04 -0.15877055410E+04  0.23721469296E+04  0.25500000920E-02 0.  1.
       -2    1    3    3    0  502 -0.13514145519E+04  0.11313491413E+04  0.19939508065E+03  0.17737053219E+04  0.25500000920E-02 0. -1.
</event>
<event>
 5   0  0.3769985E-08  0.3896295E+04  0.7818609E-02  0.8025800E-01
        2   -1    0    0  501    0  0.00000000000E+00  0.00000000000E+00  0.32141630387E+04  0.32141630387E+04  0.25500000920E-02 0. -1.
       -2   -1    0    0    0  501  0.00000000000E+00  0.00000000000E+00 -0.11807982047E+04  0.11807982047E+04  0.25500000920E-02 0.  1.
    10030    2    1    2    0    0  0.00000000000E+00  0.00000000000E+00  0.20333648340E+04  0.43949612434E+04  0.38962946221E+04 0.  0.
        1    1    3    3  502    0  0.24389330059E+03  0.22236117322E+02 -0.11633651960E+04  0.11888637290E+04  0.50400001928E-02 0.  1.
       -1    1    3    3    0  502 -0.24389330059E+03 -0.22236117322E+02  0.31967300299E+04  0.32060975143E+04  0.50400001928E-02 0. -1.
</event>
<event>
 5   0  0.3724293E-08  0.3904105E+04  0.7818609E-02  0.8024176E-01
       -2   -1    0    0    0  501  0.00000000000E+00  0.00000000000E+00  0.16954415067E+04  0.16954415067E+04  0.25500000920E-02 0.  1.
        2   -1    0    0  501    0  0.00000000000E+00  0.00000000000E+00 -0.22475018989E+04  0.22475018989E+04  0.25500000920E-02 0. -1.
    10030    2    1    2    0    0  0.00000000000E+00  0.00000000000E+00 -0.55206039223E+03  0.39429434056E+04  0.39041045097E+04 0.  0.
        4    1    3    3  502    0 -0.12040983196E+04 -0.54525287591E+03  0.11746973863E+04  0.17683520645E+04  0.12699999809E+01 0.  1.
       -4    1    3    3    0  502  0.12040983196E+04  0.54525287591E+03 -0.17267577785E+04  0.21745913410E+04  0.12699999809E+01 0. -1.
</event>
<event>
 5   0  0.3724293E-08  0.3898521E+04  0.7818609E-02  0.8025337E-01
        2   -1    0    0  501    0  0.00000000000E+00  0.00000000000E+00  0.11930113397E+04  0.11930113397E+04  0.25500000920E-02 0. -1.
       -2   -1    0    0    0  501  0.00000000000E+00  0.00000000000E+00 -0.31848957406E+04  0.31848957406E+04  0.25500000920E-02 0.  1.
    10030    2    1    2    0    0  0.00000000000E+00  0.00000000000E+00 -0.19918844009E+04  0.43779070803E+04  0.38985211218E+04 0.  0.
        4    1    3    3  502    0  0.15145898828E+04  0.10243142523E+04 -0.23728494882E+03  0.18437754636E+04  0.12699999809E+01 0. -1.
       -4    1    3    3    0  502 -0.15145898828E+04 -0.10243142523E+04 -0.17545994521E+04  0.25341316167E+04  0.12699999809E+01 0.  1.
</event>
<event>
 5   0  0.3724293E-08  0.3895570E+04  0.7818609E-02  0.8025951E-01
        2   -1    0    0  501    0  0.00000000000E+00  0.00000000000E+00  0.15067794473E+04  0.15067794473E+04  0.25500000920E-02 0.  1.
       -2   -1    0    0    0  501  0.00000000000E+00  0.00000000000E+00 -0.25178648156E+04  0.25178648156E+04  0.25500000920E-02 0. -1.
    10030    2    1    2    0    0  0.00000000000E+00  0.00000000000E+00 -0.10110853683E+04  0.40246442628E+04  0.38955702818E+04 0.  0.
        4    1    3    3  502    0 -0.12223021341E+03 -0.13431278588E+04 -0.19574289681E+04  0.23770701395E+04  0.12699999809E+01 0. -1.
       -4    1    3    3    0  502  0.12223021341E+03  0.13431278588E+04  0.94634359976E+03  0.16475741233E+04  0.12699999809E+01 0.  1.
</event>
<event>
 5   0  0.3690572E-08  0.3910735E+04  0.7818609E-02  0.8022800E-01
       -2   -1    0    0    0  501  0.00000000000E+00  0.00000000000E+00  0.32149222260E+04  0.32149222260E+04  0.25500000920E-02 0.  1.
        2   -1    0    0  501    0  0.00000000000E+00  0.00000000000E+00 -0.11892857214E+04  0.11892857214E+04  0.25500000920E-02 0. -1.
    10030    2    1    2    0    0  0.00000000000E+00  0.00000000000E+00  0.20256365046E+04  0.44042079475E+04  0.39107345085E+04 0.  0.
        3    1    3    3  502    0  0.13336337612E+04  0.11003181250E+04  0.20414026132E+04  0.26751829142E+04  0.10100000352E+00 0.  1.
       -3    1    3    3    0  502 -0.13336337612E+04 -0.11003181250E+04 -0.15766108567E+02  0.17290250333E+04  0.10100000352E+00 0. -1.
</event>
<event>
 5   0  0.1164500E-08  0.3909563E+04  0.7818609E-02  0.8023043E-01
       -1   -1    0    0    0  501  0.00000000000E+00  0.00000000000E+00  0.15237824684E+04  0.15237824685E+04  0.50400001928E-02 0. -1.
        1   -1    0    0  501    0  0.00000000000E+00  0.00000000000E+00 -0.25076876717E+04  0.25076876717E+04  0.50400001928E-02 0.  1.
    10030    2    1    2    0    0  0.00000000000E+00  0.00000000000E+00 -0.98390520325E+03  0.40314701402E+04  0.39095628965E+04 0.  0.
        3    1    3    3  502    0 -0.80698185747E+03 -0.17512283292E+04 -0.16076801699E+03  0.19349074254E+04  0.10100000352E+00 0. -1.
       -3    1    3    3    0  502  0.80698185747E+03  0.17512283292E+04 -0.82313718626E+03  0.20965627148E+04  0.10100000352E+00 0.  1.
</event>
<event>
 5   0  0.1164500E-08  0.3898482E+04  0.7818609E-02  0.8025345E-01
       -1   -1    0    0    0  501  0.00000000000E+00  0.00000000000E+00  0.26518233476E+04  0.26518233476E+04  0.50400001928E-02 0.  1.
        1   -1    0    0  501    0  0.00000000000E+00  0.00000000000E+00 -0.14328030642E+04  0.14328030642E+04  0.50400001928E-02 0. -1.
    10030    2    1    2    0    0  0.00000000000E+00  0.00000000000E+00  0.12190202834E+04  0.40846264118E+04  0.38984820729E+04 0.  0.
        1    1    3    3  502    0  0.43852623221E+03  0.67892748031E+03  0.24679836321E+04  0.25969580259E+04  0.50400001928E-02 0.  1.
       -1    1    3    3    0  502 -0.43852623221E+03 -0.67892748031E+03 -0.12489633487E+04  0.14876683859E+04  0.50400001928E-02 0. -1.
</event>
<event>
 5   0  0.3690572E-08  0.3906245E+04  0.7818609E-02  0.8023732E-01
        2   -1    0    0  501    0  0.00000000000E+00  0.00000000000E+00  0.19489228067E+04  0.19489228067E+04  0.25500000920E-02 0.  1.
       -2   -1    0    0    0  501  0.00000000000E+00  0.00000000000E+00 -0.19573314077E+04  0.19573314077E+04  0.25500000920E-02 0. -1.
    10030    2    1    2    0    0  0.00000000000E+00  0.00000000000E+00 -0.84086009482E+01  0.39062542144E+04  0.39062451642E+04 0.  0.
        3    1    3    3  502    0 -0.16104942063E+04 -0.10598133972E+04  0.30851320498E+03  0.19524539517E+04  0.10100000352E+00 0.  1.
       -3    1    3    3    0  502  0.16104942063E+04  0.10598133972E+04 -0.31692180592E+03  0.19538002628E+04  0.10100000352E+00 0. -1.
</event>
<event>
 5   0  0.3872969E-08  0.3901469E+04  0.7818609E-02  0.8024724E-01
       -2   -1    0    0    0  501  0.00000000000E+00  0.00000000000E+00  0.14713775957E+04  0.14713775957E+04  0.25500000920E-02 0. -1.
        2   -1    0    0  501    0  0.00000000000E+00  0.00000000000E+00 -0.25862604508E+04  0.25862604508E+04  0.25500000920E-02 0.  1.
    10030    2    1    2    0    0  0.00000000000E+00  0.00000000000E+00 -0.11148828551E+04  0.40576380465E+04  0.39014693048E+04 0.  0.
        2    1    3    3  502    0 -0.17061399399E+04 -0.26054054291E+03  0.38810997489E+03  0.17690178692E+04  0.25500000920E-02 0. -1.
       -2    1    3    3    0  502  0.17061399399E+04  0.26054054291E+03 -0.15029928300E+04  0.22886201773E+04  0.25500000920E-02 0.  1.
</event>
<event>
 5   0  0.1164500E-08  0.3894609E+04  0.7818609E-02  0.8026151E-01
       -1   -1    0    0    0  501  0.00000000000E+00  0.00000000000E+00  0.28299298246E+04  0.28299298246E+04  0.50400001928E-02 0. -1.
        1   -1    0    0  501    0  0.00000000000E+00  0.00000000000E+00 -0.13399608136E+04  0.13399608136E+04  0.50400001928E-02 0.  1.
    10030    2    1    2    0    0  0.00000000000E+00  0.00000000000E+00  0.14899690110E+04  0.41698906382E+04  0.38946091306E+04 0.  0.
        1    1    3    3  502    0  0.14685757732E+04 -0.12091331236E+04  0.11906732802E+04  0.22441970886E+04  0.50400001928E-02 0. -1.
       -1    1    3    3    0  502 -0.14685757732E+04  0.12091331236E+04  0.29929573084E+03  0.19256935496E+04  0.50400001928E-02 0.  1.
</event>
<event>
 5   0  0.3769985E-08  0.3896673E+04  0.7818609E-02  0.8025722E-01
        2   -1    0    0  501    0  0.00000000000E+00  0.00000000000E+00  0.25917160520E+04  0.25917160520E+04  0.25500000920E-02 0. -1.
       -2   -1    0    0    0  501  0.00000000000E+00  0.00000000000E+00 -0.14646724398E+04  0.14646724398E+04  0.25500000920E-02 0.  1.
    10030    2    1    2    0    0  0.00000000000E+00  0.00000000000E+00  0.11270436121E+04  0.40563884918E+04  0.38966729774E+04 0.  0.
        1    1    3    3  502    0 -0.10017549415E+04 -0.58136242298E+03 -0.10673839139E+04  0.15750567130E+04  0.50400001928E-02 0.  1.
       -1    1    3    3    0  502  0.10017549415E+04  0.58136242298E+03  0.21944275260E+04  0.24813317788E+04  0.50400001928E-02 0. -1.
</event>
<event>
 5   0  0.1164500E-08  0.3901758E+04  0.7818609E-02  0.8024664E-01
        1   -1    0    0  501    0  0.00000000000E+00  0.00000000000E+00  0.19813889055E+04  0.19813889055E+04  0.50400001928E-02 0.  1.
       -1   -1    0    0    0  501  0.00000000000E+00  0.00000000000E+00 -0.19208391197E+04  0.19208391197E+04  0.50400001928E-02 0. -1.
    10030    2    1    2    0    0  0.00000000000E+00  0.00000000000E+00  0.60549785811E+02  0.39022280251E+04  0.39017582298E+04 0.  0.
        2    1    3    3  502    0 -0.17487852336E+04 -0.46156846315E+03 -0.70099990869E+03  0.19397670251E+04  0.25500000920E-02 0. -1.
       -2    1    3    3    0  502  0.17487852336E+04  0.46156846315E+03  0.76154969450E+03  0.19624610001E+04  0.25500000920E-02 0.  1.
</event>
<event>
 5   0  0.3669347E-08  0.3847803E+04  0.7818609E-02  0.8035974E-01
        2   -1    0    0  501    0  0.00000000000E+00  0.00000000000E+00  0.22781320865E+04  0.22781320865E+04  0.25500000920E-02 0.  1.
       -2   -1    0    0    0  501  0.00000000000E+00  0.00000000000E+00 -0.16247511059E+04  0.16247511059E+04  0.25500000920E-02 0. -1.
    10030    2    1    2    0    0  0.00000000000E+00  0.00000000000E+00  0.65338098055E+03  0.39028831924E+04  0.38478033353E+04 0.  0.
        5    1    3    3  502    0  0.31831407729E+03 -0.27187436263E+03  0.22313713485E+04  0.22703038796E+04  0.46999998093E+01 0.  1.
       -5    1    3    3    0  502 -0.31831407729E+03  0.27187436263E+03 -0.15779903680E+04  0.16325793127E+04  0.46999998093E+01 0. -1.
</event>
<event>
 5   0  0.1164500E-08  0.3904914E+04  0.7818609E-02  0.8024008E-01
        1   -1    0    0  501    0  0.00000000000E+00  0.00000000000E+00  0.15579818653E+04  0.15579818653E+04  0.50400001928E-02 0.  1.
       -1   -1    0    0    0  501  0.00000000000E+00  0.00000000000E+00 -0.24468111883E+04  0.24468111883E+04  0.50400001928E-02 0. -1.
    10030    2    1    2    0    0  0.00000000000E+00  0.00000000000E+00 -0.88882932298E+03  0.40047930536E+04  0.39049135505E+04 0.  0.
        2    1    3    3  502    0 -0.29858590858E+03 -0.59975287369E+03 -0.23252334980E+04  0.24198280672E+04  0.25500000920E-02 0. -1.
       -2    1    3    3    0  502  0.29858590858E+03  0.59975287369E+03  0.14364041750E+04  0.15849649865E+04  0.25500000920E-02 0.  1.
</event>
<event>
 5   0  0.1164500E-08  0.3917323E+04  0.7818609E-02  0.8021436E-01
        1   -1    0    0  501    0  0.00000000000E+00  0.00000000000E+00  0.22071305386E+04  0.22071305386E+04  0.50400001928E-02 0. -1.
       -1   -1    0    0    0  501  0.00000000000E+00  0.00000000000E+00 -0.17381642249E+04  0.17381642249E+04  0.50400001928E-02 0.  1.
    10030    2    1    2    0    0  0.00000000000E+00  0.00000000000E+00  0.46896631363E+03  0.39452947635E+04  0.39173232401E+04 0.  0.
        3    1    3    3  502    0  0.95718512458E+03 -0.13482462291E+03  0.19501652845E+04  0.21765857871E+04  0.10100000352E+00 0. -1.
       -3    1    3    3    0  502 -0.95718512458E+03  0.13482462291E+03 -0.14811989709E+04  0.17687089764E+04  0.10100000352E+00 0.  1.
</event>
<event>
 5   0  0.1164500E-08  0.3897216E+04  0.7818609E-02  0.8025608E-01
        3   -1    0    0  501    0  0.00000000000E+00  0.00000000000E+00  0.28191034468E+04  0.28191034486E+04  0.10100000352E+00 0.  1.
       -3   -1    0    0    0  501  0.00000000000E+00  0.00000000000E+00 -0.13469082730E+04  0.13469082768E+04  0.10100000352E+00 0. -1.
    10030    2    1    2    0    0  0.00000000000E+00  0.00000000000E+00  0.14721951738E+04  0.41660117253E+04  0.38972163227E+04 0.  0.
        5    1    3    3  502    0  0.72597563164E+03  0.10394325336E+04  0.23178826909E+04  0.26419808607E+04  0.46999998093E+01 0.  1.
       -5    1    3    3    0  502 -0.72597563164E+03 -0.10394325336E+04 -0.84568751711E+03  0.15240308646E+04  0.46999998093E+01 0. -1.
</event>
<event>
 5   0  0.3769985E-08  0.3897100E+04  0.7818609E-02  0.8025633E-01
       -2   -1    0    0    0  501  0.00000000000E+00  0.00000000000E+00  0.17195915396E+04  0.17195915396E+04  0.25500000920E-02 0.  1.
        2   -1    0    0  501    0  0.00000000000E+00  0.00000000000E+00 -0.22079939392E+04  0.22079939392E+04  0.25500000920E-02 0. -1.
    10030    2    1    2    0    0  0.00000000000E+00  0.00000000000E+00 -0.48840239958E+03  0.39275854788E+04  0.38971003053E+04 0.  0.
        1    1    3    3  502    0 -0.12727586710E+04  0.21875074884E+03 -0.17147524727E+04  0.21466584655E+04  0.50400001928E-02 0. -1.
       -1    1    3    3    0  502  0.12727586710E+04 -0.21875074884E+03  0.12263500731E+04  0.17809270133E+04  0.50400001928E-02 0.  1.
</event>
<event>
 5   0  0.1164500E-08  0.3902103E+04  0.7818609E-02  0.8024592E-01
        1   -1    0    0  501    0  0.00000000000E+00  0.00000000000E+00  0.19368925300E+04  0.19368925300E+04  0.50400001928E-02 0. -1.
       -1   -1    0    0    0  501  0.00000000000E+00  0.00000000000E+00 -0.19653137768E+04  0.19653137768E+04  0.50400001928E-02 0.  1.
    10030    2    1    2    0    0  0.00000000000E+00  0.00000000000E+00 -0.28421246835E+02  0.39022063068E+04  0.39021028041E+04 0.  0.
        3    1    3    3  502    0  0.75569379533E+03 -0.10380062985E+04 -0.14832871571E+04  0.19618029943E+04  0.10100000352E+00 0.  1.
       -3    1    3    3    0  502 -0.75569379533E+03  0.10380062985E+04  0.14548659102E+04  0.19404033125E+04  0.10100000352E+00 0. -1.
</event>
<event>
 5   0  0.3872969E-08  0.3897979E+04  0.7818609E-02  0.8025450E-01
       -2   -1    0    0    0  501  0.00000000000E+00  0.00000000000E+00  0.17401164889E+04  0.17401164889E+04  0.25500000920E-02 0.  1.
        2   -1    0    0  501    0  0.00000000000E+00  0.00000000000E+00 -0.21829339439E+04  0.21829339439E+04  0.25500000920E-02 0. -1.
    10030    2    1    2    0    0  0.00000000000E+00  0.00000000000E+00 -0.44281745505E+03  0.39230504328E+04  0.38979786300E+04 0.  0.
        2    1    3    3  502    0  0.18949156706E+04  0.23700569150E+03 -0.61337782026E+03  0.20057690412E+04  0.25500000920E-02 0. -1.
       -2    1    3    3    0  502 -0.18949156706E+04 -0.23700569150E+03  0.17056036521E+03  0.19172813916E+04  0.25500000920E-02 0.  1.
</event>
<event>
 5   0  0.1164500E-08  0.3912827E+04  0.7818609E-02  0.8022367E-01
       -1   -1    0    0    0  501  0.00000000000E+00  0.00000000000E+00  0.13235500416E+04  0.13235500416E+04  0.50400001928E-02 0.  1.
        1   -1    0    0  501    0  0.00000000000E+00  0.00000000000E+00 -0.28918839908E+04  0.28918839908E+04  0.50400001928E-02 0. -1.
    10030    2    1    2    0    0  0.00000000000E+00  0.00000000000E+00 -0.15683339492E+04  0.42154340324E+04  0.39128266899E+04 0.  0.
        4    1    3    3  502    0  0.10982908508E+04  0.11541429535E+04  0.43910327414E+03  0.16526046255E+04  0.12699999809E+01 0.  1.
       -4    1    3    3    0  502 -0.10982908508E+04 -0.11541429535E+04 -0.20074372234E+04  0.25628294069E+04  0.12699999809E+01 0. -1.
</event>
<event>
 5   0  0.1164500E-08  0.3905373E+04  0.7818609E-02  0.8023913E-01
       -1   -1    0    0    0  501  0.00000000000E+00  0.00000000000E+00  0.18000721512E+04  0.18000721512E+04  0.50400001928E-02 0.  1.
        1   -1    0    0  501    0  0.00000000000E+00  0.00000000000E+00 -0.21182396903E+04  0.21182396903E+04  0.50400001928E-02 0. -1.
    10030    2    1    2    0    0  0.00000000000E+00  0.00000000000E+00 -0.31816753908E+03  0.39183118415E+04  0.39053728508E+04 0.  0.
        5    1    3    3  502    0 -0.27078504306E+02 -0.19497732022E+04 -0.55721086129E+02  0.19507628546E+04  0.46999998093E+01 0.  1.
       -5    1    3    3    0  502  0.27078504306E+02  0.19497732022E+04 -0.26244645295E+03  0.19675489869E+04  0.46999998093E+01 0. -1.
</event>
<event>
 5   0  0.3669347E-08  0.3906112E+04  0.7818609E-02  0.8023759E-01
       -2   -1    0    0    0  501  0.00000000000E+00  0.00000000000E+00  0.21898364891E+04  0.21898364891E+04  0.25500000920E-02 0. -1.
        2   -1    0    0  501    0  0.00000000000E+00  0.00000000000E+00 -0.17418781783E+04  0.17418781783E+04  0.25500000920E-02 0.  1.
    10030    2    1    2    0    0  0.00000000000E+00  0.00000000000E+00  0.44795831077E+03  0.39317146674E+04  0.39061123355E+04 0.  0.
        5    1    3    3  502    0  0.12246565279E+04 -0.85458485275E+03  0.14909219098E+04  0.21102059409E+04  0.46999998093E+01 0. -1.
       -5    1    3    3    0  502 -0.12246565279E+04  0.85458485275E+03 -0.10429635990E+04  0.18215087265E+04  0.46999998093E+01 0.  1.
</event>
<event>
 5   0  0.1164500E-08  0.3900789E+04  0.7818609E-02  0.8024865E-01
        3   -1    0    0  501    0  0.00000000000E+00  0.00000000000E+00  0.13965510157E+04  0.13965510194E+04  0.10100000352E+00 0.  1.
       -3   -1    0    0    0  501  0.00000000000E+00  0.00000000000E+00 -0.27238810217E+04  0.27238810236E+04  0.10100000352E+00 0. -1.
    10030    2    1    2    0    0  0.00000000000E+00  0.00000000000E+00 -0.13273300060E+04  0.41204320430E+04  0.39007890581E+04 0.  0.
        1    1    3    3  502    0 -0.42586924439E+03 -0.11677976424E+04  0.92393463611E+03  0.15487966809E+04  0.50400001928E-02 0.  1.
       -1    1    3    3    0  502  0.42586924439E+03  0.11677976424E+04 -0.22512646421E+04  0.25716353621E+04  0.50400001928E-02 0. -1.
</event>
<event>
 5   0  0.1164500E-08  0.3899624E+04  0.7818609E-02  0.8025107E-01
       -1   -1    0    0    0  501  0.00000000000E+00  0.00000000000E+00  0.12128086294E+04  0.12128086294E+04  0.50400001928E-02 0. -1.
        1   -1    0    0  501    0  0.00000000000E+00  0.00000000000E+00 -0.31346805387E+04  0.31346805387E+04  0.50400001928E-02 0.  1.
    10030    2    1    2    0    0  0.00000000000E+00  0.00000000000E+00 -0.19218719093E+04  0.43474891682E+04  0.38996243962E+04 0.  0.
        2    1    3    3  502    0 -0.51649106795E+03  0.16901311044E+04 -0.42649214812E+02  0.17678023444E+04  0.25500000920E-02 0. -1.
       -2    1    3    3    0  502  0.51649106795E+03 -0.16901311044E+04 -0.18792226945E+04  0.25796868238E+04  0.25500000920E-02 0.  1.
</event>
<event>
 5   0  0.3769985E-08  0.3903699E+04  0.7818609E-02  0.8024260E-01
        2   -1    0    0  501    0  0.00000000000E+00  0.00000000000E+00  0.18017555711E+04  0.18017555711E+04  0.25500000920E-02 0. -1.
       -2   -1    0    0    0  501  0.00000000000E+00  0.00000000000E+00 -0.21144473980E+04  0.21144473980E+04  0.25500000920E-02 0.  1.
    10030    2    1    2    0    0  0.00000000000E+00  0.00000000000E+00 -0.31269182685E+03  0.39162029691E+04  0.39036994655E+04 0.  0.
        1    1    3    3  502    0  0.71036120787E+03  0.63593096997E+03  0.15522522503E+04  0.18216773295E+04  0.50400001928E-02 0. -1.
       -1    1    3    3    0  502 -0.71036120787E+03 -0.63593096997E+03 -0.18649440772E+04  0.20945256396E+04  0.50400001928E-02 0.  1.
</event>
<event>
 5   0  0.1164500E-08  0.3895824E+04  0.7818609E-02  0.8025898E-01
       -1   -1    0    0    0  501  0.00000000000E+00  0.00000000000E+00  0.17424143717E+04  0.17424143717E+04  0.50400001928E-02 0. -1.
        1   -1    0    0  501    0  0.00000000000E+00  0.00000000000E+00 -0.21776453048E+04  0.21776453048E+04  0.50400001928E-02 0.  1.
    10030    2    1    2    0    0  0.00000000000E+00  0.00000000000E+00 -0.43523093304E+03  0.39200596765E+04  0.38958236488E+04 0.  0.
        1    1    3    3  502    0  0.19005745562E+04  0.18223546046E+03 -0.60597907257E+03  0.20031485325E+04  0.50400001928E-02 0.  1.
       -1    1    3    3    0  502 -0.19005745562E+04 -0.18223546046E+03  0.17074813953E+03  0.19169111440E+04  0.50400001928E-02 0. -1.
</event>
<event>
 5   0  0.3769985E-08  0.3818768E+04  0.7818609E-02  0.8042139E-01
        2   -1    0    0  501    0  0.00000000000E+00  0.00000000000E+00  0.14941514067E+04  0.14941514067E+04  0.25500000920E-02 0. -1.
       -2   -1    0    0    0  501  0.00000000000E+00  0.00000000000E+00 -0.24400124446E+04  0.24400124446E+04  0.25500000920E-02 0.  1.
    10030    2    1    2    0    0  0.00000000000E+00  0.00000000000E+00 -0.94586103787E+03  0.39341638514E+04  0.38187684018E+04 0.  0.
        1    1    3    3  502    0 -0.85293549273E+03  0.13322448874E+04  0.62866717863E+03  0.17022331850E+04  0.50400001928E-02 0. -1.
       -1    1    3    3    0  502  0.85293549273E+03 -0.13322448874E+04 -0.15745282165E+04  0.22319306663E+04  0.50400001928E-02 0.  1.
</event>
<event>
 5   0  0.3769985E-08  0.3908056E+04  0.7818609E-02  0.8023356E-01
       -2   -1    0    0    0  501  0.00000000000E+00  0.00000000000E+00  0.21723322563E+04  0.21723322563E+04  0.25500000920E-02 0.  1.
        2   -1    0    0  501    0  0.00000000000E+00  0.00000000000E+00 -0.17576621585E+04  0.17576621585E+04  0.25500000920E-02 0. -1.
    10030    2    1    2    0    0  0.00000000000E+00  0.00000000000E+00  0.41467009783E+03  0.39299944148E+04  0.39080563981E+04 0.  0.
        1    1    3    3  502    0  0.12063515233E+04  0.14356638603E+04 -0.34512260118E+03  0.19067050971E+04  0.50400001928E-02 0. -1.
       -1    1    3    3    0  502 -0.12063515233E+04 -0.14356638603E+04  0.75979269901E+03  0.20232893177E+04  0.50400001928E-02 0.  1.
</event>
<event>
 5   0  0.1164500E-08  0.3904407E+04  0.7818609E-02  0.8024113E-01
        1   -1    0    0  501    0  0.00000000000E+00  0.00000000000E+00  0.32745468902E+04  0.32745468902E+04  0.50400001928E-02 0.  1.
       -1   -1    0    0    0  501  0.00000000000E+00  0.00000000000E+00 -0.11638549718E+04  0.11638549718E+04  0.50400001928E-02 0. -1.
    10030    2    1    2    0    0  0.00000000000E+00  0.00000000000E+00  0.21106919184E+04  0.44384018620E+04  0.39044065765E+04 0.  0.
        4    1    3    3  502    0 -0.83390973718E+03  0.20955041594E+03 -0.93700840932E+03  0.12717323612E+04  0.12699999809E+01 0. -1.
       -4    1    3    3    0  502  0.83390973718E+03 -0.20955041594E+03  0.30477003278E+04  0.31666695008E+04  0.12699999809E+01 0.  1.
</event>
<event>
 5   0  0.1164500E-08  0.3901550E+04  0.7818609E-02  0.8024707E-01
        1   -1    0    0  501    0  0.00000000000E+00  0.00000000000E+00  0.22134723744E+04  0.22134723744E+04  0.50400001928E-02 0.  1.
       -1   -1    0    0    0  501  0.00000000000E+00  0.00000000000E+00 -0.17192548904E+04  0.17192548904E+04  0.50400001928E-02 0. -1.
    10030    2    1    2    0    0  0.00000000000E+00  0.00000000000E+00  0.49421748403E+03  0.39327272648E+04  0.39015500532E+04 0.  0.
        5    1    3    3  502    0 -0.37929326804E+03  0.47319426721E+03 -0.16218176939E+04  0.17314996159E+04  0.46999998093E+01 0. -1.
       -5    1    3    3    0  502  0.37929326804E+03 -0.47319426721E+03  0.21160351779E+04  0.22012276488E+04  0.46999998093E+01 0.  1.
</event>
<event>
 5   0  0.3724293E-08  0.3947154E+04  0.7818609E-02  0.8015293E-01
        2   -1    0    0  501    0  0.00000000000E+00  0.00000000000E+00  0.27398754040E+04  0.27398754040E+04  0.25500000920E-02 0. -1.
       -2   -1    0    0    0  501  0.00000000000E+00  0.00000000000E+00 -0.14215995412E+04  0.14215995412E+04  0.25500000920E-02 0.  1.
    10030    2    1    2    0    0  0.00000000000E+00  0.00000000000E+00  0.13182758628E+04  0.41614749452E+04  0.39471537175E+04 0.  0.
        4    1    3    3  502    0 -0.18583586539E+04  0.60869755091E+03  0.37822267915E+03  0.19917488805E+04  0.12699999809E+01 0. -1.
       -4    1    3    3    0  502  0.18583586539E+04 -0.60869755091E+03  0.94005318368E+03  0.21697260647E+04  0.12699999809E+01 0.  1.
</event>
<event>
 5   0  0.1164500E-08  0.3900866E+04  0.7818609E-02  0.8024849E-01
       -1   -1    0    0    0  501  0.00000000000E+00  0.00000000000E+00  0.15194781259E+04  0.15194781259E+04  0.50400001928E-02 0. -1.
        1   -1    0    0  501    0  0.00000000000E+00  0.00000000000E+00 -0.25036152478E+04  0.25036152478E+04  0.50400001928E-02 0.  1.
    10030    2    1    2    0    0  0.00000000000E+00  0.00000000000E+00 -0.98413712197E+03  0.40230933737E+04  0.39008658550E+04 0.  0.
        4    1    3    3  502    0 -0.14343818341E+03  0.74328462153E+03 -0.23459289058E+04  0.24650417005E+04  0.12699999809E+01 0.  1.
       -4    1    3    3    0  502  0.14343818341E+03 -0.74328462153E+03  0.13617917838E+04  0.15580516733E+04  0.12699999809E+01 0. -1.
</event>
<event>
 5   0  0.1164500E-08  0.3911849E+04  0.7818609E-02  0.8022569E-01
       -1   -1    0    0    0  501  0.00000000000E+00  0.00000000000E+00  0.18678145272E+04  0.18678145272E+04  0.50400001928E-02 0.  1.
        1   -1    0    0  501    0  0.00000000000E+00  0.00000000000E+00 -0.20481904763E+04  0.20481904763E+04  0.50400001928E-02 0. -1.
    10030    2    1    2    0    0  0.00000000000E+00  0.00000000000E+00 -0.18037594915E+03  0.39160050035E+04  0.39118486300E+04 0.  0.
        1    1    3    3  502    0 -0.14739721748E+04  0.11946612768E+04  0.38553309506E+03  0.19360902112E+04  0.50400001928E-02 0. -1.
       -1    1    3    3    0  502  0.14739721748E+04 -0.11946612768E+04 -0.56590904421E+03  0.19799147923E+04  0.50400001928E-02 0.  1.
</event>
<event>
 5   0  0.1164500E-08  0.3926375E+04  0.7818609E-02  0.8019566E-01
        3   -1    0    0  501    0  0.00000000000E+00  0.00000000000E+00  0.35604524063E+04  0.35604524077E+04  0.10100000352E+00 0.  1.
       -3   -1    0    0    0  501  0.00000000000E+00  0.00000000000E+00 -0.10824763739E+04  0.10824763786E+04  0.10100000352E+00 0. -1.
    10030    2    1    2    0    0  0.00000000000E+00  0.00000000000E+00  0.24779760324E+04  0.46429287863E+04  0.39263752365E+04 0.  0.
        1    1    3    3  502    0 -0.42645774162E+03  0.17249603558E+03 -0.10178431926E+04  0.11169717330E+04  0.50400001928E-02 0. -1.
       -1    1    3    3    0  502  0.42645774162E+03 -0.17249603558E+03  0.34958192250E+04  0.35259570533E+04  0.50400001928E-02 0.  1.
</event>
<event>
 5   0  0.3724293E-08  0.3901515E+04  0.7818609E-02  0.8024714E-01
        2   -1    0    0  501    0  0.00000000000E+00  0.00000000000E+00  0.21200422625E+04  0.21200422625E+04  0.25500000920E-02 0.  1.
       -2   -1    0    0    0  501  0.00000000000E+00  0.00000000000E+00 -0.17949898042E+04  0.17949898042E+04  0.25500000920E-02 0. -1.
    10030    2    1    2    0    0  0.00000000000E+00  0.00000000000E+00  0.32505245833E+03  0.39150320667E+04  0.39015147036E+04 0.  0.
        4    1    3    3  502    0  0.11952159237E+03 -0.19790639089E+03  0.21062453492E+04  0.21188967494E+04  0.12699999809E+01 0.  1.
       -4    1    3    3    0  502 -0.11952159237E+03  0.19790639089E+03 -0.17811928909E+04  0.17961353173E+04  0.12699999809E+01 0. -1.
</event>
<event>
 5   0  0.3872969E-08  0.3905512E+04  0.7818609E-02  0.8023884E-01
       -2   -1    0    0    0  501  0.00000000000E+00  0.00000000000E+00  0.23461651846E+04  0.23461651846E+04  0.25500000920E-02 0.  1.
        2   -1    0    0  501    0  0.00000000000E+00  0.00000000000E+00 -0.16253147513E+04  0.16253147513E+04  0.25500000920E-02 0. -1.
    10030    2    1    2    0    0  0.00000000000E+00  0.00000000000E+00  0.72085043331E+03  0.39714799360E+04  0.39055124548E+04 0.  0.
        2    1    3    3  502    0  0.84706142697E+03  0.17404410522E+04  0.62287126688E+03  0.20333756988E+04  0.25500000920E-02 0.  1.
       -2    1    3    3    0  502 -0.84706142697E+03 -0.17404410522E+04  0.97979166440E+02  0.19381042372E+04  0.25500000920E-02 0. -1.
</event>
<event>
 5   0  0.1164500E-08  0.3900405E+04  0.7818609E-02  0.8024945E-01
       -1   -1    0    0    0  501  0.00000000000E+00  0.00000000000E+00  0.23573843045E+04  0.23573843045E+04  0.50400001928E-02 0. -1.
        1   -1    0    0  501    0  0.00000000000E+00  0.00000000000E+00 -0.16133516818E+04  0.16133516818E+04  0.50400001928E-02 0.  1.
    10030    2    1    2    0    0  0.00000000000E+00  0.00000000000E+00  0.74403262279E+03  0.39707359863E+04  0.39004050725E+04 0.  0.
        5    1    3    3  502    0 -0.17169569929E+04 -0.90969824699E+03  0.54168168902E+03  0.20171597256E+04  0.46999998093E+01 0. -1.
       -5    1    3    3    0  502  0.17169569929E+04  0.90969824699E+03  0.20235093376E+03  0.19535762608E+04  0.46999998093E+01 0.  1.
</event>
<event>
 5   0  0.1164500E-08  0.3927592E+04  0.7818609E-02  0.8019315E-01
       -1   -1    0    0    0  501  0.00000000000E+00  0.00000000000E+00  0.19841611250E+04  0.19841611250E+04  0.50400001928E-02 0. -1.
        1   -1    0    0  501    0  0.00000000000E+00  0.00000000000E+00 -0.19436398980E+04  0.19436398980E+04  0.50400001928E-02 0.  1.
    10030    2    1    2    0    0  0.00000000000E+00  0.00000000000E+00  0.40521226980E+02  0.39278010229E+04  0.39275919984E+04 0.  0.
        1    1    3    3  502    0 -0.10253092967E+04  0.14268384941E+04 -0.85692202276E+03  0.19548510417E+04  0.50400001928E-02 0.  1.
       -1    1    3    3    0  502  0.10253092967E+04 -0.14268384941E+04  0.89744324975E+03  0.19729499813E+04  0.50400001928E-02 0. -1.
</event>
<event>
 5   0  0.3690572E-08  0.3896729E+04  0.7818609E-02  0.8025710E-01
        2   -1    0    0  501    0  0.00000000000E+00  0.00000000000E+00  0.12300558087E+04  0.12300558087E+04  0.25500000920E-02 0. -1.
       -2   -1    0    0    0  501  0.00000000000E+00  0.00000000000E+00 -0.30861402479E+04  0.30861402479E+04  0.25500000920E-02 0.  1.
    10030    2    1    2    0    0  0.00000000000E+00  0.00000000000E+00 -0.18560844392E+04  0.43161960566E+04  0.38967292635E+04 0.  0.
        3    1    3    3  502    0 -0.26374336325E+03  0.18550011981E+04 -0.33616667753E+03  0.19035750712E+04  0.10100000352E+00 0.  1.
       -3    1    3    3    0  502  0.26374336325E+03 -0.18550011981E+04 -0.15199177617E+04  0.24126209853E+04  0.10100000352E+00 0. -1.
</event>
<event>
 5   0  0.3724293E-08  0.3897051E+04  0.7818609E-02  0.8025643E-01
       -2   -1    0    0    0  501  0.00000000000E+00  0.00000000000E+00  0.18130474882E+04  0.18130474882E+04  0.25500000920E-02 0.  1.
        2   -1    0    0  501    0  0.00000000000E+00  0.00000000000E+00 -0.20941268711E+04  0.20941268711E+04  0.25500000920E-02 0. -1.
    10030    2    1    2    0    0  0.00000000000E+00  0.00000000000E+00 -0.28107938288E+03  0.39071743594E+04  0.38970509177E+04 0.  0.
        4    1    3    3  502    0 -0.18792531651E+04  0.45480493150E+03  0.10156195092E+03  0.19361705573E+04  0.12699999809E+01 0. -1.
       -4    1    3    3    0  502  0.18792531651E+04 -0.45480493150E+03 -0.38264133380E+03  0.19710038020E+04  0.12699999809E+01 0.  1.
</event>
<event>
 5   0  0.3724293E-08  0.3898535E+04  0.7818609E-02  0.8025334E-01
        2   -1    0    0  501    0  0.00000000000E+00  0.00000000000E+00  0.23430425805E+04  0.23430425805E+04  0.25500000920E-02 0. -1.
       -2   -1    0    0    0  501  0.00000000000E+00  0.00000000000E+00 -0.16216710611E+04  0.16216710611E+04  0.25500000920E-02 0.  1.
    10030    2    1    2    0    0  0.00000000000E+00  0.00000000000E+00  0.72137151946E+03  0.39647136416E+04  0.38985352879E+04 0.  0.
        4    1    3    3  502    0  0.28227157630E+03 -0.12539277561E+04 -0.11296707012E+04  0.17111895180E+04  0.12699999809E+01 0.  1.
       -4    1    3    3    0  502 -0.28227157630E+03  0.12539277561E+04  0.18510422207E+04  0.22535241237E+04  0.12699999809E+01 0. -1.
</event>
<event>
 5   0  0.1164500E-08  0.3890933E+04  0.7818609E-02  0.8026918E-01
       -1   -1    0    0    0  501  0.00000000000E+00  0.00000000000E+00  0.18385570311E+04  0.18385570312E+04  0.50400001928E-02 0.  1.
        1   -1    0    0  501    0  0.00000000000E+00  0.00000000000E+00 -0.20585925521E+04  0.20585925521E+04  0.50400001928E-02 0. -1.
    10030    2    1    2    0    0  0.00000000000E+00  0.00000000000E+00 -0.22003552097E+03  0.38971495833E+04  0.38909329529E+04 0.  0.
        3    1    3    3  502    0 -0.16558019209E+04  0.15260907102E+03  0.90148202365E+03  0.18914648765E+04  0.10100000352E+00 0. -1.
       -3    1    3    3    0  502  0.16558019209E+04 -0.15260907102E+03 -0.11215175446E+04  0.20056847068E+04  0.10100000352E+00 0.  1.
</event>
<event>
 5   0  0.1164500E-08  0.3901650E+04  0.7818609E-02  0.8024686E-01
        1   -1    0    0  501    0  0.00000000000E+00  0.00000000000E+00  0.17590121395E+04  0.17590121395E+04  0.50400001928E-02 0.  1.
       -1   -1    0    0    0  501  0.00000000000E+00  0.00000000000E+00 -0.21635543161E+04  0.21635543161E+04  0.50400001928E-02 0. -1.
    10030    2    1    2    0    0  0.00000000000E+00  0.00000000000E+00 -0.40454217658E+03  0.39225664557E+04  0.39016500646E+04 0.  0.
        5    1    3    3  502    0 -0.23608990587E+03  0.15138791518E+04 -0.14162741246E+04  0.20864858053E+04  0.46999998093E+01 0. -1.
       -5    1    3    3    0  502  0.23608990587E+03 -0.15138791518E+04  0.10117319480E+04  0.18360806503E+04  0.46999998093E+01 0.  1.
</event>
<event>
 5   0  0.1164500E-08  0.3899104E+04  0.7818609E-02  0.8025216E-01
        1   -1    0    0  501    0  0.00000000000E+00  0.00000000000E+00  0.16571474946E+04  0.16571474946E+04  0.50400001928E-02 0. -1.
       -1   -1    0    0    0  501  0.00000000000E+00  0.00000000000E+00 -0.22935516459E+04  0.22935516459E+04  0.50400001928E-02 0.  1.
    10030    2    1    2    0    0  0.00000000000E+00  0.00000000000E+00 -0.63640415133E+03  0.39506991405E+04  0.38991041863E+04 0.  0.
        3    1    3    3  502    0 -0.14229456915E+04  0.11389003945E+04 -0.10193742065E+04  0.20882989089E+04  0.10100000352E+00 0. -1.
       -3    1    3    3    0  502  0.14229456915E+04 -0.11389003945E+04  0.38297005517E+03  0.18624002317E+04  0.10100000352E+00 0.  1.
</event>
<event>
 5   0  0.1164500E-08  0.3863939E+04  0.7818609E-02  0.8032571E-01
       -1   -1    0    0    0  501  0.00000000000E+00  0.00000000000E+00  0.19805009272E+04  0.19805009272E+04  0.50400001928E-02 0.  1.
        1   -1    0    0  501    0  0.00000000000E+00  0.00000000000E+00 -0.18846270801E+04  0.18846270801E+04  0.50400001928E-02 0. -1.
    10030    2    1    2    0    0  0.00000000000E+00  0.00000000000E+00  0.95873847108E+02  0.38651280073E+04  0.38639387570E+04 0.  0.
        2    1    3    3  502    0 -0.14329988569E+04 -0.10484224793E+04 -0.71376330478E+03  0.19136701582E+04  0.25500000920E-02 0. -1.
       -2    1    3    3    0  502  0.14329988569E+04  0.10484224793E+04  0.80963715189E+03  0.19514578491E+04  0.25500000920E-02 0.  1.
</event>
<event>
 5   0  0.3690572E-08  0.3862697E+04  0.7818609E-02  0.8032833E-01
        2   -1    0    0  501    0  0.00000000000E+00  0.00000000000E+00  0.28637950996E+04  0.28637950996E+04  0.25500000920E-02 0. -1.
       -2   -1    0    0    0  501  0.00000000000E+00  0.00000000000E+00 -0.13025046083E+04  0.13025046083E+04  0.25500000920E-02 0.  1.
    10030    2    1    2    0    0  0.00000000000E+00  0.00000000000E+00  0.15612904913E+04  0.41662997079E+04  0.38626966303E+04 0.  0.
        3    1    3    3  502    0  0.11990908049E+03  0.11335748565E+04 -0.90097845053E+03  0.14529736134E+04  0.10100000352E+00 0.  1.
       -3    1    3    3    0  502 -0.11990908049E+03 -0.11335748565E+04  0.24622689418E+04  0.27133260944E+04  0.10100000352E+00 0. -1.
</event>
<event>
 5   0  0.3690572E-08  0.3881502E+04  0.7818609E-02  0.8028887E-01
       -2   -1    0    0    0  501  0.00000000000E+00  0.00000000000E+00  0.24432978265E+04  0.24432978265E+04  0.25500000920E-02 0.  1.
        2   -1    0    0  501    0  0.00000000000E+00  0.00000000000E+00 -0.15415699402E+04  0.15415699402E+04  0.25500000920E-02 0. -1.
    10030    2    1    2    0    0  0.00000000000E+00  0.00000000000E+00  0.90172788636E+03  0.39848677667E+04  0.38815020208E+04 0.  0.
        3    1    3    3  502    0  0.10538858719E+04 -0.10038978689E+04 -0.86707838259E+03  0.16941993076E+04  0.10100000352E+00 0. -1.
       -3    1    3    3    0  502 -0.10538858719E+04  0.10038978689E+04  0.17688062690E+04  0.22906684591E+04  0.10100000352E+00 0.  1.
</event>
<event>
 5   0  0.1164500E-08  0.3897692E+04  0.7818609E-02  0.8025509E-01
       -1   -1    0    0    0  501  0.00000000000E+00  0.00000000000E+00  0.15902230987E+04  0.15902230987E+04  0.50400001928E-02 0. -1.
        1   -1    0    0  501    0  0.00000000000E+00  0.00000000000E+00 -0.23883440520E+04  0.23883440520E+04  0.50400001928E-02 0.  1.
    10030    2    1    2    0    0  0.00000000000E+00  0.00000000000E+00 -0.79812095330E+03  0.39785671506E+04  0.38976915625E+04 0.  0.
        5    1    3    3  502    0  0.12182614781E+04  0.11481058202E+04  0.61947670552E+03  0.17849597984E+04  0.46999998093E+01 0. -1.
       -5    1    3    3    0  502 -0.12182614781E+04 -0.11481058202E+04 -0.14175976588E+04  0.21936073522E+04  0.46999998093E+01 0.  1.
</event>
<event>
 5   0  0.3872969E-08  0.3882017E+04  0.7818609E-02  0.8028780E-01
        2   -1    0    0  501    0  0.00000000000E+00  0.00000000000E+00  0.15828776808E+04  0.15828776808E+04  0.25500000920E-02 0.  1.
       -2   -1    0    0    0  501  0.00000000000E+00  0.00000000000E+00 -0.23801672008E+04  0.23801672008E+04  0.25500000920E-02 0. -1.
    10030    2    1    2    0    0  0.00000000000E+00  0.00000000000E+00 -0.79728952004E+03  0.39630448816E+04  0.38820167638E+04 0.  0.
        2    1    3    3  502    0 -0.17979964782E+04  0.43073322148E+03 -0.10019028630E+04  0.21028865378E+04  0.25500000920E-02 0. -1.
       -2    1    3    3    0  502  0.17979964782E+04 -0.43073322148E+03  0.20461334301E+03  0.18601583438E+04  0.25500000920E-02 0.  1.
</event>
<event>
 5   0  0.3769985E-08  0.3894992E+04  0.7818609E-02  0.8026071E-01
       -2   -1    0    0    0  501  0.00000000000E+00  0.00000000000E+00  0.18308718285E+04  0.18308718285E+04  0.25500000920E-02 0. -1.
        2   -1    0    0  501    0  0.00000000000E+00  0.00000000000E+00 -0.20715494751E+04  0.20715494751E+04  0.25500000920E-02 0.  1.
    10030    2    1    2    0    0  0.00000000000E+00  0.00000000000E+00 -0.24067764659E+03  0.39024213037E+04  0.38949924649E+04 0.  0.
        1    1    3    3  502    0  0.18327964126E+04 -0.64218234344E+03  0.25543566826E+02  0.19422135120E+04  0.50400001928E-02 0. -1.
       -1    1    3    3    0  502 -0.18327964126E+04  0.64218234344E+03 -0.26622121342E+03  0.19602077917E+04  0.50400001928E-02 0.  1.
</event>
<event>
 5   0  0.3724293E-08  0.3907095E+04  0.7818609E-02  0.8023555E-01
        2   -1    0    0  501    0  0.00000000000E+00  0.00000000000E+00  0.20479399513E+04  0.20479399513E+04  0.25500000920E-02 0. -1.
       -2   -1    0    0    0  501  0.00000000000E+00  0.00000000000E+00 -0.18635054930E+04  0.18635054930E+04  0.25500000920E-02 0.  1.
    10030    2    1    2    0    0  0.00000000000E+00  0.00000000000E+00  0.18443445830E+03  0.39114454443E+04  0.39070947511E+04 0.  0.
        4    1    3    3  502    0 -0.66366640693E+03 -0.50726693254E+03 -0.16756973764E+04  0.18723611165E+04  0.12699999809E+01 0.  1.
       -4    1    3    3    0  502  0.66366640693E+03  0.50726693254E+03  0.18601318347E+04  0.20390843278E+04  0.12699999809E+01 0. -1.
</event>
<event>
 5   0  0.1164500E-08  0.3906904E+04  0.7818609E-02  0.8023595E-01
        1   -1    0    0  501    0  0.00000000000E+00  0.00000000000E+00  0.21408260673E+04  0.21408260673E+04  0.50400001928E-02 0. -1.
       -1   -1    0    0    0  501  0.00000000000E+00  0.00000000000E+00 -0.17824774561E+04  0.17824774561E+04  0.50400001928E-02 0.  1.
    10030    2    1    2    0    0  0.00000000000E+00  0.00000000000E+00  0.35834861117E+03  0.39233035234E+04  0.39069037369E+04 0.  0.
        5    1    3    3  502    0  0.47671615318E+03  0.55379631329E+03  0.19984089390E+04  0.21278179021E+04  0.46999998093E+01 0. -1.
       -5    1    3    3    0  502 -0.47671615318E+03 -0.55379631329E+03 -0.16400603278E+04  0.17954856213E+04  0.46999998093E+01 0.  1.
</event>
<event>
 5   0  0.3769985E-08  0.3897709E+04  0.7818609E-02  0.8025506E-01
        2   -1    0    0  501    0  0.00000000000E+00  0.00000000000E+00  0.17917699798E+04  0.17917699798E+04  0.25500000920E-02 0.  1.
       -2   -1    0    0    0  501  0.00000000000E+00  0.00000000000E+00 -0.21197110840E+04  0.21197110840E+04  0.25500000920E-02 0. -1.
    10030    2    1    2    0    0  0.00000000000E+00  0.00000000000E+00 -0.32794110425E+03  0.39114810638E+04  0.38977094228E+04 0.  0.
        1    1    3    3  502    0 -0.12965045344E+04  0.51087631785E+03 -0.15311777561E+04  0.20703680689E+04  0.50400001928E-02 0. -1.
       -1    1    3    3    0  502  0.12965045344E+04 -0.51087631785E+03  0.12032366518E+04  0.18411129950E+04  0.50400001928E-02 0.  1.
</event>
<event>
 5   0  0.3690572E-08  0.3902362E+04  0.7818609E-02  0.8024538E-01
        2   -1    0    0  501    0  0.00000000000E+00  0.00000000000E+00  0.14997183674E+04  0.14997183674E+04  0.25500000920E-02 0. -1.
       -2   -1    0    0    0  501  0.00000000000E+00  0.00000000000E+00 -0.25385479512E+04  0.25385479512E+04  0.25500000920E-02 0.  1.
    10030    2    1    2    0    0  0.00000000000E+00  0.00000000000E+00 -0.10388295838E+04  0.40382663186E+04  0.39023618433E+04 0.  0.
        3    1    3    3  502    0  0.10515628470E+04  0.11412660661E+04 -0.17433278274E+04  0.23339804153E+04  0.10100000352E+00 0.  1.
       -3    1    3    3    0  502 -0.10515628470E+04 -0.11412660661E+04  0.70449824358E+03  0.17042859033E+04  0.10100000352E+00 0. -1.
</event>
<event>
 5   0  0.1164500E-08  0.3891992E+04  0.7818609E-02  0.8026697E-01
        1   -1    0    0  501    0  0.00000000000E+00  0.00000000000E+00  0.21286641576E+04  0.21286641576E+04  0.50400001928E-02 0. -1.
       -1   -1    0    0    0  501  0.00000000000E+00  0.00000000000E+00 -0.17790034256E+04  0.17790034256E+04  0.50400001928E-02 0.  1.
    10030    2    1    2    0    0  0.00000000000E+00  0.00000000000E+00  0.34966073202E+03  0.39076675832E+04  0.38919922036E+04 0.  0.
        4    1    3    3  502    0  0.15483593785E+03  0.18946177308E+04  0.59285891976E+03  0.19912392686E+04  0.12699999809E+01 0. -1.
       -4    1    3    3    0  502 -0.15483593785E+03 -0.18946177308E+04 -0.24319818774E+03  0.19164283145E+04  0.12699999809E+01 0.  1.
</event>
<event>
 5   0  0.3669347E-08  0.3902548E+04  0.7818609E-02  0.8024499E-01
        2   -1    0    0  501    0  0.00000000000E+00  0.00000000000E+00  0.22470482593E+04  0.22470482593E+04  0.25500000920E-02 0.  1.
       -2   -1    0    0    0  501  0.00000000000E+00  0.00000000000E+00 -0.16944319114E+04  0.16944319114E+04  0.25500000920E-02 0. -1.
    10030    2    1    2    0    0  0.00000000000E+00  0.00000000000E+00  0.55261634785E+03  0.39414801707E+04  0.39025480277E+04 0.  0.
        5    1    3    3  502    0 -0.13774656820E+04 -0.13417762141E+04 -0.58164849682E+02  0.19238452000E+04  0.46999998093E+01 0. -1.
       -5    1    3    3    0  502  0.13774656820E+04  0.13417762141E+04  0.61078119753E+03  0.20176349707E+04  0.46999998093E+01 0.  1.
</event>
<event>
 5   0  0.3872969E-08  0.3833987E+04  0.7818609E-02  0.8038901E-01
       -2   -1    0    0    0  501  0.00000000000E+00  0.00000000000E+00  0.18886745661E+04  0.18886745661E+04  0.25500000920E-02 0. -1.
        2   -1    0    0  501    0  0.00000000000E+00  0.00000000000E+00 -0.19457367091E+04  0.19457367092E+04  0.25500000920E-02 0.  1.
    10030    2    1    2    0    0  0.00000000000E+00  0.00000000000E+00 -0.57062143098E+02  0.38344112752E+04  0.38339866639E+04 0.  0.
        2    1    3    3  502    0 -0.50052978345E+03 -0.16735096764E+04 -0.81836452842E+03  0.19289596166E+04  0.25500000920E-02 0.  1.
       -2    1    3    3    0  502  0.50052978345E+03  0.16735096764E+04  0.76130238532E+03  0.19054516586E+04  0.25500000920E-02 0. -1.
</event>
<event>
 5   0  0.3872969E-08  0.3894425E+04  0.7818609E-02  0.8026190E-01
        2   -1    0    0  501    0  0.00000000000E+00  0.00000000000E+00  0.23870843407E+04  0.23870843407E+04  0.25500000920E-02 0.  1.
       -2   -1    0    0    0  501  0.00000000000E+00  0.00000000000E+00 -0.15883963835E+04  0.15883963835E+04  0.25500000920E-02 0. -1.
    10030    2    1    2    0    0  0.00000000000E+00  0.00000000000E+00  0.79868795727E+03  0.39754807242E+04  0.38944248016E+04 0.  0.
        2    1    3    3  502    0 -0.34368762140E+03  0.12095801125E+04  0.19170400209E+04  0.22926507958E+04  0.25500000920E-02 0.  1.
       -2    1    3    3    0  502  0.34368762140E+03 -0.12095801125E+04 -0.11183520636E+04  0.16828299284E+04  0.25500000920E-02 0. -1.
</event>
<event>
 5   0  0.1164500E-08  0.3906978E+04  0.7818609E-02  0.8023580E-01
       -1   -1    0    0    0  501  0.00000000000E+00  0.00000000000E+00  0.31661614534E+04  0.31661614534E+04  0.50400001928E-02 0. -1.
        1   -1    0    0  501    0  0.00000000000E+00  0.00000000000E+00 -0.12052824870E+04  0.12052824870E+04  0.50400001928E-02 0.  1.
    10030    2    1    2    0    0  0.00000000000E+00  0.00000000000E+00  0.19608789664E+04  0.43714439405E+04  0.39069778350E+04 0.  0.
        3    1    3    3  502    0 -0.25882400750E+03  0.70979740872E+03  0.29960773521E+04  0.30898675923E+04  0.10100000352E+00 0. -1.
       -3    1    3    3    0  502  0.25882400750E+03 -0.70979740872E+03 -0.10351983856E+04  0.12815763481E+04  0.10100000352E+00 0.  1.
</event>
<event>
 5   0  0.1164500E-08  0.3906932E+04  0.7818609E-02  0.8023589E-01
        1   -1    0    0  501    0  0.00000000000E+00  0.00000000000E+00  0.20052425598E+04  0.20052425598E+04  0.50400001928E-02 0.  1.
       -1   -1    0    0    0  501  0.00000000000E+00  0.00000000000E+00 -0.19030258968E+04  0.19030258969E+04  0.50400001928E-02 0. -1.
    10030    2    1    2    0    0  0.00000000000E+00  0.00000000000E+00  0.10221666294E+03  0.39082684566E+04  0.39069315432E+04 0.  0.
        2    1    3    3  502    0  0.69693293699E+03  0.76693867415E+03 -0.16053925121E+04  0.19108101859E+04  0.25500000920E-02 0. -1.
       -2    1    3    3    0  502 -0.69693293699E+03 -0.76693867415E+03  0.17076091751E+04  0.19974582707E+04  0.25500000920E-02 0.  1.
</event>
<event>
 5   0  0.3769985E-08  0.3902689E+04  0.7818609E-02  0.8024470E-01
       -2   -1    0    0    0  501  0.00000000000E+00  0.00000000000E+00  0.27019477051E+04  0.27019477051E+04  0.25500000920E-02 0.  1.
        2   -1    0    0  501    0  0.00000000000E+00  0.00000000000E+00 -0.14092593955E+04  0.14092593955E+04  0.25500000920E-02 0. -1.
    10030    2    1    2    0    0  0.00000000000E+00  0.00000000000E+00  0.12926883096E+04  0.41112071007E+04  0.39026889139E+04 0.  0.
        1    1    3    3  502    0  0.57048675034E+03 -0.14932043511E+04  0.18253527388E+04  0.24263196383E+04  0.50400001928E-02 0.  1.
       -1    1    3    3    0  502 -0.57048675034E+03  0.14932043511E+04 -0.53266442919E+03  0.16848874623E+04  0.50400001928E-02 0. -1.
</event>
<event>
 5   0  0.1164500E-08  0.3897123E+04  0.7818609E-02  0.8025628E-01
        1   -1    0    0  501    0  0.00000000000E+00  0.00000000000E+00  0.15309616277E+04  0.15309616277E+04  0.50400001928E-02 0. -1.
       -1   -1    0    0    0  501  0.00000000000E+00  0.00000000000E+00 -0.24800703599E+04  0.24800703599E+04  0.50400001928E-02 0.  1.
    10030    2    1    2    0    0  0.00000000000E+00  0.00000000000E+00 -0.94910873221E+03  0.40110319876E+04  0.38971233262E+04 0.  0.
        2    1    3    3  502    0  0.16078743534E+04  0.10309844409E+04 -0.87144684131E+03  0.20994305063E+04  0.25500000920E-02 0.  1.
       -2    1    3    3    0  502 -0.16078743534E+04 -0.10309844409E+04 -0.77661890905E+02  0.19116014812E+04  0.25500000920E-02 0. -1.
</event>
<event>
 5   0  0.1164500E-08  0.3908234E+04  0.7818609E-02  0.8023319E-01
        1   -1    0    0  501    0  0.00000000000E+00  0.00000000000E+00  0.18501860339E+04  0.18501860339E+04  0.50400001928E-02 0.  1.
       -1   -1    0    0    0  501  0.00000000000E+00  0.00000000000E+00 -0.20638860619E+04  0.20638860619E+04  0.50400001928E-02 0. -1.
    10030    2    1    2    0    0  0.00000000000E+00  0.00000000000E+00 -0.21370002801E+03  0.39140720957E+04  0.39082339578E+04 0.  0.
        5    1    3    3  502    0 -0.11867091336E+04  0.25283395845E+03  0.14272173588E+04  0.18732792257E+04  0.46999998093E+01 0.  1.
       -5    1    3    3    0  502  0.11867091336E+04 -0.25283395845E+03 -0.16409173868E+04  0.20407928701E+04  0.46999998093E+01 0. -1.
</event>
<event>
 5   0  0.3669347E-08  0.3894468E+04  0.7818609E-02  0.8026181E-01
        2   -1    0    0  501    0  0.00000000000E+00  0.00000000000E+00  0.30759012159E+04  0.30759012159E+04  0.25500000920E-02 0. -1.
       -2   -1    0    0    0  501  0.00000000000E+00  0.00000000000E+00 -0.12327182330E+04  0.12327182330E+04  0.25500000920E-02 0.  1.
    10030    2    1    2    0    0  0.00000000000E+00  0.00000000000E+00  0.18431829829E+04  0.43086194489E+04  0.38944676205E+04 0.  0.
        5    1    3    3  502    0 -0.11428571264E+04 -0.66066800173E+03  0.25052839696E+04  0.28317970404E+04  0.46999998093E+01 0. -1.
       -5    1    3    3    0  502  0.11428571264E+04  0.66066800173E+03 -0.66210098669E+03  0.14768224085E+04  0.46999998093E+01 0.  1.
</event>
<event>
 5   0  0.1164500E-08  0.3899811E+04  0.7818609E-02  0.8025069E-01
       -1   -1    0    0    0  501  0.00000000000E+00  0.00000000000E+00  0.16106690387E+04  0.16106690387E+04  0.50400001928E-02 0.  1.
        1   -1    0    0  501    0  0.00000000000E+00  0.00000000000E+00 -0.23605913183E+04  0.23605913183E+04  0.50400001928E-02 0. -1.
    10030    2    1    2    0    0  0.00000000000E+00  0.00000000000E+00 -0.74992227965E+03  0.39712603570E+04  0.38998109438E+04 0.  0.
        2    1    3    3  502    0 -0.56206882958E+02 -0.18051456706E+03  0.16013133120E+04  0.16124357493E+04  0.25500000920E-02 0.  1.
       -2    1    3    3    0  502  0.56206882958E+02  0.18051456706E+03 -0.23512355916E+04  0.23588246077E+04  0.25500000920E-02 0. -1.
</event>
<event>
 5   0  0.1164500E-08  0.3948964E+04  0.7818609E-02  0.8014922E-01
        1   -1    0    0  501    0  0.00000000000E+00  0.00000000000E+00  0.20652723289E+04  0.20652723289E+04  0.50400001928E-02 0.  1.
       -1   -1    0    0    0  501  0.00000000000E+00  0.00000000000E+00 -0.18876827295E+04  0.18876827295E+04  0.50400001928E-02 0. -1.
    10030    2    1    2    0    0  0.00000000000E+00  0.00000000000E+00  0.17758959940E+03  0.39529550583E+04  0.39489638676E+04 0.  0.
        3    1    3    3  502    0 -0.41112625177E+02  0.14284811027E+04 -0.12750544020E+04  0.19152055365E+04  0.10100000352E+00 0. -1.
       -3    1    3    3    0  502  0.41112625177E+02 -0.14284811027E+04  0.14526440014E+04  0.20377495218E+04  0.10100000352E+00 0.  1.
</event>
<event>
 5   0  0.1164500E-08  0.3896046E+04  0.7818609E-02  0.8025852E-01
       -1   -1    0    0    0  501  0.00000000000E+00  0.00000000000E+00  0.18998371379E+04  0.18998371379E+04  0.50400001928E-02 0. -1.
        1   -1    0    0  501    0  0.00000000000E+00  0.00000000000E+00 -0.19974311435E+04  0.19974311435E+04  0.50400001928E-02 0.  1.
    10030    2    1    2    0    0  0.00000000000E+00  0.00000000000E+00 -0.97594005546E+02  0.38972682814E+04  0.38960461326E+04 0.  0.
        5    1    3    3  502    0 -0.13793272728E+04 -0.41606481851E+03 -0.13603597446E+04  0.19814778282E+04  0.46999998093E+01 0.  1.
       -5    1    3    3    0  502  0.13793272728E+04  0.41606481851E+03  0.12627657391E+04  0.19157904532E+04  0.46999998093E+01 0. -1.
</event>
<event>
 5   0  0.3872969E-08  0.3899468E+04  0.7818609E-02  0.8025140E-01
        2   -1    0    0  501    0  0.00000000000E+00  0.00000000000E+00  0.19191501109E+04  0.19191501109E+04  0.25500000920E-02 0. -1.
       -2   -1    0    0    0  501  0.00000000000E+00  0.00000000000E+00 -0.19808048896E+04  0.19808048896E+04  0.25500000920E-02 0.  1.
    10030    2    1    2    0    0  0.00000000000E+00  0.00000000000E+00 -0.61654778698E+02  0.38999550006E+04  0.38994676169E+04 0.  0.
        2    1    3    3  502    0 -0.10348294699E+04 -0.16240993175E+04 -0.33564622199E+03  0.19547964117E+04  0.25500000920E-02 0.  1.
       -2    1    3    3    0  502  0.10348294699E+04  0.16240993175E+04  0.27399144329E+03  0.19451585889E+04  0.25500000920E-02 0. -1.
</event>
<event>
 5   0  0.3690572E-08  0.3899866E+04  0.7818609E-02  0.8025057E-01
       -2   -1    0    0    0  501  0.00000000000E+00  0.00000000000E+00  0.19266529587E+04  0.19266529587E+04  0.25500000920E-02 0. -1.
        2   -1    0    0  501    0  0.00000000000E+00  0.00000000000E+00 -0.19734940648E+04  0.19734940648E+04  0.25500000920E-02 0.  1.
    10030    2    1    2    0    0  0.00000000000E+00  0.00000000000E+00 -0.46841106107E+02  0.39001470236E+04  0.38998657305E+04 0.  0.
        3    1    3    3  502    0  0.14848617384E+04 -0.12118850477E+04 -0.38227566697E+03  0.19543833930E+04  0.10100000352E+00 0.  1.
       -3    1    3    3    0  502 -0.14848617384E+04  0.12118850477E+04  0.33543456087E+03  0.19457636306E+04  0.10100000352E+00 0. -1.
</event>
<event>
 5   0  0.1164500E-08  0.3903541E+04  0.7818609E-02  0.8024293E-01
        1   -1    0    0  501    0  0.00000000000E+00  0.00000000000E+00  0.11809151448E+04  0.11809151448E+04  0.50400001928E-02 0.  1.
       -1   -1    0    0    0  501  0.00000000000E+00  0.00000000000E+00 -0.32258101440E+04  0.32258101440E+04  0.50400001928E-02 0. -1.
    10030    2    1    2    0    0  0.00000000000E+00  0.00000000000E+00 -0.20448949991E+04  0.44067252888E+04  0.39035409840E+04 0.  0.
        3    1    3    3  502    0 -0.91898720453E+03  0.19000547250E+03 -0.29544147287E+04  0.30998719266E+04  0.10100000352E+00 0. -1.
       -3    1    3    3    0  502  0.91898720453E+03 -0.19000547250E+03  0.90951972960E+03  0.13068533622E+04  0.10100000352E+00 0.  1.
</event>
<event>
 5   0  0.3769985E-08  0.3881759E+04  0.7818609E-02  0.8028834E-01
        2   -1    0    0  501    0  0.00000000000E+00  0.00000000000E+00  0.22046261010E+04  0.22046261010E+04  0.25500000920E-02 0. -1.
       -2   -1    0    0    0  501  0.00000000000E+00  0.00000000000E+00 -0.17086856149E+04  0.17086856149E+04  0.25500000920E-02 0.  1.
    10030    2    1    2    0    0  0.00000000000E+00  0.00000000000E+00  0.49594048604E+03  0.39133117159E+04  0.38817588308E+04 0.  0.
        1    1    3    3  502    0  0.38046927100E+03  0.15049454211E+04 -0.92657315188E+03  0.18078040249E+04  0.50400001928E-02 0.  1.
       -1    1    3    3    0  502 -0.38046927100E+03 -0.15049454211E+04  0.14225136379E+04  0.21055076910E+04  0.50400001928E-02 0. -1.
</event>
<event>
 5   0  0.3769985E-08  0.3894533E+04  0.7818609E-02  0.8026167E-01
       -2   -1    0    0    0  501  0.00000000000E+00  0.00000000000E+00  0.16437278499E+04  0.16437278499E+04  0.25500000920E-02 0. -1.
        2   -1    0    0  501    0  0.00000000000E+00  0.00000000000E+00 -0.23068579680E+04  0.23068579680E+04  0.25500000920E-02 0.  1.
    10030    2    1    2    0    0  0.00000000000E+00  0.00000000000E+00 -0.66313011810E+03  0.39505858178E+04  0.38945329310E+04 0.  0.
        1    1    3    3  502    0  0.58133834322E+02 -0.94911099809E+03 -0.20553330299E+04  0.22646379607E+04  0.50400001928E-02 0.  1.
       -1    1    3    3    0  502 -0.58133834322E+02  0.94911099809E+03  0.13922029117E+04  0.16859478571E+04  0.50400001928E-02 0. -1.
</event>
<event>
 5   0  0.3669347E-08  0.3898427E+04  0.7818609E-02  0.8025356E-01
        2   -1    0    0  501    0  0.00000000000E+00  0.00000000000E+00  0.16501835279E+04  0.16501835280E+04  0.25500000920E-02 0.  1.
       -2   -1    0    0    0  501  0.00000000000E+00  0.00000000000E+00 -0.23024306146E+04  0.23024306146E+04  0.25500000920E-02 0. -1.
    10030    2    1    2    0    0  0.00000000000E+00  0.00000000000E+00 -0.65224708661E+03  0.39526141425E+04  0.38984269004E+04 0.  0.
        5    1    3    3  502    0 -0.12324433240E+04 -0.99393138127E+03  0.82660284500E+03  0.17860880412E+04  0.46999998093E+01 0.  1.
       -5    1    3    3    0  502  0.12324433240E+04  0.99393138127E+03 -0.14788499316E+04  0.21665261013E+04  0.46999998093E+01 0. -1.
</event>
<event>
 5   0  0.3690572E-08  0.3901848E+04  0.7818609E-02  0.8024645E-01
        2   -1    0    0  501    0  0.00000000000E+00  0.00000000000E+00  0.20204741590E+04  0.20204741590E+04  0.25500000920E-02 0.  1.
       -2   -1    0    0    0  501  0.00000000000E+00  0.00000000000E+00 -0.18837681480E+04  0.18837681480E+04  0.25500000920E-02 0. -1.
    10030    2    1    2    0    0  0.00000000000E+00  0.00000000000E+00  0.13670601103E+03  0.39042423070E+04  0.39018482106E+04 0.  0.
        3    1    3    3  502    0 -0.18791050189E+04 -0.18826615693E+02  0.59280697221E+03  0.19704847703E+04  0.10100000352E+00 0.  1.
       -3    1    3    3    0  502  0.18791050189E+04  0.18826615693E+02 -0.45610096118E+03  0.19337575367E+04  0.10100000352E+00 0. -1.
</event>
<event>
 5   0  0.1164500E-08  0.3899788E+04  0.7818609E-02  0.8025073E-01
       -1   -1    0    0    0  501  0.00000000000E+00  0.00000000000E+00  0.21636278786E+04  0.21636278786E+04  0.50400001928E-02 0. -1.
        1   -1    0    0  501    0  0.00000000000E+00  0.00000000000E+00 -0.17572738870E+04  0.17572738870E+04  0.50400001928E-02 0.  1.
    10030    2    1    2    0    0  0.00000000000E+00  0.00000000000E+00  0.40635399164E+03  0.39209017656E+04  0.38997880826E+04 0.  0.
        1    1    3    3  502    0  0.10695935308E+04  0.16098928418E+04  0.46206182129E+03  0.19872811603E+04  0.50400001928E-02 0.  1.
       -1    1    3    3    0  502 -0.10695935308E+04 -0.16098928418E+04 -0.55707829645E+02  0.19336206054E+04  0.50400001928E-02 0. -1.
</event>
<event>
 5   0  0.1164500E-08  0.3900349E+04  0.7818609E-02  0.8024957E-01
       -1   -1    0    0    0  501  0.00000000000E+00  0.00000000000E+00  0.25673147710E+04  0.25673147710E+04  0.50400001928E-02 0. -1.
        1   -1    0    0  501    0  0.00000000000E+00  0.00000000000E+00 -0.14813845125E+04  0.14813845125E+04  0.50400001928E-02 0.  1.
    10030    2    1    2    0    0  0.00000000000E+00  0.00000000000E+00  0.10859302585E+04  0.40486992835E+04  0.39003488770E+04 0.  0.
        3    1    3    3  502    0 -0.76828991369E+03  0.13685079178E+04  0.17446212026E+04  0.23466543127E+04  0.10100000352E+00 0. -1.
       -3    1    3    3    0  502  0.76828991369E+03 -0.13685079178E+04 -0.65869094407E+03  0.17020449708E+04  0.10100000352E+00 0.  1.
</event>
<event>
 5   0  0.1164500E-08  0.3908256E+04  0.7818609E-02  0.8023314E-01
       -1   -1    0    0    0  501  0.00000000000E+00  0.00000000000E+00  0.17627996032E+04  0.17627996032E+04  0.50400001928E-02 0.  1.
        1   -1    0    0  501    0  0.00000000000E+00  0.00000000000E+00 -0.21662225787E+04  0.21662225787E+04  0.50400001928E-02 0. -1.
    10030    2    1    2    0    0  0.00000000000E+00  0.00000000000E+00 -0.40342297546E+03  0.39290221819E+04  0.39082560317E+04 0.  0.
        3    1    3    3  502    0  0.16025055206E+04 -0.10056651010E+04  0.28999885368E+03  0.19140234022E+04  0.10100000352E+00 0.  1.
       -3    1    3    3    0  502 -0.16025055206E+04  0.10056651010E+04 -0.69342182914E+03  0.20149987797E+04  0.10100000352E+00 0. -1.
</event>
<event>
 5   0  0.3669347E-08  0.3895117E+04  0.7818609E-02  0.8026046E-01
        2   -1    0    0  501    0  0.00000000000E+00  0.00000000000E+00  0.25241485125E+04  0.25241485125E+04  0.25500000920E-02 0.  1.
       -2   -1    0    0    0  501  0.00000000000E+00  0.00000000000E+00 -0.15026788101E+04  0.15026788101E+04  0.25500000920E-02 0. -1.
    10030    2    1    2    0    0  0.00000000000E+00  0.00000000000E+00  0.10214697023E+04  0.40268273226E+04  0.38951171912E+04 0.  0.
        5    1    3    3  502    0 -0.33534642475E+03 -0.15862293149E+04  0.16262877500E+04  0.22963916478E+04  0.46999998093E+01 0.  1.
       -5    1    3    3    0  502  0.33534642475E+03  0.15862293149E+04 -0.60481804769E+03  0.17304356749E+04  0.46999998093E+01 0. -1.
</event>
<event>
 5   0  0.3769985E-08  0.3902944E+04  0.7818609E-02  0.8024417E-01
       -2   -1    0    0    0  501  0.00000000000E+00  0.00000000000E+00  0.12939362917E+04  0.12939362917E+04  0.25500000920E-02 0. -1.
        2   -1    0    0  501    0  0.00000000000E+00  0.00000000000E+00 -0.29431463263E+04  0.29431463263E+04  0.25500000920E-02 0.  1.
    10030    2    1    2    0    0  0.00000000000E+00  0.00000000000E+00 -0.16492100346E+04  0.42370826181E+04  0.39029444493E+04 0.  0.
        1    1    3    3  502    0  0.96649954290E+03  0.16502676879E+04 -0.12460951654E+04  0.22825989507E+04  0.50400001928E-02 0.  1.
       -1    1    3    3    0  502 -0.96649954290E+03 -0.16502676879E+04 -0.40311486918E+03  0.19544836674E+04  0.50400001928E-02 0. -1.
</event>
<event>
 5   0  0.1164500E-08  0.3895109E+04  0.7818609E-02  0.8026047E-01
       -1   -1    0    0    0  501  0.00000000000E+00  0.00000000000E+00  0.27874920990E+04  0.27874920990E+04  0.50400001928E-02 0. -1.
        1   -1    0    0  501    0  0.00000000000E+00  0.00000000000E+00 -0.13607100881E+04  0.13607100881E+04  0.50400001928E-02 0.  1.
    10030    2    1    2    0    0  0.00000000000E+00  0.00000000000E+00  0.14267820109E+04  0.41482021872E+04  0.38951090458E+04 0.  0.
        5    1    3    3  502    0  0.16055460577E+04  0.73964290545E+03  0.15838733722E+04  0.23735051548E+04  0.46999998093E+01 0. -1.
       -5    1    3    3    0  502 -0.16055460577E+04 -0.73964290545E+03 -0.15709136129E+03  0.17746970324E+04  0.46999998093E+01 0.  1.
</event>
<event>
 5   0  0.1164500E-08  0.3903265E+04  0.7818609E-02  0.8024351E-01
       -1   -1    0    0    0  501  0.00000000000E+00  0.00000000000E+00  0.13843828645E+04  0.13843828645E+04  0.50400001928E-02 0. -1.
        1   -1    0    0  501    0  0.00000000000E+00  0.00000000000E+00 -0.27513117229E+04  0.27513117229E+04  0.50400001928E-02 0.  1.
    10030    2    1    2    0    0  0.00000000000E+00  0.00000000000E+00 -0.13669288584E+04  0.41356945875E+04  0.39032646870E+04 0.  0.
        5    1    3    3  502    0 -0.11944905155E+04  0.12181623142E+04  0.32066008064E+03  0.17359642833E+04  0.46999998093E+01 0. -1.
       -5    1    3    3    0  502  0.11944905155E+04 -0.12181623142E+04 -0.16875889390E+04  0.23997303042E+04  0.46999998093E+01 0.  1.
</event>
<event>
 5   0  0.3769985E-08  0.3898967E+04  0.7818609E-02  0.8025244E-01
        2   -1    0    0  501    0  0.00000000000E+00  0.00000000000E+00  0.23670992016E+04  0.23670992016E+04  0.25500000920E-02 0. -1.
       -2   -1    0    0    0  501  0.00000000000E+00  0.00000000000E+00 -0.16055459075E+04  0.16055459075E+04  0.25500000920E-02 0.  1.
    10030    2    1    2    0    0  0.00000000000E+00  0.00000000000E+00  0.76155329407E+03  0.39726451091E+04  0.38989672662E+04 0.  0.
        1    1    3    3  502    0 -0.10492801910E+04 -0.25527274716E+03  0.20345102261E+04  0.23033421272E+04  0.50400001928E-02 0. -1.
       -1    1    3    3    0  502  0.10492801910E+04  0.25527274716E+03 -0.12729569320E+04  0.16693029819E+04  0.50400001928E-02 0.  1.
</event>
<event>
 5   0  0.1164500E-08  0.3907471E+04  0.7818609E-02  0.8023477E-01
       -1   -1    0    0    0  501  0.00000000000E+00  0.00000000000E+00  0.18321313187E+04  0.18321313187E+04  0.50400001928E-02 0.  1.
        1   -1    0    0  501    0  0.00000000000E+00  0.00000000000E+00 -0.20834109822E+04  0.20834109822E+04  0.50400001928E-02 0. -1.
    10030    2    1    2    0    0  0.00000000000E+00  0.00000000000E+00 -0.25127966350E+03  0.39155423009E+04  0.39074710544E+04 0.  0.
        3    1    3    3  502    0 -0.11312564972E+04  0.13661730903E+04  0.69514445877E+03  0.19050973739E+04  0.10100000352E+00 0.  1.
       -3    1    3    3    0  502  0.11312564972E+04 -0.13661730903E+04 -0.94642412227E+03  0.20104449270E+04  0.10100000352E+00 0. -1.
</event>
<event>
 5   0  0.1164500E-08  0.3904210E+04  0.7818609E-02  0.8024154E-01
       -1   -1    0    0    0  501  0.00000000000E+00  0.00000000000E+00  0.19260261262E+04  0.19260261262E+04  0.50400001928E-02 0. -1.
        1   -1    0    0  501    0  0.00000000000E+00  0.00000000000E+00 -0.19785368168E+04  0.19785368168E+04  0.50400001928E-02 0.  1.
    10030    2    1    2    0    0  0.00000000000E+00  0.00000000000E+00 -0.52510690664E+02  0.39045629430E+04  0.39042098309E+04 0.  0.
        2    1    3    3  502    0 -0.14114160434E+04 -0.12700210649E+04  0.42728853576E+03  0.19461819662E+04  0.25500000920E-02 0. -1.
       -2    1    3    3    0  502  0.14114160434E+04  0.12700210649E+04 -0.47979922643E+03  0.19583809768E+04  0.25500000920E-02 0.  1.
</event>
<event>
 5   0  0.1164500E-08  0.3903776E+04  0.7818609E-02  0.8024244E-01
       -1   -1    0    0    0  501  0.00000000000E+00  0.00000000000E+00  0.23690947647E+04  0.23690947647E+04  0.50400001928E-02 0. -1.
        1   -1    0    0  501    0  0.00000000000E+00  0.00000000000E+00 -0.16081529276E+04  0.16081529277E+04  0.50400001928E-02 0.  1.
    10030    2    1    2    0    0  0.00000000000E+00  0.00000000000E+00  0.76094183703E+03  0.39772476923E+04  0.39037759576E+04 0.  0.
        4    1    3    3  502    0 -0.11755548107E+04 -0.14693977940E+04  0.90869390487E+03  0.20896854347E+04  0.12699999809E+01 0. -1.
       -4    1    3    3    0  502  0.11755548107E+04  0.14693977940E+04 -0.14775206784E+03  0.18875622577E+04  0.12699999809E+01 0.  1.
</event>
<event>
 5   0  0.1164500E-08  0.3898070E+04  0.7818609E-02  0.8025431E-01
       -1   -1    0    0    0  501  0.00000000000E+00  0.00000000000E+00  0.22553971610E+04  0.22553971610E+04  0.50400001928E-02 0.  1.
        1   -1    0    0  501    0  0.00000000000E+00  0.00000000000E+00 -0.16842877062E+04  0.16842877063E+04  0.50400001928E-02 0. -1.
    10030    2    1    2    0    0  0.00000000000E+00  0.00000000000E+00  0.57110945474E+03  0.39396848672E+04  0.38980701435E+04 0.  0.
        4    1    3    3  502    0  0.25937510390E+03  0.17193739008E+04 -0.60430724973E+03  0.18408451646E+04  0.12699999809E+01 0. -1.
       -4    1    3    3    0  502 -0.25937510390E+03 -0.17193739008E+04  0.11754167045E+04  0.20988397026E+04  0.12699999809E+01 0.  1.
</event>
<event>
 5   0  0.1164500E-08  0.3918136E+04  0.7818609E-02  0.8021268E-01
       -1   -1    0    0    0  501  0.00000000000E+00  0.00000000000E+00  0.16166630107E+04  0.16166630107E+04  0.50400001928E-02 0. -1.
        1   -1    0    0  501    0  0.00000000000E+00  0.00000000000E+00 -0.23739934166E+04  0.23739934166E+04  0.50400001928E-02 0.  1.
    10030    2    1    2    0    0  0.00000000000E+00  0.00000000000E+00 -0.75733040584E+03  0.39906564273E+04  0.39181359569E+04 0.  0.
        1    1    3    3  502    0 -0.18774882435E+04  0.13937912273E+03  0.17317370206E+03  0.18906024901E+04  0.50400001928E-02 0. -1.
       -1    1    3    3    0  502  0.18774882435E+04 -0.13937912273E+03 -0.93050410790E+03  0.21000539372E+04  0.50400001928E-02 0.  1.
</event>
<event>
 5   0  0.1164500E-08  0.3901209E+04  0.7818609E-02  0.8024778E-01
        1   -1    0    0  501    0  0.00000000000E+00  0.00000000000E+00  0.20225655758E+04  0.20225655758E+04  0.50400001928E-02 0. -1.
       -1   -1    0    0    0  501  0.00000000000E+00  0.00000000000E+00 -0.18812039624E+04  0.18812039624E+04  0.50400001928E-02 0.  1.
    10030    2    1    2    0    0  0.00000000000E+00  0.00000000000E+00  0.14136161340E+03  0.39037695383E+04  0.39012092359E+04 0.  0.
        3    1    3    3  502    0  0.16814582274E+03  0.18053118389E+04 -0.64912048755E+03  0.19258196361E+04  0.10100000352E+00 0.  1.
       -3    1    3    3    0  502 -0.16814582274E+03 -0.18053118389E+04  0.79048210095E+03  0.19779499022E+04  0.10100000352E+00 0. -1.
</event>
<event>
 5   0  0.1164500E-08  0.3920535E+04  0.7818609E-02  0.8020772E-01
        1   -1    0    0  501    0  0.00000000000E+00  0.00000000000E+00  0.16666813464E+04  0.16666813464E+04  0.50400001928E-02 0. -1.
       -1   -1    0    0    0  501  0.00000000000E+00  0.00000000000E+00 -0.23055690258E+04  0.23055690258E+04  0.50400001928E-02 0.  1.
    10030    2    1    2    0    0  0.00000000000E+00  0.00000000000E+00 -0.63888767940E+03  0.39722503722E+04  0.39205351105E+04 0.  0.
        4    1    3    3  502    0  0.10150664581E+04  0.38333498174E+03 -0.19735664954E+04  0.22521704969E+04  0.12699999809E+01 0.  1.
       -4    1    3    3    0  502 -0.10150664581E+04 -0.38333498174E+03  0.13346788160E+04  0.17200798753E+04  0.12699999809E+01 0. -1.
</event>
<event>
 5   0  0.3669347E-08  0.3923033E+04  0.7818609E-02  0.8020256E-01
        2   -1    0    0  501    0  0.00000000000E+00  0.00000000000E+00  0.19269153306E+04  0.19269153306E+04  0.25500000920E-02 0. -1.
       -2   -1    0    0    0  501  0.00000000000E+00  0.00000000000E+00 -0.19967390013E+04  0.19967390013E+04  0.25500000920E-02 0.  1.
    10030    2    1    2    0    0  0.00000000000E+00  0.00000000000E+00 -0.69823670724E+02  0.39236543319E+04  0.39230330067E+04 0.  0.
        5    1    3    3  502    0 -0.44314759025E+01 -0.10008066617E+04  0.16523323141E+04  0.19318016923E+04  0.46999998093E+01 0. -1.
       -5    1    3    3    0  502  0.44314759025E+01  0.10008066617E+04 -0.17221559848E+04  0.19918526397E+04  0.46999998093E+01 0.  1.
</event>
<event>
 5   0  0.1164500E-08  0.3888922E+04  0.7818609E-02  0.8027337E-01
       -1   -1    0    0    0  501  0.00000000000E+00  0.00000000000E+00  0.23981466724E+04  0.23981466724E+04  0.50400001928E-02 0. -1.
        1   -1    0    0  501    0  0.00000000000E+00  0.00000000000E+00 -0.15766045034E+04  0.15766045034E+04  0.50400001928E-02 0.  1.
    10030    2    1    2    0    0  0.00000000000E+00  0.00000000000E+00  0.82154216904E+03  0.39747511759E+04  0.38889221353E+04 0.  0.
        2    1    3    3  502    0  0.14703757349E+04  0.42747379744E+03 -0.81408955054E+03  0.17342088818E+04  0.25500000920E-02 0.  1.
       -2    1    3    3    0  502 -0.14703757349E+04 -0.42747379744E+03  0.16356317196E+04  0.22405422941E+04  0.25500000920E-02 0. -1.
</event>
<event>
 5   0  0.1164500E-08  0.3917450E+04  0.7818609E-02  0.8021410E-01
       -1   -1    0    0    0  501  0.00000000000E+00  0.00000000000E+00  0.22435455211E+04  0.22435455211E+04  0.50400001928E-02 0. -1.
        1   -1    0    0  501    0  0.00000000000E+00  0.00000000000E+00 -0.17100629151E+04  0.17100629151E+04  0.50400001928E-02 0.  1.
    10030    2    1    2    0    0  0.00000000000E+00  0.00000000000E+00  0.53348260603E+03  0.39536084362E+04  0.39174501881E+04 0.  0.
        3    1    3    3  502    0  0.57154220736E+03  0.40089721748E+03 -0.15802392729E+04  0.17275807488E+04  0.10100000352E+00 0.  1.
       -3    1    3    3    0  502 -0.57154220736E+03 -0.40089721748E+03  0.21137218789E+04  0.22260276875E+04  0.10100000352E+00 0. -1.
</event>
<event>
 5   0  0.1164500E-08  0.3870312E+04  0.7818609E-02  0.8031232E-01
       -1   -1    0    0    0  501  0.00000000000E+00  0.00000000000E+00  0.16045152711E+04  0.16045152711E+04  0.50400001928E-02 0. -1.
        1   -1    0    0  501    0  0.00000000000E+00  0.00000000000E+00 -0.23339311800E+04  0.23339311800E+04  0.50400001928E-02 0.  1.
    10030    2    1    2    0    0  0.00000000000E+00  0.00000000000E+00 -0.72941590890E+03  0.39384464511E+04  0.38703117291E+04 0.  0.
        2    1    3    3  502    0  0.58672983146E+03 -0.47193165491E+03 -0.21787450471E+04  0.23051900925E+04  0.25500000920E-02 0.  1.
       -2    1    3    3    0  502 -0.58672983146E+03  0.47193165491E+03  0.14493291382E+04  0.16332563586E+04  0.25500000920E-02 0. -1.
</event>
<event>
 5   0  0.3769985E-08  0.3901147E+04  0.7818609E-02  0.8024791E-01
        2   -1    0    0  501    0  0.00000000000E+00  0.00000000000E+00  0.16707301682E+04  0.16707301682E+04  0.25500000920E-02 0. -1.
       -2   -1    0    0    0  501  0.00000000000E+00  0.00000000000E+00 -0.22772893855E+04  0.22772893855E+04  0.25500000920E-02 0.  1.
    10030    2    1    2    0    0  0.00000000000E+00  0.00000000000E+00 -0.60655921729E+03  0.39480195538E+04  0.39011465383E+04 0.  0.
        1    1    3    3  502    0 -0.99126395742E+03  0.60258241549E+03  0.12836900220E+04  0.17301935941E+04  0.50400001928E-02 0. -1.
       -1    1    3    3    0  502  0.99126395742E+03 -0.60258241549E+03 -0.18902492392E+04  0.22178259596E+04  0.50400001928E-02 0.  1.
</event>
<event>
 5   0  0.1164500E-08  0.3921735E+04  0.7818609E-02  0.8020524E-01
       -1   -1    0    0    0  501  0.00000000000E+00  0.00000000000E+00  0.31651055883E+04  0.31651055883E+04  0.50400001928E-02 0. -1.
        1   -1    0    0  501    0  0.00000000000E+00  0.00000000000E+00 -0.12148097479E+04  0.12148097479E+04  0.50400001928E-02 0.  1.
    10030    2    1    2    0    0  0.00000000000E+00  0.00000000000E+00  0.19502958404E+04  0.43799153361E+04  0.39217348823E+04 0.  0.
        1    1    3    3  502    0 -0.71987287288E+03  0.17156718718E+04  0.16665504181E+04  0.24978264994E+04  0.50400001928E-02 0. -1.
       -1    1    3    3    0  502  0.71987287288E+03 -0.17156718718E+04  0.28374542227E+03  0.18820888368E+04  0.50400001928E-02 0.  1.
</event>
<event>
 5   0  0.3872969E-08  0.3893166E+04  0.7818609E-02  0.8026452E-01
       -2   -1    0    0    0  501  0.00000000000E+00  0.00000000000E+00  0.16051009172E+04  0.16051009172E+04  0.25500000920E-02 0.  1.
        2   -1    0    0  501    0  0.00000000000E+00  0.00000000000E+00 -0.23607143107E+04  0.23607143107E+04  0.25500000920E-02 0. -1.
    10030    2    1    2    0    0  0.00000000000E+00  0.00000000000E+00 -0.75561339353E+03  0.39658152278E+04  0.38931656555E+04 0.  0.
        2    1    3    3  502    0  0.10023730923E+04  0.74701265024E+03 -0.18977650059E+04  0.22725078071E+04  0.25500000920E-02 0. -1.
       -2    1    3    3    0  502 -0.10023730923E+04 -0.74701265024E+03  0.11421516123E+04  0.16933074208E+04  0.25500000920E-02 0.  1.
</event>
<event>
 5   0  0.1164500E-08  0.3904411E+04  0.7818609E-02  0.8024113E-01
       -1   -1    0    0    0  501  0.00000000000E+00  0.00000000000E+00  0.11855270496E+04  0.11855270496E+04  0.50400001928E-02 0.  1.
        1   -1    0    0  501    0  0.00000000000E+00  0.00000000000E+00 -0.32146928870E+04  0.32146928870E+04  0.50400001928E-02 0. -1.
    10030    2    1    2    0    0  0.00000000000E+00  0.00000000000E+00 -0.20291658375E+04  0.44002199366E+04  0.39044105182E+04 0.  0.
        1    1    3    3  502    0 -0.11455998701E+04 -0.15783477511E+04 -0.91682247818E+03  0.21550276431E+04  0.50400001928E-02 0.  1.
       -1    1    3    3    0  502  0.11455998701E+04  0.15783477511E+04 -0.11123433593E+04  0.22451922935E+04  0.50400001928E-02 0. -1.
</event>
<event>
 5   0  0.1164500E-08  0.3888049E+04  0.7818609E-02  0.8027519E-01
       -1   -1    0    0    0  501  0.00000000000E+00  0.00000000000E+00  0.13188314183E+04  0.13188314183E+04  0.50400001928E-02 0.  1.
        1   -1    0    0  501    0  0.00000000000E+00  0.00000000000E+00 -0.28655914779E+04  0.28655914779E+04  0.50400001928E-02 0. -1.
    10030    2    1    2    0    0  0.00000000000E+00  0.00000000000E+00 -0.15467600596E+04  0.41844228961E+04  0.38880494199E+04 0.  0.
        3    1    3    3  502    0  0.18617491064E+04  0.37577235462E+03 -0.32714486351E+03  0.19272618841E+04  0.10100000352E+00 0.  1.
       -3    1    3    3    0  502 -0.18617491064E+04 -0.37577235462E+03 -0.12196151961E+04  0.22571610121E+04  0.10100000352E+00 0. -1.
</event>
<event>
 5   0  0.3690572E-08  0.3917633E+04  0.7818609E-02  0.8021372E-01
        2   -1    0    0  501    0  0.00000000000E+00  0.00000000000E+00  0.27521471883E+04  0.27521471883E+04  0.25500000920E-02 0.  1.
       -2   -1    0    0    0  501  0.00000000000E+00  0.00000000000E+00 -0.13941703869E+04  0.13941703869E+04  0.25500000920E-02 0. -1.
    10030    2    1    2    0    0  0.00000000000E+00  0.00000000000E+00  0.13579768014E+04  0.41463175751E+04  0.39176330151E+04 0.  0.
        3    1    3    3  502    0  0.11348939855E+04 -0.14322048898E+04  0.14256981411E+04  0.23177166359E+04  0.10100000352E+00 0.  1.
       -3    1    3    3    0  502 -0.11348939855E+04  0.14322048898E+04 -0.67721339719E+02  0.18286009392E+04  0.10100000352E+00 0. -1.
</event>
<event>
 5   0  0.3724293E-08  0.3895232E+04  0.7818609E-02  0.8026022E-01
       -2   -1    0    0    0  501  0.00000000000E+00  0.00000000000E+00  0.17931822185E+04  0.17931822185E+04  0.25500000920E-02 0.  1.
        2   -1    0    0  501    0  0.00000000000E+00  0.00000000000E+00 -0.21153499166E+04  0.21153499166E+04  0.25500000920E-02 0. -1.
    10030    2    1    2    0    0  0.00000000000E+00  0.00000000000E+00 -0.32216769810E+03  0.39085321352E+04  0.38952318835E+04 0.  0.
        4    1    3    3  502    0 -0.86564714980E+03  0.60458642219E+03 -0.18032342916E+04  0.20896232323E+04  0.12699999809E+01 0. -1.
       -4    1    3    3    0  502  0.86564714980E+03 -0.60458642219E+03  0.14810665935E+04  0.18189089029E+04  0.12699999809E+01 0.  1.
</event>
<event>
 5   0  0.1164500E-08  0.3897823E+04  0.7818609E-02  0.8025482E-01
        1   -1    0    0  501    0  0.00000000000E+00  0.00000000000E+00  0.24174810301E+04  0.24174810301E+04  0.50400001928E-02 0. -1.
       -1   -1    0    0    0  501  0.00000000000E+00  0.00000000000E+00 -0.15711630901E+04  0.15711630902E+04  0.50400001928E-02 0.  1.
    10030    2    1    2    0    0  0.00000000000E+00  0.00000000000E+00  0.84631793990E+03  0.39886441202E+04  0.38978234776E+04 0.  0.
        1    1    3    3  502    0 -0.10743865577E+04  0.32469668325E+03 -0.12072390338E+04  0.16483811744E+04  0.50400001928E-02 0.  1.
       -1    1    3    3    0  502  0.10743865577E+04 -0.32469668325E+03  0.20535569737E+04  0.23402629458E+04  0.50400001928E-02 0. -1.
</event>
<event>
 5   0  0.1164500E-08  0.3795334E+04  0.7818609E-02  0.8047157E-01
       -1   -1    0    0    0  501  0.00000000000E+00  0.00000000000E+00  0.14969007785E+04  0.14969007785E+04  0.50400001928E-02 0.  1.
        1   -1    0    0  501    0  0.00000000000E+00  0.00000000000E+00 -0.24057307276E+04  0.24057307276E+04  0.50400001928E-02 0. -1.
    10030    2    1    2    0    0  0.00000000000E+00  0.00000000000E+00 -0.90882994910E+03  0.39026315061E+04  0.37953340823E+04 0.  0.
        5    1    3    3  502    0  0.16589779912E+04 -0.84186415884E+03 -0.69431028583E+02  0.18616621592E+04  0.46999998093E+01 0.  1.
       -5    1    3    3    0  502 -0.16589779912E+04  0.84186415884E+03 -0.83939892052E+03  0.20409693469E+04  0.46999998093E+01 0. -1.
</event>
<event>
 5   0  0.3690572E-08  0.3903243E+04  0.7818609E-02  0.8024355E-01
       -2   -1    0    0    0  501  0.00000000000E+00  0.00000000000E+00  0.13063285448E+04  0.13063285448E+04  0.25500000920E-02 0. -1.
        2   -1    0    0  501    0  0.00000000000E+00  0.00000000000E+00 -0.29156725206E+04  0.29156725206E+04  0.25500000920E-02 0.  1.
    10030    2    1    2    0    0  0.00000000000E+00  0.00000000000E+00 -0.16093439758E+04  0.42220010653E+04  0.39032428778E+04 0.  0.
        3    1    3    3  502    0 -0.16404016876E+04  0.92975611388E+03 -0.26010754696E+03  0.19034232515E+04  0.10100000352E+00 0. -1.
       -3    1    3    3    0  502  0.16404016876E+04 -0.92975611388E+03 -0.13492364288E+04  0.23185778139E+04  0.10100000352E+00 0.  1.
</event>
<event>
 5   0  0.1164500E-08  0.3907295E+04  0.7818609E-02  0.8023514E-01
       -1   -1    0    0    0  501  0.00000000000E+00  0.00000000000E+00  0.29982559510E+04  0.29982559510E+04  0.50400001928E-02 0. -1.
        1   -1    0    0  501    0  0.00000000000E+00  0.00000000000E+00 -0.12729863994E+04  0.12729863994E+04  0.50400001928E-02 0.  1.
    10030    2    1    2    0    0  0.00000000000E+00  0.00000000000E+00  0.17252695516E+04  0.42712423504E+04  0.39072952525E+04 0.  0.
        4    1    3    3  502    0  0.15064590197E+04  0.12432235669E+04  0.81738040685E+03  0.21173417196E+04  0.12699999809E+01 0.  1.
       -4    1    3    3    0  502 -0.15064590197E+04 -0.12432235669E+04  0.90788914471E+03  0.21539006308E+04  0.12699999809E+01 0. -1.
</event>
<event>
 5   0  0.3690572E-08  0.3884150E+04  0.7818609E-02  0.8028334E-01
       -2   -1    0    0    0  501  0.00000000000E+00  0.00000000000E+00  0.20890212866E+04  0.20890212866E+04  0.25500000920E-02 0. -1.
        2   -1    0    0  501    0  0.00000000000E+00  0.00000000000E+00 -0.18054652329E+04  0.18054652329E+04  0.25500000920E-02 0.  1.
    10030    2    1    2    0    0  0.00000000000E+00  0.00000000000E+00  0.28355605371E+03  0.38944865195E+04  0.38841499991E+04 0.  0.
        3    1    3    3  502    0  0.16460094614E+04  0.45075172410E+03 -0.78758184010E+03  0.18795769281E+04  0.10100000352E+00 0. -1.
       -3    1    3    3    0  502 -0.16460094614E+04 -0.45075172410E+03  0.10711378938E+04  0.20149095914E+04  0.10100000352E+00 0.  1.
</event>
<event>
 5   0  0.1164500E-08  0.3905422E+04  0.7818609E-02  0.8023902E-01
       -1   -1    0    0    0  501  0.00000000000E+00  0.00000000000E+00  0.19727639895E+04  0.19727639895E+04  0.50400001928E-02 0. -1.
        1   -1    0    0  501    0  0.00000000000E+00  0.00000000000E+00 -0.19328620367E+04  0.19328620367E+04  0.50400001928E-02 0.  1.
    10030    2    1    2    0    0  0.00000000000E+00  0.00000000000E+00  0.39901952797E+02  0.39056260263E+04  0.39054221911E+04 0.  0.
        2    1    3    3  502    0 -0.17551010653E+04 -0.47023204380E+03 -0.69533644957E+03  0.19455052563E+04  0.25500000920E-02 0.  1.
       -2    1    3    3    0  502  0.17551010653E+04  0.47023204380E+03  0.73523840236E+03  0.19601207699E+04  0.25500000920E-02 0. -1.
</event>
<event>
 5   0  0.3669347E-08  0.3902443E+04  0.7818609E-02  0.8024521E-01
        2   -1    0    0  501    0  0.00000000000E+00  0.00000000000E+00  0.11738661986E+04  0.11738661986E+04  0.25500000920E-02 0. -1.
       -2   -1    0    0    0  501  0.00000000000E+00  0.00000000000E+00 -0.32433558474E+04  0.32433558474E+04  0.25500000920E-02 0.  1.
    10030    2    1    2    0    0  0.00000000000E+00  0.00000000000E+00 -0.20694896488E+04  0.44172220460E+04  0.39024432343E+04 0.  0.
        5    1    3    3  502    0  0.49970459792E+03  0.17968079621E+03 -0.31599841008E+04  0.32042957855E+04  0.46999998093E+01 0.  1.
       -5    1    3    3    0  502 -0.49970459792E+03 -0.17968079621E+03  0.10904944520E+04  0.12129262605E+04  0.46999998093E+01 0. -1.
</event>
<event>
 5   0  0.1164500E-08  0.3880092E+04  0.7818609E-02  0.8029183E-01
       -1   -1    0    0    0  501  0.00000000000E+00  0.00000000000E+00  0.14978311776E+04  0.14978311776E+04  0.50400001928E-02 0. -1.
        1   -1    0    0  501    0  0.00000000000E+00  0.00000000000E+00 -0.25128183255E+04  0.25128183255E+04  0.50400001928E-02 0.  1.
    10030    2    1    2    0    0  0.00000000000E+00  0.00000000000E+00 -0.10149871479E+04  0.40106495031E+04  0.38800915616E+04 0.  0.
        1    1    3    3  502    0 -0.41904956722E+03  0.16219897075E+04 -0.15188455287E+04  0.22612706364E+04  0.50400001928E-02 0.  1.
       -1    1    3    3    0  502  0.41904956722E+03 -0.16219897075E+04  0.50385838084E+03  0.17493788667E+04  0.50400001928E-02 0. -1.
</event>
<event>
 5   0  0.1164500E-08  0.3880721E+04  0.7818609E-02  0.8029051E-01
        1   -1    0    0  501    0  0.00000000000E+00  0.00000000000E+00  0.20372123466E+04  0.20372123466E+04  0.50400001928E-02 0.  1.
       -1   -1    0    0    0  501  0.00000000000E+00  0.00000000000E+00 -0.18481130019E+04  0.18481130019E+04  0.50400001928E-02 0. -1.
    10030    2    1    2    0    0  0.00000000000E+00  0.00000000000E+00  0.18909934472E+03  0.38853253485E+04  0.38807208739E+04 0.  0.
        1    1    3    3  502    0  0.61241900671E+03 -0.77268728628E+03 -0.15786291632E+04  0.18612288191E+04  0.50400001928E-02 0. -1.
       -1    1    3    3    0  502 -0.61241900671E+03  0.77268728628E+03  0.17677285080E+04  0.20240965293E+04  0.50400001928E-02 0.  1.
</event>
<event>
 5   0  0.3690572E-08  0.3900823E+04  0.7818609E-02  0.8024858E-01
       -2   -1    0    0    0  501  0.00000000000E+00  0.00000000000E+00  0.19884695850E+04  0.19884695850E+04  0.25500000920E-02 0.  1.
        2   -1    0    0  501    0  0.00000000000E+00  0.00000000000E+00 -0.19130821887E+04  0.19130821887E+04  0.25500000920E-02 0. -1.
    10030    2    1    2    0    0  0.00000000000E+00  0.00000000000E+00  0.75387396313E+02  0.39015517736E+04  0.39008233724E+04 0.  0.
        3    1    3    3  502    0 -0.37328199329E+03  0.18250606009E+04 -0.54027239913E+03  0.19396081869E+04  0.10100000352E+00 0. -1.
       -3    1    3    3    0  502  0.37328199329E+03 -0.18250606009E+04  0.61565979544E+03  0.19619435867E+04  0.10100000352E+00 0.  1.
</event>
<event>
 5   0  0.1164500E-08  0.3888772E+04  0.7818609E-02  0.8027368E-01
        1   -1    0    0  501    0  0.00000000000E+00  0.00000000000E+00  0.14261305983E+04  0.14261305983E+04  0.50400001928E-02 0. -1.
       -1   -1    0    0    0  501  0.00000000000E+00  0.00000000000E+00 -0.26509754479E+04  0.26509754479E+04  0.50400001928E-02 0.  1.
    10030    2    1    2    0    0  0.00000000000E+00  0.00000000000E+00 -0.12248448496E+04  0.40771060463E+04  0.38887721465E+04 0.  0.
        4    1    3    3  502    0  0.37319280195E+03  0.10528933310E+04  0.10561232645E+04  0.15372882607E+04  0.12699999809E+01 0. -1.
       -4    1    3    3    0  502 -0.37319280195E+03 -0.10528933310E+04 -0.22809681141E+04  0.25398177856E+04  0.12699999809E+01 0.  1.
</event>
<event>
 5   0  0.1164500E-08  0.3896768E+04  0.7818609E-02  0.8025702E-01
       -1   -1    0    0    0  501  0.00000000000E+00  0.00000000000E+00  0.26764990116E+04  0.26764990116E+04  0.50400001928E-02 0. -1.
        1   -1    0    0  501    0  0.00000000000E+00  0.00000000000E+00 -0.14183451211E+04  0.14183451212E+04  0.50400001928E-02 0.  1.
    10030    2    1    2    0    0  0.00000000000E+00  0.00000000000E+00  0.12581538904E+04  0.40948441327E+04  0.38967675398E+04 0.  0.
        1    1    3    3  502    0 -0.15529636763E+04  0.42759874714E+03  0.17810017255E+04  0.24013546208E+04  0.50400001928E-02 0. -1.
       -1    1    3    3    0  502  0.15529636763E+04 -0.42759874714E+03 -0.52284783511E+03  0.16934895119E+04  0.50400001928E-02 0.  1.
</event>
<event>
 5   0  0.3669347E-08  0.3901368E+04  0.7818609E-02  0.8024745E-01
       -2   -1    0    0    0  501  0.00000000000E+00  0.00000000000E+00  0.23524522448E+04  0.23524522448E+04  0.25500000920E-02 0.  1.
        2   -1    0    0  501    0  0.00000000000E+00  0.00000000000E+00 -0.16175322244E+04  0.16175322244E+04  0.25500000920E-02 0. -1.
    10030    2    1    2    0    0  0.00000000000E+00  0.00000000000E+00  0.73492002043E+03  0.39699844692E+04  0.39013676127E+04 0.  0.
        5    1    3    3  502    0 -0.10878501150E+04 -0.70221915443E+03 -0.11171779294E+04  0.17101573698E+04  0.46999998093E+01 0. -1.
       -5    1    3    3    0  502  0.10878501150E+04  0.70221915443E+03  0.18520979498E+04  0.22598270994E+04  0.46999998093E+01 0.  1.
</event>
<event>
 5   0  0.1164500E-08  0.3906142E+04  0.7818609E-02  0.8023753E-01
       -1   -1    0    0    0  501  0.00000000000E+00  0.00000000000E+00  0.15693158883E+04  0.15693158883E+04  0.50400001928E-02 0. -1.
        1   -1    0    0  501    0  0.00000000000E+00  0.00000000000E+00 -0.24306679826E+04  0.24306679826E+04  0.50400001928E-02 0.  1.
    10030    2    1    2    0    0  0.00000000000E+00  0.00000000000E+00 -0.86135209421E+03  0.39999838709E+04  0.39061417713E+04 0.  0.
        5    1    3    3  502    0  0.81980555194E+03 -0.95675474828E+03 -0.19588424231E+04  0.23290655894E+04  0.46999998093E+01 0.  1.
       -5    1    3    3    0  502 -0.81980555194E+03  0.95675474828E+03  0.10974903289E+04  0.16709182815E+04  0.46999998093E+01 0. -1.
</event>
<event>
 5   0  0.3690572E-08  0.3894889E+04  0.7818609E-02  0.8026093E-01
       -2   -1    0    0    0  501  0.00000000000E+00  0.00000000000E+00  0.19283947002E+04  0.19283947002E+04  0.25500000920E-02 0.  1.
        2   -1    0    0  501    0  0.00000000000E+00  0.00000000000E+00 -0.19666827635E+04  0.19666827635E+04  0.25500000920E-02 0. -1.
    10030    2    1    2    0    0  0.00000000000E+00  0.00000000000E+00 -0.38288063263E+02  0.38950774637E+04  0.38948892760E+04 0.  0.
        3    1    3    3  502    0 -0.16433580938E+03  0.10973398642E+04 -0.16196524172E+04  0.19632715040E+04  0.10100000352E+00 0. -1.
       -3    1    3    3    0  502  0.16433580938E+03 -0.10973398642E+04  0.15813643539E+04  0.19318059597E+04  0.10100000352E+00 0.  1.
</event>
<event>
 5   0  0.1164500E-08  0.3905097E+04  0.7818609E-02  0.8023970E-01
        1   -1    0    0  501    0  0.00000000000E+00  0.00000000000E+00  0.21771448380E+04  0.21771448380E+04  0.50400001928E-02 0. -1.
       -1   -1    0    0    0  501  0.00000000000E+00  0.00000000000E+00 -0.17511215786E+04  0.17511215786E+04  0.50400001928E-02 0.  1.
    10030    2    1    2    0    0  0.00000000000E+00  0.00000000000E+00  0.42602325941E+03  0.39282664167E+04  0.39050968263E+04 0.  0.
        2    1    3    3  502    0 -0.24907197896E+03 -0.19321274731E+04  0.34529043570E+03  0.19784789380E+04  0.25500000920E-02 0. -1.
       -2    1    3    3    0  502  0.24907197896E+03  0.19321274731E+04  0.80732823705E+02  0.19497874787E+04  0.25500000920E-02 0.  1.
</event>
<event>
 5   0  0.1164500E-08  0.3898321E+04  0.7818609E-02  0.8025378E-01
       -1   -1    0    0    0  501  0.00000000000E+00  0.00000000000E+00  0.17645444257E+04  0.17645444257E+04  0.50400001928E-02 0. -1.
        1   -1    0    0  501    0  0.00000000000E+00  0.00000000000E+00 -0.21530920962E+04  0.21530920962E+04  0.50400001928E-02 0.  1.
    10030    2    1    2    0    0  0.00000000000E+00  0.00000000000E+00 -0.38854767055E+03  0.39176365219E+04  0.38983210008E+04 0.  0.
        4    1    3    3  502    0 -0.76212122690E+03 -0.58048284453E+02 -0.19962076388E+04  0.21375324367E+04  0.12699999809E+01 0.  1.
       -4    1    3    3    0  502  0.76212122690E+03  0.58048284453E+02  0.16076599683E+04  0.17801040852E+04  0.12699999809E+01 0. -1.
</event>
<event>
 5   0  0.1164500E-08  0.3904547E+04  0.7818609E-02  0.8024084E-01
        1   -1    0    0  501    0  0.00000000000E+00  0.00000000000E+00  0.18666662369E+04  0.18666662369E+04  0.50400001928E-02 0. -1.
       -1   -1    0    0    0  501  0.00000000000E+00  0.00000000000E+00 -0.20418069592E+04  0.20418069592E+04  0.50400001928E-02 0.  1.
    10030    2    1    2    0    0  0.00000000000E+00  0.00000000000E+00 -0.17514072230E+03  0.39084731961E+04  0.39045471507E+04 0.  0.
        1    1    3    3  502    0 -0.78063850706E+03 -0.35621810829E+03 -0.18429254346E+04  0.20328949743E+04  0.50400001928E-02 0.  1.
       -1    1    3    3    0  502  0.78063850706E+03  0.35621810829E+03  0.16677847123E+04  0.18755782217E+04  0.50400001928E-02 0. -1.
</event>
<event>
 5   0  0.1164500E-08  0.3897778E+04  0.7818609E-02  0.8025491E-01
       -1   -1    0    0    0  501  0.00000000000E+00  0.00000000000E+00  0.14177066797E+04  0.14177066797E+04  0.50400001928E-02 0. -1.
        1   -1    0    0  501    0  0.00000000000E+00  0.00000000000E+00 -0.26790938764E+04  0.26790938764E+04  0.50400001928E-02 0.  1.
    10030    2    1    2    0    0  0.00000000000E+00  0.00000000000E+00 -0.12613871967E+04  0.40968005561E+04  0.38977784873E+04 0.  0.
        4    1    3    3  502    0 -0.14613609773E+03 -0.36116008343E+03  0.13763571364E+04  0.14304380255E+04  0.12699999809E+01 0. -1.
       -4    1    3    3    0  502  0.14613609773E+03  0.36116008343E+03 -0.26377443331E+04  0.26663625306E+04  0.12699999809E+01 0.  1.
</event>
<event>
 5   0  0.3872969E-08  0.3911203E+04  0.7818609E-02  0.8022703E-01
       -2   -1    0    0    0  501  0.00000000000E+00  0.00000000000E+00  0.26239513065E+04  0.26239513065E+04  0.25500000920E-02 0. -1.
        2   -1    0    0  501    0  0.00000000000E+00  0.00000000000E+00 -0.14574880216E+04  0.14574880217E+04  0.25500000920E-02 0.  1.
    10030    2    1    2    0    0  0.00000000000E+00  0.00000000000E+00  0.11664632848E+04  0.40814393281E+04  0.39112031901E+04 0.  0.
        2    1    3    3  502    0 -0.49622530229E+02  0.77453020414E+03 -0.12898942138E+04  0.15053858361E+04  0.25500000920E-02 0.  1.
       -2    1    3    3    0  502  0.49622530229E+02 -0.77453020414E+03  0.24563574986E+04  0.25760534920E+04  0.25500000920E-02 0. -1.
</event>
<event>
 5   0  0.3769985E-08  0.3914543E+04  0.7818609E-02  0.8022011E-01
        2   -1    0    0  501    0  0.00000000000E+00  0.00000000000E+00  0.13149691125E+04  0.13149691125E+04  0.25500000920E-02 0. -1.
       -2   -1    0    0    0  501  0.00000000000E+00  0.00000000000E+00 -0.29133095899E+04  0.29133095899E+04  0.25500000920E-02 0.  1.
    10030    2    1    2    0    0  0.00000000000E+00  0.00000000000E+00 -0.15983404774E+04  0.42282787025E+04  0.39145432050E+04 0.  0.
        1    1    3    3  502    0  0.88518761434E+02  0.49015728907E+03  0.12453676090E+04  0.13412793224E+04  0.50400001928E-02 0. -1.
       -1    1    3    3    0  502 -0.88518761434E+02 -0.49015728907E+03 -0.28437080865E+04  0.28869993800E+04  0.50400001928E-02 0.  1.
</event>
<event>
 5   0  0.3690572E-08  0.3900419E+04  0.7818609E-02  0.8024942E-01
        2   -1    0    0  501    0  0.00000000000E+00  0.00000000000E+00  0.21546464565E+04  0.21546464565E+04  0.25500000920E-02 0. -1.
       -2   -1    0    0    0  501  0.00000000000E+00  0.00000000000E+00 -0.17651699511E+04  0.17651699511E+04  0.25500000920E-02 0.  1.
    10030    2    1    2    0    0  0.00000000000E+00  0.00000000000E+00  0.38947650540E+03  0.39198164076E+04  0.39004190443E+04 0.  0.
        3    1    3    3  502    0 -0.44711505443E+03  0.16163210134E+04 -0.80565771355E+03  0.18605079553E+04  0.10100000352E+00 0.  1.
       -3    1    3    3    0  502  0.44711505443E+03 -0.16163210134E+04  0.11951342189E+04  0.20593084523E+04  0.10100000352E+00 0. -1.
</event>
<event>
 5   0  0.3769985E-08  0.3860124E+04  0.7818609E-02  0.8033374E-01
        2   -1    0    0  501    0  0.00000000000E+00  0.00000000000E+00  0.17755238096E+04  0.17755238096E+04  0.25500000920E-02 0. -1.
       -2   -1    0    0    0  501  0.00000000000E+00  0.00000000000E+00 -0.20980512709E+04  0.20980512709E+04  0.25500000920E-02 0.  1.
    10030    2    1    2    0    0  0.00000000000E+00  0.00000000000E+00 -0.32252746125E+03  0.38735750805E+04  0.38601243426E+04 0.  0.
        1    1    3    3  502    0 -0.16583224885E+03  0.15229017067E+04  0.10168843986E+04  0.18386907905E+04  0.50400001928E-02 0. -1.
       -1    1    3    3    0  502  0.16583224885E+03 -0.15229017067E+04 -0.13394118598E+04  0.20348842899E+04  0.50400001928E-02 0.  1.
</event>
<event>
 5   0  0.3724293E-08  0.3894295E+04  0.7818609E-02  0.8026217E-01
       -2   -1    0    0    0  501  0.00000000000E+00  0.00000000000E+00  0.16942711055E+04  0.16942711055E+04  0.25500000920E-02 0. -1.
        2   -1    0    0  501    0  0.00000000000E+00  0.00000000000E+00 -0.22377670515E+04  0.22377670515E+04  0.25500000920E-02 0.  1.
    10030    2    1    2    0    0  0.00000000000E+00  0.00000000000E+00 -0.54349594591E+03  0.39320381570E+04  0.38942953438E+04 0.  0.
        4    1    3    3  502    0 -0.18103285312E+04 -0.95668087363E+02  0.44573072953E+03  0.18668474147E+04  0.12699999809E+01 0.  1.
       -4    1    3    3    0  502  0.18103285312E+04  0.95668087363E+02 -0.98922667544E+03  0.20651907423E+04  0.12699999809E+01 0. -1.
</event>
<event>
 5   0  0.1164500E-08  0.3888326E+04  0.7818609E-02  0.8027462E-01
       -1   -1    0    0    0  501  0.00000000000E+00  0.00000000000E+00  0.18629428602E+04  0.18629428602E+04  0.50400001928E-02 0. -1.
        1   -1    0    0  501    0  0.00000000000E+00  0.00000000000E+00 -0.20289239189E+04  0.20289239189E+04  0.50400001928E-02 0.  1.
    10030    2    1    2    0    0  0.00000000000E+00  0.00000000000E+00 -0.16598105873E+03  0.38918667791E+04  0.38883257727E+04 0.  0.
        3    1    3    3  502    0 -0.10885928839E+04 -0.12239931253E+04  0.96513820385E+03  0.19012326003E+04  0.10100000352E+00 0. -1.
       -3    1    3    3    0  502  0.10885928839E+04  0.12239931253E+04 -0.11311192626E+04  0.19906341788E+04  0.10100000352E+00 0.  1.
</event>
<event>
 5   0  0.1164500E-08  0.3901353E+04  0.7818609E-02  0.8024748E-01
        1   -1    0    0  501    0  0.00000000000E+00  0.00000000000E+00  0.16072238309E+04  0.16072238309E+04  0.50400001928E-02 0.  1.
       -1   -1    0    0    0  501  0.00000000000E+00  0.00000000000E+00 -0.23675222339E+04  0.23675222339E+04  0.50400001928E-02 0. -1.
    10030    2    1    2    0    0  0.00000000000E+00  0.00000000000E+00 -0.76029840300E+03  0.39747460649E+04  0.39013526652E+04 0.  0.
        1    1    3    3  502    0 -0.12537825655E+04  0.41993512149E+03 -0.18412915373E+04  0.22668636379E+04  0.50400001928E-02 0. -1.
       -1    1    3    3    0  502  0.12537825655E+04 -0.41993512149E+03  0.10809931343E+04  0.17078824269E+04  0.50400001928E-02 0.  1.
</event>
<event>
 5   0  0.1164500E-08  0.3876666E+04  0.7818609E-02  0.8029900E-01
       -1   -1    0    0    0  501  0.00000000000E+00  0.00000000000E+00  0.15162341869E+04  0.15162341869E+04  0.50400001928E-02 0. -1.
        1   -1    0    0  501    0  0.00000000000E+00  0.00000000000E+00 -0.24779380152E+04  0.24779380152E+04  0.50400001928E-02 0.  1.
    10030    2    1    2    0    0  0.00000000000E+00  0.00000000000E+00 -0.96170382827E+03  0.39941722021E+04  0.38766657487E+04 0.  0.
        1    1    3    3  502    0 -0.62904451000E+03  0.13738734280E+04 -0.17316977401E+04  0.22982607021E+04  0.50400001928E-02 0.  1.
       -1    1    3    3    0  502  0.62904451000E+03 -0.13738734280E+04  0.76999391185E+03  0.16959115000E+04  0.50400001928E-02 0. -1.
</event>
<event>
 5   0  0.1164500E-08  0.3874458E+04  0.7818609E-02  0.8030362E-01
       -1   -1    0    0    0  501  0.00000000000E+00  0.00000000000E+00  0.17036015107E+04  0.17036015107E+04  0.50400001928E-02 0. -1.
        1   -1    0    0  501    0  0.00000000000E+00  0.00000000000E+00 -0.22028957851E+04  0.22028957851E+04  0.50400001928E-02 0.  1.
    10030    2    1    2    0    0  0.00000000000E+00  0.00000000000E+00 -0.49929427438E+03  0.39064972958E+04  0.38744582008E+04 0.  0.
        4    1    3    3  502    0 -0.17428159101E+04  0.58627717993E+03  0.36508858879E+03  0.18746785108E+04  0.12699999809E+01 0. -1.
       -4    1    3    3    0  502  0.17428159101E+04 -0.58627717993E+03 -0.86438286317E+03  0.20318187851E+04  0.12699999809E+01 0.  1.
</event>
<event>
 5   0  0.1164500E-08  0.3913548E+04  0.7818609E-02  0.8022217E-01
        1   -1    0    0  501    0  0.00000000000E+00  0.00000000000E+00  0.24806212864E+04  0.24806212864E+04  0.50400001928E-02 0. -1.
       -1   -1    0    0    0  501  0.00000000000E+00  0.00000000000E+00 -0.15435502211E+04  0.15435502211E+04  0.50400001928E-02 0.  1.
    10030    2    1    2    0    0  0.00000000000E+00  0.00000000000E+00  0.93707106527E+03  0.40241715075E+04  0.39135475135E+04 0.  0.
        3    1    3    3  502    0 -0.77930248307E+03 -0.76208418191E+03 -0.12024785553E+04  0.16229723801E+04  0.10100000352E+00 0.  1.
       -3    1    3    3    0  502  0.77930248307E+03  0.76208418191E+03  0.21395496205E+04  0.24011991274E+04  0.10100000352E+00 0. -1.
</event>
<event>
 5   0  0.3724293E-08  0.3892018E+04  0.7818609E-02  0.8026691E-01
        2   -1    0    0  501    0  0.00000000000E+00  0.00000000000E+00  0.18120563203E+04  0.18120563203E+04  0.25500000920E-02 0.  1.
       -2   -1    0    0    0  501  0.00000000000E+00  0.00000000000E+00 -0.20898640459E+04  0.20898640459E+04  0.25500000920E-02 0. -1.
    10030    2    1    2    0    0  0.00000000000E+00  0.00000000000E+00 -0.27780772562E+03  0.39019203662E+04  0.38920181669E+04 0.  0.
        4    1    3    3  502    0 -0.97342517527E+03 -0.97865906012E+03  0.12363075201E+04  0.18530483062E+04  0.12699999809E+01 0.  1.
       -4    1    3    3    0  502  0.97342517527E+03  0.97865906012E+03 -0.15141152458E+04  0.20488720600E+04  0.12699999809E+01 0. -1.
</event>
<event>
 5   0  0.1164500E-08  0.3929795E+04  0.7818609E-02  0.8018861E-01
        1   -1    0    0  501    0  0.00000000000E+00  0.00000000000E+00  0.12547742537E+04  0.12547742537E+04  0.50400001928E-02 0. -1.
       -1   -1    0    0    0  501  0.00000000000E+00  0.00000000000E+00 -0.30769060234E+04  0.30769060234E+04  0.50400001928E-02 0.  1.
    10030    2    1    2    0    0  0.00000000000E+00  0.00000000000E+00 -0.18221317697E+04  0.43316802771E+04  0.39297951393E+04 0.  0.
        2    1    3    3  502    0 -0.16724217617E+04  0.20849553796E+03 -0.20244952411E+04  0.26342068862E+04  0.25500000920E-02 0. -1.
       -2    1    3    3    0  502  0.16724217617E+04 -0.20849553796E+03  0.20236347140E+03  0.16974733909E+04  0.25500000920E-02 0.  1.
</event>
<event>
 5   0  0.1164500E-08  0.3904448E+04  0.7818609E-02  0.8024105E-01
       -1   -1    0    0    0  501  0.00000000000E+00  0.00000000000E+00  0.15540644019E+04  0.15540644019E+04  0.50400001928E-02 0.  1.
        1   -1    0    0  501    0  0.00000000000E+00  0.00000000000E+00 -0.24523943097E+04  0.24523943098E+04  0.50400001928E-02 0. -1.
    10030    2    1    2    0    0  0.00000000000E+00  0.00000000000E+00 -0.89832990781E+03  0.40064587117E+04  0.39044480769E+04 0.  0.
        3    1    3    3  502    0 -0.78836728705E+02 -0.43376131336E+03  0.15023152140E+04  0.15656676273E+04  0.10100000352E+00 0.  1.
       -3    1    3    3    0  502  0.78836728705E+02  0.43376131336E+03 -0.24006451218E+04  0.24407910844E+04  0.10100000352E+00 0. -1.
</event>
<event>
 5   0  0.3669347E-08  0.3944034E+04  0.7818609E-02  0.8015933E-01
        2   -1    0    0  501    0  0.00000000000E+00  0.00000000000E+00  0.13275661582E+04  0.13275661582E+04  0.25500000920E-02 0. -1.
       -2   -1    0    0    0  501  0.00000000000E+00  0.00000000000E+00 -0.29293080070E+04  0.29293080070E+04  0.25500000920E-02 0.  1.
    10030    2    1    2    0    0  0.00000000000E+00  0.00000000000E+00 -0.16017418489E+04  0.42568741652E+04  0.39440335582E+04 0.  0.
        5    1    3    3  502    0 -0.57959221954E+02 -0.34557895270E+03 -0.28954314089E+04  0.29165611973E+04  0.46999998093E+01 0.  1.
       -5    1    3    3    0  502  0.57959221954E+02  0.34557895270E+03  0.12936895601E+04  0.13403129679E+04  0.46999998093E+01 0. -1.
</event>
<event>
 5   0  0.1164500E-08  0.3889396E+04  0.7818609E-02  0.8027238E-01
        1   -1    0    0  501    0  0.00000000000E+00  0.00000000000E+00  0.21775007040E+04  0.21775007040E+04  0.50400001928E-02 0.  1.
       -1   -1    0    0    0  501  0.00000000000E+00  0.00000000000E+00 -0.17367847124E+04  0.17367847124E+04  0.50400001928E-02 0. -1.
    10030    2    1    2    0    0  0.00000000000E+00  0.00000000000E+00  0.44071599166E+03  0.39142854164E+04  0.38893958060E+04 0.  0.
        2    1    3    3  502    0  0.11146072173E+04 -0.10400292631E+03  0.18207178011E+04  0.21373299157E+04  0.25500000920E-02 0.  1.
       -2    1    3    3    0  502 -0.11146072173E+04  0.10400292631E+03 -0.13800018094E+04  0.17769555007E+04  0.25500000920E-02 0. -1.
</event>
<event>
 5   0  0.1164500E-08  0.3892811E+04  0.7818609E-02  0.8026526E-01
       -1   -1    0    0    0  501  0.00000000000E+00  0.00000000000E+00  0.22338643860E+04  0.22338643860E+04  0.50400001928E-02 0. -1.
        1   -1    0    0  501    0  0.00000000000E+00  0.00000000000E+00 -0.16959375634E+04  0.16959375634E+04  0.50400001928E-02 0.  1.
    10030    2    1    2    0    0  0.00000000000E+00  0.00000000000E+00  0.53792682257E+03  0.39298019494E+04  0.38928110787E+04 0.  0.
        5    1    3    3  502    0 -0.97138299732E+03 -0.42367727342E+03 -0.13791508480E+04  0.17393005810E+04  0.46999998093E+01 0.  1.
       -5    1    3    3    0  502  0.97138299732E+03  0.42367727342E+03  0.19170776706E+04  0.21905013683E+04  0.46999998093E+01 0. -1.
</event>
<event>
 5   0  0.1164500E-08  0.3894040E+04  0.7818609E-02  0.8026270E-01
        1   -1    0    0  501    0  0.00000000000E+00  0.00000000000E+00  0.27919597081E+04  0.27919597081E+04  0.50400001928E-02 0.  1.
       -1   -1    0    0    0  501  0.00000000000E+00  0.00000000000E+00 -0.13577871072E+04  0.13577871072E+04  0.50400001928E-02 0. -1.
    10030    2    1    2    0    0  0.00000000000E+00  0.00000000000E+00  0.14341726009E+04  0.41497468153E+04  0.38940400077E+04 0.  0.
        5    1    3    3  502    0 -0.13874113986E+04 -0.87697349512E+03  0.18331761222E+04  0.24605994564E+04  0.46999998093E+01 0.  1.
       -5    1    3    3    0  502  0.13874113986E+04  0.87697349512E+03 -0.39900352126E+03  0.16891473589E+04  0.46999998093E+01 0. -1.
</event>
<event>
 5   0  0.3872969E-08  0.3887660E+04  0.7818609E-02  0.8027601E-01
        2   -1    0    0  501    0  0.00000000000E+00  0.00000000000E+00  0.18503570390E+04  0.18503570390E+04  0.25500000920E-02 0.  1.
       -2   -1    0    0    0  501  0.00000000000E+00  0.00000000000E+00 -0.20420244265E+04  0.20420244265E+04  0.25500000920E-02 0. -1.
    10030    2    1    2    0    0  0.00000000000E+00  0.00000000000E+00 -0.19166738753E+03  0.38923814655E+04  0.38876595898E+04 0.  0.
        2    1    3    3  502    0  0.26340416028E+03  0.99350709242E+03 -0.17476970226E+04  0.20275312518E+04  0.25500000920E-02 0. -1.
       -2    1    3    3    0  502 -0.26340416028E+03 -0.99350709242E+03  0.15560296351E+04  0.18648502137E+04  0.25500000920E-02 0.  1.
</event>
<event>
 5   0  0.3872969E-08  0.3893767E+04  0.7818609E-02  0.8026327E-01
        2   -1    0    0  501    0  0.00000000000E+00  0.00000000000E+00  0.15286729811E+04  0.15286729811E+04  0.25500000920E-02 0. -1.
       -2   -1    0    0    0  501  0.00000000000E+00  0.00000000000E+00 -0.24795068109E+04  0.24795068109E+04  0.25500000920E-02 0.  1.
    10030    2    1    2    0    0  0.00000000000E+00  0.00000000000E+00 -0.95083382985E+03  0.40081797920E+04  0.38937668488E+04 0.  0.
        2    1    3    3  502    0 -0.48583060839E+03 -0.16214808718E+04  0.51467861663E+03  0.17692161191E+04  0.25500000920E-02 0. -1.
       -2    1    3    3    0  502  0.48583060839E+03  0.16214808718E+04 -0.14655124465E+04  0.22389636729E+04  0.25500000920E-02 0.  1.
</event>
<event>
 5   0  0.3669347E-08  0.3904062E+04  0.7818609E-02  0.8024185E-01
       -2   -1    0    0    0  501  0.00000000000E+00  0.00000000000E+00  0.15082237809E+04  0.15082237809E+04  0.25500000920E-02 0. -1.
        2   -1    0    0  501    0  0.00000000000E+00  0.00000000000E+00 -0.25264319447E+04  0.25264319447E+04  0.25500000920E-02 0.  1.
    10030    2    1    2    0    0  0.00000000000E+00  0.00000000000E+00 -0.10182081638E+04  0.40346557256E+04  0.39040618539E+04 0.  0.
        5    1    3    3  502    0 -0.76800258102E+03 -0.11697954433E+04 -0.19155669096E+04  0.23722706462E+04  0.46999998093E+01 0.  1.
       -5    1    3    3    0  502  0.76800258102E+03  0.11697954433E+04  0.89735874582E+03  0.16623850794E+04  0.46999998093E+01 0. -1.
</event>
<event>
 5   0  0.3724293E-08  0.3898690E+04  0.7818609E-02  0.8025302E-01
        2   -1    0    0  501    0  0.00000000000E+00  0.00000000000E+00  0.18255957688E+04  0.18255957688E+04  0.25500000920E-02 0. -1.
       -2   -1    0    0    0  501  0.00000000000E+00  0.00000000000E+00 -0.20814831651E+04  0.20814831651E+04  0.25500000920E-02 0.  1.
    10030    2    1    2    0    0  0.00000000000E+00  0.00000000000E+00 -0.25588739628E+03  0.39070789338E+04  0.38986904770E+04 0.  0.
        4    1    3    3  502    0 -0.19420897727E+04 -0.10907205773E+03  0.14306739537E+00  0.19451506451E+04  0.12699999809E+01 0.  1.
       -4    1    3    3    0  502  0.19420897727E+04  0.10907205773E+03 -0.25603046367E+03  0.19619282887E+04  0.12699999809E+01 0. -1.
</event>
<event>
 5   0  0.1164500E-08  0.3888553E+04  0.7818609E-02  0.8027414E-01
       -1   -1    0    0    0  501  0.00000000000E+00  0.00000000000E+00  0.25169219961E+04  0.25169219961E+04  0.50400001928E-02 0.  1.
        1   -1    0    0  501    0  0.00000000000E+00  0.00000000000E+00 -0.15019183959E+04  0.15019183959E+04  0.50400001928E-02 0. -1.
    10030    2    1    2    0    0  0.00000000000E+00  0.00000000000E+00  0.10150036002E+04  0.40188403920E+04  0.38885531741E+04 0.  0.
        3    1    3    3  502    0  0.10401944311E+04 -0.69494584645E+02 -0.11886367663E+04  0.15810412152E+04  0.10100000352E+00 0. -1.
       -3    1    3    3    0  502 -0.10401944311E+04  0.69494584645E+02  0.22036403664E+04  0.24377991768E+04  0.10100000352E+00 0.  1.
</event>
<event>
 5   0  0.3724293E-08  0.3900264E+04  0.7818609E-02  0.8024974E-01
        2   -1    0    0  501    0  0.00000000000E+00  0.00000000000E+00  0.24562000467E+04  0.24562000467E+04  0.25500000920E-02 0.  1.
       -2   -1    0    0    0  501  0.00000000000E+00  0.00000000000E+00 -0.15483326761E+04  0.15483326761E+04  0.25500000920E-02 0. -1.
    10030    2    1    2    0    0  0.00000000000E+00  0.00000000000E+00  0.90786737056E+03  0.40045327228E+04  0.39002639866E+04 0.  0.
        4    1    3    3  502    0  0.18942848468E+04 -0.27079433016E+03  0.83997537874E+03  0.20897858503E+04  0.12699999809E+01 0.  1.
       -4    1    3    3    0  502 -0.18942848468E+04  0.27079433016E+03  0.67891991820E+02  0.19147468725E+04  0.12699999809E+01 0. -1.
</event>
<event>
 5   0  0.1164500E-08  0.3901387E+04  0.7818609E-02  0.8024741E-01
       -1   -1    0    0    0  501  0.00000000000E+00  0.00000000000E+00  0.16097224022E+04  0.16097224022E+04  0.50400001928E-02 0.  1.
        1   -1    0    0  501    0  0.00000000000E+00  0.00000000000E+00 -0.23638893561E+04  0.23638893561E+04  0.50400001928E-02 0. -1.
    10030    2    1    2    0    0  0.00000000000E+00  0.00000000000E+00 -0.75416695390E+03  0.39736117583E+04  0.39013872675E+04 0.  0.
        4    1    3    3  502    0 -0.79276205605E+03 -0.12604168735E+04  0.90643695356E+03  0.17432016339E+04  0.12699999809E+01 0.  1.
       -4    1    3    3    0  502  0.79276205605E+03  0.12604168735E+04 -0.16606039075E+04  0.22304101244E+04  0.12699999809E+01 0. -1.
</event>
<event>
 5   0  0.3769985E-08  0.3898915E+04  0.7818609E-02  0.8025255E-01
       -2   -1    0    0    0  501  0.00000000000E+00  0.00000000000E+00  0.15616690096E+04  0.15616690096E+04  0.25500000920E-02 0. -1.
        2   -1    0    0  501    0  0.00000000000E+00  0.00000000000E+00 -0.24335399566E+04  0.24335399566E+04  0.25500000920E-02 0.  1.
    10030    2    1    2    0    0  0.00000000000E+00  0.00000000000E+00 -0.87187094701E+03  0.39952089662E+04  0.38989146869E+04 0.  0.
        1    1    3    3  502    0  0.18291321103E+04  0.40151782997E+03  0.11914724966E+03  0.18764692675E+04  0.50400001928E-02 0. -1.
       -1    1    3    3    0  502 -0.18291321103E+04 -0.40151782997E+03 -0.99101819668E+03  0.21187396987E+04  0.50400001928E-02 0.  1.
</event>
<event>
 5   0  0.1164500E-08  0.3897223E+04  0.7818609E-02  0.8025607E-01
       -1   -1    0    0    0  501  0.00000000000E+00  0.00000000000E+00  0.22599790269E+04  0.22599790269E+04  0.50400001928E-02 0. -1.
        1   -1    0    0  501    0  0.00000000000E+00  0.00000000000E+00 -0.16801428456E+04  0.16801428456E+04  0.50400001928E-02 0.  1.
    10030    2    1    2    0    0  0.00000000000E+00  0.00000000000E+00  0.57983618128E+03  0.39401218724E+04  0.38972234183E+04 0.  0.
        5    1    3    3  502    0 -0.73873342271E+03 -0.92231818487E+03  0.18563819056E+04  0.22005848708E+04  0.46999998093E+01 0. -1.
       -5    1    3    3    0  502  0.73873342271E+03  0.92231818487E+03 -0.12765457243E+04  0.17395370017E+04  0.46999998093E+01 0.  1.
</event>
<event>
 5   0  0.3690572E-08  0.3901557E+04  0.7818609E-02  0.8024706E-01
       -2   -1    0    0    0  501  0.00000000000E+00  0.00000000000E+00  0.11318945939E+04  0.11318945939E+04  0.25500000920E-02 0. -1.
        2   -1    0    0  501    0  0.00000000000E+00  0.00000000000E+00 -0.33620940406E+04  0.33620940406E+04  0.25500000920E-02 0.  1.
    10030    2    1    2    0    0  0.00000000000E+00  0.00000000000E+00 -0.22301994467E+04  0.44939886345E+04  0.39015566477E+04 0.  0.
        3    1    3    3  502    0  0.80423391231E+03 -0.10884215571E+04  0.50326606729E+03  0.14438595556E+04  0.10100000352E+00 0. -1.
       -3    1    3    3    0  502 -0.80423391231E+03  0.10884215571E+04 -0.27334655140E+04  0.30501290789E+04  0.10100000352E+00 0.  1.
</event>
<event>
 5   0  0.1164500E-08  0.3899096E+04  0.7818609E-02  0.8025217E-01
        1   -1    0    0  501    0  0.00000000000E+00  0.00000000000E+00  0.24879312168E+04  0.24879312168E+04  0.50400001928E-02 0. -1.
       -1   -1    0    0    0  501  0.00000000000E+00  0.00000000000E+00 -0.15276696237E+04  0.15276696237E+04  0.50400001928E-02 0.  1.
    10030    2    1    2    0    0  0.00000000000E+00  0.00000000000E+00  0.96026159314E+03  0.40156008405E+04  0.38990957648E+04 0.  0.
        5    1    3    3  502    0 -0.17681791945E+04 -0.81756857283E+01  0.13257559653E+04  0.22100170757E+04  0.46999998093E+01 0. -1.
       -5    1    3    3    0  502  0.17681791945E+04  0.81756857283E+01 -0.36549437211E+03  0.18055837648E+04  0.46999998093E+01 0.  1.
</event>
<event>
 5   0  0.3769985E-08  0.3896307E+04  0.7818609E-02  0.8025798E-01
        2   -1    0    0  501    0  0.00000000000E+00  0.00000000000E+00  0.25427720304E+04  0.25427720304E+04  0.25500000920E-02 0.  1.
       -2   -1    0    0    0  501  0.00000000000E+00  0.00000000000E+00 -0.14925841474E+04  0.14925841474E+04  0.25500000920E-02 0. -1.
    10030    2    1    2    0    0  0.00000000000E+00  0.00000000000E+00  0.10501878830E+04  0.40353561778E+04  0.38963065706E+04 0.  0.
        1    1    3    3  502    0 -0.65006279589E+03  0.14908767588E+04  0.16357480302E+04  0.23067220827E+04  0.50400001928E-02 0.  1.
       -1    1    3    3    0  502  0.65006279589E+03 -0.14908767588E+04 -0.58556014724E+03  0.17286340951E+04  0.50400001928E-02 0. -1.
</event>
<event>
 5   0  0.3690572E-08  0.3918405E+04  0.7818609E-02  0.8021212E-01
        2   -1    0    0  501    0  0.00000000000E+00  0.00000000000E+00  0.23937213091E+04  0.23937213091E+04  0.25500000920E-02 0.  1.
       -2   -1    0    0    0  501  0.00000000000E+00  0.00000000000E+00 -0.16035595730E+04  0.16035595731E+04  0.25500000920E-02 0. -1.
    10030    2    1    2    0    0  0.00000000000E+00  0.00000000000E+00  0.79016173601E+03  0.39972808821E+04  0.39184051451E+04 0.  0.
        3    1    3    3  502    0 -0.14993267013E+04  0.11700874021E+04  0.87507282497E+03  0.20935227596E+04  0.10100000352E+00 0.  1.
       -3    1    3    3    0  502  0.14993267013E+04 -0.11700874021E+04 -0.84911088961E+02  0.19037581225E+04  0.10100000352E+00 0. -1.
</event>
<event>
 5   0  0.1164500E-08  0.3901165E+04  0.7818609E-02  0.8024787E-01
        1   -1    0    0  501    0  0.00000000000E+00  0.00000000000E+00  0.19283423730E+04  0.19283423730E+04  0.50400001928E-02 0.  1.
       -1   -1    0    0    0  501  0.00000000000E+00  0.00000000000E+00 -0.19730787885E+04  0.19730787885E+04  0.50400001928E-02 0. -1.
    10030    2    1    2    0    0  0.00000000000E+00  0.00000000000E+00 -0.44736415487E+02  0.39014211615E+04  0.39011646636E+04 0.  0.
        4    1    3    3  502    0  0.15665895654E+04 -0.73021888496E+03  0.88176387169E+03  0.19403431719E+04  0.12699999809E+01 0.  1.
       -4    1    3    3    0  502 -0.15665895654E+04  0.73021888496E+03 -0.92650028717E+03  0.19610779896E+04  0.12699999809E+01 0. -1.
</event>
<event>
 5   0  0.1164500E-08  0.3906730E+04  0.7818609E-02  0.8023631E-01
       -1   -1    0    0    0  501  0.00000000000E+00  0.00000000000E+00  0.19911292881E+04  0.19911292881E+04  0.50400001928E-02 0.  1.
        1   -1    0    0  501    0  0.00000000000E+00  0.00000000000E+00 -0.19163166751E+04  0.19163166751E+04  0.50400001928E-02 0. -1.
    10030    2    1    2    0    0  0.00000000000E+00  0.00000000000E+00  0.74812613007E+02  0.39074459632E+04  0.39067297101E+04 0.  0.
        4    1    3    3  502    0  0.18440957406E+04  0.50522432369E+03  0.43709429363E+03  0.19613754745E+04  0.12699999809E+01 0.  1.
       -4    1    3    3    0  502 -0.18440957406E+04 -0.50522432369E+03 -0.36228168062E+03  0.19460704886E+04  0.12699999809E+01 0. -1.
</event>
<event>
 5   0  0.3724293E-08  0.3832209E+04  0.7818609E-02  0.8039278E-01
       -2   -1    0    0    0  501  0.00000000000E+00  0.00000000000E+00  0.15374076573E+04  0.15374076573E+04  0.25500000920E-02 0. -1.
        2   -1    0    0  501    0  0.00000000000E+00  0.00000000000E+00 -0.23880823400E+04  0.23880823400E+04  0.25500000920E-02 0.  1.
    10030    2    1    2    0    0  0.00000000000E+00  0.00000000000E+00 -0.85067468261E+03  0.39254899973E+04  0.38322088021E+04 0.  0.
        4    1    3    3  502    0  0.16508064381E+04 -0.22667117118E+03  0.54368782921E+03  0.17527520602E+04  0.12699999809E+01 0. -1.
       -4    1    3    3    0  502 -0.16508064381E+04  0.22667117118E+03 -0.13943625118E+04  0.21727379371E+04  0.12699999809E+01 0.  1.
</event>
<event>
 5   0  0.3769985E-08  0.3887659E+04  0.7818609E-02  0.8027601E-01
       -2   -1    0    0    0  501  0.00000000000E+00  0.00000000000E+00  0.15613744915E+04  0.15613744915E+04  0.25500000920E-02 0. -1.
        2   -1    0    0  501    0  0.00000000000E+00  0.00000000000E+00 -0.24199660771E+04  0.24199660771E+04  0.25500000920E-02 0.  1.
    10030    2    1    2    0    0  0.00000000000E+00  0.00000000000E+00 -0.85859158564E+03  0.39813405686E+04  0.38876590916E+04 0.  0.
        1    1    3    3  502    0  0.13345841541E+04 -0.90990432015E+01 -0.18766011105E+04  0.23027873078E+04  0.50400001928E-02 0.  1.
       -1    1    3    3    0  502 -0.13345841541E+04  0.90990432015E+01  0.10180095249E+04  0.16785532609E+04  0.50400001928E-02 0. -1.
</event>
<event>
 5   0  0.1164500E-08  0.3898814E+04  0.7818609E-02  0.8025276E-01
        1   -1    0    0  501    0  0.00000000000E+00  0.00000000000E+00  0.26503851771E+04  0.26503851771E+04  0.50400001928E-02 0.  1.
       -1   -1    0    0    0  501  0.00000000000E+00  0.00000000000E+00 -0.14338245168E+04  0.14338245169E+04  0.50400001928E-02 0. -1.
    10030    2    1    2    0    0  0.00000000000E+00  0.00000000000E+00  0.12165606602E+04  0.40842096939E+04  0.38988137919E+04 0.  0.
        1    1    3    3  502    0 -0.63323934623E+02 -0.18445880181E+03 -0.14235794002E+04  0.14368762225E+04  0.50400001928E-02 0. -1.
       -1    1    3    3    0  502  0.63323934623E+02  0.18445880181E+03  0.26401400604E+04  0.26473334714E+04  0.50400001928E-02 0.  1.
</event>
<event>
 5   0  0.3669347E-08  0.3896990E+04  0.7818609E-02  0.8025656E-01
        2   -1    0    0  501    0  0.00000000000E+00  0.00000000000E+00  0.20770532934E+04  0.20770532934E+04  0.25500000920E-02 0. -1.
       -2   -1    0    0    0  501  0.00000000000E+00  0.00000000000E+00 -0.18278933983E+04  0.18278933983E+04  0.25500000920E-02 0.  1.
    10030    2    1    2    0    0  0.00000000000E+00  0.00000000000E+00  0.24915989514E+03  0.39049466917E+04  0.38969896089E+04 0.  0.
        5    1    3    3  502    0 -0.44662330400E+03 -0.30234112793E+03  0.20007618046E+04  0.20721854218E+04  0.46999998093E+01 0. -1.
       -5    1    3    3    0  502  0.44662330400E+03  0.30234112793E+03 -0.17516019095E+04  0.18327612699E+04  0.46999998093E+01 0.  1.
</event>
<event>
 5   0  0.1164500E-08  0.3902040E+04  0.7818609E-02  0.8024605E-01
       -1   -1    0    0    0  501  0.00000000000E+00  0.00000000000E+00  0.17994385345E+04  0.17994385345E+04  0.50400001928E-02 0.  1.
        1   -1    0    0  501    0  0.00000000000E+00  0.00000000000E+00 -0.21153707844E+04  0.21153707844E+04  0.50400001928E-02 0. -1.
    10030    2    1    2    0    0  0.00000000000E+00  0.00000000000E+00 -0.31593224993E+03  0.39148093190E+04  0.39020403403E+04 0.  0.
        4    1    3    3  502    0  0.83293593944E+03  0.10486376423E+04  0.12654984675E+04  0.18425284715E+04  0.12699999809E+01 0.  1.
       -4    1    3    3    0  502 -0.83293593944E+03 -0.10486376423E+04 -0.15814307174E+04  0.20722808475E+04  0.12699999809E+01 0. -1.
</event>
<event>
 5   0  0.1164500E-08  0.3904456E+04  0.7818609E-02  0.8024103E-01
       -1   -1    0    0    0  501  0.00000000000E+00  0.00000000000E+00  0.17856542348E+04  0.17856542348E+04  0.50400001928E-02 0. -1.
        1   -1    0    0  501    0  0.00000000000E+00  0.00000000000E+00 -0.21343410048E+04  0.21343410048E+04  0.50400001928E-02 0.  1.
    10030    2    1    2    0    0  0.00000000000E+00  0.00000000000E+00 -0.34868676999E+03  0.39199952397E+04  0.39044564558E+04 0.  0.
        5    1    3    3  502    0  0.41810201457E+03 -0.31583574116E+03  0.17137289572E+04  0.17920520469E+04  0.46999998093E+01 0. -1.
       -5    1    3    3    0  502 -0.41810201457E+03  0.31583574116E+03 -0.20624157272E+04  0.21279431928E+04  0.46999998093E+01 0.  1.
</event>
<event>
 5   0  0.1164500E-08  0.3895953E+04  0.7818609E-02  0.8025871E-01
       -1   -1    0    0    0  501  0.00000000000E+00  0.00000000000E+00  0.18915773414E+04  0.18915773414E+04  0.50400001928E-02 0.  1.
        1   -1    0    0  501    0  0.00000000000E+00  0.00000000000E+00 -0.20060577267E+04  0.20060577267E+04  0.50400001928E-02 0. -1.
    10030    2    1    2    0    0  0.00000000000E+00  0.00000000000E+00 -0.11448038536E+03  0.38976350681E+04  0.38959534604E+04 0.  0.
        2    1    3    3  502    0  0.67202316220E+03 -0.87927805606E+03  0.15465326250E+04  0.19017119105E+04  0.25500000920E-02 0.  1.
       -2    1    3    3    0  502 -0.67202316220E+03  0.87927805606E+03 -0.16610130104E+04  0.19959231576E+04  0.25500000920E-02 0. -1.
</event>
<event>
 5   0  0.3724293E-08  0.3896817E+04  0.7818609E-02  0.8025692E-01
        2   -1    0    0  501    0  0.00000000000E+00  0.00000000000E+00  0.15339436078E+04  0.15339436078E+04  0.25500000920E-02 0.  1.
       -2   -1    0    0    0  501  0.00000000000E+00  0.00000000000E+00 -0.24748598004E+04  0.24748598005E+04  0.25500000920E-02 0. -1.
    10030    2    1    2    0    0  0.00000000000E+00  0.00000000000E+00 -0.94091619266E+03  0.40088034082E+04  0.38968168400E+04 0.  0.
        4    1    3    3  502    0  0.92557299891E+03  0.94740143670E+03 -0.19405238858E+04  0.23494444924E+04  0.12699999809E+01 0. -1.
       -4    1    3    3    0  502 -0.92557299891E+03 -0.94740143670E+03  0.99960769313E+03  0.16593589159E+04  0.12699999809E+01 0.  1.
</event>
<event>
 5   0  0.1164500E-08  0.3899698E+04  0.7818609E-02  0.8025092E-01
        1   -1    0    0  501    0  0.00000000000E+00  0.00000000000E+00  0.25281902136E+04  0.25281902136E+04  0.50400001928E-02 0.  1.
       -1   -1    0    0    0  501  0.00000000000E+00  0.00000000000E+00 -0.15038072492E+04  0.15038072492E+04  0.50400001928E-02 0. -1.
    10030    2    1    2    0    0  0.00000000000E+00  0.00000000000E+00  0.10243829644E+04  0.40319974629E+04  0.38996978194E+04 0.  0.
        1    1    3    3  502    0  0.10315301729E+03  0.18188777705E+04 -0.20633391761E+03  0.18334477289E+04  0.50400001928E-02 0. -1.
       -1    1    3    3    0  502 -0.10315301729E+03 -0.18188777705E+04  0.12307168820E+04  0.21985497340E+04  0.50400001928E-02 0.  1.
</event>
<event>
 5   0  0.1164500E-08  0.3900618E+04  0.7818609E-02  0.8024901E-01
        1   -1    0    0  501    0  0.00000000000E+00  0.00000000000E+00  0.21454388154E+04  0.21454388154E+04  0.50400001928E-02 0.  1.
       -1   -1    0    0    0  501  0.00000000000E+00  0.00000000000E+00 -0.17729264721E+04  0.17729264721E+04  0.50400001928E-02 0. -1.
    10030    2    1    2    0    0  0.00000000000E+00  0.00000000000E+00  0.37251234331E+03  0.39183652876E+04  0.39006180383E+04 0.  0.
        5    1    3    3  502    0 -0.16268937278E+04 -0.10321449210E+04  0.49024969030E+03  0.19880827921E+04  0.46999998093E+01 0.  1.
       -5    1    3    3    0  502  0.16268937278E+04  0.10321449210E+04 -0.11773734698E+03  0.19302824955E+04  0.46999998093E+01 0. -1.
</event>
<event>
 5   0  0.3872969E-08  0.3897889E+04  0.7818609E-02  0.8025468E-01
       -2   -1    0    0    0  501  0.00000000000E+00  0.00000000000E+00  0.14682873181E+04  0.14682873181E+04  0.25500000920E-02 0.  1.
        2   -1    0    0  501    0  0.00000000000E+00  0.00000000000E+00 -0.25869488813E+04  0.25869488813E+04  0.25500000920E-02 0. -1.
    10030    2    1    2    0    0  0.00000000000E+00  0.00000000000E+00 -0.11186615632E+04  0.40552361994E+04  0.38978887798E+04 0.  0.
        2    1    3    3  502    0 -0.83153291677E+03  0.12290317101E+04 -0.18738291778E+04  0.23902304750E+04  0.25500000920E-02 0. -1.
       -2    1    3    3    0  502  0.83153291677E+03 -0.12290317101E+04  0.75516761452E+03  0.16650057244E+04  0.25500000920E-02 0.  1.
</event>
<event>
 5   0  0.3724293E-08  0.3903386E+04  0.7818609E-02  0.8024325E-01
        2   -1    0    0  501    0  0.00000000000E+00  0.00000000000E+00  0.12089754905E+04  0.12089754905E+04  0.25500000920E-02 0.  1.
       -2   -1    0    0    0  501  0.00000000000E+00  0.00000000000E+00 -0.31506895345E+04  0.31506895345E+04  0.25500000920E-02 0. -1.
    10030    2    1    2    0    0  0.00000000000E+00  0.00000000000E+00 -0.19417140440E+04  0.43596650250E+04  0.39033864402E+04 0.  0.
        4    1    3    3  502    0  0.16894842204E+04  0.37680993588E+03  0.36059132816E+02  0.17313707092E+04  0.12699999809E+01 0. -1.
       -4    1    3    3    0  502 -0.16894842204E+04 -0.37680993588E+03 -0.19777731768E+04  0.26282943158E+04  0.12699999809E+01 0.  1.
</event>
<event>
 5   0  0.1164500E-08  0.3899935E+04  0.7818609E-02  0.8025043E-01
       -1   -1    0    0    0  501  0.00000000000E+00  0.00000000000E+00  0.18879485651E+04  0.18879485651E+04  0.50400001928E-02 0. -1.
        1   -1    0    0  501    0  0.00000000000E+00  0.00000000000E+00 -0.20140234746E+04  0.20140234746E+04  0.50400001928E-02 0.  1.
    10030    2    1    2    0    0  0.00000000000E+00  0.00000000000E+00 -0.12607490951E+03  0.39019720398E+04  0.38999347323E+04 0.  0.
        5    1    3    3  502    0 -0.79804139198E+03 -0.10672874503E+04 -0.14872901598E+04  0.19970044252E+04  0.46999998093E+01 0.  1.
       -5    1    3    3    0  502  0.79804139198E+03  0.10672874503E+04  0.13612152503E+04  0.19049676146E+04  0.46999998093E+01 0. -1.
</event>
<event>
 5   0  0.3724293E-08  0.3910490E+04  0.7818609E-02  0.8022851E-01
        2   -1    0    0  501    0  0.00000000000E+00  0.00000000000E+00  0.18910217220E+04  0.18910217220E+04  0.25500000920E-02 0. -1.
       -2   -1    0    0    0  501  0.00000000000E+00  0.00000000000E+00 -0.20216491558E+04  0.20216491558E+04  0.25500000920E-02 0.  1.
    10030    2    1    2    0    0  0.00000000000E+00  0.00000000000E+00 -0.13062743373E+03  0.39126708778E+04  0.39104897227E+04 0.  0.
        4    1    3    3  502    0 -0.58180034941E+03  0.24103751775E+03  0.17867698306E+04  0.18945022491E+04  0.12699999809E+01 0. -1.
       -4    1    3    3    0  502  0.58180034941E+03 -0.24103751775E+03 -0.19173972643E+04  0.20181686287E+04  0.12699999809E+01 0.  1.
</event>
<event>
 5   0  0.1164500E-08  0.3900999E+04  0.7818609E-02  0.8024821E-01
        1   -1    0    0  501    0  0.00000000000E+00  0.00000000000E+00  0.16861292853E+04  0.16861292853E+04  0.50400001928E-02 0.  1.
       -1   -1    0    0    0  501  0.00000000000E+00  0.00000000000E+00 -0.22563210204E+04  0.22563210204E+04  0.50400001928E-02 0. -1.
    10030    2    1    2    0    0  0.00000000000E+00  0.00000000000E+00 -0.57019173507E+03  0.39424503057E+04  0.39009993333E+04 0.  0.
        2    1    3    3  502    0 -0.13567342191E+04  0.15931881110E+03 -0.16921317980E+04  0.21747230276E+04  0.25500000920E-02 0. -1.
       -2    1    3    3    0  502  0.13567342191E+04 -0.15931881110E+03  0.11219400629E+04  0.17677272781E+04  0.25500000920E-02 0.  1.
</event>
<event>
 5   0  0.3669347E-08  0.3901569E+04  0.7818609E-02  0.8024703E-01
        2   -1    0    0  501    0  0.00000000000E+00  0.00000000000E+00  0.24307915453E+04  0.24307915453E+04  0.25500000920E-02 0. -1.
       -2   -1    0    0    0  501  0.00000000000E+00  0.00000000000E+00 -0.15655638155E+04  0.15655638155E+04  0.25500000920E-02 0.  1.
    10030    2    1    2    0    0  0.00000000000E+00  0.00000000000E+00  0.86522772980E+03  0.39963553607E+04  0.39015685493E+04 0.  0.
        5    1    3    3  502    0 -0.10522683698E+04  0.57865615454E+02  0.21141174587E+04  0.23622302747E+04  0.46999998093E+01 0. -1.
       -5    1    3    3    0  502  0.10522683698E+04 -0.57865615454E+02 -0.12488897289E+04  0.16341250860E+04  0.46999998093E+01 0.  1.
</event>
<event>
 5   0  0.1164500E-08  0.3903054E+04  0.7818609E-02  0.8024394E-01
        1   -1    0    0  501    0  0.00000000000E+00  0.00000000000E+00  0.19174105080E+04  0.19174105080E+04  0.50400001928E-02 0. -1.
       -1   -1    0    0    0  501  0.00000000000E+00  0.00000000000E+00 -0.19862500752E+04  0.19862500752E+04  0.50400001928E-02 0.  1.
    10030    2    1    2    0    0  0.00000000000E+00  0.00000000000E+00 -0.68839567169E+02  0.39036605832E+04  0.39030535562E+04 0.  0.
        4    1    3    3  502    0 -0.16813130482E+04 -0.88335210600E+03 -0.48318840201E+03  0.19597441552E+04  0.12699999809E+01 0.  1.
       -4    1    3    3    0  502  0.16813130482E+04  0.88335210600E+03  0.41434883484E+03  0.19439164280E+04  0.12699999809E+01 0. -1.
</event>
<event>
 5   0  0.3690572E-08  0.3895093E+04  0.7818609E-02  0.8026050E-01
        2   -1    0    0  501    0  0.00000000000E+00  0.00000000000E+00  0.23054127973E+04  0.23054127974E+04  0.25500000920E-02 0. -1.
       -2   -1    0    0    0  501  0.00000000000E+00  0.00000000000E+00 -0.16452315825E+04  0.16452315825E+04  0.25500000920E-02 0.  1.
    10030    2    1    2    0    0  0.00000000000E+00  0.00000000000E+00  0.66018121489E+03  0.39506443798E+04  0.38950932953E+04 0.  0.
        3    1    3    3  502    0  0.75243793335E+03 -0.30165253128E+03  0.21261592265E+04  0.22754582308E+04  0.10100000352E+00 0. -1.
       -3    1    3    3    0  502 -0.75243793335E+03  0.30165253128E+03 -0.14659780116E+04  0.16751861490E+04  0.10100000352E+00 0.  1.
</event>
<event>
 5   0  0.1164500E-08  0.3899645E+04  0.7818609E-02  0.8025103E-01
       -1   -1    0    0    0  501  0.00000000000E+00  0.00000000000E+00  0.29305234688E+04  0.29305234688E+04  0.50400001928E-02 0. -1.
        1   -1    0    0  501    0  0.00000000000E+00  0.00000000000E+00 -0.12973137846E+04  0.12973137846E+04  0.50400001928E-02 0.  1.
    10030    2    1    2    0    0  0.00000000000E+00  0.00000000000E+00  0.16332096843E+04  0.42278372534E+04  0.38996453645E+04 0.  0.
        2    1    3    3  502    0 -0.29582448782E+03  0.11745445613E+04  0.24731853352E+04  0.27538541639E+04  0.25500000920E-02 0. -1.
       -2    1    3    3    0  502  0.29582448782E+03 -0.11745445613E+04 -0.83997565093E+03  0.14739830895E+04  0.25500000920E-02 0.  1.
</event>
<event>
 5   0  0.3872969E-08  0.3905054E+04  0.7818609E-02  0.8023979E-01
        2   -1    0    0  501    0  0.00000000000E+00  0.00000000000E+00  0.29911095233E+04  0.29911095233E+04  0.25500000920E-02 0. -1.
       -2   -1    0    0    0  501  0.00000000000E+00  0.00000000000E+00 -0.12745642643E+04  0.12745642643E+04  0.25500000920E-02 0.  1.
    10030    2    1    2    0    0  0.00000000000E+00  0.00000000000E+00  0.17165452590E+04  0.42656737876E+04  0.39050538071E+04 0.  0.
        2    1    3    3  502    0  0.10302597008E+04  0.15289463550E+04  0.15604820993E+04  0.24154122608E+04  0.25500000920E-02 0. -1.
       -2    1    3    3    0  502 -0.10302597008E+04 -0.15289463550E+04  0.15606315973E+03  0.18502615268E+04  0.25500000920E-02 0.  1.
</event>
<event>
 5   0  0.3724293E-08  0.3914131E+04  0.7818609E-02  0.8022097E-01
       -2   -1    0    0    0  501  0.00000000000E+00  0.00000000000E+00  0.28633828786E+04  0.28633828786E+04  0.25500000920E-02 0.  1.
        2   -1    0    0  501    0  0.00000000000E+00  0.00000000000E+00 -0.13376157488E+04  0.13376157488E+04  0.25500000920E-02 0. -1.
    10030    2    1    2    0    0  0.00000000000E+00  0.00000000000E+00  0.15257671297E+04  0.42009986274E+04  0.39141313383E+04 0.  0.
        4    1    3    3  502    0  0.29336170643E+02  0.45982961967E+03  0.28043368879E+04  0.28419378747E+04  0.12699999809E+01 0.  1.
       -4    1    3    3    0  502 -0.29336170643E+02 -0.45982961967E+03 -0.12785697582E+04  0.13590607527E+04  0.12699999809E+01 0. -1.
</event>
<event>
 5   0  0.3669347E-08  0.3900208E+04  0.7818609E-02  0.8024986E-01
       -2   -1    0    0    0  501  0.00000000000E+00  0.00000000000E+00  0.31349198887E+04  0.31349198887E+04  0.25500000920E-02 0. -1.
        2   -1    0    0  501    0  0.00000000000E+00  0.00000000000E+00 -0.12130791744E+04  0.12130791744E+04  0.25500000920E-02 0.  1.
    10030    2    1    2    0    0  0.00000000000E+00  0.00000000000E+00  0.19218407143E+04  0.43479990631E+04  0.39002082152E+04 0.  0.
        5    1    3    3  502    0  0.17179094410E+03  0.51416362692E+03  0.30492247501E+04  0.30970421422E+04  0.46999998093E+01 0. -1.
       -5    1    3    3    0  502 -0.17179094410E+03 -0.51416362692E+03 -0.11273840359E+04  0.12509569209E+04  0.46999998093E+01 0.  1.
</event>
<event>
 5   0  0.1164500E-08  0.3907149E+04  0.7818609E-02  0.8023544E-01
       -1   -1    0    0    0  501  0.00000000000E+00  0.00000000000E+00  0.26108651605E+04  0.26108651605E+04  0.50400001928E-02 0.  1.
        1   -1    0    0  501    0  0.00000000000E+00  0.00000000000E+00 -0.14617577679E+04  0.14617577679E+04  0.50400001928E-02 0. -1.
    10030    2    1    2    0    0  0.00000000000E+00  0.00000000000E+00  0.11491073926E+04  0.40726229283E+04  0.39071485404E+04 0.  0.
        1    1    3    3  502    0  0.79255831584E+03  0.86248167171E+03 -0.10551288081E+04  0.15764898096E+04  0.50400001928E-02 0. -1.
       -1    1    3    3    0  502 -0.79255831584E+03 -0.86248167171E+03  0.22042362007E+04  0.24961331188E+04  0.50400001928E-02 0.  1.
</event>
<event>
 5   0  0.1164500E-08  0.3900214E+04  0.7818609E-02  0.8024985E-01
       -1   -1    0    0    0  501  0.00000000000E+00  0.00000000000E+00  0.18426110221E+04  0.18426110221E+04  0.50400001928E-02 0.  1.
        1   -1    0    0  501    0  0.00000000000E+00  0.00000000000E+00 -0.20638739888E+04  0.20638739888E+04  0.50400001928E-02 0. -1.
    10030    2    1    2    0    0  0.00000000000E+00  0.00000000000E+00 -0.22126296671E+03  0.39064850109E+04  0.39002138198E+04 0.  0.
        2    1    3    3  502    0  0.12507325797E+04 -0.93932481298E+03 -0.12770871591E+04  0.20193104521E+04  0.25500000920E-02 0.  1.
       -2    1    3    3    0  502 -0.12507325797E+04  0.93932481298E+03  0.10558241924E+04  0.18871745588E+04  0.25500000920E-02 0. -1.
</event>
<event>
 5   0  0.3669347E-08  0.3897805E+04  0.7818609E-02  0.8025486E-01
        2   -1    0    0  501    0  0.00000000000E+00  0.00000000000E+00  0.15613564445E+04  0.15613564445E+04  0.25500000920E-02 0. -1.
       -2   -1    0    0    0  501  0.00000000000E+00  0.00000000000E+00 -0.24326416176E+04  0.24326416176E+04  0.25500000920E-02 0.  1.
    10030    2    1    2    0    0  0.00000000000E+00  0.00000000000E+00 -0.87128517306E+03  0.39939980621E+04  0.38978048524E+04 0.  0.
        5    1    3    3  502    0 -0.70089440963E+03 -0.17488711559E+04 -0.94633502849E+03  0.21084058835E+04  0.46999998093E+01 0.  1.
       -5    1    3    3    0  502  0.70089440963E+03  0.17488711559E+04  0.75049855430E+02  0.18855921786E+04  0.46999998093E+01 0. -1.
</event>
<event>
 5   0  0.1164500E-08  0.3897951E+04  0.7818609E-02  0.8025456E-01
        1   -1    0    0  501    0  0.00000000000E+00  0.00000000000E+00  0.23281252969E+04  0.23281252969E+04  0.50400001928E-02 0.  1.
       -1   -1    0    0    0  501  0.00000000000E+00  0.00000000000E+00 -0.16315723739E+04  0.16315723739E+04  0.50400001928E-02 0. -1.
    10030    2    1    2    0    0  0.00000000000E+00  0.00000000000E+00  0.69655292296E+03  0.39596976708E+04  0.38979507013E+04 0.  0.
        3    1    3    3  502    0 -0.13798668521E+04 -0.10159982496E+04 -0.59499070074E+03  0.18139181120E+04  0.10100000352E+00 0. -1.
       -3    1    3    3    0  502  0.13798668521E+04  0.10159982496E+04  0.12915436237E+04  0.21457795588E+04  0.10100000352E+00 0.  1.
</event>
<event>
 5   0  0.3769985E-08  0.3876953E+04  0.7818609E-02  0.8029840E-01
       -2   -1    0    0    0  501  0.00000000000E+00  0.00000000000E+00  0.22883416133E+04  0.22883416133E+04  0.25500000920E-02 0. -1.
        2   -1    0    0  501    0  0.00000000000E+00  0.00000000000E+00 -0.16421027602E+04  0.16421027602E+04  0.25500000920E-02 0.  1.
    10030    2    1    2    0    0  0.00000000000E+00  0.00000000000E+00  0.64623885310E+03  0.39304443734E+04  0.38769534840E+04 0.  0.
        1    1    3    3  502    0  0.17098078278E+04  0.11100320615E+03 -0.59599130140E+03  0.18141031258E+04  0.50400001928E-02 0.  1.
       -1    1    3    3    0  502 -0.17098078278E+04 -0.11100320615E+03  0.12422301545E+04  0.21163412476E+04  0.50400001928E-02 0. -1.
</event>
<event>
 5   0  0.1164500E-08  0.3900046E+04  0.7818609E-02  0.8025020E-01
       -1   -1    0    0    0  501  0.00000000000E+00  0.00000000000E+00  0.15071327537E+04  0.15071327537E+04  0.50400001928E-02 0. -1.
        1   -1    0    0  501    0  0.00000000000E+00  0.00000000000E+00 -0.25230622322E+04  0.25230622322E+04  0.50400001928E-02 0.  1.
    10030    2    1    2    0    0  0.00000000000E+00  0.00000000000E+00 -0.10159294786E+04  0.40301949859E+04  0.39000460150E+04 0.  0.
        1    1    3    3  502    0  0.25234870449E+03  0.44914756086E+03  0.14355358753E+04  0.15251808579E+04  0.50400001928E-02 0. -1.
       -1    1    3    3    0  502 -0.25234870449E+03 -0.44914756086E+03 -0.24514653539E+04  0.25050141280E+04  0.50400001928E-02 0.  1.
</event>
<event>
 5   0  0.3769985E-08  0.3890669E+04  0.7818609E-02  0.8026973E-01
        2   -1    0    0  501    0  0.00000000000E+00  0.00000000000E+00  0.20673517815E+04  0.20673517815E+04  0.25500000920E-02 0. -1.
       -2   -1    0    0    0  501  0.00000000000E+00  0.00000000000E+00 -0.18305184723E+04  0.18305184723E+04  0.25500000920E-02 0.  1.
    10030    2    1    2    0    0  0.00000000000E+00  0.00000000000E+00  0.23683330917E+03  0.38978702538E+04  0.38906686443E+04 0.  0.
        1    1    3    3  502    0  0.16661498325E+04  0.96049411085E+03 -0.17490749540E+03  0.19311128485E+04  0.50400001928E-02 0.  1.
       -1    1    3    3    0  502 -0.16661498325E+04 -0.96049411085E+03  0.41174080457E+03  0.19667574054E+04  0.50400001928E-02 0. -1.
</event>
<event>
 5   0  0.3769985E-08  0.3907928E+04  0.7818609E-02  0.8023382E-01
        2   -1    0    0  501    0  0.00000000000E+00  0.00000000000E+00  0.25902137383E+04  0.25902137383E+04  0.25500000920E-02 0.  1.
       -2   -1    0    0    0  501  0.00000000000E+00  0.00000000000E+00 -0.14740002467E+04  0.14740002467E+04  0.25500000920E-02 0. -1.
    10030    2    1    2    0    0  0.00000000000E+00  0.00000000000E+00  0.11162134916E+04  0.40642139850E+04  0.39079281924E+04 0.  0.
        1    1    3    3  502    0 -0.16789761593E+04  0.22883743136E+03 -0.45376225689E+03  0.17542028672E+04  0.50400001928E-02 0. -1.
       -1    1    3    3    0  502  0.16789761593E+04 -0.22883743136E+03  0.15699757485E+04  0.23100111178E+04  0.50400001928E-02 0.  1.
</event>
<event>
 5   0  0.3669347E-08  0.3898510E+04  0.7818609E-02  0.8025339E-01
        2   -1    0    0  501    0  0.00000000000E+00  0.00000000000E+00  0.27219870435E+04  0.27219870435E+04  0.25500000920E-02 0. -1.
       -2   -1    0    0    0  501  0.00000000000E+00  0.00000000000E+00 -0.13958900001E+04  0.13958900001E+04  0.25500000920E-02 0.  1.
    10030    2    1    2    0    0  0.00000000000E+00  0.00000000000E+00  0.13260970434E+04  0.41178770436E+04  0.38985097124E+04 0.  0.
        5    1    3    3  502    0  0.50932309998E+03  0.69901264115E+03 -0.11821136906E+04  0.14647332727E+04  0.46999998093E+01 0.  1.
       -5    1    3    3    0  502 -0.50932309998E+03 -0.69901264115E+03  0.25082107340E+04  0.26531437709E+04  0.46999998093E+01 0. -1.
</event>
<event>
 5   0  0.3690572E-08  0.3912326E+04  0.7818609E-02  0.8022470E-01
       -2   -1    0    0    0  501  0.00000000000E+00  0.00000000000E+00  0.15450884426E+04  0.15450884426E+04  0.25500000920E-02 0. -1.
        2   -1    0    0  501    0  0.00000000000E+00  0.00000000000E+00 -0.24766050221E+04  0.24766050221E+04  0.25500000920E-02 0.  1.
    10030    2    1    2    0    0  0.00000000000E+00  0.00000000000E+00 -0.93151657953E+03  0.40216934647E+04  0.39123260583E+04 0.  0.
        3    1    3    3  502    0 -0.20478543853E+03  0.17814944129E+04 -0.12692179793E+04  0.21969464509E+04  0.10100000352E+00 0. -1.
       -3    1    3    3    0  502  0.20478543853E+03 -0.17814944129E+04  0.33770139976E+03  0.18247470138E+04  0.10100000352E+00 0.  1.
</event>
<event>
 5   0  0.1164500E-08  0.3898415E+04  0.7818609E-02  0.8025359E-01
        1   -1    0    0  501    0  0.00000000000E+00  0.00000000000E+00  0.21880639366E+04  0.21880639366E+04  0.50400001928E-02 0. -1.
       -1   -1    0    0    0  501  0.00000000000E+00  0.00000000000E+00 -0.17364256305E+04  0.17364256305E+04  0.50400001928E-02 0.  1.
    10030    2    1    2    0    0  0.00000000000E+00  0.00000000000E+00  0.45163830607E+03  0.39244895671E+04  0.38984152169E+04 0.  0.
        4    1    3    3  502    0  0.86972943507E+03  0.17142391411E+04  0.55103338137E+03  0.19996711038E+04  0.12699999809E+01 0.  1.
       -4    1    3    3    0  502 -0.86972943507E+03 -0.17142391411E+04 -0.99395075309E+02  0.19248184634E+04  0.12699999809E+01 0. -1.
</event>
<event>
 5   0  0.1164500E-08  0.3899532E+04  0.7818609E-02  0.8025126E-01
       -1   -1    0    0    0  501  0.00000000000E+00  0.00000000000E+00  0.21385714893E+04  0.21385714893E+04  0.50400001928E-02 0. -1.
        1   -1    0    0  501    0  0.00000000000E+00  0.00000000000E+00 -0.17776296567E+04  0.17776296567E+04  0.50400001928E-02 0.  1.
    10030    2    1    2    0    0  0.00000000000E+00  0.00000000000E+00  0.36094183255E+03  0.39162011460E+04  0.38995323322E+04 0.  0.
        3    1    3    3  502    0  0.73367638228E+03 -0.12326343889E+04  0.15066912560E+04  0.20803334160E+04  0.10100000352E+00 0. -1.
       -3    1    3    3    0  502 -0.73367638228E+03  0.12326343889E+04 -0.11457494235E+04  0.18358677300E+04  0.10100000352E+00 0.  1.
</event>
<event>
 5   0  0.1164500E-08  0.3893955E+04  0.7818609E-02  0.8026288E-01
        1   -1    0    0  501    0  0.00000000000E+00  0.00000000000E+00  0.22658827207E+04  0.22658827207E+04  0.50400001928E-02 0.  1.
       -1   -1    0    0    0  501  0.00000000000E+00  0.00000000000E+00 -0.16729559638E+04  0.16729559639E+04  0.50400001928E-02 0. -1.
    10030    2    1    2    0    0  0.00000000000E+00  0.00000000000E+00  0.59292675684E+03  0.39388386845E+04  0.38939553213E+04 0.  0.
        2    1    3    3  502    0  0.73422304857E+03 -0.17552045095E+04  0.71462362361E+03  0.20323664233E+04  0.25500000920E-02 0.  1.
       -2    1    3    3    0  502 -0.73422304857E+03  0.17552045095E+04 -0.12169686677E+03  0.19064722612E+04  0.25500000920E-02 0. -1.
</event>
<event>
 5   0  0.1164500E-08  0.3891338E+04  0.7818609E-02  0.8026833E-01
       -1   -1    0    0    0  501  0.00000000000E+00  0.00000000000E+00  0.23214471818E+04  0.23214471818E+04  0.50400001928E-02 0.  1.
        1   -1    0    0  501    0  0.00000000000E+00  0.00000000000E+00 -0.16307192312E+04  0.16307192312E+04  0.50400001928E-02 0. -1.
    10030    2    1    2    0    0  0.00000000000E+00  0.00000000000E+00  0.69072795064E+03  0.39521664130E+04  0.38913383628E+04 0.  0.
        1    1    3    3  502    0 -0.16048481262E+04  0.32435499844E+03  0.14129300020E+04  0.21626638351E+04  0.50400001928E-02 0.  1.
       -1    1    3    3    0  502  0.16048481262E+04 -0.32435499844E+03 -0.72220205138E+03  0.17895025778E+04  0.50400001928E-02 0. -1.
</event>
<event>
 5   0  0.3769985E-08  0.3895638E+04  0.7818609E-02  0.8025937E-01
        2   -1    0    0  501    0  0.00000000000E+00  0.00000000000E+00  0.24976118235E+04  0.24976118235E+04  0.25500000920E-02 0.  1.
       -2   -1    0    0    0  501  0.00000000000E+00  0.00000000000E+00 -0.15190505923E+04  0.15190505923E+04  0.25500000920E-02 0. -1.
    10030    2    1    2    0    0  0.00000000000E+00  0.00000000000E+00  0.97856123119E+03  0.40166624158E+04  0.38956379297E+04 0.  0.
        1    1    3    3  502    0 -0.34746331370E+03  0.12601772551E+04  0.19781713185E+04  0.23710628912E+04  0.50400001928E-02 0.  1.
       -1    1    3    3    0  502  0.34746331370E+03 -0.12601772551E+04 -0.99961008727E+03  0.16455995246E+04  0.50400001928E-02 0. -1.
</event>
<event>
 5   0  0.1164500E-08  0.3887893E+04  0.7818609E-02  0.8027552E-01
        1   -1    0    0  501    0  0.00000000000E+00  0.00000000000E+00  0.25035854860E+04  0.25035854860E+04  0.50400001928E-02 0. -1.
       -1   -1    0    0    0  501  0.00000000000E+00  0.00000000000E+00 -0.15094060897E+04  0.15094060897E+04  0.50400001928E-02 0.  1.
    10030    2    1    2    0    0  0.00000000000E+00  0.00000000000E+00  0.99417939631E+03  0.40129915757E+04  0.38878925801E+04 0.  0.
        3    1    3    3  502    0 -0.13912779153E+04 -0.19090185358E+03  0.18845244451E+04  0.23502191705E+04  0.10100000352E+00 0. -1.
       -3    1    3    3    0  502  0.13912779153E+04  0.19090185358E+03 -0.89034504880E+03  0.16627724051E+04  0.10100000352E+00 0.  1.
</event>
<event>
 5   0  0.3872969E-08  0.3898573E+04  0.7818609E-02  0.8025326E-01
       -2   -1    0    0    0  501  0.00000000000E+00  0.00000000000E+00  0.19847911110E+04  0.19847911110E+04  0.25500000920E-02 0.  1.
        2   -1    0    0  501    0  0.00000000000E+00  0.00000000000E+00 -0.19144168212E+04  0.19144168212E+04  0.25500000920E-02 0. -1.
    10030    2    1    2    0    0  0.00000000000E+00  0.00000000000E+00  0.70374289781E+02  0.38992079322E+04  0.38985728104E+04 0.  0.
        2    1    3    3  502    0 -0.59454293973E+03 -0.13489282152E+04  0.13107885279E+04  0.19726264730E+04  0.25500000920E-02 0.  1.
       -2    1    3    3    0  502  0.59454293973E+03  0.13489282152E+04 -0.12404142381E+04  0.19265814592E+04  0.25500000920E-02 0. -1.
</event>
<event>
 5   0  0.1164500E-08  0.3904738E+04  0.7818609E-02  0.8024045E-01
        1   -1    0    0  501    0  0.00000000000E+00  0.00000000000E+00  0.21110078990E+04  0.21110078990E+04  0.50400001928E-02 0. -1.
       -1   -1    0    0    0  501  0.00000000000E+00  0.00000000000E+00 -0.18056513503E+04  0.18056513503E+04  0.50400001928E-02 0.  1.
    10030    2    1    2    0    0  0.00000000000E+00  0.00000000000E+00  0.30535654871E+03  0.39166592493E+04  0.39047377701E+04 0.  0.
        5    1    3    3  502    0 -0.43600885697E+03 -0.19029427708E+04  0.13194487878E+03  0.19567131761E+04  0.46999998093E+01 0.  1.
       -5    1    3    3    0  502  0.43600885697E+03  0.19029427708E+04  0.17341166993E+03  0.19599460732E+04  0.46999998093E+01 0. -1.
</event>
<event>
 5   0  0.3724293E-08  0.3899674E+04  0.7818609E-02  0.8025097E-01
        2   -1    0    0  501    0  0.00000000000E+00  0.00000000000E+00  0.23302927124E+04  0.23302927124E+04  0.25500000920E-02 0. -1.
       -2   -1    0    0    0  501  0.00000000000E+00  0.00000000000E+00 -0.16314963694E+04  0.16314963694E+04  0.25500000920E-02 0.  1.
    10030    2    1    2    0    0  0.00000000000E+00  0.00000000000E+00  0.69879634299E+03  0.39617890819E+04  0.38996738838E+04 0.  0.
        4    1    3    3  502    0 -0.89611617990E+03  0.16502976537E+04  0.88250013294E+03  0.20749252158E+04  0.12699999809E+01 0. -1.
       -4    1    3    3    0  502  0.89611617990E+03 -0.16502976537E+04 -0.18370378995E+03  0.18868638661E+04  0.12699999809E+01 0.  1.
</event>
<event>
 5   0  0.3769985E-08  0.3886791E+04  0.7818609E-02  0.8027782E-01
       -2   -1    0    0    0  501  0.00000000000E+00  0.00000000000E+00  0.16777375072E+04  0.16777375072E+04  0.25500000920E-02 0. -1.
        2   -1    0    0  501    0  0.00000000000E+00  0.00000000000E+00 -0.22511182250E+04  0.22511182250E+04  0.25500000920E-02 0.  1.
    10030    2    1    2    0    0  0.00000000000E+00  0.00000000000E+00 -0.57338071787E+03  0.39288557322E+04  0.38867906963E+04 0.  0.
        1    1    3    3  502    0 -0.19519005756E+03 -0.17450827423E+04  0.55501142427E+03  0.18415891554E+04  0.50400001928E-02 0. -1.
       -1    1    3    3    0  502  0.19519005756E+03  0.17450827423E+04 -0.11283921421E+04  0.20872665768E+04  0.50400001928E-02 0.  1.
</event>
<event>
 5   0  0.3769985E-08  0.3900239E+04  0.7818609E-02  0.8024979E-01
       -2   -1    0    0    0  501  0.00000000000E+00  0.00000000000E+00  0.24707507933E+04  0.24707507933E+04  0.25500000920E-02 0.  1.
        2   -1    0    0  501    0  0.00000000000E+00  0.00000000000E+00 -0.15391945429E+04  0.15391945429E+04  0.25500000920E-02 0. -1.
    10030    2    1    2    0    0  0.00000000000E+00  0.00000000000E+00  0.93155625040E+03  0.40099453363E+04  0.39002390378E+04 0.  0.
        1    1    3    3  502    0  0.72639670517E+03 -0.15996022813E+04 -0.40454703838E+03  0.18027861598E+04  0.50400001928E-02 0. -1.
       -1    1    3    3    0  502 -0.72639670517E+03  0.15996022813E+04  0.13361032888E+04  0.22071591764E+04  0.50400001928E-02 0.  1.
</event>
<event>
 5   0  0.1164500E-08  0.3908605E+04  0.7818609E-02  0.8023242E-01
        1   -1    0    0  501    0  0.00000000000E+00  0.00000000000E+00  0.19213423723E+04  0.19213423723E+04  0.50400001928E-02 0.  1.
       -1   -1    0    0    0  501  0.00000000000E+00  0.00000000000E+00 -0.19878281413E+04  0.19878281413E+04  0.50400001928E-02 0. -1.
    10030    2    1    2    0    0  0.00000000000E+00  0.00000000000E+00 -0.66485769062E+02  0.39091705136E+04  0.39086050897E+04 0.  0.
        4    1    3    3  502    0  0.29662987442E+03  0.19140550568E+03 -0.19556737684E+04  0.19872812713E+04  0.12699999809E+01 0. -1.
       -4    1    3    3    0  502 -0.29662987442E+03 -0.19140550568E+03  0.18891879993E+04  0.19218892423E+04  0.12699999809E+01 0.  1.
</event>
<event>
 5   0  0.3724293E-08  0.3896419E+04  0.7818609E-02  0.8025774E-01
        2   -1    0    0  501    0  0.00000000000E+00  0.00000000000E+00  0.16865007593E+04  0.16865007593E+04  0.25500000920E-02 0. -1.
       -2   -1    0    0    0  501  0.00000000000E+00  0.00000000000E+00 -0.22505295774E+04  0.22505295774E+04  0.25500000920E-02 0.  1.
    10030    2    1    2    0    0  0.00000000000E+00  0.00000000000E+00 -0.56402881811E+03  0.39370303367E+04  0.38964187871E+04 0.  0.
        4    1    3    3  502    0  0.32119985797E+03 -0.29061355812E+03 -0.22012572770E+04  0.22434707044E+04  0.12699999809E+01 0.  1.
       -4    1    3    3    0  502 -0.32119985797E+03  0.29061355812E+03  0.16372284589E+04  0.16935596324E+04  0.12699999809E+01 0. -1.
</event>
<event>
 5   0  0.3724293E-08  0.3911236E+04  0.7818609E-02  0.8022696E-01
       -2   -1    0    0    0  501  0.00000000000E+00  0.00000000000E+00  0.19457874036E+04  0.19457874036E+04  0.25500000920E-02 0. -1.
        2   -1    0    0  501    0  0.00000000000E+00  0.00000000000E+00 -0.19654979446E+04  0.19654979446E+04  0.25500000920E-02 0.  1.
    10030    2    1    2    0    0  0.00000000000E+00  0.00000000000E+00 -0.19710541006E+02  0.39112853482E+04  0.39112356832E+04 0.  0.
        4    1    3    3  502    0 -0.14407097402E+04 -0.12467305122E+04 -0.45083479661E+03  0.19578649474E+04  0.12699999809E+01 0.  1.
       -4    1    3    3    0  502  0.14407097402E+04  0.12467305122E+04  0.43112425561E+03  0.19534204008E+04  0.12699999809E+01 0. -1.
</event>
<event>
 5   0  0.1164500E-08  0.3904193E+04  0.7818609E-02  0.8024158E-01
       -1   -1    0    0    0  501  0.00000000000E+00  0.00000000000E+00  0.21345090559E+04  0.21345090559E+04  0.50400001928E-02 0. -1.
        1   -1    0    0  501    0  0.00000000000E+00  0.00000000000E+00 -0.17852728493E+04  0.17852728493E+04  0.50400001928E-02 0.  1.
    10030    2    1    2    0    0  0.00000000000E+00  0.00000000000E+00  0.34923620662E+03  0.39197819052E+04  0.39041931633E+04 0.  0.
        2    1    3    3  502    0  0.98532064860E+03 -0.10668455169E+04 -0.11350692411E+04  0.18432032768E+04  0.25500000920E-02 0.  1.
       -2    1    3    3    0  502 -0.98532064860E+03  0.10668455169E+04  0.14843054477E+04  0.20765786284E+04  0.25500000920E-02 0. -1.
</event>
<event>
 5   0  0.3769985E-08  0.3902719E+04  0.7818609E-02  0.8024464E-01
       -2   -1    0    0    0  501  0.00000000000E+00  0.00000000000E+00  0.28302356161E+04  0.28302356161E+04  0.25500000920E-02 0.  1.
        2   -1    0    0  501    0  0.00000000000E+00  0.00000000000E+00 -0.13454014275E+04  0.13454014275E+04  0.25500000920E-02 0. -1.
    10030    2    1    2    0    0  0.00000000000E+00  0.00000000000E+00  0.14848341885E+04  0.41756370436E+04  0.39027185592E+04 0.  0.
        1    1    3    3  502    0  0.11244138481E+03 -0.95430137039E+03  0.25595572932E+04  0.27339838529E+04  0.50400001928E-02 0.  1.
       -1    1    3    3    0  502 -0.11244138481E+03  0.95430137039E+03 -0.10747231047E+04  0.14416531907E+04  0.50400001928E-02 0. -1.
</event>
<event>
 5   0  0.1164500E-08  0.3898329E+04  0.7818609E-02  0.8025377E-01
        1   -1    0    0  501    0  0.00000000000E+00  0.00000000000E+00  0.15961680768E+04  0.15961680768E+04  0.50400001928E-02 0.  1.
       -1   -1    0    0    0  501  0.00000000000E+00  0.00000000000E+00 -0.23802273050E+04  0.23802273050E+04  0.50400001928E-02 0. -1.
    10030    2    1    2    0    0  0.00000000000E+00  0.00000000000E+00 -0.78405922824E+03  0.39763953818E+04  0.38983293036E+04 0.  0.
        5    1    3    3  502    0 -0.13179436003E+04 -0.41202176122E+03 -0.17952538833E+04  0.22648831892E+04  0.46999998093E+01 0. -1.
       -5    1    3    3    0  502  0.13179436003E+04  0.41202176122E+03  0.10111946550E+04  0.17115121927E+04  0.46999998093E+01 0.  1.
</event>
<event>
 5   0  0.1164500E-08  0.3902008E+04  0.7818609E-02  0.8024612E-01
       -1   -1    0    0    0  501  0.00000000000E+00  0.00000000000E+00  0.15318240047E+04  0.15318240047E+04  0.50400001928E-02 0.  1.
        1   -1    0    0  501    0  0.00000000000E+00  0.00000000000E+00 -0.24848919003E+04  0.24848919003E+04  0.50400001928E-02 0. -1.
    10030    2    1    2    0    0  0.00000000000E+00  0.00000000000E+00 -0.95306789565E+03  0.40167159050E+04  0.39020082327E+04 0.  0.
        5    1    3    3  502    0 -0.18590884335E+04 -0.57170979907E+03 -0.31929181960E+03  0.19710482627E+04  0.46999998093E+01 0.  1.
       -5    1    3    3    0  502  0.18590884335E+04  0.57170979907E+03 -0.63377607605E+03  0.20456676423E+04  0.46999998093E+01 0. -1.
</event>
<event>
 5   0  0.1164500E-08  0.3903837E+04  0.7818609E-02  0.8024232E-01
        1   -1    0    0  501    0  0.00000000000E+00  0.00000000000E+00  0.17427334939E+04  0.17427334939E+04  0.50400001928E-02 0. -1.
       -1   -1    0    0    0  501  0.00000000000E+00  0.00000000000E+00 -0.21862125205E+04  0.21862125205E+04  0.50400001928E-02 0.  1.
    10030    2    1    2    0    0  0.00000000000E+00  0.00000000000E+00 -0.44347902657E+03  0.39289460144E+04  0.39038369762E+04 0.  0.
        5    1    3    3  502    0  0.16741957717E+04 -0.29333039303E+03  0.74411502747E+03  0.18554523615E+04  0.46999998093E+01 0. -1.
       -5    1    3    3    0  502 -0.16741957717E+04  0.29333039303E+03 -0.11875940540E+04  0.20734936529E+04  0.46999998093E+01 0.  1.
</event>
<event>
 5   0  0.1164500E-08  0.3902804E+04  0.7818609E-02  0.8024446E-01
        1   -1    0    0  501    0  0.00000000000E+00  0.00000000000E+00  0.30365114918E+04  0.30365114918E+04  0.50400001928E-02 0. -1.
       -1   -1    0    0    0  501  0.00000000000E+00  0.00000000000E+00 -0.12540605368E+04  0.12540605368E+04  0.50400001928E-02 0.  1.
    10030    2    1    2    0    0  0.00000000000E+00  0.00000000000E+00  0.17824509550E+04  0.42905720285E+04  0.39028037262E+04 0.  0.
        2    1    3    3  502    0  0.71505930705E+03  0.10714950304E+04  0.25026575707E+04  0.28147302409E+04  0.25500000920E-02 0. -1.
       -2    1    3    3    0  502 -0.71505930705E+03 -0.10714950304E+04 -0.72020661571E+03  0.14758417876E+04  0.25500000920E-02 0.  1.
</event>
<event>
 5   0  0.3690572E-08  0.3894639E+04  0.7818609E-02  0.8026145E-01
        2   -1    0    0  501    0  0.00000000000E+00  0.00000000000E+00  0.27222508685E+04  0.27222508685E+04  0.25500000920E-02 0.  1.
       -2   -1    0    0    0  501  0.00000000000E+00  0.00000000000E+00 -0.13929848284E+04  0.13929848284E+04  0.25500000920E-02 0. -1.
    10030    2    1    2    0    0  0.00000000000E+00  0.00000000000E+00  0.13292660402E+04  0.41152356969E+04  0.38946394744E+04 0.  0.
        3    1    3    3  502    0  0.13243942221E+03  0.16427330437E+04 -0.43139561902E+03  0.17035886369E+04  0.10100000352E+00 0. -1.
       -3    1    3    3    0  502 -0.13243942221E+03 -0.16427330437E+04  0.17606616592E+04  0.24116470600E+04  0.10100000352E+00 0.  1.
</event>
<event>
 5   0  0.3669347E-08  0.3896656E+04  0.7818609E-02  0.8025725E-01
        2   -1    0    0  501    0  0.00000000000E+00  0.00000000000E+00  0.21231640974E+04  0.21231640974E+04  0.25500000920E-02 0.  1.
       -2   -1    0    0    0  501  0.00000000000E+00  0.00000000000E+00 -0.17878887440E+04  0.17878887440E+04  0.25500000920E-02 0. -1.
    10030    2    1    2    0    0  0.00000000000E+00  0.00000000000E+00  0.33527535342E+03  0.39110528414E+04  0.38966555873E+04 0.  0.
        5    1    3    3  502    0 -0.11514931579E+04  0.15557897406E+04 -0.55762531420E+02  0.19363754180E+04  0.46999998093E+01 0.  1.
       -5    1    3    3    0  502  0.11514931579E+04 -0.15557897406E+04  0.39103788484E+03  0.19746774235E+04  0.46999998093E+01 0. -1.
</event>
<event>
 5   0  0.3872969E-08  0.3889556E+04  0.7818609E-02  0.8027205E-01
        2   -1    0    0  501    0  0.00000000000E+00  0.00000000000E+00  0.25664413773E+04  0.25664413773E+04  0.25500000920E-02 0. -1.
       -2   -1    0    0    0  501  0.00000000000E+00  0.00000000000E+00 -0.14736989410E+04  0.14736989410E+04  0.25500000920E-02 0.  1.
    10030    2    1    2    0    0  0.00000000000E+00  0.00000000000E+00  0.10927424364E+04  0.40401403183E+04  0.38895562419E+04 0.  0.
        2    1    3    3  502    0 -0.13952953136E+03 -0.17862108791E+04  0.13320574130E+04  0.22325758097E+04  0.25500000920E-02 0. -1.
       -2    1    3    3    0  502  0.13952953136E+03  0.17862108791E+04 -0.23931497665E+03  0.18075645086E+04  0.25500000920E-02 0.  1.
</event>
<event>
 5   0  0.1164500E-08  0.3901098E+04  0.7818609E-02  0.8024801E-01
        1   -1    0    0  501    0  0.00000000000E+00  0.00000000000E+00  0.27671774982E+04  0.27671774982E+04  0.50400001928E-02 0.  1.
       -1   -1    0    0    0  501  0.00000000000E+00  0.00000000000E+00 -0.13749178413E+04  0.13749178413E+04  0.50400001928E-02 0. -1.
    10030    2    1    2    0    0  0.00000000000E+00  0.00000000000E+00  0.13922596569E+04  0.41420953395E+04  0.39010981593E+04 0.  0.
        4    1    3    3  502    0 -0.59478925011E+03 -0.18200947386E+04  0.10907352554E+04  0.22036842151E+04  0.12699999809E+01 0.  1.
       -4    1    3    3    0  502  0.59478925011E+03  0.18200947386E+04  0.30152440154E+03  0.19384111244E+04  0.12699999809E+01 0. -1.
</event>
<event>
 5   0  0.3769985E-08  0.3907037E+04  0.7818609E-02  0.8023567E-01
       -2   -1    0    0    0  501  0.00000000000E+00  0.00000000000E+00  0.16365170121E+04  0.16365170121E+04  0.25500000920E-02 0. -1.
        2   -1    0    0  501    0  0.00000000000E+00  0.00000000000E+00 -0.23319253061E+04  0.23319253061E+04  0.25500000920E-02 0.  1.
    10030    2    1    2    0    0  0.00000000000E+00  0.00000000000E+00 -0.69540829402E+03  0.39684423182E+04  0.39070374631E+04 0.  0.
        1    1    3    3  502    0  0.11214358904E+04  0.95330958093E+03  0.95693525851E+03  0.17556032303E+04  0.50400001928E-02 0. -1.
       -1    1    3    3    0  502 -0.11214358904E+04 -0.95330958093E+03 -0.16523435525E+04  0.22128390879E+04  0.50400001928E-02 0.  1.
</event>
<event>
 5   0  0.1164500E-08  0.3900510E+04  0.7818609E-02  0.8024923E-01
        1   -1    0    0  501    0  0.00000000000E+00  0.00000000000E+00  0.19983554716E+04  0.19983554716E+04  0.50400001928E-02 0.  1.
       -1   -1    0    0    0  501  0.00000000000E+00  0.00000000000E+00 -0.19033121047E+04  0.19033121047E+04  0.50400001928E-02 0. -1.
    10030    2    1    2    0    0  0.00000000000E+00  0.00000000000E+00  0.95043366933E+02  0.39016675763E+04  0.39005097915E+04 0.  0.
        2    1    3    3  502    0  0.58139689554E+03  0.78527475909E+03  0.17358660898E+04  0.19919613147E+04  0.25500000920E-02 0.  1.
       -2    1    3    3    0  502 -0.58139689554E+03 -0.78527475909E+03 -0.16408227229E+04  0.19097062616E+04  0.25500000920E-02 0. -1.
</event>
<event>
 5   0  0.1164500E-08  0.3903899E+04  0.7818609E-02  0.8024219E-01
       -1   -1    0    0    0  501  0.00000000000E+00  0.00000000000E+00  0.21619354024E+04  0.21619354024E+04  0.50400001928E-02 0. -1.
        1   -1    0    0  501    0  0.00000000000E+00  0.00000000000E+00 -0.17623591506E+04  0.17623591507E+04  0.50400001928E-02 0.  1.
    10030    2    1    2    0    0  0.00000000000E+00  0.00000000000E+00  0.39957625178E+03  0.39242945531E+04  0.39038988919E+04 0.  0.
        1    1    3    3  502    0  0.64587129463E+03 -0.86423962416E+03 -0.14353776754E+04  0.17956527861E+04  0.50400001928E-02 0.  1.
       -1    1    3    3    0  502 -0.64587129463E+03  0.86423962416E+03  0.18349539272E+04  0.21286417670E+04  0.50400001928E-02 0. -1.
</event>
<event>
 5   0  0.1164500E-08  0.3904012E+04  0.7818609E-02  0.8024195E-01
        1   -1    0    0  501    0  0.00000000000E+00  0.00000000000E+00  0.21785087296E+04  0.21785087296E+04  0.50400001928E-02 0.  1.
       -1   -1    0    0    0  501  0.00000000000E+00  0.00000000000E+00 -0.17490534697E+04  0.17490534697E+04  0.50400001928E-02 0. -1.
    10030    2    1    2    0    0  0.00000000000E+00  0.00000000000E+00  0.42945525989E+03  0.39275621994E+04  0.39040124244E+04 0.  0.
        3    1    3    3  502    0 -0.14949698225E+04 -0.47869948731E+03  0.13820025907E+04  0.20914155829E+04  0.10100000352E+00 0.  1.
       -3    1    3    3    0  502  0.14949698225E+04  0.47869948731E+03 -0.95254733085E+03  0.18361466165E+04  0.10100000352E+00 0. -1.
</event>
<event>
 5   0  0.1164500E-08  0.3901990E+04  0.7818609E-02  0.8024615E-01
       -1   -1    0    0    0  501  0.00000000000E+00  0.00000000000E+00  0.21220007088E+04  0.21220007088E+04  0.50400001928E-02 0.  1.
        1   -1    0    0  501    0  0.00000000000E+00  0.00000000000E+00 -0.17937701503E+04  0.17937701503E+04  0.50400001928E-02 0. -1.
    10030    2    1    2    0    0  0.00000000000E+00  0.00000000000E+00  0.32823055847E+03  0.39157708591E+04  0.39019900206E+04 0.  0.
        2    1    3    3  502    0 -0.16004830304E+04 -0.10135772218E+04 -0.30389734375E+03  0.19186553392E+04  0.25500000920E-02 0. -1.
       -2    1    3    3    0  502  0.16004830304E+04  0.10135772218E+04  0.63212790223E+03  0.19971155199E+04  0.25500000920E-02 0.  1.
</event>
<event>
 5   0  0.1164500E-08  0.3904178E+04  0.7818609E-02  0.8024161E-01
        1   -1    0    0  501    0  0.00000000000E+00  0.00000000000E+00  0.20387655389E+04  0.20387655389E+04  0.50400001928E-02 0.  1.
       -1   -1    0    0    0  501  0.00000000000E+00  0.00000000000E+00 -0.18690977041E+04  0.18690977041E+04  0.50400001928E-02 0. -1.
    10030    2    1    2    0    0  0.00000000000E+00  0.00000000000E+00  0.16966783484E+03  0.39078632431E+04  0.39041782685E+04 0.  0.
        3    1    3    3  502    0  0.16288947527E+04 -0.73954898130E+03 -0.69719805610E+03  0.19199781120E+04  0.10100000352E+00 0. -1.
       -3    1    3    3    0  502 -0.16288947527E+04  0.73954898130E+03  0.86686589093E+03  0.19878851310E+04  0.10100000352E+00 0.  1.
</event>
<event>
 5   0  0.1164500E-08  0.3886288E+04  0.7818609E-02  0.8027887E-01
        1   -1    0    0  501    0  0.00000000000E+00  0.00000000000E+00  0.17667148930E+04  0.17667148930E+04  0.50400001928E-02 0. -1.
       -1   -1    0    0    0  501  0.00000000000E+00  0.00000000000E+00 -0.21371913570E+04  0.21371913570E+04  0.50400001928E-02 0.  1.
    10030    2    1    2    0    0  0.00000000000E+00  0.00000000000E+00 -0.37047646405E+03  0.39039062500E+04  0.38862875857E+04 0.  0.
        1    1    3    3  502    0  0.33444917148E+03  0.10843561766E+04  0.13992914823E+04  0.18015829757E+04  0.50400001928E-02 0. -1.
       -1    1    3    3    0  502 -0.33444917148E+03 -0.10843561766E+04 -0.17697679463E+04  0.21023232743E+04  0.50400001928E-02 0.  1.
</event>
<event>
 5   0  0.1164500E-08  0.3918736E+04  0.7818609E-02  0.8021144E-01
       -1   -1    0    0    0  501  0.00000000000E+00  0.00000000000E+00  0.33359610522E+04  0.33359610523E+04  0.50400001928E-02 0.  1.
        1   -1    0    0  501    0  0.00000000000E+00  0.00000000000E+00 -0.11508296389E+04  0.11508296389E+04  0.50400001928E-02 0. -1.
    10030    2    1    2    0    0  0.00000000000E+00  0.00000000000E+00  0.21851314134E+04  0.44867906911E+04  0.39187359457E+04 0.  0.
        2    1    3    3  502    0 -0.48563912939E+03  0.99652137294E+03 -0.75725052460E+03  0.13425083120E+04  0.25500000920E-02 0. -1.
       -2    1    3    3    0  502  0.48563912939E+03 -0.99652137294E+03  0.29423819380E+04  0.31442823791E+04  0.25500000920E-02 0.  1.
</event>
<event>
 5   0  0.3872969E-08  0.3891052E+04  0.7818609E-02  0.8026893E-01
       -2   -1    0    0    0  501  0.00000000000E+00  0.00000000000E+00  0.19078641390E+04  0.19078641390E+04  0.25500000920E-02 0.  1.
        2   -1    0    0  501    0  0.00000000000E+00  0.00000000000E+00 -0.19839310337E+04  0.19839310337E+04  0.25500000920E-02 0. -1.
    10030    2    1    2    0    0  0.00000000000E+00  0.00000000000E+00 -0.76066894655E+02  0.38917951728E+04  0.38910517208E+04 0.  0.
        2    1    3    3  502    0  0.10975072658E+03 -0.53332093748E+03  0.18301013625E+04  0.19093840476E+04  0.25500000920E-02 0.  1.
       -2    1    3    3    0  502 -0.10975072658E+03  0.53332093748E+03 -0.19061682572E+04  0.19824111251E+04  0.25500000920E-02 0. -1.
</event>
<event>
 5   0  0.1164500E-08  0.3900181E+04  0.7818609E-02  0.8024992E-01
       -1   -1    0    0    0  501  0.00000000000E+00  0.00000000000E+00  0.23539818754E+04  0.23539818754E+04  0.50400001928E-02 0.  1.
        1   -1    0    0  501    0  0.00000000000E+00  0.00000000000E+00 -0.16154976803E+04  0.16154976803E+04  0.50400001928E-02 0. -1.
    10030    2    1    2    0    0  0.00000000000E+00  0.00000000000E+00  0.73848419519E+03  0.39694795557E+04  0.39001806415E+04 0.  0.
        2    1    3    3  502    0 -0.12326145617E+04  0.94870914691E+03  0.15663488092E+04  0.22074501796E+04  0.25500000920E-02 0.  1.
       -2    1    3    3    0  502  0.12326145617E+04 -0.94870914691E+03 -0.82786461402E+03  0.17620293761E+04  0.25500000920E-02 0. -1.
</event>
<event>
 5   0  0.1164500E-08  0.3903532E+04  0.7818609E-02  0.8024295E-01
       -1   -1    0    0    0  501  0.00000000000E+00  0.00000000000E+00  0.18152054819E+04  0.18152054819E+04  0.50400001928E-02 0.  1.
        1   -1    0    0  501    0  0.00000000000E+00  0.00000000000E+00 -0.20985996334E+04  0.20985996335E+04  0.50400001928E-02 0. -1.
    10030    2    1    2    0    0  0.00000000000E+00  0.00000000000E+00 -0.28339415158E+03  0.39138051153E+04  0.39035315082E+04 0.  0.
        5    1    3    3  502    0  0.10936568674E+04 -0.15758819756E+04 -0.50303164331E+03  0.19830663804E+04  0.46999998093E+01 0.  1.
       -5    1    3    3    0  502 -0.10936568674E+04  0.15758819756E+04  0.21963749173E+03  0.19307387349E+04  0.46999998093E+01 0. -1.
</event>
<event>
 5   0  0.3690572E-08  0.3905098E+04  0.7818609E-02  0.8023970E-01
        2   -1    0    0  501    0  0.00000000000E+00  0.00000000000E+00  0.13331526832E+04  0.13331526832E+04  0.25500000920E-02 0. -1.
       -2   -1    0    0    0  501  0.00000000000E+00  0.00000000000E+00 -0.28597226623E+04  0.28597226623E+04  0.25500000920E-02 0.  1.
    10030    2    1    2    0    0  0.00000000000E+00  0.00000000000E+00 -0.15265699791E+04  0.41928753455E+04  0.39050976635E+04 0.  0.
        3    1    3    3  502    0  0.24933145344E+03 -0.71522722378E+02 -0.28411414560E+04  0.28529574930E+04  0.10100000352E+00 0.  1.
       -3    1    3    3    0  502 -0.24933145344E+03  0.71522722378E+02  0.13145714769E+04  0.13399178525E+04  0.10100000352E+00 0. -1.
</event>
<event>
 5   0  0.3690572E-08  0.3895962E+04  0.7818609E-02  0.8025870E-01
        2   -1    0    0  501    0  0.00000000000E+00  0.00000000000E+00  0.20504355675E+04  0.20504355675E+04  0.25500000920E-02 0. -1.
       -2   -1    0    0    0  501  0.00000000000E+00  0.00000000000E+00 -0.18506459016E+04  0.18506459016E+04  0.25500000920E-02 0.  1.
    10030    2    1    2    0    0  0.00000000000E+00  0.00000000000E+00  0.19978966585E+03  0.39010814691E+04  0.38959621043E+04 0.  0.
        3    1    3    3  502    0  0.89954158621E+03  0.12830637260E+04 -0.10588650060E+04  0.18911961034E+04  0.10100000352E+00 0.  1.
       -3    1    3    3    0  502 -0.89954158621E+03 -0.12830637260E+04  0.12586546719E+04  0.20098853658E+04  0.10100000352E+00 0. -1.
</event>
<event>
 5   0  0.3724293E-08  0.3900738E+04  0.7818609E-02  0.8024876E-01
        2   -1    0    0  501    0  0.00000000000E+00  0.00000000000E+00  0.29156584524E+04  0.29156584524E+04  0.25500000920E-02 0.  1.
       -2   -1    0    0    0  501  0.00000000000E+00  0.00000000000E+00 -0.13046587073E+04  0.13046587073E+04  0.25500000920E-02 0. -1.
    10030    2    1    2    0    0  0.00000000000E+00  0.00000000000E+00  0.16109997450E+04  0.42203171597E+04  0.39007379750E+04 0.  0.
        4    1    3    3  502    0  0.42949020896E+03  0.10276018798E+04 -0.92677110303E+03  0.14489077794E+04  0.12699999809E+01 0. -1.
       -4    1    3    3    0  502 -0.42949020896E+03 -0.10276018798E+04  0.25377708481E+04  0.27714093803E+04  0.12699999809E+01 0.  1.
</event>
<event>
 5   0  0.3690572E-08  0.3898345E+04  0.7818609E-02  0.8025373E-01
       -2   -1    0    0    0  501  0.00000000000E+00  0.00000000000E+00  0.18297543467E+04  0.18297543467E+04  0.25500000920E-02 0.  1.
        2   -1    0    0  501    0  0.00000000000E+00  0.00000000000E+00 -0.20763845364E+04  0.20763845364E+04  0.25500000920E-02 0. -1.
    10030    2    1    2    0    0  0.00000000000E+00  0.00000000000E+00 -0.24663018977E+03  0.39061388831E+04  0.38983451006E+04 0.  0.
        3    1    3    3  502    0  0.13299015961E+04  0.13215729412E+04  0.41074235471E+03  0.19193495217E+04  0.10100000352E+00 0.  1.
       -3    1    3    3    0  502 -0.13299015961E+04 -0.13215729412E+04 -0.65737254448E+03  0.19867893614E+04  0.10100000352E+00 0. -1.
</event>
<event>
 5   0  0.3769985E-08  0.3905669E+04  0.7818609E-02  0.8023851E-01
       -2   -1    0    0    0  501  0.00000000000E+00  0.00000000000E+00  0.23693247113E+04  0.23693247113E+04  0.25500000920E-02 0.  1.
        2   -1    0    0  501    0  0.00000000000E+00  0.00000000000E+00 -0.16095564250E+04  0.16095564250E+04  0.25500000920E-02 0. -1.
    10030    2    1    2    0    0  0.00000000000E+00  0.00000000000E+00  0.75976828639E+03  0.39788811363E+04  0.39056686045E+04 0.  0.
        1    1    3    3  502    0  0.18450708055E+04 -0.49562025890E+03 -0.32218240455E+02  0.19107495213E+04  0.50400001928E-02 0. -1.
       -1    1    3    3    0  502 -0.18450708055E+04  0.49562025890E+03  0.79198652684E+03  0.20681316150E+04  0.50400001928E-02 0.  1.
</event>
<event>
 5   0  0.3669347E-08  0.3905529E+04  0.7818609E-02  0.8023880E-01
       -2   -1    0    0    0  501  0.00000000000E+00  0.00000000000E+00  0.17098373704E+04  0.17098373704E+04  0.25500000920E-02 0. -1.
        2   -1    0    0  501    0  0.00000000000E+00  0.00000000000E+00 -0.22302055539E+04  0.22302055539E+04  0.25500000920E-02 0.  1.
    10030    2    1    2    0    0  0.00000000000E+00  0.00000000000E+00 -0.52036818350E+03  0.39400429242E+04  0.39055287988E+04 0.  0.
        5    1    3    3  502    0 -0.29822289323E+03  0.18852631373E+04  0.15590803815E+03  0.19150674654E+04  0.46999998093E+01 0. -1.
       -5    1    3    3    0  502  0.29822289323E+03 -0.18852631373E+04 -0.67627622165E+03  0.20249754588E+04  0.46999998093E+01 0.  1.
</event>
<event>
 5   0  0.3669347E-08  0.3876674E+04  0.7818609E-02  0.8029898E-01
        2   -1    0    0  501    0  0.00000000000E+00  0.00000000000E+00  0.17181794352E+04  0.17181794352E+04  0.25500000920E-02 0.  1.
       -2   -1    0    0    0  501  0.00000000000E+00  0.00000000000E+00 -0.21867042882E+04  0.21867042882E+04  0.25500000920E-02 0. -1.
    10030    2    1    2    0    0  0.00000000000E+00  0.00000000000E+00 -0.46852485299E+03  0.39048837234E+04  0.38766740069E+04 0.  0.
        5    1    3    3  502    0  0.66163773232E+03  0.46659709313E+03  0.15397035351E+04  0.17395937463E+04  0.46999998093E+01 0.  1.
       -5    1    3    3    0  502 -0.66163773232E+03 -0.46659709313E+03 -0.20082283881E+04  0.21652899771E+04  0.46999998093E+01 0. -1.
</event>
<event>
 5   0  0.1164500E-08  0.3903186E+04  0.7818609E-02  0.8024367E-01
       -1   -1    0    0    0  501  0.00000000000E+00  0.00000000000E+00  0.14697100856E+04  0.14697100856E+04  0.50400001928E-02 0.  1.
        1   -1    0    0  501    0  0.00000000000E+00  0.00000000000E+00 -0.25914740381E+04  0.25914740381E+04  0.50400001928E-02 0. -1.
    10030    2    1    2    0    0  0.00000000000E+00  0.00000000000E+00 -0.11217639524E+04  0.40611841237E+04  0.39031861500E+04 0.  0.
        5    1    3    3  502    0  0.60580065813E+03  0.11391915120E+04 -0.20843730065E+04  0.24514046297E+04  0.46999998093E+01 0. -1.
       -5    1    3    3    0  502 -0.60580065813E+03 -0.11391915120E+04  0.96260905407E+03  0.16097794940E+04  0.46999998093E+01 0.  1.
</event>
<event>
 5   0  0.1164500E-08  0.3900701E+04  0.7818609E-02  0.8024883E-01
       -1   -1    0    0    0  501  0.00000000000E+00  0.00000000000E+00  0.16541333076E+04  0.16541333077E+04  0.50400001928E-02 0. -1.
        1   -1    0    0  501    0  0.00000000000E+00  0.00000000000E+00 -0.22996136523E+04  0.22996136523E+04  0.50400001928E-02 0.  1.
    10030    2    1    2    0    0  0.00000000000E+00  0.00000000000E+00 -0.64548034465E+03  0.39537469600E+04  0.39007012380E+04 0.  0.
        1    1    3    3  502    0 -0.47019515190E+03 -0.15663250578E+04 -0.13999293267E+04  0.21527330971E+04  0.50400001928E-02 0.  1.
       -1    1    3    3    0  502  0.47019515190E+03  0.15663250578E+04  0.75444898202E+03  0.18010138628E+04  0.50400001928E-02 0. -1.
</event>
<event>
 5   0  0.1164500E-08  0.3893591E+04  0.7818609E-02  0.8026363E-01
       -1   -1    0    0    0  501  0.00000000000E+00  0.00000000000E+00  0.29535167192E+04  0.29535167192E+04  0.50400001928E-02 0. -1.
        1   -1    0    0  501    0  0.00000000000E+00  0.00000000000E+00 -0.12832206458E+04  0.12832206458E+04  0.50400001928E-02 0.  1.
    10030    2    1    2    0    0  0.00000000000E+00  0.00000000000E+00  0.16702960734E+04  0.42367373651E+04  0.38935914690E+04 0.  0.
        3    1    3    3  502    0  0.19569433893E+03  0.12590182053E+04 -0.76650919570E+03  0.14869295454E+04  0.10100000352E+00 0.  1.
       -3    1    3    3    0  502 -0.19569433893E+03 -0.12590182053E+04  0.24368052691E+04  0.27498078197E+04  0.10100000352E+00 0. -1.
</event>
<event>
 5   0  0.1164500E-08  0.3896362E+04  0.7818609E-02  0.8025786E-01
        1   -1    0    0  501    0  0.00000000000E+00  0.00000000000E+00  0.16258241483E+04  0.16258241483E+04  0.50400001928E-02 0.  1.
       -1   -1    0    0    0  501  0.00000000000E+00  0.00000000000E+00 -0.23344519115E+04  0.23344519115E+04  0.50400001928E-02 0. -1.
    10030    2    1    2    0    0  0.00000000000E+00  0.00000000000E+00 -0.70862776318E+03  0.39602760598E+04  0.38963615288E+04 0.  0.
        1    1    3    3  502    0 -0.48277061524E+02  0.48390770038E+03  0.15631393270E+04  0.16370405898E+04  0.50400001928E-02 0.  1.
       -1    1    3    3    0  502  0.48277061524E+02 -0.48390770038E+03 -0.22717670902E+04  0.23232354700E+04  0.50400001928E-02 0. -1.
</event>
<event>
 5   0  0.1164500E-08  0.3903305E+04  0.7818609E-02  0.8024342E-01
        1   -1    0    0  501    0  0.00000000000E+00  0.00000000000E+00  0.16692999078E+04  0.16692999078E+04  0.50400001928E-02 0. -1.
       -1   -1    0    0    0  501  0.00000000000E+00  0.00000000000E+00 -0.22817637722E+04  0.22817637722E+04  0.50400001928E-02 0.  1.
    10030    2    1    2    0    0  0.00000000000E+00  0.00000000000E+00 -0.61246386439E+03  0.39510636800E+04  0.39033052940E+04 0.  0.
        4    1    3    3  502    0 -0.80032524830E+03 -0.10573480782E+04 -0.17556882956E+04  0.22002155499E+04  0.12699999809E+01 0.  1.
       -4    1    3    3    0  502  0.80032524830E+03  0.10573480782E+04  0.11432244312E+04  0.17508481301E+04  0.12699999809E+01 0. -1.
</event>
<event>
 5   0  0.3724293E-08  0.3894912E+04  0.7818609E-02  0.8026088E-01
        2   -1    0    0  501    0  0.00000000000E+00  0.00000000000E+00  0.16509419934E+04  0.16509419934E+04  0.25500000920E-02 0.  1.
       -2   -1    0    0    0  501  0.00000000000E+00  0.00000000000E+00 -0.22972245094E+04  0.22972245094E+04  0.25500000920E-02 0. -1.
    10030    2    1    2    0    0  0.00000000000E+00  0.00000000000E+00 -0.64628251600E+03  0.39481665029E+04  0.38949117633E+04 0.  0.
        4    1    3    3  502    0  0.21541466335E+03  0.21526670331E+03 -0.22729377396E+04  0.22932489641E+04  0.12699999809E+01 0. -1.
       -4    1    3    3    0  502 -0.21541466335E+03 -0.21526670331E+03  0.16266552236E+04  0.16549175387E+04  0.12699999809E+01 0.  1.
</event>
<event>
 5   0  0.3669347E-08  0.3901734E+04  0.7818609E-02  0.8024669E-01
        2   -1    0    0  501    0  0.00000000000E+00  0.00000000000E+00  0.14972236444E+04  0.14972236444E+04  0.25500000920E-02 0. -1.
       -2   -1    0    0    0  501  0.00000000000E+00  0.00000000000E+00 -0.25419596351E+04  0.25419596351E+04  0.25500000920E-02 0.  1.
    10030    2    1    2    0    0  0.00000000000E+00  0.00000000000E+00 -0.10447359907E+04  0.40391832795E+04  0.39017340088E+04 0.  0.
        5    1    3    3  502    0 -0.19383639526E+03 -0.63241345540E+03 -0.24223255734E+04  0.25110162485E+04  0.46999998093E+01 0.  1.
       -5    1    3    3    0  502  0.19383639526E+03  0.63241345540E+03  0.13775895826E+04  0.15281670311E+04  0.46999998093E+01 0. -1.
</event>
<event>
 5   0  0.1164500E-08  0.3899788E+04  0.7818609E-02  0.8025073E-01
       -1   -1    0    0    0  501  0.00000000000E+00  0.00000000000E+00  0.17312224167E+04  0.17312224167E+04  0.50400001928E-02 0. -1.
        1   -1    0    0  501    0  0.00000000000E+00  0.00000000000E+00 -0.21961865539E+04  0.21961865540E+04  0.50400001928E-02 0.  1.
    10030    2    1    2    0    0  0.00000000000E+00  0.00000000000E+00 -0.46496413721E+03  0.39274089707E+04  0.38997884012E+04 0.  0.
        1    1    3    3  502    0  0.34790081906E+02 -0.73016575331E+03  0.15880087815E+04  0.17481774130E+04  0.50400001928E-02 0. -1.
       -1    1    3    3    0  502 -0.34790081906E+02  0.73016575331E+03 -0.20529729187E+04  0.21792315577E+04  0.50400001928E-02 0.  1.
</event>
<event>
 5   0  0.3690572E-08  0.3863444E+04  0.7818609E-02  0.8032675E-01
        2   -1    0    0  501    0  0.00000000000E+00  0.00000000000E+00  0.23183881526E+04  0.23183881526E+04  0.25500000920E-02 0. -1.
       -2   -1    0    0    0  501  0.00000000000E+00  0.00000000000E+00 -0.16095445499E+04  0.16095445499E+04  0.25500000920E-02 0.  1.
    10030    2    1    2    0    0  0.00000000000E+00  0.00000000000E+00  0.70884360264E+03  0.39279327025E+04  0.38634435498E+04 0.  0.
        3    1    3    3  502    0  0.15669505529E+04  0.14495503864E+03  0.14934814125E+04  0.21695236201E+04  0.10100000352E+00 0. -1.
       -3    1    3    3    0  502 -0.15669505529E+04 -0.14495503864E+03 -0.78463780986E+03  0.17584090824E+04  0.10100000352E+00 0.  1.
</event>
<event>
 5   0  0.3769985E-08  0.3983193E+04  0.7818609E-02  0.8007946E-01
       -2   -1    0    0    0  501  0.00000000000E+00  0.00000000000E+00  0.21782572809E+04  0.21782572809E+04  0.25500000920E-02 0.  1.
        2   -1    0    0  501    0  0.00000000000E+00  0.00000000000E+00 -0.18209309749E+04  0.18209309749E+04  0.25500000920E-02 0. -1.
    10030    2    1    2    0    0  0.00000000000E+00  0.00000000000E+00  0.35732630599E+03  0.39991882557E+04  0.39831927666E+04 0.  0.
        1    1    3    3  502    0  0.48897494545E+03 -0.42996948386E+03  0.20683706625E+04  0.21684389435E+04  0.50400001928E-02 0.  1.
       -1    1    3    3    0  502 -0.48897494545E+03  0.42996948386E+03 -0.17110443565E+04  0.18307493122E+04  0.50400001928E-02 0. -1.
</event>
<event>
 5   0  0.3872969E-08  0.3907794E+04  0.7818609E-02  0.8023410E-01
       -2   -1    0    0    0  501  0.00000000000E+00  0.00000000000E+00  0.13720382198E+04  0.13720382198E+04  0.25500000920E-02 0.  1.
        2   -1    0    0  501    0  0.00000000000E+00  0.00000000000E+00 -0.27825121255E+04  0.27825121255E+04  0.25500000920E-02 0. -1.
    10030    2    1    2    0    0  0.00000000000E+00  0.00000000000E+00 -0.14104739057E+04  0.41545503453E+04  0.39077937423E+04 0.  0.
        2    1    3    3  502    0  0.13405365657E+04 -0.88550390492E+03 -0.18874603684E+04  0.24786411785E+04  0.25500000920E-02 0. -1.
       -2    1    3    3    0  502 -0.13405365657E+04  0.88550390492E+03  0.47698646263E+03  0.16759091667E+04  0.25500000920E-02 0.  1.
</event>
<event>
 5   0  0.1164500E-08  0.3901044E+04  0.7818609E-02  0.8024812E-01
       -1   -1    0    0    0  501  0.00000000000E+00  0.00000000000E+00  0.23714936831E+04  0.23714936831E+04  0.50400001928E-02 0.  1.
        1   -1    0    0  501    0  0.00000000000E+00  0.00000000000E+00 -0.16042783688E+04  0.16042783688E+04  0.50400001928E-02 0. -1.
    10030    2    1    2    0    0  0.00000000000E+00  0.00000000000E+00  0.76721531429E+03  0.39757720519E+04  0.39010439718E+04 0.  0.
        2    1    3    3  502    0 -0.15349600099E+03  0.19713992690E+03  0.23551175225E+04  0.23683335318E+04  0.25500000920E-02 0.  1.
       -2    1    3    3    0  502  0.15349600099E+03 -0.19713992690E+03 -0.15879022082E+04  0.16074385201E+04  0.25500000920E-02 0. -1.
</event>
<event>
 5   0  0.1164500E-08  0.3900758E+04  0.7818609E-02  0.8024872E-01
        1   -1    0    0  501    0  0.00000000000E+00  0.00000000000E+00  0.30756238299E+04  0.30756238299E+04  0.50400001928E-02 0.  1.
       -1   -1    0    0    0  501  0.00000000000E+00  0.00000000000E+00 -0.12368150917E+04  0.12368150917E+04  0.50400001928E-02 0. -1.
    10030    2    1    2    0    0  0.00000000000E+00  0.00000000000E+00  0.18388087382E+04  0.43124389216E+04  0.39007578593E+04 0.  0.
        4    1    3    3  502    0  0.16633827774E+04 -0.84479353736E+03  0.29064728088E+03  0.18881196572E+04  0.12699999809E+01 0.  1.
       -4    1    3    3    0  502 -0.16633827774E+04  0.84479353736E+03  0.15481614573E+04  0.24243192644E+04  0.12699999809E+01 0. -1.
</event>
<event>
 5   0  0.3669347E-08  0.3903916E+04  0.7818609E-02  0.8024215E-01
       -2   -1    0    0    0  501  0.00000000000E+00  0.00000000000E+00  0.14199637493E+04  0.14199637493E+04  0.25500000920E-02 0.  1.
        2   -1    0    0  501    0  0.00000000000E+00  0.00000000000E+00 -0.26832650741E+04  0.26832650741E+04  0.25500000920E-02 0. -1.
    10030    2    1    2    0    0  0.00000000000E+00  0.00000000000E+00 -0.12633013248E+04  0.41032288234E+04  0.39039155395E+04 0.  0.
        5    1    3    3  502    0 -0.19805525289E+03  0.16147079967E+04  0.50212963477E+03  0.17025463453E+04  0.46999998093E+01 0.  1.
       -5    1    3    3    0  502  0.19805525289E+03 -0.16147079967E+04 -0.17654309595E+04  0.24006824781E+04  0.46999998093E+01 0. -1.
</event>
<event>
 5   0  0.1164500E-08  0.3901095E+04  0.7818609E-02  0.8024801E-01
        1   -1    0    0  501    0  0.00000000000E+00  0.00000000000E+00  0.25125564964E+04  0.25125564964E+04  0.50400001928E-02 0. -1.
       -1   -1    0    0    0  501  0.00000000000E+00  0.00000000000E+00 -0.15142488535E+04  0.15142488535E+04  0.50400001928E-02 0.  1.
    10030    2    1    2    0    0  0.00000000000E+00  0.00000000000E+00  0.99830764291E+03  0.40268053499E+04  0.39010951253E+04 0.  0.
        2    1    3    3  502    0  0.15602943372E+04 -0.69408746533E+03 -0.47374703546E+03  0.17722054288E+04  0.25500000920E-02 0.  1.
       -2    1    3    3    0  502 -0.15602943372E+04  0.69408746533E+03  0.14720546784E+04  0.22545999211E+04  0.25500000920E-02 0. -1.
</event>
<event>
 5   0  0.1164500E-08  0.3896013E+04  0.7818609E-02  0.8025859E-01
       -1   -1    0    0    0  501  0.00000000000E+00  0.00000000000E+00  0.28905674332E+04  0.28905674332E+04  0.50400001928E-02 0.  1.
        1   -1    0    0  501    0  0.00000000000E+00  0.00000000000E+00 -0.13127975538E+04  0.13127975538E+04  0.50400001928E-02 0. -1.
    10030    2    1    2    0    0  0.00000000000E+00  0.00000000000E+00  0.15777698795E+04  0.42033649870E+04  0.38960132727E+04 0.  0.
        5    1    3    3  502    0  0.14918663560E+04 -0.11826626600E+04  0.12341819199E+04  0.22688286169E+04  0.46999998093E+01 0.  1.
       -5    1    3    3    0  502 -0.14918663560E+04  0.11826626600E+04  0.34358795956E+03  0.19345363701E+04  0.46999998093E+01 0. -1.
</event>
<event>
 5   0  0.1164500E-08  0.3902493E+04  0.7818609E-02  0.8024511E-01
        1   -1    0    0  501    0  0.00000000000E+00  0.00000000000E+00  0.21344467124E+04  0.21344467124E+04  0.50400001928E-02 0. -1.
       -1   -1    0    0    0  501  0.00000000000E+00  0.00000000000E+00 -0.17837702901E+04  0.17837702901E+04  0.50400001928E-02 0.  1.
    10030    2    1    2    0    0  0.00000000000E+00  0.00000000000E+00  0.35067642232E+03  0.39182170025E+04  0.39024928604E+04 0.  0.
        4    1    3    3  502    0 -0.58589112828E+03  0.30529430436E+03 -0.16680573129E+04  0.17941264834E+04  0.12699999809E+01 0.  1.
       -4    1    3    3    0  502  0.58589112828E+03 -0.30529430436E+03  0.20187337352E+04  0.21240905190E+04  0.12699999809E+01 0. -1.
</event>
<event>
 5   0  0.1164500E-08  0.3898282E+04  0.7818609E-02  0.8025387E-01
        1   -1    0    0  501    0  0.00000000000E+00  0.00000000000E+00  0.20298821300E+04  0.20298821300E+04  0.50400001928E-02 0.  1.
       -1   -1    0    0    0  501  0.00000000000E+00  0.00000000000E+00 -0.18716110240E+04  0.18716110240E+04  0.50400001928E-02 0. -1.
    10030    2    1    2    0    0  0.00000000000E+00  0.00000000000E+00  0.15827110598E+03  0.39014931540E+04  0.38982815557E+04 0.  0.
        3    1    3    3  502    0  0.12678701779E+04 -0.41722479579E+03  0.15007206457E+04  0.20084157400E+04  0.10100000352E+00 0.  1.
       -3    1    3    3    0  502 -0.12678701779E+04  0.41722479579E+03 -0.13424495397E+04  0.18930774139E+04  0.10100000352E+00 0. -1.
</event>
<event>
 5   0  0.1164500E-08  0.3900593E+04  0.7818609E-02  0.8024906E-01
        1   -1    0    0  501    0  0.00000000000E+00  0.00000000000E+00  0.21250575122E+04  0.21250575122E+04  0.50400001928E-02 0.  1.
       -1   -1    0    0    0  501  0.00000000000E+00  0.00000000000E+00 -0.17899074574E+04  0.17899074574E+04  0.50400001928E-02 0. -1.
    10030    2    1    2    0    0  0.00000000000E+00  0.00000000000E+00  0.33515005482E+03  0.39149649696E+04  0.39005929234E+04 0.  0.
        5    1    3    3  502    0  0.79931202753E+02  0.88110102631E+03  0.19120545301E+04  0.21068228762E+04  0.46999998093E+01 0.  1.
       -5    1    3    3    0  502 -0.79931202753E+02 -0.88110102631E+03 -0.15769044753E+04  0.18081420934E+04  0.46999998093E+01 0. -1.
</event>
<event>
 5   0  0.1164500E-08  0.3895857E+04  0.7818609E-02  0.8025891E-01
       -1   -1    0    0    0  501  0.00000000000E+00  0.00000000000E+00  0.20491341335E+04  0.20491341335E+04  0.50400001928E-02 0. -1.
        1   -1    0    0  501    0  0.00000000000E+00  0.00000000000E+00 -0.18517213689E+04  0.18517213689E+04  0.50400001928E-02 0.  1.
    10030    2    1    2    0    0  0.00000000000E+00  0.00000000000E+00  0.19741276464E+03  0.39008555024E+04  0.38958570111E+04 0.  0.
        1    1    3    3  502    0 -0.11801959893E+04  0.10292199060E+04  0.12587563040E+04  0.20091350430E+04  0.50400001928E-02 0.  1.
       -1    1    3    3    0  502  0.11801959893E+04 -0.10292199060E+04 -0.10613435394E+04  0.18917204594E+04  0.50400001928E-02 0. -1.
</event>
<event>
 5   0  0.3769985E-08  0.3884725E+04  0.7818609E-02  0.8028214E-01
        2   -1    0    0  501    0  0.00000000000E+00  0.00000000000E+00  0.26877480657E+04  0.26877480657E+04  0.25500000920E-02 0. -1.
       -2   -1    0    0    0  501  0.00000000000E+00  0.00000000000E+00 -0.14036923293E+04  0.14036923293E+04  0.25500000920E-02 0.  1.
    10030    2    1    2    0    0  0.00000000000E+00  0.00000000000E+00  0.12840557363E+04  0.40914403950E+04  0.38847246198E+04 0.  0.
        1    1    3    3  502    0 -0.97426502055E+03  0.42985018635E+02 -0.11271594538E+04  0.14904792774E+04  0.50400001928E-02 0.  1.
       -1    1    3    3    0  502  0.97426502055E+03 -0.42985018635E+02  0.24112151901E+04  0.26009611176E+04  0.50400001928E-02 0. -1.
</event>
<event>
 5   0  0.1164500E-08  0.3904087E+04  0.7818609E-02  0.8024180E-01
       -1   -1    0    0    0  501  0.00000000000E+00  0.00000000000E+00  0.22692215942E+04  0.22692215942E+04  0.50400001928E-02 0.  1.
        1   -1    0    0  501    0  0.00000000000E+00  0.00000000000E+00 -0.16791982187E+04  0.16791982187E+04  0.50400001928E-02 0. -1.
    10030    2    1    2    0    0  0.00000000000E+00  0.00000000000E+00  0.59002337552E+03  0.39484198129E+04  0.39040865046E+04 0.  0.
        1    1    3    3  502    0 -0.14077064124E+04 -0.20980395506E+03  0.16461531980E+04  0.21761147475E+04  0.50400001928E-02 0. -1.
       -1    1    3    3    0  502  0.14077064124E+04  0.20980395506E+03 -0.10561298225E+04  0.17723050654E+04  0.50400001928E-02 0.  1.
</event>
<event>
 5   0  0.3769985E-08  0.3897997E+04  0.7818609E-02  0.8025446E-01
       -2   -1    0    0    0  501  0.00000000000E+00  0.00000000000E+00  0.14513813557E+04  0.14513813557E+04  0.25500000920E-02 0.  1.
        2   -1    0    0  501    0  0.00000000000E+00  0.00000000000E+00 -0.26172278859E+04  0.26172278859E+04  0.25500000920E-02 0. -1.
    10030    2    1    2    0    0  0.00000000000E+00  0.00000000000E+00 -0.11658465301E+04  0.40686092416E+04  0.38979973100E+04 0.  0.
        1    1    3    3  502    0 -0.11452851294E+04 -0.13309303449E+04  0.29999816069E+03  0.17813064046E+04  0.50400001928E-02 0.  1.
       -1    1    3    3    0  502  0.11452851294E+04  0.13309303449E+04 -0.14658446908E+04  0.22873028370E+04  0.50400001928E-02 0. -1.
</event>
<event>
 5   0  0.3669347E-08  0.3899637E+04  0.7818609E-02  0.8025105E-01
       -2   -1    0    0    0  501  0.00000000000E+00  0.00000000000E+00  0.16293948045E+04  0.16293948045E+04  0.25500000920E-02 0. -1.
        2   -1    0    0  501    0  0.00000000000E+00  0.00000000000E+00 -0.23332538938E+04  0.23332538938E+04  0.25500000920E-02 0.  1.
    10030    2    1    2    0    0  0.00000000000E+00  0.00000000000E+00 -0.70385908929E+03  0.39626486983E+04  0.38996367894E+04 0.  0.
        5    1    3    3  502    0 -0.42792974948E+03  0.13058359761E+04  0.10536927447E+04  0.17316529552E+04  0.46999998093E+01 0. -1.
       -5    1    3    3    0  502  0.42792974948E+03 -0.13058359761E+04 -0.17575518340E+04  0.22309957432E+04  0.46999998093E+01 0.  1.
</event>
<event>
 5   0  0.1164500E-08  0.3929411E+04  0.7818609E-02  0.8018940E-01
        1   -1    0    0  501    0  0.00000000000E+00  0.00000000000E+00  0.22818080828E+04  0.22818080828E+04  0.50400001928E-02 0.  1.
       -1   -1    0    0    0  501  0.00000000000E+00  0.00000000000E+00 -0.16916710182E+04  0.16916710182E+04  0.50400001928E-02 0. -1.
    10030    2    1    2    0    0  0.00000000000E+00  0.00000000000E+00  0.59013706462E+03  0.39734791010E+04  0.39294114586E+04 0.  0.
        2    1    3    3  502    0 -0.92835047283E+03  0.13131802513E+04 -0.84621255724E+03  0.18172376468E+04  0.25500000920E-02 0. -1.
       -2    1    3    3    0  502  0.92835047283E+03 -0.13131802513E+04  0.14363496219E+04  0.21562414542E+04  0.25500000920E-02 0.  1.
</event>
<event>
 5   0  0.1164500E-08  0.3833379E+04  0.7818609E-02  0.8039029E-01
        1   -1    0    0  501    0  0.00000000000E+00  0.00000000000E+00  0.27429432388E+04  0.27429432388E+04  0.50400001928E-02 0. -1.
       -1   -1    0    0    0  501  0.00000000000E+00  0.00000000000E+00 -0.13393275292E+04  0.13393275292E+04  0.50400001928E-02 0.  1.
    10030    2    1    2    0    0  0.00000000000E+00  0.00000000000E+00  0.14036157095E+04  0.40822707680E+04  0.38333793920E+04 0.  0.
        1    1    3    3  502    0 -0.41099047431E+03 -0.98581520606E+03 -0.99305166165E+03  0.14583882862E+04  0.50400001928E-02 0.  1.
       -1    1    3    3    0  502  0.41099047431E+03  0.98581520606E+03  0.23966673712E+04  0.26238824818E+04  0.50400001928E-02 0. -1.
</event>
<event>
 5   0  0.3872969E-08  0.3902586E+04  0.7818609E-02  0.8024492E-01
        2   -1    0    0  501    0  0.00000000000E+00  0.00000000000E+00  0.22350531438E+04  0.22350531438E+04  0.25500000920E-02 0.  1.
       -2   -1    0    0    0  501  0.00000000000E+00  0.00000000000E+00 -0.17035585728E+04  0.17035585728E+04  0.25500000920E-02 0. -1.
    10030    2    1    2    0    0  0.00000000000E+00  0.00000000000E+00  0.53149457100E+03  0.39386117165E+04  0.39025857805E+04 0.  0.
        2    1    3    3  502    0  0.13635313864E+04 -0.13897178544E+04  0.13411942952E+03  0.19515433836E+04  0.25500000920E-02 0. -1.
       -2    1    3    3    0  502 -0.13635313864E+04  0.13897178544E+04  0.39737514148E+03  0.19870683329E+04  0.25500000920E-02 0.  1.
</event>
<event>
 5   0  0.1164500E-08  0.3926983E+04  0.7818609E-02  0.8019441E-01
       -1   -1    0    0    0  501  0.00000000000E+00  0.00000000000E+00  0.31561850565E+04  0.31561850565E+04  0.50400001928E-02 0.  1.
        1   -1    0    0  501    0  0.00000000000E+00  0.00000000000E+00 -0.12215057435E+04  0.12215057435E+04  0.50400001928E-02 0. -1.
    10030    2    1    2    0    0  0.00000000000E+00  0.00000000000E+00  0.19346793131E+04  0.43776908000E+04  0.39269826453E+04 0.  0.
        3    1    3    3  502    0 -0.30951828956E+03 -0.14476148971E+04 -0.47063329757E+03  0.15533467652E+04  0.10100000352E+00 0. -1.
       -3    1    3    3    0  502  0.30951828956E+03  0.14476148971E+04  0.24053126106E+04  0.28243440348E+04  0.10100000352E+00 0.  1.
</event>
<event>
 5   0  0.1164500E-08  0.3901305E+04  0.7818609E-02  0.8024758E-01
       -1   -1    0    0    0  501  0.00000000000E+00  0.00000000000E+00  0.20545299679E+04  0.20545299679E+04  0.50400001928E-02 0. -1.
        1   -1    0    0  501    0  0.00000000000E+00  0.00000000000E+00 -0.18520272874E+04  0.18520272874E+04  0.50400001928E-02 0.  1.
    10030    2    1    2    0    0  0.00000000000E+00  0.00000000000E+00  0.20250268050E+03  0.39065572553E+04  0.39013051987E+04 0.  0.
        3    1    3    3  502    0  0.14495896634E+04  0.11192690022E+04 -0.57119739706E+03  0.19184211655E+04  0.10100000352E+00 0. -1.
       -3    1    3    3    0  502 -0.14495896634E+04 -0.11192690022E+04  0.77370007756E+03  0.19881360898E+04  0.10100000352E+00 0.  1.
</event>
<event>
 5   0  0.3872969E-08  0.3897415E+04  0.7818609E-02  0.8025567E-01
        2   -1    0    0  501    0  0.00000000000E+00  0.00000000000E+00  0.21401663713E+04  0.21401663713E+04  0.25500000920E-02 0. -1.
       -2   -1    0    0    0  501  0.00000000000E+00  0.00000000000E+00 -0.17743765291E+04  0.17743765291E+04  0.25500000920E-02 0.  1.
    10030    2    1    2    0    0  0.00000000000E+00  0.00000000000E+00  0.36578984221E+03  0.39145429004E+04  0.38974150293E+04 0.  0.
        2    1    3    3  502    0  0.13165844690E+04  0.10125335645E+04  0.12066101665E+04  0.20529313134E+04  0.25500000920E-02 0. -1.
       -2    1    3    3    0  502 -0.13165844690E+04 -0.10125335645E+04 -0.84082032434E+03  0.18616115871E+04  0.25500000920E-02 0.  1.
</event>
<event>
 5   0  0.1164500E-08  0.3902602E+04  0.7818609E-02  0.8024488E-01
       -1   -1    0    0    0  501  0.00000000000E+00  0.00000000000E+00  0.19233109226E+04  0.19233109226E+04  0.50400001928E-02 0.  1.
        1   -1    0    0  501    0  0.00000000000E+00  0.00000000000E+00 -0.19796981584E+04  0.19796981584E+04  0.50400001928E-02 0. -1.
    10030    2    1    2    0    0  0.00000000000E+00  0.00000000000E+00 -0.56387235772E+02  0.39030090811E+04  0.39026017433E+04 0.  0.
        5    1    3    3  502    0 -0.61477126496E+02 -0.13337329791E+04  0.13949552271E+04  0.19309441401E+04  0.46999998093E+01 0.  1.
       -5    1    3    3    0  502  0.61477126496E+02  0.13337329791E+04 -0.14513424629E+04  0.19720649409E+04  0.46999998093E+01 0. -1.
</event>
<event>
 5   0  0.3690572E-08  0.3898982E+04  0.7818609E-02  0.8025241E-01
        2   -1    0    0  501    0  0.00000000000E+00  0.00000000000E+00  0.25705833078E+04  0.25705833078E+04  0.25500000920E-02 0.  1.
       -2   -1    0    0    0  501  0.00000000000E+00  0.00000000000E+00 -0.14784639072E+04  0.14784639072E+04  0.25500000920E-02 0. -1.
    10030    2    1    2    0    0  0.00000000000E+00  0.00000000000E+00  0.10921194006E+04  0.40490472151E+04  0.38989817343E+04 0.  0.
        3    1    3    3  502    0  0.18095010002E+04 -0.66655663045E+03  0.84329789561E+03  0.21046954560E+04  0.10100000352E+00 0. -1.
       -3    1    3    3    0  502 -0.18095010002E+04  0.66655663045E+03  0.24882150503E+03  0.19443517591E+04  0.10100000352E+00 0.  1.
</event>
<event>
 5   0  0.3690572E-08  0.3896371E+04  0.7818609E-02  0.8025784E-01
        2   -1    0    0  501    0  0.00000000000E+00  0.00000000000E+00  0.18709909201E+04  0.18709909201E+04  0.25500000920E-02 0. -1.
       -2   -1    0    0    0  501  0.00000000000E+00  0.00000000000E+00 -0.20285655393E+04  0.20285655393E+04  0.25500000920E-02 0.  1.
    10030    2    1    2    0    0  0.00000000000E+00  0.00000000000E+00 -0.15757461924E+03  0.38995564594E+04  0.38963714941E+04 0.  0.
        3    1    3    3  502    0 -0.97887682078E+03  0.59265400222E+03  0.14992034841E+04  0.18860142347E+04  0.10100000352E+00 0. -1.
       -3    1    3    3    0  502  0.97887682078E+03 -0.59265400222E+03 -0.16567781034E+04  0.20135422247E+04  0.10100000352E+00 0.  1.
</event>
<event>
 5   0  0.3872969E-08  0.3890281E+04  0.7818609E-02  0.8027054E-01
       -2   -1    0    0    0  501  0.00000000000E+00  0.00000000000E+00  0.17479792156E+04  0.17479792156E+04  0.25500000920E-02 0.  1.
        2   -1    0    0  501    0  0.00000000000E+00  0.00000000000E+00 -0.21645403606E+04  0.21645403606E+04  0.25500000920E-02 0. -1.
    10030    2    1    2    0    0  0.00000000000E+00  0.00000000000E+00 -0.41656114500E+03  0.39125195763E+04  0.38902809985E+04 0.  0.
        2    1    3    3  502    0  0.19191443749E+04  0.26065872630E+03 -0.26934924773E+02  0.19369521402E+04  0.25500000920E-02 0. -1.
       -2    1    3    3    0  502 -0.19191443749E+04 -0.26065872630E+03 -0.38962622023E+03  0.19755674361E+04  0.25500000920E-02 0.  1.
</event>
<event>
 5   0  0.1164500E-08  0.3958292E+04  0.7818609E-02  0.8013014E-01
        1   -1    0    0  501    0  0.00000000000E+00  0.00000000000E+00  0.16036670378E+04  0.16036670378E+04  0.50400001928E-02 0. -1.
       -1   -1    0    0    0  501  0.00000000000E+00  0.00000000000E+00 -0.24425392031E+04  0.24425392031E+04  0.50400001928E-02 0.  1.
    10030    2    1    2    0    0  0.00000000000E+00  0.00000000000E+00 -0.83887216526E+03  0.40462062409E+04  0.39582923635E+04 0.  0.
        4    1    3    3  502    0  0.15715286035E+04 -0.65746949224E+03  0.61043722699E+03  0.18095865566E+04  0.12699999809E+01 0. -1.
       -4    1    3    3    0  502 -0.15715286035E+04  0.65746949224E+03 -0.14493093922E+04  0.22366196843E+04  0.12699999809E+01 0.  1.
</event>
<event>
 5   0  0.3769985E-08  0.3909057E+04  0.7818609E-02  0.8023148E-01
        2   -1    0    0  501    0  0.00000000000E+00  0.00000000000E+00  0.10318969315E+04  0.10318969315E+04  0.25500000920E-02 0. -1.
       -2   -1    0    0    0  501  0.00000000000E+00  0.00000000000E+00 -0.37020956016E+04  0.37020956016E+04  0.25500000920E-02 0.  1.
    10030    2    1    2    0    0  0.00000000000E+00  0.00000000000E+00 -0.26701986701E+04  0.47339925331E+04  0.39090567105E+04 0.  0.
        1    1    3    3  502    0 -0.16265851092E+04  0.32819234328E+03 -0.84336213567E+02  0.16615059219E+04  0.50400001928E-02 0. -1.
       -1    1    3    3    0  502  0.16265851092E+04 -0.32819234328E+03 -0.25858624566E+04  0.30724866112E+04  0.50400001928E-02 0.  1.
</event>
<event>
 5   0  0.3872969E-08  0.3904861E+04  0.7818609E-02  0.8024019E-01
        2   -1    0    0  501    0  0.00000000000E+00  0.00000000000E+00  0.23591505696E+04  0.23591505696E+04  0.25500000920E-02 0. -1.
       -2   -1    0    0    0  501  0.00000000000E+00  0.00000000000E+00 -0.16158296885E+04  0.16158296885E+04  0.25500000920E-02 0.  1.
    10030    2    1    2    0    0  0.00000000000E+00  0.00000000000E+00  0.74332088112E+03  0.39749802581E+04  0.39048613445E+04 0.  0.
        2    1    3    3  502    0  0.18755809817E+03  0.18841849820E+04 -0.11297087923E+03  0.18968641243E+04  0.25500000920E-02 0.  1.
       -2    1    3    3    0  502 -0.18755809817E+03 -0.18841849820E+04  0.85629176036E+03  0.20781161338E+04  0.25500000920E-02 0. -1.
</event>
<event>
 5   0  0.3769985E-08  0.3970394E+04  0.7818609E-02  0.8010546E-01
        2   -1    0    0  501    0  0.00000000000E+00  0.00000000000E+00  0.19975485844E+04  0.19975485844E+04  0.25500000920E-02 0.  1.
       -2   -1    0    0    0  501  0.00000000000E+00  0.00000000000E+00 -0.19729218693E+04  0.19729218693E+04  0.25500000920E-02 0. -1.
    10030    2    1    2    0    0  0.00000000000E+00  0.00000000000E+00  0.24626715124E+02  0.39704704537E+04  0.39703940798E+04 0.  0.
        1    1    3    3  502    0 -0.11431922120E+04 -0.51476032208E+01  0.16353332881E+04  0.19953019557E+04  0.50400001928E-02 0.  1.
       -1    1    3    3    0  502  0.11431922120E+04  0.51476032208E+01 -0.16107065729E+04  0.19751684980E+04  0.50400001928E-02 0. -1.
</event>
<event>
 5   0  0.3690572E-08  0.3890240E+04  0.7818609E-02  0.8027062E-01
       -2   -1    0    0    0  501  0.00000000000E+00  0.00000000000E+00  0.19499090496E+04  0.19499090496E+04  0.25500000920E-02 0.  1.
        2   -1    0    0  501    0  0.00000000000E+00  0.00000000000E+00 -0.19403430209E+04  0.19403430209E+04  0.25500000920E-02 0. -1.
    10030    2    1    2    0    0  0.00000000000E+00  0.00000000000E+00  0.95660286339E+01  0.38902520705E+04  0.38902403092E+04 0.  0.
        3    1    3    3  502    0 -0.56843882183E+02 -0.17053913803E+04  0.93854245378E+03  0.19474221254E+04  0.10100000352E+00 0.  1.
       -3    1    3    3    0  502  0.56843882183E+02  0.17053913803E+04 -0.92897642514E+03  0.19428299451E+04  0.10100000352E+00 0. -1.
</event>
<event>
 5   0  0.1164500E-08  0.3898613E+04  0.7818609E-02  0.8025318E-01
        1   -1    0    0  501    0  0.00000000000E+00  0.00000000000E+00  0.23846655005E+04  0.23846655005E+04  0.50400001928E-02 0.  1.
       -1   -1    0    0    0  501  0.00000000000E+00  0.00000000000E+00 -0.15934289452E+04  0.15934289452E+04  0.50400001928E-02 0. -1.
    10030    2    1    2    0    0  0.00000000000E+00  0.00000000000E+00  0.79123655532E+03  0.39780944457E+04  0.38986125907E+04 0.  0.
        2    1    3    3  502    0  0.10809615999E+04  0.89131573827E+03 -0.98732577279E+03  0.17139818865E+04  0.25500000920E-02 0. -1.
       -2    1    3    3    0  502 -0.10809615999E+04 -0.89131573827E+03  0.17785623281E+04  0.22641125592E+04  0.25500000920E-02 0.  1.
</event>
<event>
 5   0  0.3690572E-08  0.3901411E+04  0.7818609E-02  0.8024736E-01
       -2   -1    0    0    0  501  0.00000000000E+00  0.00000000000E+00  0.18861223659E+04  0.18861223660E+04  0.25500000920E-02 0. -1.
        2   -1    0    0  501    0  0.00000000000E+00  0.00000000000E+00 -0.20175002356E+04  0.20175002356E+04  0.25500000920E-02 0.  1.
    10030    2    1    2    0    0  0.00000000000E+00  0.00000000000E+00 -0.13137786965E+03  0.39036226015E+04  0.39014111896E+04 0.  0.
        3    1    3    3  502    0  0.11621228381E+04 -0.10971962789E+04 -0.11847517589E+04  0.19894737761E+04  0.10100000352E+00 0.  1.
       -3    1    3    3    0  502 -0.11621228381E+04  0.10971962789E+04  0.10533738892E+04  0.19141488255E+04  0.10100000352E+00 0. -1.
</event>
<event>
 5   0  0.3724293E-08  0.3894993E+04  0.7818609E-02  0.8026071E-01
       -2   -1    0    0    0  501  0.00000000000E+00  0.00000000000E+00  0.20634600791E+04  0.20634600791E+04  0.25500000920E-02 0. -1.
        2   -1    0    0  501    0  0.00000000000E+00  0.00000000000E+00 -0.18380498616E+04  0.18380498616E+04  0.25500000920E-02 0.  1.
    10030    2    1    2    0    0  0.00000000000E+00  0.00000000000E+00  0.22541021757E+03  0.39015099407E+04  0.38949929462E+04 0.  0.
        4    1    3    3  502    0 -0.10300549503E+04 -0.30183763233E+03 -0.15150127924E+04  0.18567133680E+04  0.12699999809E+01 0.  1.
       -4    1    3    3    0  502  0.10300549503E+04  0.30183763233E+03  0.17404230100E+04  0.20447965726E+04  0.12699999809E+01 0. -1.
</event>
<event>
 5   0  0.1164500E-08  0.3901460E+04  0.7818609E-02  0.8024726E-01
       -1   -1    0    0    0  501  0.00000000000E+00  0.00000000000E+00  0.18966084990E+04  0.18966084990E+04  0.50400001928E-02 0. -1.
        1   -1    0    0  501    0  0.00000000000E+00  0.00000000000E+00 -0.20063963941E+04  0.20063963941E+04  0.50400001928E-02 0.  1.
    10030    2    1    2    0    0  0.00000000000E+00  0.00000000000E+00 -0.10978789510E+03  0.39030048932E+04  0.39014604720E+04 0.  0.
        1    1    3    3  502    0 -0.11821753061E+04 -0.50626892664E+03  0.14124865366E+04  0.19102263993E+04  0.50400001928E-02 0.  1.
       -1    1    3    3    0  502  0.11821753061E+04  0.50626892664E+03 -0.15222744317E+04  0.19927784939E+04  0.50400001928E-02 0. -1.
</event>
<event>
 5   0  0.1164500E-08  0.3898955E+04  0.7818609E-02  0.8025247E-01
        1   -1    0    0  501    0  0.00000000000E+00  0.00000000000E+00  0.17106798100E+04  0.17106798101E+04  0.50400001928E-02 0.  1.
       -1   -1    0    0    0  501  0.00000000000E+00  0.00000000000E+00 -0.22216094628E+04  0.22216094628E+04  0.50400001928E-02 0. -1.
    10030    2    1    2    0    0  0.00000000000E+00  0.00000000000E+00 -0.51092965277E+03  0.39322892729E+04  0.38989549645E+04 0.  0.
        2    1    3    3  502    0  0.11027443057E+04 -0.49646468145E+03 -0.17975698272E+04  0.21665132050E+04  0.25500000920E-02 0. -1.
       -2    1    3    3    0  502 -0.11027443057E+04  0.49646468145E+03  0.12866401744E+04  0.17657760679E+04  0.25500000920E-02 0.  1.
</event>
<event>
 5   0  0.1164500E-08  0.3888182E+04  0.7818609E-02  0.8027492E-01
        1   -1    0    0  501    0  0.00000000000E+00  0.00000000000E+00  0.13595560036E+04  0.13595560037E+04  0.50400001928E-02 0.  1.
       -1   -1    0    0    0  501  0.00000000000E+00  0.00000000000E+00 -0.27799448550E+04  0.27799448550E+04  0.50400001928E-02 0. -1.
    10030    2    1    2    0    0  0.00000000000E+00  0.00000000000E+00 -0.14203888514E+04  0.41395008587E+04  0.38881824636E+04 0.  0.
        5    1    3    3  502    0 -0.17945812561E+04 -0.69316236915E+03 -0.10084307667E+04  0.21720844035E+04  0.46999998093E+01 0.  1.
       -5    1    3    3    0  502  0.17945812561E+04  0.69316236915E+03 -0.41195808466E+03  0.19674164552E+04  0.46999998093E+01 0. -1.
</event>
<event>
 5   0  0.1164500E-08  0.3904606E+04  0.7818609E-02  0.8024072E-01
        1   -1    0    0  501    0  0.00000000000E+00  0.00000000000E+00  0.13165740615E+04  0.13165740615E+04  0.50400001928E-02 0. -1.
       -1   -1    0    0    0  501  0.00000000000E+00  0.00000000000E+00 -0.28950044721E+04  0.28950044721E+04  0.50400001928E-02 0.  1.
    10030    2    1    2    0    0  0.00000000000E+00  0.00000000000E+00 -0.15784304107E+04  0.42115785336E+04  0.39046064057E+04 0.  0.
        3    1    3    3  502    0  0.18091967480E+04  0.46439311400E+03 -0.17655076726E+03  0.18761727055E+04  0.10100000352E+00 0.  1.
       -3    1    3    3    0  502 -0.18091967480E+04 -0.46439311400E+03 -0.14018796434E+04  0.23354058281E+04  0.10100000352E+00 0. -1.
</event>
<event>
 5   0  0.3724293E-08  0.3895207E+04  0.7818609E-02  0.8026027E-01
        2   -1    0    0  501    0  0.00000000000E+00  0.00000000000E+00  0.27704085218E+04  0.27704085218E+04  0.25500000920E-02 0.  1.
       -2   -1    0    0    0  501  0.00000000000E+00  0.00000000000E+00 -0.13691694614E+04  0.13691694614E+04  0.25500000920E-02 0. -1.
    10030    2    1    2    0    0  0.00000000000E+00  0.00000000000E+00  0.14012390604E+04  0.41395779832E+04  0.38952066665E+04 0.  0.
        4    1    3    3  502    0 -0.45043733103E+03 -0.13312532669E+04  0.21335524400E+04  0.25548339823E+04  0.12699999809E+01 0.  1.
       -4    1    3    3    0  502  0.45043733103E+03  0.13312532669E+04 -0.73231337958E+03  0.15847440010E+04  0.12699999809E+01 0. -1.
</event>
<event>
 5   0  0.1164500E-08  0.3901060E+04  0.7818609E-02  0.8024809E-01
       -1   -1    0    0    0  501  0.00000000000E+00  0.00000000000E+00  0.16378058324E+04  0.16378058324E+04  0.50400001928E-02 0.  1.
        1   -1    0    0  501    0  0.00000000000E+00  0.00000000000E+00 -0.23229660701E+04  0.23229660701E+04  0.50400001928E-02 0. -1.
    10030    2    1    2    0    0  0.00000000000E+00  0.00000000000E+00 -0.68516023771E+03  0.39607719026E+04  0.39010600499E+04 0.  0.
        1    1    3    3  502    0  0.10680397567E+03  0.18900551656E+04  0.13456186197E+03  0.18978468097E+04  0.50400001928E-02 0.  1.
       -1    1    3    3    0  502 -0.10680397567E+03 -0.18900551656E+04 -0.81972209969E+03  0.20629250929E+04  0.50400001928E-02 0. -1.
</event>
<event>
 5   0  0.3669347E-08  0.3831660E+04  0.7818609E-02  0.8039395E-01
       -2   -1    0    0    0  501  0.00000000000E+00  0.00000000000E+00  0.18688405078E+04  0.18688405078E+04  0.25500000920E-02 0.  1.
        2   -1    0    0  501    0  0.00000000000E+00  0.00000000000E+00 -0.19640014767E+04  0.19640014767E+04  0.25500000920E-02 0. -1.
    10030    2    1    2    0    0  0.00000000000E+00  0.00000000000E+00 -0.95160968875E+02  0.38328419845E+04  0.38316604845E+04 0.  0.
        5    1    3    3  502    0  0.11593521537E+04  0.11558551933E+04  0.94785690165E+03  0.18917064889E+04  0.46999998093E+01 0.  1.
       -5    1    3    3    0  502 -0.11593521537E+04 -0.11558551933E+04 -0.10430178705E+04  0.19411354956E+04  0.46999998093E+01 0. -1.
</event>
<event>
 5   0  0.3669347E-08  0.3902803E+04  0.7818609E-02  0.8024447E-01
        2   -1    0    0  501    0  0.00000000000E+00  0.00000000000E+00  0.22173089602E+04  0.22173089602E+04  0.25500000920E-02 0.  1.
       -2   -1    0    0    0  501  0.00000000000E+00  0.00000000000E+00 -0.17173823939E+04  0.17173823939E+04  0.25500000920E-02 0. -1.
    10030    2    1    2    0    0  0.00000000000E+00  0.00000000000E+00  0.49992656636E+03  0.39346913541E+04  0.39028027724E+04 0.  0.
        5    1    3    3  502    0 -0.18847208258E+04 -0.13443915336E+03  0.74149049199E+03  0.20297972108E+04  0.46999998093E+01 0.  1.
       -5    1    3    3    0  502  0.18847208258E+04  0.13443915336E+03 -0.24156392563E+03  0.19048941433E+04  0.46999998093E+01 0. -1.
</event>
<event>
 5   0  0.3669347E-08  0.3901453E+04  0.7818609E-02  0.8024727E-01
       -2   -1    0    0    0  501  0.00000000000E+00  0.00000000000E+00  0.23692514321E+04  0.23692514321E+04  0.25500000920E-02 0. -1.
        2   -1    0    0  501    0  0.00000000000E+00  0.00000000000E+00 -0.16061334779E+04  0.16061334779E+04  0.25500000920E-02 0.  1.
    10030    2    1    2    0    0  0.00000000000E+00  0.00000000000E+00  0.76311795423E+03  0.39753849101E+04  0.39014530846E+04 0.  0.
        5    1    3    3  502    0  0.10520388932E+04 -0.14642886650E+04 -0.37712072194E+03  0.18420557147E+04  0.46999998093E+01 0.  1.
       -5    1    3    3    0  502 -0.10520388932E+04  0.14642886650E+04  0.11402386762E+04  0.21333291954E+04  0.46999998093E+01 0. -1.
</event>
<event>
 5   0  0.3872969E-08  0.3907588E+04  0.7818609E-02  0.8023453E-01
        2   -1    0    0  501    0  0.00000000000E+00  0.00000000000E+00  0.24589933107E+04  0.24589933107E+04  0.25500000920E-02 0. -1.
       -2   -1    0    0    0  501  0.00000000000E+00  0.00000000000E+00 -0.15523876073E+04  0.15523876073E+04  0.25500000920E-02 0.  1.
    10030    2    1    2    0    0  0.00000000000E+00  0.00000000000E+00  0.90660570344E+03  0.40113809181E+04  0.39075878708E+04 0.  0.
        2    1    3    3  502    0 -0.25948064408E+03 -0.15302610028E+03 -0.15284040288E+04  0.15578080970E+04  0.25500000920E-02 0.  1.
       -2    1    3    3    0  502  0.25948064408E+03  0.15302610028E+03  0.24350097322E+04  0.24535728210E+04  0.25500000920E-02 0. -1.
</event>
<event>
 5   0  0.1164500E-08  0.3894938E+04  0.7818609E-02  0.8026083E-01
       -1   -1    0    0    0  501  0.00000000000E+00  0.00000000000E+00  0.21803351980E+04  0.21803351981E+04  0.50400001928E-02 0. -1.
        1   -1    0    0  501    0  0.00000000000E+00  0.00000000000E+00 -0.17394732529E+04  0.17394732529E+04  0.50400001928E-02 0.  1.
    10030    2    1    2    0    0  0.00000000000E+00  0.00000000000E+00  0.44086194514E+03  0.39198084510E+04  0.38949376166E+04 0.  0.
        4    1    3    3  502    0 -0.88555023671E+03  0.10595326950E+03  0.19627302958E+04  0.21558611143E+04  0.12699999809E+01 0. -1.
       -4    1    3    3    0  502  0.88555023671E+03 -0.10595326950E+03 -0.15218683506E+04  0.17639473367E+04  0.12699999809E+01 0.  1.
</event>
<event>
 5   0  0.3769985E-08  0.3898518E+04  0.7818609E-02  0.8025337E-01
       -2   -1    0    0    0  501  0.00000000000E+00  0.00000000000E+00  0.15086831835E+04  0.15086831835E+04  0.25500000920E-02 0.  1.
        2   -1    0    0  501    0  0.00000000000E+00  0.00000000000E+00 -0.25184953427E+04  0.25184953427E+04  0.25500000920E-02 0. -1.
    10030    2    1    2    0    0  0.00000000000E+00  0.00000000000E+00 -0.10098121591E+04  0.40271785262E+04  0.38985184731E+04 0.  0.
        1    1    3    3  502    0  0.54900218635E+03  0.10887935881E+04  0.10660512230E+04  0.16196728337E+04  0.50400001928E-02 0.  1.
       -1    1    3    3    0  502 -0.54900218635E+03 -0.10887935881E+04 -0.20758633821E+04  0.24075056925E+04  0.50400001928E-02 0. -1.
</event>
<event>
 5   0  0.3669347E-08  0.3897180E+04  0.7818609E-02  0.8025616E-01
        2   -1    0    0  501    0  0.00000000000E+00  0.00000000000E+00  0.24198285557E+04  0.24198285557E+04  0.25500000920E-02 0.  1.
       -2   -1    0    0    0  501  0.00000000000E+00  0.00000000000E+00 -0.15691205301E+04  0.15691205301E+04  0.25500000920E-02 0. -1.
    10030    2    1    2    0    0  0.00000000000E+00  0.00000000000E+00  0.85070802562E+03  0.39889490857E+04  0.38971798347E+04 0.  0.
        5    1    3    3  502    0 -0.12298071079E+04  0.57822894026E+03 -0.10040280538E+04  0.16896356568E+04  0.46999998093E+01 0. -1.
       -5    1    3    3    0  502  0.12298071079E+04 -0.57822894026E+03  0.18547360794E+04  0.22993134289E+04  0.46999998093E+01 0.  1.
</event>
<event>
 5   0  0.3724293E-08  0.3897410E+04  0.7818609E-02  0.8025568E-01
       -2   -1    0    0    0  501  0.00000000000E+00  0.00000000000E+00  0.16581635771E+04  0.16581635772E+04  0.25500000920E-02 0.  1.
        2   -1    0    0  501    0  0.00000000000E+00  0.00000000000E+00 -0.22901546311E+04  0.22901546311E+04  0.25500000920E-02 0. -1.
    10030    2    1    2    0    0  0.00000000000E+00  0.00000000000E+00 -0.63199105395E+03  0.39483182083E+04  0.38974099068E+04 0.  0.
        4    1    3    3  502    0  0.83326834692E+03 -0.15252946602E+04  0.57675847034E+03  0.18312596442E+04  0.12699999809E+01 0.  1.
       -4    1    3    3    0  502 -0.83326834692E+03  0.15252946602E+04 -0.12087495243E+04  0.21170585641E+04  0.12699999809E+01 0. -1.
</event>
<event>
 5   0  0.3690572E-08  0.3901984E+04  0.7818609E-02  0.8024617E-01
       -2   -1    0    0    0  501  0.00000000000E+00  0.00000000000E+00  0.19472723355E+04  0.19472723355E+04  0.25500000920E-02 0. -1.
        2   -1    0    0  501    0  0.00000000000E+00  0.00000000000E+00 -0.19547185641E+04  0.19547185641E+04  0.25500000920E-02 0.  1.
    10030    2    1    2    0    0  0.00000000000E+00  0.00000000000E+00 -0.74462285929E+01  0.39019908995E+04  0.39019837946E+04 0.  0.
        3    1    3    3  502    0  0.49929895069E+02 -0.28381716458E+03 -0.19333183452E+04  0.19546777257E+04  0.10100000352E+00 0.  1.
       -3    1    3    3    0  502 -0.49929895069E+02  0.28381716458E+03  0.19258721166E+04  0.19473131738E+04  0.10100000352E+00 0. -1.
</event>
<event>
 5   0  0.3669347E-08  0.3899671E+04  0.7818609E-02  0.8025098E-01
       -2   -1    0    0    0  501  0.00000000000E+00  0.00000000000E+00  0.13158901166E+04  0.13158901166E+04  0.25500000920E-02 0.  1.
        2   -1    0    0  501    0  0.00000000000E+00  0.00000000000E+00 -0.28891910692E+04  0.28891910692E+04  0.25500000920E-02 0. -1.
    10030    2    1    2    0    0  0.00000000000E+00  0.00000000000E+00 -0.15733009526E+04  0.42050811858E+04  0.38996707414E+04 0.  0.
        5    1    3    3  502    0 -0.84353856748E+03  0.17087930677E+04 -0.12316503774E+04  0.22690341128E+04  0.46999998093E+01 0. -1.
       -5    1    3    3    0  502  0.84353856748E+03 -0.17087930677E+04 -0.34165057525E+03  0.19360470730E+04  0.46999998093E+01 0.  1.
</event>
<event>
 5   0  0.1164500E-08  0.3907073E+04  0.7818609E-02  0.8023560E-01
        1   -1    0    0  501    0  0.00000000000E+00  0.00000000000E+00  0.15314707887E+04  0.15314707887E+04  0.50400001928E-02 0. -1.
       -1   -1    0    0    0  501  0.00000000000E+00  0.00000000000E+00 -0.24919220142E+04  0.24919220142E+04  0.50400001928E-02 0.  1.
    10030    2    1    2    0    0  0.00000000000E+00  0.00000000000E+00 -0.96045122551E+03  0.40233928029E+04  0.39070734687E+04 0.  0.
        4    1    3    3  502    0  0.92789971547E+03 -0.73650596713E+03 -0.20798108607E+04  0.23935441819E+04  0.12699999809E+01 0.  1.
       -4    1    3    3    0  502 -0.92789971547E+03  0.73650596713E+03  0.11193596351E+04  0.16298486210E+04  0.12699999809E+01 0. -1.
</event>
<event>
 5   0  0.1164500E-08  0.3896179E+04  0.7818609E-02  0.8025824E-01
       -1   -1    0    0    0  501  0.00000000000E+00  0.00000000000E+00  0.23335590164E+04  0.23335590164E+04  0.50400001928E-02 0. -1.
        1   -1    0    0  501    0  0.00000000000E+00  0.00000000000E+00 -0.16262936458E+04  0.16262936458E+04  0.50400001928E-02 0.  1.
    10030    2    1    2    0    0  0.00000000000E+00  0.00000000000E+00  0.70726537057E+03  0.39598526622E+04  0.38961787435E+04 0.  0.
        3    1    3    3  502    0  0.14055448500E+04 -0.77704455465E+02  0.17222873791E+04  0.22243803933E+04  0.10100000352E+00 0. -1.
       -3    1    3    3    0  502 -0.14055448500E+04  0.77704455465E+02 -0.10150220085E+04  0.17354722688E+04  0.10100000352E+00 0.  1.
</event>
<event>
 5   0  0.1164500E-08  0.3898524E+04  0.7818609E-02  0.8025336E-01
        3   -1    0    0  501    0  0.00000000000E+00  0.00000000000E+00  0.16640338627E+04  0.16640338657E+04  0.10100000352E+00 0. -1.
       -3   -1    0    0    0  501  0.00000000000E+00  0.00000000000E+00 -0.22833803650E+04  0.22833803673E+04  0.10100000352E+00 0.  1.
    10030    2    1    2    0    0  0.00000000000E+00  0.00000000000E+00 -0.61934650238E+03  0.39474142330E+04  0.38985239562E+04 0.  0.
        1    1    3    3  502    0 -0.51379858117E+03 -0.39242427513E+03 -0.21716572926E+04  0.22658510962E+04  0.50400001928E-02 0.  1.
       -1    1    3    3    0  502  0.51379858117E+03  0.39242427513E+03  0.15523107902E+04  0.16815631368E+04  0.50400001928E-02 0. -1.
</event>
<event>
 5   0  0.3769985E-08  0.3898590E+04  0.7818609E-02  0.8025323E-01
        2   -1    0    0  501    0  0.00000000000E+00  0.00000000000E+00  0.16454257198E+04  0.16454257198E+04  0.25500000920E-02 0.  1.
       -2   -1    0    0    0  501  0.00000000000E+00  0.00000000000E+00 -0.23092811492E+04  0.23092811492E+04  0.25500000920E-02 0. -1.
    10030    2    1    2    0    0  0.00000000000E+00  0.00000000000E+00 -0.66385542941E+03  0.39547068690E+04  0.38985897949E+04 0.  0.
        1    1    3    3  502    0  0.10202916380E+04 -0.93279498346E+03  0.10621352619E+04  0.17433395603E+04  0.50400001928E-02 0.  1.
       -1    1    3    3    0  502 -0.10202916380E+04  0.93279498346E+03 -0.17259906913E+04  0.22113673088E+04  0.50400001928E-02 0. -1.
</event>
<event>
 5   0  0.3669347E-08  0.3898411E+04  0.7818609E-02  0.8025360E-01
        2   -1    0    0  501    0  0.00000000000E+00  0.00000000000E+00  0.26036414391E+04  0.26036414391E+04  0.25500000920E-02 0.  1.
       -2   -1    0    0    0  501  0.00000000000E+00  0.00000000000E+00 -0.14592645673E+04  0.14592645673E+04  0.25500000920E-02 0. -1.
    10030    2    1    2    0    0  0.00000000000E+00  0.00000000000E+00  0.11443768718E+04  0.40629060063E+04  0.38984108033E+04 0.  0.
        5    1    3    3  502    0  0.12462825256E+04  0.12806475628E+04  0.13835637289E+04  0.22599887158E+04  0.46999998093E+01 0.  1.
       -5    1    3    3    0  502 -0.12462825256E+04 -0.12806475628E+04 -0.23918685712E+03  0.18029172905E+04  0.46999998093E+01 0. -1.
</event>
<event>
 5   0  0.1164500E-08  0.3886717E+04  0.7818609E-02  0.8027798E-01
        3   -1    0    0  501    0  0.00000000000E+00  0.00000000000E+00  0.21096985189E+04  0.21096985213E+04  0.10100000352E+00 0. -1.
       -3   -1    0    0    0  501  0.00000000000E+00  0.00000000000E+00 -0.17901332972E+04  0.17901333000E+04  0.10100000352E+00 0.  1.
    10030    2    1    2    0    0  0.00000000000E+00  0.00000000000E+00  0.31956522171E+03  0.38998318213E+04  0.38867166482E+04 0.  0.
        3    1    3    3  502    0  0.16385858080E+04  0.88951676754E+03  0.70975445339E+03  0.19949824371E+04  0.10100000352E+00 0. -1.
       -3    1    3    3    0  502 -0.16385858080E+04 -0.88951676754E+03 -0.39018923167E+03  0.19048493842E+04  0.10100000352E+00 0.  1.
</event>
<event>
 5   0  0.1164500E-08  0.3894443E+04  0.7818609E-02  0.8026186E-01
        1   -1    0    0  501    0  0.00000000000E+00  0.00000000000E+00  0.22640445523E+04  0.22640445523E+04  0.50400001928E-02 0.  1.
       -1   -1    0    0    0  501  0.00000000000E+00  0.00000000000E+00 -0.16747338543E+04  0.16747338543E+04  0.50400001928E-02 0. -1.
    10030    2    1    2    0    0  0.00000000000E+00  0.00000000000E+00  0.58931069804E+03  0.39387784066E+04  0.38944432513E+04 0.  0.
        1    1    3    3  502    0 -0.53557321781E+02  0.14423466683E+04 -0.10272976174E+04  0.17716017309E+04  0.50400001928E-02 0. -1.
       -1    1    3    3    0  502  0.53557321781E+02 -0.14423466683E+04  0.16166083154E+04  0.21671766757E+04  0.50400001928E-02 0.  1.
</event>
<event>
 5   0  0.3724293E-08  0.3898894E+04  0.7818609E-02  0.8025259E-01
        2   -1    0    0  501    0  0.00000000000E+00  0.00000000000E+00  0.20154919458E+04  0.20154919458E+04  0.25500000920E-02 0. -1.
       -2   -1    0    0    0  501  0.00000000000E+00  0.00000000000E+00 -0.18855665542E+04  0.18855665542E+04  0.25500000920E-02 0.  1.
    10030    2    1    2    0    0  0.00000000000E+00  0.00000000000E+00  0.12992539157E+03  0.39010584999E+04  0.38988943064E+04 0.  0.
        4    1    3    3  502    0 -0.13270006926E+04  0.13638433730E+04 -0.35876146015E+03  0.19364170476E+04  0.12699999809E+01 0.  1.
       -4    1    3    3    0  502  0.13270006926E+04 -0.13638433730E+04  0.48868685172E+03  0.19646414523E+04  0.12699999809E+01 0. -1.
</event>
<event>
 5   0  0.1164500E-08  0.3906965E+04  0.7818609E-02  0.8023582E-01
        1   -1    0    0  501    0  0.00000000000E+00  0.00000000000E+00  0.15170251352E+04  0.15170251352E+04  0.50400001928E-02 0. -1.
       -1   -1    0    0    0  501  0.00000000000E+00  0.00000000000E+00 -0.25155110586E+04  0.25155110586E+04  0.50400001928E-02 0.  1.
    10030    2    1    2    0    0  0.00000000000E+00  0.00000000000E+00 -0.99848592339E+03  0.40325361939E+04  0.39069648086E+04 0.  0.
        1    1    3    3  502    0  0.18358243319E+04  0.27409664470E+03 -0.11276745519E+04  0.21718724279E+04  0.50400001928E-02 0.  1.
       -1    1    3    3    0  502 -0.18358243319E+04 -0.27409664470E+03  0.12918862855E+03  0.18606637659E+04  0.50400001928E-02 0. -1.
</event>
<event>
 5   0  0.3724293E-08  0.3895803E+04  0.7818609E-02  0.8025903E-01
        2   -1    0    0  501    0  0.00000000000E+00  0.00000000000E+00  0.17395806686E+04  0.17395806686E+04  0.25500000920E-02 0.  1.
       -2   -1    0    0    0  501  0.00000000000E+00  0.00000000000E+00 -0.21811696934E+04  0.21811696934E+04  0.25500000920E-02 0. -1.
    10030    2    1    2    0    0  0.00000000000E+00  0.00000000000E+00 -0.44158902482E+03  0.39207503620E+04  0.38958031950E+04 0.  0.
        4    1    3    3  502    0  0.12940130667E+04 -0.92191451636E+03 -0.13549193114E+04  0.20881101852E+04  0.12699999809E+01 0. -1.
       -4    1    3    3    0  502 -0.12940130667E+04  0.92191451636E+03  0.91333028655E+03  0.18326401768E+04  0.12699999809E+01 0.  1.
</event>
<event>
 5   0  0.3769985E-08  0.3885819E+04  0.7818609E-02  0.8027985E-01
       -2   -1    0    0    0  501  0.00000000000E+00  0.00000000000E+00  0.16447076585E+04  0.16447076585E+04  0.25500000920E-02 0. -1.
        2   -1    0    0  501    0  0.00000000000E+00  0.00000000000E+00 -0.22951779236E+04  0.22951779236E+04  0.25500000920E-02 0.  1.
    10030    2    1    2    0    0  0.00000000000E+00  0.00000000000E+00 -0.65047026513E+03  0.39398855821E+04  0.38858186826E+04 0.  0.
        1    1    3    3  502    0 -0.94518694448E+02 -0.18214400017E+04 -0.10041178752E+04  0.20820254971E+04  0.50400001928E-02 0.  1.
       -1    1    3    3    0  502  0.94518694448E+02  0.18214400017E+04  0.35364761009E+03  0.18578600850E+04  0.50400001928E-02 0. -1.
</event>
<event>
 5   0  0.1164500E-08  0.3892231E+04  0.7818609E-02  0.8026647E-01
       -1   -1    0    0    0  501  0.00000000000E+00  0.00000000000E+00  0.15570375715E+04  0.15570375715E+04  0.50400001928E-02 0. -1.
        1   -1    0    0  501    0  0.00000000000E+00  0.00000000000E+00 -0.24324178651E+04  0.24324178651E+04  0.50400001928E-02 0.  1.
    10030    2    1    2    0    0  0.00000000000E+00  0.00000000000E+00 -0.87538029357E+03  0.39894554366E+04  0.38922312396E+04 0.  0.
        2    1    3    3  502    0  0.36993684923E+03  0.19050373926E+04 -0.28794051334E+03  0.19618691289E+04  0.25500000920E-02 0.  1.
       -2    1    3    3    0  502 -0.36993684923E+03 -0.19050373926E+04 -0.58743978023E+03  0.20275863077E+04  0.25500000920E-02 0. -1.
</event>
<event>
 5   0  0.1164500E-08  0.3905570E+04  0.7818609E-02  0.8023872E-01
        1   -1    0    0  501    0  0.00000000000E+00  0.00000000000E+00  0.11968413983E+04  0.11968413983E+04  0.50400001928E-02 0. -1.
       -1   -1    0    0    0  501  0.00000000000E+00  0.00000000000E+00 -0.31861946698E+04  0.31861946698E+04  0.50400001928E-02 0.  1.
    10030    2    1    2    0    0  0.00000000000E+00  0.00000000000E+00 -0.19893532716E+04  0.43830360681E+04  0.39055702190E+04 0.  0.
        1    1    3    3  502    0  0.10283997465E+04 -0.15623368816E+04 -0.36494683560E+03  0.19056990221E+04  0.50400001928E-02 0. -1.
       -1    1    3    3    0  502 -0.10283997465E+04  0.15623368816E+04 -0.16244064360E+04  0.24773370460E+04  0.50400001928E-02 0.  1.
</event>
<event>
 5   0  0.3724293E-08  0.3901600E+04  0.7818609E-02  0.8024697E-01
        2   -1    0    0  501    0  0.00000000000E+00  0.00000000000E+00  0.23686338162E+04  0.23686338162E+04  0.25500000920E-02 0.  1.
       -2   -1    0    0    0  501  0.00000000000E+00  0.00000000000E+00 -0.16066728774E+04  0.16066728774E+04  0.25500000920E-02 0. -1.
    10030    2    1    2    0    0  0.00000000000E+00  0.00000000000E+00  0.76196093881E+03  0.39753066936E+04  0.39015995227E+04 0.  0.
        4    1    3    3  502    0  0.11349056342E+04  0.15823032150E+04  0.26075198837E+03  0.19646087333E+04  0.12699999809E+01 0.  1.
       -4    1    3    3    0  502 -0.11349056342E+04 -0.15823032150E+04  0.50120895044E+03  0.20106979603E+04  0.12699999809E+01 0. -1.
</event>
<event>
 5   0  0.1164500E-08  0.3825512E+04  0.7818609E-02  0.8040702E-01
        1   -1    0    0  501    0  0.00000000000E+00  0.00000000000E+00  0.14040426180E+04  0.14040426180E+04  0.50400001928E-02 0.  1.
       -1   -1    0    0    0  501  0.00000000000E+00  0.00000000000E+00 -0.26057863081E+04  0.26057863082E+04  0.50400001928E-02 0. -1.
    10030    2    1    2    0    0  0.00000000000E+00  0.00000000000E+00 -0.12017436901E+04  0.40098289262E+04  0.38255117462E+04 0.  0.
        4    1    3    3  502    0 -0.12224699079E+04 -0.59415654686E+03  0.80977064268E+03  0.15821456268E+04  0.12699999809E+01 0.  1.
       -4    1    3    3    0  502  0.12224699079E+04  0.59415654686E+03 -0.20115143328E+04  0.24276832993E+04  0.12699999809E+01 0. -1.
</event>
<event>
 5   0  0.3724293E-08  0.3895856E+04  0.7818609E-02  0.8025892E-01
        2   -1    0    0  501    0  0.00000000000E+00  0.00000000000E+00  0.14153747713E+04  0.14153747713E+04  0.25500000920E-02 0.  1.
       -2   -1    0    0    0  501  0.00000000000E+00  0.00000000000E+00 -0.26808610011E+04  0.26808610011E+04  0.25500000920E-02 0. -1.
    10030    2    1    2    0    0  0.00000000000E+00  0.00000000000E+00 -0.12654862297E+04  0.40962357724E+04  0.38958557604E+04 0.  0.
        4    1    3    3  502    0 -0.93434151214E+03 -0.15838930490E+04 -0.13082109256E+04  0.22567961119E+04  0.12699999809E+01 0.  1.
       -4    1    3    3    0  502  0.93434151214E+03  0.15838930490E+04  0.42724695882E+02  0.18394396605E+04  0.12699999809E+01 0. -1.
</event>
<event>
 5   0  0.1164500E-08  0.3891199E+04  0.7818609E-02  0.8026862E-01
        1   -1    0    0  501    0  0.00000000000E+00  0.00000000000E+00  0.11098488694E+04  0.11098488694E+04  0.50400001928E-02 0.  1.
       -1   -1    0    0    0  501  0.00000000000E+00  0.00000000000E+00 -0.34106954580E+04  0.34106954580E+04  0.50400001928E-02 0. -1.
    10030    2    1    2    0    0  0.00000000000E+00  0.00000000000E+00 -0.23008465886E+04  0.45205443275E+04  0.38911985290E+04 0.  0.
        2    1    3    3  502    0  0.15473834571E+04 -0.69790048044E+03 -0.22549253801E+04  0.28224367334E+04  0.25500000920E-02 0. -1.
       -2    1    3    3    0  502 -0.15473834571E+04  0.69790048044E+03 -0.45921208503E+02  0.16981075941E+04  0.25500000920E-02 0.  1.
</event>
<event>
 5   0  0.3769985E-08  0.3900823E+04  0.7818609E-02  0.8024858E-01
       -2   -1    0    0    0  501  0.00000000000E+00  0.00000000000E+00  0.15924676956E+04  0.15924676956E+04  0.25500000920E-02 0. -1.
        2   -1    0    0  501    0  0.00000000000E+00  0.00000000000E+00 -0.23888115094E+04  0.23888115094E+04  0.25500000920E-02 0.  1.
    10030    2    1    2    0    0  0.00000000000E+00  0.00000000000E+00 -0.79634381378E+03  0.39812792051E+04  0.39008230720E+04 0.  0.
        1    1    3    3  502    0  0.18587007221E+04 -0.28148358980E+02  0.20438139682E+03  0.18701156274E+04  0.50400001928E-02 0. -1.
       -1    1    3    3    0  502 -0.18587007221E+04  0.28148358980E+02 -0.10007252106E+04  0.21111635777E+04  0.50400001928E-02 0.  1.
</event>
<event>
 5   0  0.1164500E-08  0.3900069E+04  0.7818609E-02  0.8025015E-01
        1   -1    0    0  501    0  0.00000000000E+00  0.00000000000E+00  0.16127829267E+04  0.16127829267E+04  0.50400001928E-02 0. -1.
       -1   -1    0    0    0  501  0.00000000000E+00  0.00000000000E+00 -0.23578089376E+04  0.23578089376E+04  0.50400001928E-02 0.  1.
    10030    2    1    2    0    0  0.00000000000E+00  0.00000000000E+00 -0.74502601098E+03  0.39705918643E+04  0.39000687168E+04 0.  0.
        3    1    3    3  502    0  0.39868277739E+03  0.18960657224E+04 -0.14802451705E+03  0.19431738081E+04  0.10100000352E+00 0.  1.
       -3    1    3    3    0  502 -0.39868277739E+03 -0.18960657224E+04 -0.59700149392E+03  0.20274180562E+04  0.10100000352E+00 0. -1.
</event>
<event>
 5   0  0.1164500E-08  0.3906801E+04  0.7818609E-02  0.8023616E-01
        1   -1    0    0  501    0  0.00000000000E+00  0.00000000000E+00  0.15090886878E+04  0.15090886878E+04  0.50400001928E-02 0. -1.
       -1   -1    0    0    0  501  0.00000000000E+00  0.00000000000E+00 -0.25285282817E+04  0.25285282817E+04  0.50400001928E-02 0.  1.
    10030    2    1    2    0    0  0.00000000000E+00  0.00000000000E+00 -0.10194395939E+04  0.40376169695E+04  0.39068009557E+04 0.  0.
        1    1    3    3  502    0  0.14215749528E+04  0.78196953854E+03 -0.16339975056E+04  0.23026722637E+04  0.50400001928E-02 0. -1.
       -1    1    3    3    0  502 -0.14215749528E+04 -0.78196953854E+03  0.61455791175E+03  0.17349447059E+04  0.50400001928E-02 0.  1.
</event>
<event>
 5   0  0.1164500E-08  0.3905748E+04  0.7818609E-02  0.8023835E-01
       -1   -1    0    0    0  501  0.00000000000E+00  0.00000000000E+00  0.15682390622E+04  0.15682390622E+04  0.50400001928E-02 0. -1.
        1   -1    0    0  501    0  0.00000000000E+00  0.00000000000E+00 -0.24318461643E+04  0.24318461643E+04  0.50400001928E-02 0.  1.
    10030    2    1    2    0    0  0.00000000000E+00  0.00000000000E+00 -0.86360710210E+03  0.40000852265E+04  0.39057476356E+04 0.  0.
        3    1    3    3  502    0 -0.19389315342E+03  0.18941400726E+04  0.12677863446E+02  0.19040803313E+04  0.10100000352E+00 0. -1.
       -3    1    3    3    0  502  0.19389315342E+03 -0.18941400726E+04 -0.87628496554E+03  0.20960048952E+04  0.10100000352E+00 0.  1.
</event>
<event>
 5   0  0.3690572E-08  0.3882227E+04  0.7818609E-02  0.8028736E-01
       -2   -1    0    0    0  501  0.00000000000E+00  0.00000000000E+00  0.18361897614E+04  0.18361897614E+04  0.25500000920E-02 0.  1.
        2   -1    0    0  501    0  0.00000000000E+00  0.00000000000E+00 -0.20520331460E+04  0.20520331460E+04  0.25500000920E-02 0. -1.
    10030    2    1    2    0    0  0.00000000000E+00  0.00000000000E+00 -0.21584338458E+03  0.38882229074E+04  0.38822273260E+04 0.  0.
        3    1    3    3  502    0  0.24411020778E+03 -0.14766033753E+04  0.11301001458E+04  0.18753862725E+04  0.10100000352E+00 0.  1.
       -3    1    3    3    0  502 -0.24411020778E+03  0.14766033753E+04 -0.13459435304E+04  0.20128366348E+04  0.10100000352E+00 0. -1.
</event>
<event>
 5   0  0.3872969E-08  0.3897868E+04  0.7818609E-02  0.8025473E-01
        2   -1    0    0  501    0  0.00000000000E+00  0.00000000000E+00  0.18706977991E+04  0.18706977991E+04  0.25500000920E-02 0. -1.
       -2   -1    0    0    0  501  0.00000000000E+00  0.00000000000E+00 -0.20304418492E+04  0.20304418492E+04  0.25500000920E-02 0.  1.
    10030    2    1    2    0    0  0.00000000000E+00  0.00000000000E+00 -0.15974405003E+03  0.39011396483E+04  0.38978676727E+04 0.  0.
        2    1    3    3  502    0  0.17560310951E+04  0.60764425367E+03  0.50838521776E+03  0.19264818389E+04  0.25500000920E-02 0. -1.
       -2    1    3    3    0  502 -0.17560310951E+04 -0.60764425367E+03 -0.66812926779E+03  0.19746578094E+04  0.25500000920E-02 0.  1.
</event>
<event>
 5   0  0.1164500E-08  0.3908023E+04  0.7818609E-02  0.8023363E-01
        1   -1    0    0  501    0  0.00000000000E+00  0.00000000000E+00  0.22510671324E+04  0.22510671324E+04  0.50400001928E-02 0.  1.
       -1   -1    0    0    0  501  0.00000000000E+00  0.00000000000E+00 -0.16961560323E+04  0.16961560323E+04  0.50400001928E-02 0. -1.
    10030    2    1    2    0    0  0.00000000000E+00  0.00000000000E+00  0.55491110013E+03  0.39472231647E+04  0.39080230786E+04 0.  0.
        4    1    3    3  502    0  0.83066838702E+03 -0.15829584186E+04  0.10742872761E+04  0.20856322995E+04  0.12699999809E+01 0.  1.
       -4    1    3    3    0  502 -0.83066838702E+03  0.15829584186E+04 -0.51937617596E+03  0.18615908652E+04  0.12699999809E+01 0. -1.
</event>
<event>
 5   0  0.3769985E-08  0.3900072E+04  0.7818609E-02  0.8025014E-01
       -2   -1    0    0    0  501  0.00000000000E+00  0.00000000000E+00  0.17261076573E+04  0.17261076573E+04  0.25500000920E-02 0. -1.
        2   -1    0    0  501    0  0.00000000000E+00  0.00000000000E+00 -0.22030151370E+04  0.22030151370E+04  0.25500000920E-02 0.  1.
    10030    2    1    2    0    0  0.00000000000E+00  0.00000000000E+00 -0.47690747969E+03  0.39291227944E+04  0.39000724594E+04 0.  0.
        1    1    3    3  502    0  0.42962051886E+03 -0.62709911275E+03 -0.20476066508E+04  0.21841520285E+04  0.50400001928E-02 0.  1.
       -1    1    3    3    0  502 -0.42962051886E+03  0.62709911275E+03  0.15706991711E+04  0.17449707658E+04  0.50400001928E-02 0. -1.
</event>
<event>
 5   0  0.3669347E-08  0.3900203E+04  0.7818609E-02  0.8024987E-01
        2   -1    0    0  501    0  0.00000000000E+00  0.00000000000E+00  0.19765168549E+04  0.19765168549E+04  0.25500000920E-02 0. -1.
       -2   -1    0    0    0  501  0.00000000000E+00  0.00000000000E+00 -0.19240392877E+04  0.19240392877E+04  0.25500000920E-02 0.  1.
    10030    2    1    2    0    0  0.00000000000E+00  0.00000000000E+00  0.52477567200E+02  0.39005561427E+04  0.39002031136E+04 0.  0.
        5    1    3    3  502    0  0.11712610674E+04  0.96023979538E+03 -0.12022701584E+04  0.19337498743E+04  0.46999998093E+01 0.  1.
       -5    1    3    3    0  502 -0.11712610674E+04 -0.96023979538E+03  0.12547477256E+04  0.19668062684E+04  0.46999998093E+01 0. -1.
</event>
<event>
 5   0  0.1164500E-08  0.3903833E+04  0.7818609E-02  0.8024232E-01
       -1   -1    0    0    0  501  0.00000000000E+00  0.00000000000E+00  0.22733797573E+04  0.22733797573E+04  0.50400001928E-02 0. -1.
        1   -1    0    0  501    0  0.00000000000E+00  0.00000000000E+00 -0.16759096122E+04  0.16759096122E+04  0.50400001928E-02 0.  1.
    10030    2    1    2    0    0  0.00000000000E+00  0.00000000000E+00  0.59747014516E+03  0.39492893695E+04  0.39038334941E+04 0.  0.
        4    1    3    3  502    0  0.16217749456E+04 -0.10823114377E+04  0.20587656386E+03  0.19605965405E+04  0.12699999809E+01 0.  1.
       -4    1    3    3    0  502 -0.16217749456E+04  0.10823114377E+04  0.39159358130E+03  0.19886928290E+04  0.12699999809E+01 0. -1.
</event>
<event>
 5   0  0.3769985E-08  0.3900614E+04  0.7818609E-02  0.8024902E-01
       -2   -1    0    0    0  501  0.00000000000E+00  0.00000000000E+00  0.28365337615E+04  0.28365337615E+04  0.25500000920E-02 0.  1.
        2   -1    0    0  501    0  0.00000000000E+00  0.00000000000E+00 -0.13409667120E+04  0.13409667120E+04  0.25500000920E-02 0. -1.
    10030    2    1    2    0    0  0.00000000000E+00  0.00000000000E+00  0.14955670494E+04  0.41775004735E+04  0.39006139782E+04 0.  0.
        1    1    3    3  502    0 -0.17763581761E+04  0.52935852841E+02 -0.11264292720E+03  0.17807130604E+04  0.50400001928E-02 0.  1.
       -1    1    3    3    0  502  0.17763581761E+04 -0.52935852841E+02  0.16082099766E+04  0.23967874131E+04  0.50400001928E-02 0. -1.
</event>
<event>
 5   0  0.1164500E-08  0.3894525E+04  0.7818609E-02  0.8026169E-01
       -1   -1    0    0    0  501  0.00000000000E+00  0.00000000000E+00  0.22074590938E+04  0.22074590938E+04  0.50400001928E-02 0.  1.
        1   -1    0    0  501    0  0.00000000000E+00  0.00000000000E+00 -0.17177353837E+04  0.17177353837E+04  0.50400001928E-02 0. -1.
    10030    2    1    2    0    0  0.00000000000E+00  0.00000000000E+00  0.48972371009E+03  0.39251944775E+04  0.38945246660E+04 0.  0.
        1    1    3    3  502    0 -0.75350790058E+03 -0.56880669985E+03 -0.14716401156E+04  0.17484392605E+04  0.50400001928E-02 0. -1.
       -1    1    3    3    0  502  0.75350790058E+03  0.56880669985E+03  0.19613638257E+04  0.21767552170E+04  0.50400001928E-02 0.  1.
</event>
<event>
 5   0  0.3769985E-08  0.3917889E+04  0.7818609E-02  0.8021319E-01
       -2   -1    0    0    0  501  0.00000000000E+00  0.00000000000E+00  0.15024024131E+04  0.15024024132E+04  0.25500000920E-02 0.  1.
        2   -1    0    0  501    0  0.00000000000E+00  0.00000000000E+00 -0.25542183502E+04  0.25542183502E+04  0.25500000920E-02 0. -1.
    10030    2    1    2    0    0  0.00000000000E+00  0.00000000000E+00 -0.10518159370E+04  0.40566207633E+04  0.39178891322E+04 0.  0.
        1    1    3    3  502    0  0.44796991302E+03  0.18928209759E+04 -0.28526589481E+03  0.19659157969E+04  0.50400001928E-02 0.  1.
       -1    1    3    3    0  502 -0.44796991302E+03 -0.18928209759E+04 -0.76655004223E+03  0.20907049665E+04  0.50400001928E-02 0. -1.
</event>
<event>
 5   0  0.1164500E-08  0.3905083E+04  0.7818609E-02  0.8023973E-01
        1   -1    0    0  501    0  0.00000000000E+00  0.00000000000E+00  0.14657615163E+04  0.14657615163E+04  0.50400001928E-02 0.  1.
       -1   -1    0    0    0  501  0.00000000000E+00  0.00000000000E+00 -0.26009811574E+04  0.26009811574E+04  0.50400001928E-02 0. -1.
    10030    2    1    2    0    0  0.00000000000E+00  0.00000000000E+00 -0.11352196412E+04  0.40667426737E+04  0.39050828852E+04 0.  0.
        4    1    3    3  502    0  0.29313539124E+02  0.62314951627E+03  0.13591839316E+04  0.14955123457E+04  0.12699999809E+01 0.  1.
       -4    1    3    3    0  502 -0.29313539124E+02 -0.62314951627E+03 -0.24944035728E+04  0.25712303281E+04  0.12699999809E+01 0. -1.
</event>
<event>
 5   0  0.3872969E-08  0.3880237E+04  0.7818609E-02  0.8029152E-01
       -2   -1    0    0    0  501  0.00000000000E+00  0.00000000000E+00  0.18412091033E+04  0.18412091033E+04  0.25500000920E-02 0.  1.
        2   -1    0    0  501    0  0.00000000000E+00  0.00000000000E+00 -0.20443410285E+04  0.20443410285E+04  0.25500000920E-02 0. -1.
    10030    2    1    2    0    0  0.00000000000E+00  0.00000000000E+00 -0.20313192520E+03  0.38855501318E+04  0.38802367515E+04 0.  0.
        2    1    3    3  502    0  0.10848682203E+04 -0.15821141336E+04  0.18871911839E+03  0.19275993082E+04  0.25500000920E-02 0. -1.
       -2    1    3    3    0  502 -0.10848682203E+04  0.15821141336E+04 -0.39185104358E+03  0.19579508236E+04  0.25500000920E-02 0.  1.
</event>
<event>
 5   0  0.3872969E-08  0.3892700E+04  0.7818609E-02  0.8026549E-01
       -2   -1    0    0    0  501  0.00000000000E+00  0.00000000000E+00  0.20170964535E+04  0.20170964535E+04  0.25500000920E-02 0.  1.
        2   -1    0    0  501    0  0.00000000000E+00  0.00000000000E+00 -0.18780850625E+04  0.18780850625E+04  0.25500000920E-02 0. -1.
    10030    2    1    2    0    0  0.00000000000E+00  0.00000000000E+00  0.13901139104E+03  0.38951815160E+04  0.38927002037E+04 0.  0.
        2    1    3    3  502    0 -0.24723612693E+03 -0.95278228501E+03  0.17496706727E+04  0.20075525518E+04  0.25500000920E-02 0.  1.
       -2    1    3    3    0  502  0.24723612693E+03  0.95278228501E+03 -0.16106592817E+04  0.18876289643E+04  0.25500000920E-02 0. -1.
</event>
<event>
 5   0  0.1164500E-08  0.3900406E+04  0.7818609E-02  0.8024945E-01
       -1   -1    0    0    0  501  0.00000000000E+00  0.00000000000E+00  0.26454921141E+04  0.26454921141E+04  0.50400001928E-02 0.  1.
        1   -1    0    0  501    0  0.00000000000E+00  0.00000000000E+00 -0.14376498800E+04  0.14376498800E+04  0.50400001928E-02 0. -1.
    10030    2    1    2    0    0  0.00000000000E+00  0.00000000000E+00  0.12078422341E+04  0.40831419941E+04  0.39004058355E+04 0.  0.
        1    1    3    3  502    0  0.11814978263E+03  0.20653989220E+03  0.26302391041E+04  0.26409800913E+04  0.50400001928E-02 0.  1.
       -1    1    3    3    0  502 -0.11814978263E+03 -0.20653989220E+03 -0.14223968700E+04  0.14421619028E+04  0.50400001928E-02 0. -1.
</event>
<event>
 5   0  0.1164500E-08  0.3926729E+04  0.7818609E-02  0.8019493E-01
       -1   -1    0    0    0  501  0.00000000000E+00  0.00000000000E+00  0.12521522011E+04  0.12521522011E+04  0.50400001928E-02 0. -1.
        1   -1    0    0  501    0  0.00000000000E+00  0.00000000000E+00 -0.30785389548E+04  0.30785389548E+04  0.50400001928E-02 0.  1.
    10030    2    1    2    0    0  0.00000000000E+00  0.00000000000E+00 -0.18263867537E+04  0.43306911560E+04  0.39267285766E+04 0.  0.
        5    1    3    3  502    0  0.77681862669E+03  0.82248363706E+02  0.10733798922E+04  0.13275460275E+04  0.46999998093E+01 0. -1.
       -5    1    3    3    0  502 -0.77681862669E+03 -0.82248363706E+02 -0.28997666459E+04  0.30031451285E+04  0.46999998093E+01 0.  1.
</event>
<event>
 5   0  0.1164500E-08  0.3908185E+04  0.7818609E-02  0.8023329E-01
       -1   -1    0    0    0  501  0.00000000000E+00  0.00000000000E+00  0.15026142118E+04  0.15026142118E+04  0.50400001928E-02 0.  1.
        1   -1    0    0  501    0  0.00000000000E+00  0.00000000000E+00 -0.25412226671E+04  0.25412226671E+04  0.50400001928E-02 0. -1.
    10030    2    1    2    0    0  0.00000000000E+00  0.00000000000E+00 -0.10386084552E+04  0.40438368789E+04  0.39081848958E+04 0.  0.
        2    1    3    3  502    0 -0.20331593177E+03  0.76433252850E+03  0.13295965874E+04  0.15470516046E+04  0.25500000920E-02 0.  1.
       -2    1    3    3    0  502  0.20331593177E+03 -0.76433252850E+03 -0.23682050426E+04  0.24967852743E+04  0.25500000920E-02 0. -1.
</event>
<event>
 5   0  0.3690572E-08  0.3897737E+04  0.7818609E-02  0.8025500E-01
        2   -1    0    0  501    0  0.00000000000E+00  0.00000000000E+00  0.18758129921E+04  0.18758129921E+04  0.25500000920E-02 0.  1.
       -2   -1    0    0    0  501  0.00000000000E+00  0.00000000000E+00 -0.20247687427E+04  0.20247687427E+04  0.25500000920E-02 0. -1.
    10030    2    1    2    0    0  0.00000000000E+00  0.00000000000E+00 -0.14895575055E+03  0.39005817348E+04  0.38977365296E+04 0.  0.
        3    1    3    3  502    0  0.33490190336E+03 -0.13001015739E+04 -0.14881888440E+04  0.20042777834E+04  0.10100000352E+00 0. -1.
       -3    1    3    3    0  502 -0.33490190336E+03  0.13001015739E+04  0.13392330935E+04  0.18963039514E+04  0.10100000352E+00 0.  1.
</event>
<event>
 5   0  0.1164500E-08  0.3880480E+04  0.7818609E-02  0.8029101E-01
        1   -1    0    0  501    0  0.00000000000E+00  0.00000000000E+00  0.23654085639E+04  0.23654085639E+04  0.50400001928E-02 0.  1.
       -1   -1    0    0    0  501  0.00000000000E+00  0.00000000000E+00 -0.15914931071E+04  0.15914931071E+04  0.50400001928E-02 0. -1.
    10030    2    1    2    0    0  0.00000000000E+00  0.00000000000E+00  0.77391545687E+03  0.39569016710E+04  0.38804800862E+04 0.  0.
        2    1    3    3  502    0  0.10177688029E+04  0.80944477871E+03  0.18552734040E+04  0.22656331542E+04  0.25500000920E-02 0.  1.
       -2    1    3    3    0  502 -0.10177688029E+04 -0.80944477871E+03 -0.10813579472E+04  0.16912685168E+04  0.25500000920E-02 0. -1.
</event>
<event>
 5   0  0.1164500E-08  0.3903930E+04  0.7818609E-02  0.8024212E-01
       -1   -1    0    0    0  501  0.00000000000E+00  0.00000000000E+00  0.18126178670E+04  0.18126178670E+04  0.50400001928E-02 0. -1.
        1   -1    0    0  501    0  0.00000000000E+00  0.00000000000E+00 -0.21020250226E+04  0.21020250226E+04  0.50400001928E-02 0.  1.
    10030    2    1    2    0    0  0.00000000000E+00  0.00000000000E+00 -0.28940715560E+03  0.39146428896E+04  0.39039303851E+04 0.  0.
        1    1    3    3  502    0 -0.11874285932E+04  0.14375285200E+04 -0.72395054093E+03  0.20001448187E+04  0.50400001928E-02 0. -1.
       -1    1    3    3    0  502  0.11874285932E+04 -0.14375285200E+04  0.43454338533E+03  0.19144980709E+04  0.50400001928E-02 0.  1.
</event>
<event>
 5   0  0.3769985E-08  0.3893926E+04  0.7818609E-02  0.8026294E-01
       -2   -1    0    0    0  501  0.00000000000E+00  0.00000000000E+00  0.13805360668E+04  0.13805360668E+04  0.25500000920E-02 0.  1.
        2   -1    0    0  501    0  0.00000000000E+00  0.00000000000E+00 -0.27457924743E+04  0.27457924743E+04  0.25500000920E-02 0. -1.
    10030    2    1    2    0    0  0.00000000000E+00  0.00000000000E+00 -0.13652564075E+04  0.41263285411E+04  0.38939263181E+04 0.  0.
        1    1    3    3  502    0 -0.37625311709E+03 -0.47260238638E+03  0.12787153012E+04  0.14142249627E+04  0.50400001928E-02 0.  1.
       -1    1    3    3    0  502  0.37625311709E+03  0.47260238638E+03 -0.26439717087E+04  0.27121035784E+04  0.50400001928E-02 0. -1.
</event>
<event>
 5   0  0.1164500E-08  0.3899835E+04  0.7818609E-02  0.8025063E-01
       -1   -1    0    0    0  501  0.00000000000E+00  0.00000000000E+00  0.17096930497E+04  0.17096930497E+04  0.50400001928E-02 0. -1.
        1   -1    0    0  501    0  0.00000000000E+00  0.00000000000E+00 -0.22238956397E+04  0.22238956397E+04  0.50400001928E-02 0.  1.
    10030    2    1    2    0    0  0.00000000000E+00  0.00000000000E+00 -0.51420258998E+03  0.39335886894E+04  0.38998353393E+04 0.  0.
        5    1    3    3  502    0  0.72140090470E+03 -0.64014487026E+03  0.14522497934E+04  0.17433462859E+04  0.46999998093E+01 0. -1.
       -5    1    3    3    0  502 -0.72140090470E+03  0.64014487026E+03 -0.19664523833E+04  0.21902424035E+04  0.46999998093E+01 0.  1.
</event>
<event>
 5   0  0.3872969E-08  0.3897077E+04  0.7818609E-02  0.8025637E-01
        2   -1    0    0  501    0  0.00000000000E+00  0.00000000000E+00  0.14364434055E+04  0.14364434055E+04  0.25500000920E-02 0. -1.
       -2   -1    0    0    0  501  0.00000000000E+00  0.00000000000E+00 -0.26431961901E+04  0.26431961901E+04  0.25500000920E-02 0.  1.
    10030    2    1    2    0    0  0.00000000000E+00  0.00000000000E+00 -0.12067527846E+04  0.40796395956E+04  0.38970767181E+04 0.  0.
        2    1    3    3  502    0  0.16639793357E+04  0.75656133973E+03 -0.13099699451E+04  0.22488293727E+04  0.25500000920E-02 0.  1.
       -2    1    3    3    0  502 -0.16639793357E+04 -0.75656133973E+03  0.10321716049E+03  0.18308102230E+04  0.25500000920E-02 0. -1.
</event>
<event>
 5   0  0.3872969E-08  0.3914026E+04  0.7818609E-02  0.8022118E-01
        2   -1    0    0  501    0  0.00000000000E+00  0.00000000000E+00  0.17900575481E+04  0.17900575481E+04  0.25500000920E-02 0.  1.
       -2   -1    0    0    0  501  0.00000000000E+00  0.00000000000E+00 -0.21395401919E+04  0.21395401919E+04  0.25500000920E-02 0. -1.
    10030    2    1    2    0    0  0.00000000000E+00  0.00000000000E+00 -0.34948264384E+03  0.39295977400E+04  0.39140260960E+04 0.  0.
        2    1    3    3  502    0 -0.14768697715E+03  0.17160249678E+04  0.75811993082E+03  0.18818339361E+04  0.25500000920E-02 0. -1.
       -2    1    3    3    0  502  0.14768697715E+03 -0.17160249678E+04 -0.11076025747E+04  0.20477638040E+04  0.25500000920E-02 0.  1.
</event>
<event>
 5   0  0.1164500E-08  0.3895589E+04  0.7818609E-02  0.8025947E-01
        1   -1    0    0  501    0  0.00000000000E+00  0.00000000000E+00  0.20921350803E+04  0.20921350803E+04  0.50400001928E-02 0. -1.
       -1   -1    0    0    0  501  0.00000000000E+00  0.00000000000E+00 -0.18134119024E+04  0.18134119024E+04  0.50400001928E-02 0.  1.
    10030    2    1    2    0    0  0.00000000000E+00  0.00000000000E+00  0.27872317791E+03  0.39055469827E+04  0.38955886108E+04 0.  0.
        3    1    3    3  502    0 -0.16372050004E+04  0.15530128323E+03 -0.90702289421E+03  0.18780972399E+04  0.10100000352E+00 0.  1.
       -3    1    3    3    0  502  0.16372050004E+04 -0.15530128323E+03  0.11857460721E+04  0.20274497428E+04  0.10100000352E+00 0. -1.
</event>
<event>
 5   0  0.3669347E-08  0.3921579E+04  0.7818609E-02  0.8020556E-01
        2   -1    0    0  501    0  0.00000000000E+00  0.00000000000E+00  0.32836453499E+04  0.32836453499E+04  0.25500000920E-02 0.  1.
       -2   -1    0    0    0  501  0.00000000000E+00  0.00000000000E+00 -0.11708620109E+04  0.11708620109E+04  0.25500000920E-02 0. -1.
    10030    2    1    2    0    0  0.00000000000E+00  0.00000000000E+00  0.21127833389E+04  0.44545073608E+04  0.39215790684E+04 0.  0.
        5    1    3    3  502    0 -0.13892080421E+04  0.12655656359E+04  0.16920047445E+04  0.25287264598E+04  0.46999998093E+01 0.  1.
       -5    1    3    3    0  502  0.13892080421E+04 -0.12655656359E+04  0.42077859445E+03  0.19257809010E+04  0.46999998093E+01 0. -1.
</event>
<event>
 5   0  0.1164500E-08  0.3901508E+04  0.7818609E-02  0.8024716E-01
       -1   -1    0    0    0  501  0.00000000000E+00  0.00000000000E+00  0.20301644295E+04  0.20301644295E+04  0.50400001928E-02 0.  1.
        1   -1    0    0  501    0  0.00000000000E+00  0.00000000000E+00 -0.18744494887E+04  0.18744494887E+04  0.50400001928E-02 0. -1.
    10030    2    1    2    0    0  0.00000000000E+00  0.00000000000E+00  0.15571494084E+03  0.39046139182E+04  0.39015077480E+04 0.  0.
        4    1    3    3  502    0 -0.11557726596E+04  0.50077438604E+03  0.15686250940E+04  0.20117583664E+04  0.12699999809E+01 0.  1.
       -4    1    3    3    0  502  0.11557726596E+04 -0.50077438604E+03 -0.14129101531E+04  0.18928555518E+04  0.12699999809E+01 0. -1.
</event>
<event>
 5   0  0.3872969E-08  0.3896617E+04  0.7818609E-02  0.8025733E-01
       -2   -1    0    0    0  501  0.00000000000E+00  0.00000000000E+00  0.18551243581E+04  0.18551243581E+04  0.25500000920E-02 0.  1.
        2   -1    0    0  501    0  0.00000000000E+00  0.00000000000E+00 -0.20461738137E+04  0.20461738137E+04  0.25500000920E-02 0. -1.
    10030    2    1    2    0    0  0.00000000000E+00  0.00000000000E+00 -0.19104945564E+03  0.39012981718E+04  0.38966174473E+04 0.  0.
        2    1    3    3  502    0  0.94974053364E+03 -0.91536368938E+03 -0.15311261886E+04  0.20209515507E+04  0.25500000920E-02 0. -1.
       -2    1    3    3    0  502 -0.94974053364E+03  0.91536368938E+03  0.13400767329E+04  0.18803466210E+04  0.25500000920E-02 0.  1.
</event>
<event>
 5   0  0.1164500E-08  0.3898669E+04  0.7818609E-02  0.8025306E-01
       -1   -1    0    0    0  501  0.00000000000E+00  0.00000000000E+00  0.14905581123E+04  0.14905581123E+04  0.50400001928E-02 0.  1.
        1   -1    0    0  501    0  0.00000000000E+00  0.00000000000E+00 -0.25493174485E+04  0.25493174485E+04  0.50400001928E-02 0. -1.
    10030    2    1    2    0    0  0.00000000000E+00  0.00000000000E+00 -0.10587593362E+04  0.40398755608E+04  0.38986694160E+04 0.  0.
        5    1    3    3  502    0 -0.11347380966E+04  0.14470648916E+04  0.14077161936E+03  0.18443063973E+04  0.46999998093E+01 0.  1.
       -5    1    3    3    0  502  0.11347380966E+04 -0.14470648916E+04 -0.11995309556E+04  0.21955691635E+04  0.46999998093E+01 0. -1.
</event>
<event>
 5   0  0.1164500E-08  0.3905465E+04  0.7818609E-02  0.8023894E-01
        1   -1    0    0  501    0  0.00000000000E+00  0.00000000000E+00  0.18229498346E+04  0.18229498346E+04  0.50400001928E-02 0.  1.
       -1   -1    0    0    0  501  0.00000000000E+00  0.00000000000E+00 -0.20917545769E+04  0.20917545769E+04  0.50400001928E-02 0. -1.
    10030    2    1    2    0    0  0.00000000000E+00  0.00000000000E+00 -0.26880474234E+03  0.39147044115E+04  0.39054647149E+04 0.  0.
        2    1    3    3  502    0 -0.58275915502E+03 -0.12501536495E+04  0.12511381917E+04  0.18622135095E+04  0.25500000920E-02 0.  1.
       -2    1    3    3    0  502  0.58275915502E+03  0.12501536495E+04 -0.15199429340E+04  0.20524909020E+04  0.25500000920E-02 0. -1.
</event>
<event>
 5   0  0.1164500E-08  0.3915652E+04  0.7818609E-02  0.8021782E-01
        1   -1    0    0  501    0  0.00000000000E+00  0.00000000000E+00  0.12274161042E+04  0.12274161042E+04  0.50400001928E-02 0. -1.
       -1   -1    0    0    0  501  0.00000000000E+00  0.00000000000E+00 -0.31228884793E+04  0.31228884793E+04  0.50400001928E-02 0.  1.
    10030    2    1    2    0    0  0.00000000000E+00  0.00000000000E+00 -0.18954723751E+04  0.43503045835E+04  0.39156524928E+04 0.  0.
        5    1    3    3  502    0 -0.91418231681E+03 -0.15524898496E+04 -0.96452464507E+02  0.18042392328E+04  0.46999998093E+01 0. -1.
       -5    1    3    3    0  502  0.91418231681E+03  0.15524898496E+04 -0.17990199106E+04  0.25460653507E+04  0.46999998093E+01 0.  1.
</event>
<event>
 5   0  0.3872969E-08  0.3894796E+04  0.7818609E-02  0.8026112E-01
       -2   -1    0    0    0  501  0.00000000000E+00  0.00000000000E+00  0.32033352308E+04  0.32033352308E+04  0.25500000920E-02 0.  1.
        2   -1    0    0  501    0  0.00000000000E+00  0.00000000000E+00 -0.11838780736E+04  0.11838780736E+04  0.25500000920E-02 0. -1.
    10030    2    1    2    0    0  0.00000000000E+00  0.00000000000E+00  0.20194571572E+04  0.43872133044E+04  0.38947956774E+04 0.  0.
        2    1    3    3  502    0 -0.16965081535E+04  0.62079820515E+03  0.18288745470E+04  0.25706638122E+04  0.25500000920E-02 0.  1.
       -2    1    3    3    0  502  0.16965081535E+04 -0.62079820515E+03  0.19058261020E+03  0.18165494922E+04  0.25500000920E-02 0. -1.
</event>
<event>
 5   0  0.3872969E-08  0.3894528E+04  0.7818609E-02  0.8026168E-01
        2   -1    0    0  501    0  0.00000000000E+00  0.00000000000E+00  0.16149657988E+04  0.16149657989E+04  0.25500000920E-02 0. -1.
       -2   -1    0    0    0  501  0.00000000000E+00  0.00000000000E+00 -0.23479364188E+04  0.23479364188E+04  0.25500000920E-02 0.  1.
    10030    2    1    2    0    0  0.00000000000E+00  0.00000000000E+00 -0.73297061992E+03  0.39629022176E+04  0.38945279633E+04 0.  0.
        2    1    3    3  502    0 -0.41002530226E+03  0.36824011379E+03  0.15339537920E+04  0.16299496207E+04  0.25500000920E-02 0. -1.
       -2    1    3    3    0  502  0.41002530226E+03 -0.36824011379E+03 -0.22669244120E+04  0.23329525969E+04  0.25500000920E-02 0.  1.
</event>
<event>
 5   0  0.1164500E-08  0.3898515E+04  0.7818609E-02  0.8025338E-01
       -1   -1    0    0    0  501  0.00000000000E+00  0.00000000000E+00  0.14274382893E+04  0.14274382893E+04  0.50400001928E-02 0.  1.
        1   -1    0    0  501    0  0.00000000000E+00  0.00000000000E+00 -0.26618348346E+04  0.26618348346E+04  0.50400001928E-02 0. -1.
    10030    2    1    2    0    0  0.00000000000E+00  0.00000000000E+00 -0.12343965453E+04  0.40892731239E+04  0.38985150828E+04 0.  0.
        4    1    3    3  502    0  0.18270530744E+04 -0.67931641930E+03 -0.62045092678E+03  0.20456184149E+04  0.12699999809E+01 0. -1.
       -4    1    3    3    0  502 -0.18270530744E+04  0.67931641930E+03 -0.61394561856E+03  0.20436547090E+04  0.12699999809E+01 0.  1.
</event>
<event>
 5   0  0.3724293E-08  0.3896967E+04  0.7818609E-02  0.8025660E-01
        2   -1    0    0  501    0  0.00000000000E+00  0.00000000000E+00  0.23418554173E+04  0.23418554173E+04  0.25500000920E-02 0. -1.
       -2   -1    0    0    0  501  0.00000000000E+00  0.00000000000E+00 -0.16211880909E+04  0.16211880909E+04  0.25500000920E-02 0.  1.
    10030    2    1    2    0    0  0.00000000000E+00  0.00000000000E+00  0.72066732636E+03  0.39630435081E+04  0.38969670838E+04 0.  0.
        4    1    3    3  502    0  0.11942699111E+03 -0.91510429417E+02  0.23359388015E+04  0.23407794988E+04  0.12699999809E+01 0. -1.
       -4    1    3    3    0  502 -0.11942699111E+03  0.91510429417E+02 -0.16152714751E+04  0.16222640094E+04  0.12699999809E+01 0.  1.
</event>
<event>
 5   0  0.1164500E-08  0.3904183E+04  0.7818609E-02  0.8024160E-01
        1   -1    0    0  501    0  0.00000000000E+00  0.00000000000E+00  0.26610419554E+04  0.26610419554E+04  0.50400001928E-02 0. -1.
       -1   -1    0    0    0  501  0.00000000000E+00  0.00000000000E+00 -0.14320187537E+04  0.14320187537E+04  0.50400001928E-02 0.  1.
    10030    2    1    2    0    0  0.00000000000E+00  0.00000000000E+00  0.12290232017E+04  0.40930607092E+04  0.39041833895E+04 0.  0.
        5    1    3    3  502    0  0.13747355865E+04  0.89988827318E+03  0.17195156681E+04  0.23783298888E+04  0.46999998093E+01 0. -1.
       -5    1    3    3    0  502 -0.13747355865E+04 -0.89988827318E+03 -0.49049246640E+03  0.17147308204E+04  0.46999998093E+01 0.  1.
</event>
<event>
 5   0  0.3872969E-08  0.3900460E+04  0.7818609E-02  0.8024934E-01
        2   -1    0    0  501    0  0.00000000000E+00  0.00000000000E+00  0.14878797776E+04  0.14878797776E+04  0.25500000920E-02 0. -1.
       -2   -1    0    0    0  501  0.00000000000E+00  0.00000000000E+00 -0.25562524775E+04  0.25562524775E+04  0.25500000920E-02 0.  1.
    10030    2    1    2    0    0  0.00000000000E+00  0.00000000000E+00 -0.10683726999E+04  0.40441322552E+04  0.39004596487E+04 0.  0.
        2    1    3    3  502    0 -0.69235778992E+03 -0.62864761412E+03 -0.23086100417E+04  0.24908306760E+04  0.25500000920E-02 0.  1.
       -2    1    3    3    0  502  0.69235778992E+03  0.62864761412E+03  0.12402373418E+04  0.15533015792E+04  0.25500000920E-02 0. -1.
</event>
<event>
 5   0  0.1164500E-08  0.3920584E+04  0.7818609E-02  0.8020762E-01
       -1   -1    0    0    0  501  0.00000000000E+00  0.00000000000E+00  0.15592810611E+04  0.15592810611E+04  0.50400001928E-02 0. -1.
        1   -1    0    0  501    0  0.00000000000E+00  0.00000000000E+00 -0.24644338774E+04  0.24644338774E+04  0.50400001928E-02 0.  1.
    10030    2    1    2    0    0  0.00000000000E+00  0.00000000000E+00 -0.90515281634E+03  0.40237149385E+04  0.39205841766E+04 0.  0.
        1    1    3    3  502    0  0.69550031267E+03  0.86796543180E+02  0.14262879801E+04  0.15891984543E+04  0.50400001928E-02 0. -1.
       -1    1    3    3    0  502 -0.69550031267E+03 -0.86796543180E+02 -0.23314407964E+04  0.24345164843E+04  0.50400001928E-02 0.  1.
</event>
<event>
 5   0  0.3872969E-08  0.3947328E+04  0.7818609E-02  0.8015257E-01
        2   -1    0    0  501    0  0.00000000000E+00  0.00000000000E+00  0.13855083540E+04  0.13855083540E+04  0.25500000920E-02 0.  1.
       -2   -1    0    0    0  501  0.00000000000E+00  0.00000000000E+00 -0.28114952691E+04  0.28114952691E+04  0.25500000920E-02 0. -1.
    10030    2    1    2    0    0  0.00000000000E+00  0.00000000000E+00 -0.14259869151E+04  0.41970036232E+04  0.39473283029E+04 0.  0.
        2    1    3    3  502    0 -0.85459433499E+03 -0.93424735666E+03  0.89677126145E+03  0.15515631783E+04  0.25500000920E-02 0.  1.
       -2    1    3    3    0  502  0.85459433499E+03  0.93424735666E+03 -0.23227581765E+04  0.26454404449E+04  0.25500000920E-02 0. -1.
</event>
<event>
 5   0  0.3872969E-08  0.3899275E+04  0.7818609E-02  0.8025180E-01
        2   -1    0    0  501    0  0.00000000000E+00  0.00000000000E+00  0.25799061210E+04  0.25799061210E+04  0.25500000920E-02 0. -1.
       -2   -1    0    0    0  501  0.00000000000E+00  0.00000000000E+00 -0.14733432549E+04  0.14733432549E+04  0.25500000920E-02 0.  1.
    10030    2    1    2    0    0  0.00000000000E+00  0.00000000000E+00  0.11065628660E+04  0.40532493759E+04  0.38992754618E+04 0.  0.
        2    1    3    3  502    0  0.73103635000E+03 -0.17908483241E+04  0.80691522035E+03  0.20958683255E+04  0.25500000920E-02 0.  1.
       -2    1    3    3    0  502 -0.73103635000E+03  0.17908483241E+04  0.29964764568E+03  0.19573810504E+04  0.25500000920E-02 0. -1.
</event>
<event>
 5   0  0.1164500E-08  0.3900271E+04  0.7818609E-02  0.8024973E-01
        1   -1    0    0  501    0  0.00000000000E+00  0.00000000000E+00  0.27967870492E+04  0.27967870492E+04  0.50400001928E-02 0. -1.
       -1   -1    0    0    0  501  0.00000000000E+00  0.00000000000E+00 -0.13597844846E+04  0.13597844846E+04  0.50400001928E-02 0.  1.
    10030    2    1    2    0    0  0.00000000000E+00  0.00000000000E+00  0.14370025646E+04  0.41565715339E+04  0.39002705734E+04 0.  0.
        5    1    3    3  502    0  0.17816685160E+04  0.12260812210E+03  0.15533232098E+04  0.23668989283E+04  0.46999998093E+01 0. -1.
       -5    1    3    3    0  502 -0.17816685160E+04 -0.12260812210E+03 -0.11632064520E+03  0.17896726056E+04  0.46999998093E+01 0.  1.
</event>
<event>
 5   0  0.1164500E-08  0.3900793E+04  0.7818609E-02  0.8024864E-01
        1   -1    0    0  501    0  0.00000000000E+00  0.00000000000E+00  0.12698814171E+04  0.12698814171E+04  0.50400001928E-02 0. -1.
       -1   -1    0    0    0  501  0.00000000000E+00  0.00000000000E+00 -0.29955914826E+04  0.29955914826E+04  0.50400001928E-02 0.  1.
    10030    2    1    2    0    0  0.00000000000E+00  0.00000000000E+00 -0.17257100654E+04  0.42654728997E+04  0.39007927179E+04 0.  0.
        1    1    3    3  502    0  0.16546446930E+04  0.99893957856E+03 -0.11486650754E+04  0.22483684745E+04  0.50400001928E-02 0.  1.
       -1    1    3    3    0  502 -0.16546446930E+04 -0.99893957856E+03 -0.57704499005E+03  0.20171044252E+04  0.50400001928E-02 0. -1.
</event>
<event>
 5   0  0.1164500E-08  0.3883371E+04  0.7818609E-02  0.8028497E-01
       -1   -1    0    0    0  501  0.00000000000E+00  0.00000000000E+00  0.22739022401E+04  0.22739022401E+04  0.50400001928E-02 0. -1.
        1   -1    0    0  501    0  0.00000000000E+00  0.00000000000E+00 -0.16580052656E+04  0.16580052656E+04  0.50400001928E-02 0.  1.
    10030    2    1    2    0    0  0.00000000000E+00  0.00000000000E+00  0.61589697446E+03  0.39319075057E+04  0.38833706429E+04 0.  0.
        3    1    3    3  502    0 -0.10662205316E+04  0.16113707868E+04  0.11371798571E+03  0.19355293397E+04  0.10100000352E+00 0. -1.
       -3    1    3    3    0  502  0.10662205316E+04 -0.16113707868E+04  0.50217898875E+03  0.19963781659E+04  0.10100000352E+00 0.  1.
</event>
<event>
 5   0  0.1164500E-08  0.3892516E+04  0.7818609E-02  0.8026588E-01
        1   -1    0    0  501    0  0.00000000000E+00  0.00000000000E+00  0.17718398670E+04  0.17718398670E+04  0.50400001928E-02 0.  1.
       -1   -1    0    0    0  501  0.00000000000E+00  0.00000000000E+00 -0.21378455613E+04  0.21378455613E+04  0.50400001928E-02 0. -1.
    10030    2    1    2    0    0  0.00000000000E+00  0.00000000000E+00 -0.36600569434E+03  0.39096854283E+04  0.38925158934E+04 0.  0.
        4    1    3    3  502    0 -0.59528711825E+03  0.18452400748E+04 -0.35298495128E+03  0.19707556103E+04  0.12699999809E+01 0. -1.
       -4    1    3    3    0  502  0.59528711825E+03 -0.18452400748E+04 -0.13020743052E+02  0.19389298180E+04  0.12699999809E+01 0.  1.
</event>
<event>
 5   0  0.1164500E-08  0.3892546E+04  0.7818609E-02  0.8026581E-01
       -1   -1    0    0    0  501  0.00000000000E+00  0.00000000000E+00  0.26114865283E+04  0.26114865283E+04  0.50400001928E-02 0. -1.
        1   -1    0    0  501    0  0.00000000000E+00  0.00000000000E+00 -0.14505063144E+04  0.14505063144E+04  0.50400001928E-02 0.  1.
    10030    2    1    2    0    0  0.00000000000E+00  0.00000000000E+00  0.11609802139E+04  0.40619928427E+04  0.38925455421E+04 0.  0.
        4    1    3    3  502    0  0.26118858860E+03  0.66189904213E+03 -0.13098995583E+04  0.14906938943E+04  0.12699999809E+01 0.  1.
       -4    1    3    3    0  502 -0.26118858860E+03 -0.66189904213E+03  0.24708797722E+04  0.25712989485E+04  0.12699999809E+01 0. -1.
</event>
<event>
 5   0  0.3769985E-08  0.3908553E+04  0.7818609E-02  0.8023253E-01
        2   -1    0    0  501    0  0.00000000000E+00  0.00000000000E+00  0.22407785416E+04  0.22407785416E+04  0.25500000920E-02 0.  1.
       -2   -1    0    0    0  501  0.00000000000E+00  0.00000000000E+00 -0.17044062967E+04  0.17044062967E+04  0.25500000920E-02 0. -1.
    10030    2    1    2    0    0  0.00000000000E+00  0.00000000000E+00  0.53637224493E+03  0.39451848384E+04  0.39085532136E+04 0.  0.
        1    1    3    3  502    0  0.41619769487E+03 -0.18100112296E+04 -0.34565481646E+03  0.18891369523E+04  0.50400001928E-02 0.  1.
       -1    1    3    3    0  502 -0.41619769487E+03  0.18100112296E+04  0.88202706140E+03  0.20560478860E+04  0.50400001928E-02 0. -1.
</event>
<event>
 5   0  0.3690572E-08  0.3897388E+04  0.7818609E-02  0.8025573E-01
        2   -1    0    0  501    0  0.00000000000E+00  0.00000000000E+00  0.20600465264E+04  0.20600465264E+04  0.25500000920E-02 0.  1.
       -2   -1    0    0    0  501  0.00000000000E+00  0.00000000000E+00 -0.18433603511E+04  0.18433603511E+04  0.25500000920E-02 0. -1.
    10030    2    1    2    0    0  0.00000000000E+00  0.00000000000E+00  0.21668617531E+03  0.39034068776E+04  0.38973878885E+04 0.  0.
        3    1    3    3  502    0 -0.60363353287E+02  0.13644538200E+04  0.15004645779E+04  0.20289829771E+04  0.10100000352E+00 0.  1.
       -3    1    3    3    0  502  0.60363353287E+02 -0.13644538200E+04 -0.12837784026E+04  0.18744239005E+04  0.10100000352E+00 0. -1.
</event>
<event>
 5   0  0.3872969E-08  0.3908830E+04  0.7818609E-02  0.8023195E-01
        2   -1    0    0  501    0  0.00000000000E+00  0.00000000000E+00  0.25305937001E+04  0.25305937001E+04  0.25500000920E-02 0. -1.
       -2   -1    0    0    0  501  0.00000000000E+00  0.00000000000E+00 -0.15094233570E+04  0.15094233570E+04  0.25500000920E-02 0.  1.
    10030    2    1    2    0    0  0.00000000000E+00  0.00000000000E+00  0.10211703431E+04  0.40400170571E+04  0.39088296141E+04 0.  0.
        2    1    3    3  502    0  0.15109911530E+04  0.24239750242E+03 -0.74589890370E+03  0.17024147521E+04  0.25500000920E-02 0.  1.
       -2    1    3    3    0  502 -0.15109911530E+04 -0.24239750242E+03  0.17670692468E+04  0.23376023050E+04  0.25500000920E-02 0. -1.
</event>
<event>
 5   0  0.3724293E-08  0.3888906E+04  0.7818609E-02  0.8027341E-01
        2   -1    0    0  501    0  0.00000000000E+00  0.00000000000E+00  0.23611068815E+04  0.23611068815E+04  0.25500000920E-02 0. -1.
       -2   -1    0    0    0  501  0.00000000000E+00  0.00000000000E+00 -0.16013237398E+04  0.16013237398E+04  0.25500000920E-02 0.  1.
    10030    2    1    2    0    0  0.00000000000E+00  0.00000000000E+00  0.75978314165E+03  0.39624306213E+04  0.38889055024E+04 0.  0.
        4    1    3    3  502    0  0.81203140138E+03 -0.17572055335E+04  0.19276585734E+03  0.19453345657E+04  0.12699999809E+01 0.  1.
       -4    1    3    3    0  502 -0.81203140138E+03  0.17572055335E+04  0.56701728430E+03  0.20170960556E+04  0.12699999809E+01 0. -1.
</event>
<event>
 5   0  0.1164500E-08  0.3888035E+04  0.7818609E-02  0.8027522E-01
       -1   -1    0    0    0  501  0.00000000000E+00  0.00000000000E+00  0.30108301412E+04  0.30108301412E+04  0.50400001928E-02 0. -1.
        1   -1    0    0  501    0  0.00000000000E+00  0.00000000000E+00 -0.12552033604E+04  0.12552033604E+04  0.50400001928E-02 0.  1.
    10030    2    1    2    0    0  0.00000000000E+00  0.00000000000E+00  0.17556267807E+04  0.42660335016E+04  0.38880350363E+04 0.  0.
        4    1    3    3  502    0 -0.12153498341E+04 -0.13458252267E+04  0.16465587895E+04  0.24493832326E+04  0.12699999809E+01 0. -1.
       -4    1    3    3    0  502  0.12153498341E+04  0.13458252267E+04  0.10906799122E+03  0.18166502689E+04  0.12699999809E+01 0.  1.
</event>
<event>
 5   0  0.3669347E-08  0.3900978E+04  0.7818609E-02  0.8024826E-01
       -2   -1    0    0    0  501  0.00000000000E+00  0.00000000000E+00  0.29855876728E+04  0.29855876728E+04  0.25500000920E-02 0. -1.
        2   -1    0    0  501    0  0.00000000000E+00  0.00000000000E+00 -0.12742572029E+04  0.12742572029E+04  0.25500000920E-02 0.  1.
    10030    2    1    2    0    0  0.00000000000E+00  0.00000000000E+00  0.17113304699E+04  0.42598448757E+04  0.39009776195E+04 0.  0.
        5    1    3    3  502    0  0.11672962669E+04 -0.23788139251E+03 -0.83082649853E+03  0.14523990127E+04  0.46999998093E+01 0.  1.
       -5    1    3    3    0  502 -0.11672962669E+04  0.23788139251E+03  0.25421569684E+04  0.28074458630E+04  0.46999998093E+01 0. -1.
</event>
<event>
 5   0  0.3690572E-08  0.3902694E+04  0.7818609E-02  0.8024469E-01
        2   -1    0    0  501    0  0.00000000000E+00  0.00000000000E+00  0.25072440474E+04  0.25072440474E+04  0.25500000920E-02 0. -1.
       -2   -1    0    0    0  501  0.00000000000E+00  0.00000000000E+00 -0.15187012801E+04  0.15187012801E+04  0.25500000920E-02 0.  1.
    10030    2    1    2    0    0  0.00000000000E+00  0.00000000000E+00  0.98854276738E+03  0.40259453275E+04  0.39026938103E+04 0.  0.
        3    1    3    3  502    0  0.19150306656E+04  0.33437916262E+03  0.66873630478E+03  0.20558113071E+04  0.10100000352E+00 0.  1.
       -3    1    3    3    0  502 -0.19150306656E+04 -0.33437916262E+03  0.31980646260E+03  0.19701340204E+04  0.10100000352E+00 0. -1.
</event>
<event>
 5   0  0.1164500E-08  0.3927373E+04  0.7818609E-02  0.8019360E-01
       -1   -1    0    0    0  501  0.00000000000E+00  0.00000000000E+00  0.19176325431E+04  0.19176325431E+04  0.50400001928E-02 0.  1.
        1   -1    0    0  501    0  0.00000000000E+00  0.00000000000E+00 -0.20108463534E+04  0.20108463534E+04  0.50400001928E-02 0. -1.
    10030    2    1    2    0    0  0.00000000000E+00  0.00000000000E+00 -0.93213810291E+02  0.39284788965E+04  0.39273728656E+04 0.  0.
        4    1    3    3  502    0  0.32396958372E+03  0.17785711087E+04  0.72028450118E+03  0.19460428709E+04  0.12699999809E+01 0.  1.
       -4    1    3    3    0  502 -0.32396958372E+03 -0.17785711087E+04 -0.81349831147E+03  0.19824360256E+04  0.12699999809E+01 0. -1.
</event>
<event>
 5   0  0.1164500E-08  0.3795393E+04  0.7818609E-02  0.8047144E-01
        1   -1    0    0  501    0  0.00000000000E+00  0.00000000000E+00  0.24075706884E+04  0.24075706884E+04  0.50400001928E-02 0. -1.
       -1   -1    0    0    0  501  0.00000000000E+00  0.00000000000E+00 -0.14958029653E+04  0.14958029653E+04  0.50400001928E-02 0.  1.
    10030    2    1    2    0    0  0.00000000000E+00  0.00000000000E+00  0.91176772311E+03  0.39033736537E+04  0.37953926674E+04 0.  0.
        3    1    3    3  502    0  0.19691488182E+03 -0.10916874333E+04  0.20393952934E+04  0.23215706097E+04  0.10100000352E+00 0. -1.
       -3    1    3    3    0  502 -0.19691488182E+03  0.10916874333E+04 -0.11276275703E+04  0.15818030441E+04  0.10100000352E+00 0.  1.
</event>
<event>
 5   0  0.3724293E-08  0.3915017E+04  0.7818609E-02  0.8021913E-01
        2   -1    0    0  501    0  0.00000000000E+00  0.00000000000E+00  0.23550788804E+04  0.23550788804E+04  0.25500000920E-02 0.  1.
       -2   -1    0    0    0  501  0.00000000000E+00  0.00000000000E+00 -0.16270534527E+04  0.16270534527E+04  0.25500000920E-02 0. -1.
    10030    2    1    2    0    0  0.00000000000E+00  0.00000000000E+00  0.72802542776E+03  0.39821323331E+04  0.39150168448E+04 0.  0.
        4    1    3    3  502    0 -0.15310053192E+04 -0.98820041304E+03 -0.36331235513E+03  0.18580944066E+04  0.12699999809E+01 0. -1.
       -4    1    3    3    0  502  0.15310053192E+04  0.98820041304E+03  0.10913377829E+04  0.21240379264E+04  0.12699999809E+01 0.  1.
</event>
<event>
 5   0  0.3690572E-08  0.3880882E+04  0.7818609E-02  0.8029017E-01
        2   -1    0    0  501    0  0.00000000000E+00  0.00000000000E+00  0.30971320352E+04  0.30971320352E+04  0.25500000920E-02 0.  1.
       -2   -1    0    0    0  501  0.00000000000E+00  0.00000000000E+00 -0.12157413000E+04  0.12157413000E+04  0.25500000920E-02 0. -1.
    10030    2    1    2    0    0  0.00000000000E+00  0.00000000000E+00  0.18813907351E+04  0.43128733352E+04  0.38808820270E+04 0.  0.
        3    1    3    3  502    0  0.13648217138E+04 -0.11927020101E+04  0.17072736307E+03  0.18205560244E+04  0.10100000352E+00 0.  1.
       -3    1    3    3    0  502 -0.13648217138E+04  0.11927020101E+04  0.17106633721E+04  0.24923173108E+04  0.10100000352E+00 0. -1.
</event>
<event>
 5   0  0.3872969E-08  0.3896199E+04  0.7818609E-02  0.8025820E-01
       -2   -1    0    0    0  501  0.00000000000E+00  0.00000000000E+00  0.14442498846E+04  0.14442498846E+04  0.25500000920E-02 0. -1.
        2   -1    0    0  501    0  0.00000000000E+00  0.00000000000E+00 -0.26277246732E+04  0.26277246732E+04  0.25500000920E-02 0.  1.
    10030    2    1    2    0    0  0.00000000000E+00  0.00000000000E+00 -0.11834747886E+04  0.40719745578E+04  0.38961986890E+04 0.  0.
        2    1    3    3  502    0 -0.16429034483E+04  0.90525010258E+03 -0.11412745371E+04  0.21957042282E+04  0.25500000920E-02 0. -1.
       -2    1    3    3    0  502  0.16429034483E+04 -0.90525010258E+03 -0.42200251510E+02  0.18762703296E+04  0.25500000920E-02 0.  1.
</event>
<event>
 5   0  0.3872969E-08  0.3904362E+04  0.7818609E-02  0.8024123E-01
        2   -1    0    0  501    0  0.00000000000E+00  0.00000000000E+00  0.17802913117E+04  0.17802913117E+04  0.25500000920E-02 0. -1.
       -2   -1    0    0    0  501  0.00000000000E+00  0.00000000000E+00 -0.21406666175E+04  0.21406666175E+04  0.25500000920E-02 0.  1.
    10030    2    1    2    0    0  0.00000000000E+00  0.00000000000E+00 -0.36037530584E+03  0.39209579293E+04  0.39043617560E+04 0.  0.
        2    1    3    3  502    0 -0.11542832930E+04  0.52443413569E+03  0.13105781118E+04  0.18234626594E+04  0.25500000920E-02 0. -1.
       -2    1    3    3    0  502  0.11542832930E+04 -0.52443413569E+03 -0.16709534176E+04  0.20974952698E+04  0.25500000920E-02 0.  1.
</event>
<event>
 5   0  0.3724293E-08  0.3901821E+04  0.7818609E-02  0.8024651E-01
        2   -1    0    0  501    0  0.00000000000E+00  0.00000000000E+00  0.15237869540E+04  0.15237869540E+04  0.25500000920E-02 0.  1.
       -2   -1    0    0    0  501  0.00000000000E+00  0.00000000000E+00 -0.24977585945E+04  0.24977585945E+04  0.25500000920E-02 0. -1.
    10030    2    1    2    0    0  0.00000000000E+00  0.00000000000E+00 -0.97397164052E+03  0.40215455485E+04  0.39018210930E+04 0.  0.
        4    1    3    3  502    0  0.17442591537E+04 -0.14833008376E+03  0.40060540579E+03  0.17958084845E+04  0.12699999809E+01 0.  1.
       -4    1    3    3    0  502 -0.17442591537E+04  0.14833008376E+03 -0.13745770463E+04  0.22257370640E+04  0.12699999809E+01 0. -1.
</event>
<event>
 5   0  0.3669347E-08  0.3902233E+04  0.7818609E-02  0.8024565E-01
       -2   -1    0    0    0  501  0.00000000000E+00  0.00000000000E+00  0.12238778508E+04  0.12238778508E+04  0.25500000920E-02 0.  1.
        2   -1    0    0  501    0  0.00000000000E+00  0.00000000000E+00 -0.31104869331E+04  0.31104869331E+04  0.25500000920E-02 0. -1.
    10030    2    1    2    0    0  0.00000000000E+00  0.00000000000E+00 -0.18866090824E+04  0.43343647839E+04  0.39022332388E+04 0.  0.
        5    1    3    3  502    0  0.17104176860E+04 -0.93877662978E+03 -0.94115322108E+03  0.21662459917E+04  0.46999998093E+01 0. -1.
       -5    1    3    3    0  502 -0.17104176860E+04  0.93877662978E+03 -0.94545586130E+03  0.21681187922E+04  0.46999998093E+01 0.  1.
</event>
<event>
 5   0  0.3669347E-08  0.3901877E+04  0.7818609E-02  0.8024639E-01
        2   -1    0    0  501    0  0.00000000000E+00  0.00000000000E+00  0.24183375707E+04  0.24183375707E+04  0.25500000920E-02 0.  1.
       -2   -1    0    0    0  501  0.00000000000E+00  0.00000000000E+00 -0.15738747248E+04  0.15738747248E+04  0.25500000920E-02 0. -1.
    10030    2    1    2    0    0  0.00000000000E+00  0.00000000000E+00  0.84446284593E+03  0.39922122955E+04  0.39018766657E+04 0.  0.
        5    1    3    3  502    0 -0.96197569891E+03 -0.75449207975E+03  0.19777865912E+04  0.23251489058E+04  0.46999998093E+01 0.  1.
       -5    1    3    3    0  502  0.96197569891E+03  0.75449207975E+03 -0.11333237453E+04  0.16670633897E+04  0.46999998093E+01 0. -1.
</event>
<event>
 5   0  0.3690572E-08  0.3910753E+04  0.7818609E-02  0.8022796E-01
       -2   -1    0    0    0  501  0.00000000000E+00  0.00000000000E+00  0.19492426790E+04  0.19492426790E+04  0.25500000920E-02 0.  1.
        2   -1    0    0  501    0  0.00000000000E+00  0.00000000000E+00 -0.19615297362E+04  0.19615297362E+04  0.25500000920E-02 0. -1.
    10030    2    1    2    0    0  0.00000000000E+00  0.00000000000E+00 -0.12287057156E+02  0.39107724152E+04  0.39107531131E+04 0.  0.
        3    1    3    3  502    0  0.19313139166E+04 -0.17654205786E+03  0.24357139011E+03  0.19546016410E+04  0.10100000352E+00 0.  1.
       -3    1    3    3    0  502 -0.19313139166E+04  0.17654205786E+03 -0.25585844727E+03  0.19561707742E+04  0.10100000352E+00 0. -1.
</event>
<event>
 5   0  0.1164500E-08  0.3898552E+04  0.7818609E-02  0.8025330E-01
       -1   -1    0    0    0  501  0.00000000000E+00  0.00000000000E+00  0.16052009946E+04  0.16052009946E+04  0.50400001928E-02 0. -1.
        1   -1    0    0  501    0  0.00000000000E+00  0.00000000000E+00 -0.23671039507E+04  0.23671039507E+04  0.50400001928E-02 0.  1.
    10030    2    1    2    0    0  0.00000000000E+00  0.00000000000E+00 -0.76190295609E+03  0.39723049454E+04  0.38985523550E+04 0.  0.
        1    1    3    3  502    0 -0.47132692901E+02 -0.20505750672E+03 -0.23554997129E+04  0.23648782145E+04  0.50400001928E-02 0.  1.
       -1    1    3    3    0  502  0.47132692901E+02  0.20505750672E+03  0.15935967568E+04  0.16074267309E+04  0.50400001928E-02 0. -1.
</event>
<event>
 5   0  0.1164500E-08  0.3899196E+04  0.7818609E-02  0.8025196E-01
       -1   -1    0    0    0  501  0.00000000000E+00  0.00000000000E+00  0.22339180196E+04  0.22339180196E+04  0.50400001928E-02 0. -1.
        1   -1    0    0  501    0  0.00000000000E+00  0.00000000000E+00 -0.17014644372E+04  0.17014644372E+04  0.50400001928E-02 0.  1.
    10030    2    1    2    0    0  0.00000000000E+00  0.00000000000E+00  0.53245358244E+03  0.39353824569E+04  0.38991958484E+04 0.  0.
        1    1    3    3  502    0 -0.85240157146E+03  0.13117961984E+04  0.14404388564E+04  0.21265610276E+04  0.50400001928E-02 0. -1.
       -1    1    3    3    0  502  0.85240157146E+03 -0.13117961984E+04 -0.90798527392E+03  0.18088214292E+04  0.50400001928E-02 0.  1.
</event>
<event>
 5   0  0.3872969E-08  0.3854190E+04  0.7818609E-02  0.8034625E-01
       -2   -1    0    0    0  501  0.00000000000E+00  0.00000000000E+00  0.18812163531E+04  0.18812163531E+04  0.25500000920E-02 0.  1.
        2   -1    0    0  501    0  0.00000000000E+00  0.00000000000E+00 -0.19740923543E+04  0.19740923543E+04  0.25500000920E-02 0. -1.
    10030    2    1    2    0    0  0.00000000000E+00  0.00000000000E+00 -0.92876001252E+02  0.38553087074E+04  0.38541898342E+04 0.  0.
        2    1    3    3  502    0 -0.14643368538E+04 -0.75985674769E+03  0.94985822952E+03  0.19036531603E+04  0.25500000920E-02 0.  1.
       -2    1    3    3    0  502  0.14643368538E+04  0.75985674769E+03 -0.10427342308E+04  0.19516555471E+04  0.25500000920E-02 0. -1.
</event>
<event>
 5   0  0.3724293E-08  0.3918162E+04  0.7818609E-02  0.8021262E-01
        2   -1    0    0  501    0  0.00000000000E+00  0.00000000000E+00  0.22133468784E+04  0.22133468784E+04  0.25500000920E-02 0.  1.
       -2   -1    0    0    0  501  0.00000000000E+00  0.00000000000E+00 -0.17340250450E+04  0.17340250450E+04  0.25500000920E-02 0. -1.
    10030    2    1    2    0    0  0.00000000000E+00  0.00000000000E+00  0.47932183346E+03  0.39473719234E+04  0.39181622837E+04 0.  0.
        4    1    3    3  502    0  0.17004529646E+04  0.54524479401E+03  0.10513752638E+04  0.20722508845E+04  0.12699999809E+01 0.  1.
       -4    1    3    3    0  502 -0.17004529646E+04 -0.54524479401E+03 -0.57205343036E+03  0.18751210388E+04  0.12699999809E+01 0. -1.
</event>
<event>
 5   0  0.1164500E-08  0.3895175E+04  0.7818609E-02  0.8026033E-01
       -1   -1    0    0    0  501  0.00000000000E+00  0.00000000000E+00  0.23418974528E+04  0.23418974528E+04  0.50400001928E-02 0.  1.
        1   -1    0    0  501    0  0.00000000000E+00  0.00000000000E+00 -0.16196685289E+04  0.16196685289E+04  0.50400001928E-02 0. -1.
    10030    2    1    2    0    0  0.00000000000E+00  0.00000000000E+00  0.72222892386E+03  0.39615659817E+04  0.38951752732E+04 0.  0.
        5    1    3    3  502    0  0.68917986179E+03  0.67441637955E+02  0.22124587660E+04  0.23182996220E+04  0.46999998093E+01 0.  1.
       -5    1    3    3    0  502 -0.68917986179E+03 -0.67441637955E+02 -0.14902298421E+04  0.16432663596E+04  0.46999998093E+01 0. -1.
</event>
<event>
 5   0  0.3769985E-08  0.3899991E+04  0.7818609E-02  0.8025031E-01
        2   -1    0    0  501    0  0.00000000000E+00  0.00000000000E+00  0.11468322865E+04  0.11468322865E+04  0.25500000920E-02 0. -1.
       -2   -1    0    0    0  501  0.00000000000E+00  0.00000000000E+00 -0.33156398764E+04  0.33156398764E+04  0.25500000920E-02 0.  1.
    10030    2    1    2    0    0  0.00000000000E+00  0.00000000000E+00 -0.21688075899E+04  0.44624721629E+04  0.38999912106E+04 0.  0.
        1    1    3    3  502    0  0.13041315128E+04  0.14452848600E+04 -0.95456799070E+03  0.21681345388E+04  0.50400001928E-02 0. -1.
       -1    1    3    3    0  502 -0.13041315128E+04 -0.14452848600E+04 -0.12142395992E+04  0.22943376241E+04  0.50400001928E-02 0.  1.
</event>
<event>
 5   0  0.1164500E-08  0.3897048E+04  0.7818609E-02  0.8025644E-01
       -1   -1    0    0    0  501  0.00000000000E+00  0.00000000000E+00  0.22997820212E+04  0.22997820212E+04  0.50400001928E-02 0.  1.
        1   -1    0    0  501    0  0.00000000000E+00  0.00000000000E+00 -0.16509152548E+04  0.16509152548E+04  0.50400001928E-02 0. -1.
    10030    2    1    2    0    0  0.00000000000E+00  0.00000000000E+00  0.64886676640E+03  0.39506972760E+04  0.38970477141E+04 0.  0.
        5    1    3    3  502    0 -0.12927892627E+04 -0.81805638557E+03 -0.89891164479E+03  0.17744251359E+04  0.46999998093E+01 0. -1.
       -5    1    3    3    0  502  0.12927892627E+04  0.81805638557E+03  0.15477784112E+04  0.21762721401E+04  0.46999998093E+01 0.  1.
</event>
<event>
 5   0  0.1164500E-08  0.3898857E+04  0.7818609E-02  0.8025267E-01
        1   -1    0    0  501    0  0.00000000000E+00  0.00000000000E+00  0.17053255449E+04  0.17053255449E+04  0.50400001928E-02 0. -1.
       -1   -1    0    0    0  501  0.00000000000E+00  0.00000000000E+00 -0.22284729711E+04  0.22284729711E+04  0.50400001928E-02 0.  1.
    10030    2    1    2    0    0  0.00000000000E+00  0.00000000000E+00 -0.52314742622E+03  0.39337985160E+04  0.38988572088E+04 0.  0.
        4    1    3    3  502    0  0.20179558660E+03 -0.85388782543E+03 -0.20179861711E+04  0.22004807831E+04  0.12699999809E+01 0.  1.
       -4    1    3    3    0  502 -0.20179558660E+03  0.85388782543E+03  0.14948387449E+04  0.17333177329E+04  0.12699999809E+01 0. -1.
</event>
<event>
 5   0  0.1164500E-08  0.3927433E+04  0.7818609E-02  0.8019348E-01
        1   -1    0    0  501    0  0.00000000000E+00  0.00000000000E+00  0.15330783455E+04  0.15330783455E+04  0.50400001928E-02 0.  1.
       -1   -1    0    0    0  501  0.00000000000E+00  0.00000000000E+00 -0.25153198021E+04  0.25153198021E+04  0.50400001928E-02 0. -1.
    10030    2    1    2    0    0  0.00000000000E+00  0.00000000000E+00 -0.98224145662E+03  0.40483981476E+04  0.39274329126E+04 0.  0.
        1    1    3    3  502    0 -0.12013893913E+04  0.15428759290E+04 -0.67660666120E+03  0.20692025459E+04  0.50400001928E-02 0. -1.
       -1    1    3    3    0  502  0.12013893913E+04 -0.15428759290E+04 -0.30563479542E+03  0.19791956018E+04  0.50400001928E-02 0.  1.
</event>
<event>
 5   0  0.1164500E-08  0.3889175E+04  0.7818609E-02  0.8027284E-01
       -1   -1    0    0    0  501  0.00000000000E+00  0.00000000000E+00  0.21574194551E+04  0.21574194551E+04  0.50400001928E-02 0.  1.
        1   -1    0    0  501    0  0.00000000000E+00  0.00000000000E+00 -0.17527516241E+04  0.17527516241E+04  0.50400001928E-02 0. -1.
    10030    2    1    2    0    0  0.00000000000E+00  0.00000000000E+00  0.40466783106E+03  0.39101710792E+04  0.38891749530E+04 0.  0.
        1    1    3    3  502    0 -0.27795070474E+03  0.96074783193E+03 -0.14743404553E+04  0.17815646968E+04  0.50400001928E-02 0. -1.
       -1    1    3    3    0  502  0.27795070474E+03 -0.96074783193E+03  0.18790082864E+04  0.21286063824E+04  0.50400001928E-02 0.  1.
</event>
<event>
 5   0  0.1164500E-08  0.3891240E+04  0.7818609E-02  0.8026854E-01
        1   -1    0    0  501    0  0.00000000000E+00  0.00000000000E+00  0.14555947104E+04  0.14555947104E+04  0.50400001928E-02 0.  1.
       -1   -1    0    0    0  501  0.00000000000E+00  0.00000000000E+00 -0.26006120107E+04  0.26006120107E+04  0.50400001928E-02 0. -1.
    10030    2    1    2    0    0  0.00000000000E+00  0.00000000000E+00 -0.11450173003E+04  0.40562067211E+04  0.38912399497E+04 0.  0.
        1    1    3    3  502    0 -0.32225015840E+03 -0.17214603516E+04  0.31086520795E+03  0.17787377784E+04  0.50400001928E-02 0.  1.
       -1    1    3    3    0  502  0.32225015840E+03  0.17214603516E+04 -0.14558825083E+04  0.22774689427E+04  0.50400001928E-02 0. -1.
</event>
<event>
 5   0  0.1164500E-08  0.3894468E+04  0.7818609E-02  0.8026181E-01
        1   -1    0    0  501    0  0.00000000000E+00  0.00000000000E+00  0.19991783943E+04  0.19991783943E+04  0.50400001928E-02 0.  1.
       -1   -1    0    0    0  501  0.00000000000E+00  0.00000000000E+00 -0.18966397210E+04  0.18966397210E+04  0.50400001928E-02 0. -1.
    10030    2    1    2    0    0  0.00000000000E+00  0.00000000000E+00  0.10253867333E+03  0.38958181153E+04  0.38944684628E+04 0.  0.
        2    1    3    3  502    0  0.12988906935E+03  0.19340849966E+04 -0.13363304865E+03  0.19430423917E+04  0.25500000920E-02 0.  1.
       -2    1    3    3    0  502 -0.12988906935E+03 -0.19340849966E+04  0.23617172198E+03  0.19527757236E+04  0.25500000920E-02 0. -1.
</event>
<event>
 5   0  0.1164500E-08  0.3904336E+04  0.7818609E-02  0.8024128E-01
        1   -1    0    0  501    0  0.00000000000E+00  0.00000000000E+00  0.23567494415E+04  0.23567494415E+04  0.50400001928E-02 0. -1.
       -1   -1    0    0    0  501  0.00000000000E+00  0.00000000000E+00 -0.16170405961E+04  0.16170405961E+04  0.50400001928E-02 0.  1.
    10030    2    1    2    0    0  0.00000000000E+00  0.00000000000E+00  0.73970884544E+03  0.39737900376E+04  0.39043358061E+04 0.  0.
        5    1    3    3  502    0 -0.13031614851E+03  0.18347724130E+04 -0.29566232974E+03  0.18630111135E+04  0.46999998093E+01 0. -1.
       -5    1    3    3    0  502  0.13031614851E+03 -0.18347724130E+04  0.10353711752E+04  0.21107789241E+04  0.46999998093E+01 0.  1.
</event>
<event>
 5   0  0.3690572E-08  0.3897989E+04  0.7818609E-02  0.8025448E-01
        2   -1    0    0  501    0  0.00000000000E+00  0.00000000000E+00  0.25279595067E+04  0.25279595067E+04  0.25500000920E-02 0. -1.
       -2   -1    0    0    0  501  0.00000000000E+00  0.00000000000E+00 -0.15026264822E+04  0.15026264822E+04  0.25500000920E-02 0.  1.
    10030    2    1    2    0    0  0.00000000000E+00  0.00000000000E+00  0.10253330245E+04  0.40305859889E+04  0.38979886612E+04 0.  0.
        3    1    3    3  502    0  0.43554498335E+03 -0.52669299963E+02 -0.14509054747E+04  0.15157836899E+04  0.10100000352E+00 0.  1.
       -3    1    3    3    0  502 -0.43554498335E+03  0.52669299963E+02  0.24762384993E+04  0.25148022990E+04  0.10100000352E+00 0. -1.
</event>
<event>
 5   0  0.1164500E-08  0.3920166E+04  0.7818609E-02  0.8020848E-01
       -1   -1    0    0    0  501  0.00000000000E+00  0.00000000000E+00  0.12983374200E+04  0.12983374200E+04  0.50400001928E-02 0.  1.
        1   -1    0    0  501    0  0.00000000000E+00  0.00000000000E+00 -0.29591117444E+04  0.29591117444E+04  0.50400001928E-02 0. -1.
    10030    2    1    2    0    0  0.00000000000E+00  0.00000000000E+00 -0.16607743244E+04  0.42574491644E+04  0.39201660718E+04 0.  0.
        3    1    3    3  502    0  0.11133725651E+04 -0.10027904828E+04  0.54195331630E+03  0.15933928042E+04  0.10100000352E+00 0.  1.
       -3    1    3    3    0  502 -0.11133725651E+04  0.10027904828E+04 -0.22027276407E+04  0.26640563602E+04  0.10100000352E+00 0. -1.
</event>
<event>
 5   0  0.1164500E-08  0.3926820E+04  0.7818609E-02  0.8019474E-01
        1   -1    0    0  501    0  0.00000000000E+00  0.00000000000E+00  0.17469339475E+04  0.17469339475E+04  0.50400001928E-02 0.  1.
       -1   -1    0    0    0  501  0.00000000000E+00  0.00000000000E+00 -0.22067107244E+04  0.22067107244E+04  0.50400001928E-02 0. -1.
    10030    2    1    2    0    0  0.00000000000E+00  0.00000000000E+00 -0.45977677689E+03  0.39536446718E+04  0.39268195154E+04 0.  0.
        2    1    3    3  502    0  0.14869560913E+04  0.40650567926E+03 -0.14542103590E+04  0.21192010412E+04  0.25500000920E-02 0.  1.
       -2    1    3    3    0  502 -0.14869560913E+04 -0.40650567926E+03  0.99443358212E+03  0.18344436306E+04  0.25500000920E-02 0. -1.
</event>
<event>
 5   0  0.3669347E-08  0.3908379E+04  0.7818609E-02  0.8023289E-01
        2   -1    0    0  501    0  0.00000000000E+00  0.00000000000E+00  0.15652551696E+04  0.15652551696E+04  0.25500000920E-02 0.  1.
       -2   -1    0    0    0  501  0.00000000000E+00  0.00000000000E+00 -0.24397664343E+04  0.24397664343E+04  0.25500000920E-02 0. -1.
    10030    2    1    2    0    0  0.00000000000E+00  0.00000000000E+00 -0.87451126467E+03  0.40050216039E+04  0.39083792159E+04 0.  0.
        5    1    3    3  502    0 -0.60892817431E+03  0.10610907745E+04 -0.19987888424E+04  0.23434773478E+04  0.46999998093E+01 0. -1.
       -5    1    3    3    0  502  0.60892817431E+03 -0.10610907745E+04  0.11242775777E+04  0.16615442561E+04  0.46999998093E+01 0.  1.
</event>
<event>
 5   0  0.3690572E-08  0.3902355E+04  0.7818609E-02  0.8024540E-01
        2   -1    0    0  501    0  0.00000000000E+00  0.00000000000E+00  0.12768954323E+04  0.12768954323E+04  0.25500000920E-02 0. -1.
       -2   -1    0    0    0  501  0.00000000000E+00  0.00000000000E+00 -0.29815226696E+04  0.29815226696E+04  0.25500000920E-02 0.  1.
    10030    2    1    2    0    0  0.00000000000E+00  0.00000000000E+00 -0.17046272373E+04  0.42584181019E+04  0.39023545088E+04 0.  0.
        3    1    3    3  502    0 -0.71586968893E+03 -0.52905874213E+03 -0.27470337851E+04  0.28876577344E+04  0.10100000352E+00 0.  1.
       -3    1    3    3    0  502  0.71586968893E+03  0.52905874213E+03  0.10424065478E+04  0.13707603675E+04  0.10100000352E+00 0. -1.
</event>
<event>
 5   0  0.1164500E-08  0.3832150E+04  0.7818609E-02  0.8039291E-01
       -1   -1    0    0    0  501  0.00000000000E+00  0.00000000000E+00  0.18672967275E+04  0.18672967275E+04  0.50400001928E-02 0. -1.
        1   -1    0    0  501    0  0.00000000000E+00  0.00000000000E+00 -0.19661274166E+04  0.19661274166E+04  0.50400001928E-02 0.  1.
    10030    2    1    2    0    0  0.00000000000E+00  0.00000000000E+00 -0.98830689090E+02  0.38334241440E+04  0.38321499400E+04 0.  0.
        1    1    3    3  502    0  0.55220336904E+02 -0.10891913081E+04  0.15265310673E+04  0.18760821120E+04  0.50400001928E-02 0. -1.
       -1    1    3    3    0  502 -0.55220336904E+02  0.10891913081E+04 -0.16253617564E+04  0.19573420321E+04  0.50400001928E-02 0.  1.
</event>
<event>
 5   0  0.3724293E-08  0.3900212E+04  0.7818609E-02  0.8024985E-01
       -2   -1    0    0    0  501  0.00000000000E+00  0.00000000000E+00  0.18298217335E+04  0.18298217335E+04  0.25500000920E-02 0. -1.
        2   -1    0    0  501    0  0.00000000000E+00  0.00000000000E+00 -0.20782976440E+04  0.20782976440E+04  0.25500000920E-02 0.  1.
    10030    2    1    2    0    0  0.00000000000E+00  0.00000000000E+00 -0.24847591052E+03  0.39081193775E+04  0.39002124033E+04 0.  0.
        4    1    3    3  502    0  0.41135124206E+03 -0.20883883437E+03  0.17743563531E+04  0.18333481894E+04  0.12699999809E+01 0. -1.
       -4    1    3    3    0  502 -0.41135124206E+03  0.20883883437E+03 -0.20228322636E+04  0.20747711880E+04  0.12699999809E+01 0.  1.
</event>
<event>
 5   0  0.3769985E-08  0.3894287E+04  0.7818609E-02  0.8026218E-01
       -2   -1    0    0    0  501  0.00000000000E+00  0.00000000000E+00  0.14443819067E+04  0.14443819067E+04  0.25500000920E-02 0. -1.
        2   -1    0    0  501    0  0.00000000000E+00  0.00000000000E+00 -0.26249068684E+04  0.26249068684E+04  0.25500000920E-02 0.  1.
    10030    2    1    2    0    0  0.00000000000E+00  0.00000000000E+00 -0.11805249617E+04  0.40692887752E+04  0.38942870914E+04 0.  0.
        1    1    3    3  502    0 -0.30164368218E+03 -0.13335014455E+04  0.85845773038E+03  0.16143620075E+04  0.50400001928E-02 0. -1.
       -1    1    3    3    0  502  0.30164368218E+03  0.13335014455E+04 -0.20389826921E+04  0.24549267677E+04  0.50400001928E-02 0.  1.
</event>
<event>
 5   0  0.3690572E-08  0.3894965E+04  0.7818609E-02  0.8026077E-01
        2   -1    0    0  501    0  0.00000000000E+00  0.00000000000E+00  0.23374918103E+04  0.23374918103E+04  0.25500000920E-02 0. -1.
       -2   -1    0    0    0  501  0.00000000000E+00  0.00000000000E+00 -0.16225463012E+04  0.16225463012E+04  0.25500000920E-02 0.  1.
    10030    2    1    2    0    0  0.00000000000E+00  0.00000000000E+00  0.71494550910E+03  0.39600381115E+04  0.38949653097E+04 0.  0.
        3    1    3    3  502    0 -0.14235752898E+03  0.50811069522E+03 -0.15484789175E+04  0.16359184309E+04  0.10100000352E+00 0.  1.
       -3    1    3    3    0  502  0.14235752898E+03 -0.50811069522E+03  0.22634244266E+04  0.23241196806E+04  0.10100000352E+00 0. -1.
</event>
<event>
 5   0  0.1164500E-08  0.3900418E+04  0.7818609E-02  0.8024942E-01
        3   -1    0    0  501    0  0.00000000000E+00  0.00000000000E+00  0.24455001311E+04  0.24455001331E+04  0.10100000352E+00 0.  1.
       -3   -1    0    0    0  501  0.00000000000E+00  0.00000000000E+00 -0.15552297411E+04  0.15552297443E+04  0.10100000352E+00 0. -1.
    10030    2    1    2    0    0  0.00000000000E+00  0.00000000000E+00  0.89027039000E+03  0.40007298775E+04  0.39004176937E+04 0.  0.
        4    1    3    3  502    0 -0.19165406671E+03  0.80893935877E+03 -0.13643780850E+04  0.15976993895E+04  0.12699999809E+01 0. -1.
       -4    1    3    3    0  502  0.19165406671E+03 -0.80893935877E+03  0.22546484750E+04  0.24030304880E+04  0.12699999809E+01 0.  1.
</event>
<event>
 5   0  0.1164500E-08  0.3911741E+04  0.7818609E-02  0.8022592E-01
        1   -1    0    0  501    0  0.00000000000E+00  0.00000000000E+00  0.17599934252E+04  0.17599934252E+04  0.50400001928E-02 0. -1.
       -1   -1    0    0    0  501  0.00000000000E+00  0.00000000000E+00 -0.21735476931E+04  0.21735476931E+04  0.50400001928E-02 0.  1.
    10030    2    1    2    0    0  0.00000000000E+00  0.00000000000E+00 -0.41355426785E+03  0.39335411183E+04  0.39117411209E+04 0.  0.
        2    1    3    3  502    0  0.16200333530E+04  0.52136216121E+03 -0.11760488480E+04  0.20686752913E+04  0.25500000920E-02 0.  1.
       -2    1    3    3    0  502 -0.16200333530E+04 -0.52136216121E+03  0.76249458011E+03  0.18648658270E+04  0.25500000920E-02 0. -1.
</event>
<event>
 5   0  0.1164500E-08  0.3912090E+04  0.7818609E-02  0.8022519E-01
        1   -1    0    0  501    0  0.00000000000E+00  0.00000000000E+00  0.23477033045E+04  0.23477033045E+04  0.50400001928E-02 0. -1.
       -1   -1    0    0    0  501  0.00000000000E+00  0.00000000000E+00 -0.16297258655E+04  0.16297258656E+04  0.50400001928E-02 0.  1.
    10030    2    1    2    0    0  0.00000000000E+00  0.00000000000E+00  0.71797743897E+03  0.39774291701E+04  0.39120903875E+04 0.  0.
        3    1    3    3  502    0 -0.56601727654E+03 -0.12407806824E+04 -0.10666434232E+04  0.17313695335E+04  0.10100000352E+00 0.  1.
       -3    1    3    3    0  502  0.56601727654E+03  0.12407806824E+04  0.17846208621E+04  0.22460596366E+04  0.10100000352E+00 0. -1.
</event>
<event>
 5   0  0.3872969E-08  0.3903851E+04  0.7818609E-02  0.8024229E-01
       -2   -1    0    0    0  501  0.00000000000E+00  0.00000000000E+00  0.16909153735E+04  0.16909153735E+04  0.25500000920E-02 0.  1.
        2   -1    0    0  501    0  0.00000000000E+00  0.00000000000E+00 -0.22532255593E+04  0.22532255593E+04  0.25500000920E-02 0. -1.
    10030    2    1    2    0    0  0.00000000000E+00  0.00000000000E+00 -0.56231018572E+03  0.39441409328E+04  0.39038512975E+04 0.  0.
        2    1    3    3  502    0  0.77622254916E+03  0.98253924754E+02 -0.20878608105E+04  0.22296497580E+04  0.25500000920E-02 0. -1.
       -2    1    3    3    0  502 -0.77622254916E+03 -0.98253924754E+02  0.15255506248E+04  0.17144911748E+04  0.25500000920E-02 0.  1.
</event>
<event>
 5   0  0.3724293E-08  0.3896786E+04  0.7818609E-02  0.8025698E-01
        2   -1    0    0  501    0  0.00000000000E+00  0.00000000000E+00  0.31218000104E+04  0.31218000104E+04  0.25500000920E-02 0.  1.
       -2   -1    0    0    0  501  0.00000000000E+00  0.00000000000E+00 -0.12160407431E+04  0.12160407431E+04  0.25500000920E-02 0. -1.
    10030    2    1    2    0    0  0.00000000000E+00  0.00000000000E+00  0.19057592673E+04  0.43378407535E+04  0.38967863705E+04 0.  0.
        4    1    3    3  502    0  0.28944926278E+03 -0.14005426349E+04  0.24258766787E+04  0.28160574960E+04  0.12699999809E+01 0.  1.
       -4    1    3    3    0  502 -0.28944926278E+03  0.14005426349E+04 -0.52011741137E+03  0.15217832574E+04  0.12699999809E+01 0. -1.
</event>
<event>
 5   0  0.1164500E-08  0.3903662E+04  0.7818609E-02  0.8024268E-01
       -1   -1    0    0    0  501  0.00000000000E+00  0.00000000000E+00  0.26376399902E+04  0.26376399902E+04  0.50400001928E-02 0.  1.
        1   -1    0    0  501    0  0.00000000000E+00  0.00000000000E+00 -0.14443385695E+04  0.14443385695E+04  0.50400001928E-02 0. -1.
    10030    2    1    2    0    0  0.00000000000E+00  0.00000000000E+00  0.11933014208E+04  0.40819785597E+04  0.39036624702E+04 0.  0.
        2    1    3    3  502    0 -0.67432692345E+03  0.10840430024E+04 -0.94719788125E+03  0.15896697320E+04  0.25500000920E-02 0. -1.
       -2    1    3    3    0  502  0.67432692345E+03 -0.10840430024E+04  0.21404993020E+04  0.24923088277E+04  0.25500000920E-02 0.  1.
</event>
<event>
 5   0  0.1164500E-08  0.3898291E+04  0.7818609E-02  0.8025385E-01
       -1   -1    0    0    0  501  0.00000000000E+00  0.00000000000E+00  0.15064282678E+04  0.15064282678E+04  0.50400001928E-02 0. -1.
        1   -1    0    0  501    0  0.00000000000E+00  0.00000000000E+00 -0.25219713170E+04  0.25219713170E+04  0.50400001928E-02 0.  1.
    10030    2    1    2    0    0  0.00000000000E+00  0.00000000000E+00 -0.10155430492E+04  0.40283995848E+04  0.38982913603E+04 0.  0.
        5    1    3    3  502    0 -0.68301855139E+03  0.14644576031E+04  0.61855887473E+03  0.17302565082E+04  0.46999998093E+01 0. -1.
       -5    1    3    3    0  502  0.68301855139E+03 -0.14644576031E+04 -0.16341019239E+04  0.22981430766E+04  0.46999998093E+01 0.  1.
</event>
<event>
 5   0  0.1164500E-08  0.3897694E+04  0.7818609E-02  0.8025509E-01
        1   -1    0    0  501    0  0.00000000000E+00  0.00000000000E+00  0.27875313579E+04  0.27875313579E+04  0.50400001928E-02 0. -1.
       -1   -1    0    0    0  501  0.00000000000E+00  0.00000000000E+00 -0.13624974557E+04  0.13624974557E+04  0.50400001928E-02 0.  1.
    10030    2    1    2    0    0  0.00000000000E+00  0.00000000000E+00  0.14250339021E+04  0.41500288136E+04  0.38976938735E+04 0.  0.
        2    1    3    3  502    0 -0.94303051759E+03  0.77191812584E+03 -0.90674161164E+03  0.15189945689E+04  0.25500000920E-02 0.  1.
       -2    1    3    3    0  502  0.94303051759E+03 -0.77191812584E+03  0.23317755138E+04  0.26310342447E+04  0.25500000920E-02 0. -1.
</event>
<event>
 5   0  0.3872969E-08  0.3891186E+04  0.7818609E-02  0.8026865E-01
       -2   -1    0    0    0  501  0.00000000000E+00  0.00000000000E+00  0.25562944955E+04  0.25562944955E+04  0.25500000920E-02 0.  1.
        2   -1    0    0  501    0  0.00000000000E+00  0.00000000000E+00 -0.14807888746E+04  0.14807888746E+04  0.25500000920E-02 0. -1.
    10030    2    1    2    0    0  0.00000000000E+00  0.00000000000E+00  0.10755056209E+04  0.40370833701E+04  0.38911861683E+04 0.  0.
        2    1    3    3  502    0  0.10308209520E+04  0.66189869342E+03 -0.10304192648E+04  0.16007703073E+04  0.25500000920E-02 0. -1.
       -2    1    3    3    0  502 -0.10308209520E+04 -0.66189869342E+03  0.21059248857E+04  0.24363130627E+04  0.25500000920E-02 0.  1.
</event>
<event>
 5   0  0.3690572E-08  0.3905314E+04  0.7818609E-02  0.8023925E-01
       -2   -1    0    0    0  501  0.00000000000E+00  0.00000000000E+00  0.14570571965E+04  0.14570571965E+04  0.25500000920E-02 0.  1.
        2   -1    0    0  501    0  0.00000000000E+00  0.00000000000E+00 -0.26168288281E+04  0.26168288281E+04  0.25500000920E-02 0. -1.
    10030    2    1    2    0    0  0.00000000000E+00  0.00000000000E+00 -0.11597716316E+04  0.40738860246E+04  0.39053139571E+04 0.  0.
        3    1    3    3  502    0 -0.19248590949E+03 -0.67445995070E+02 -0.26056864564E+04  0.26136567691E+04  0.10100000352E+00 0. -1.
       -3    1    3    3    0  502  0.19248590949E+03  0.67445995070E+02  0.14459148248E+04  0.14602292554E+04  0.10100000352E+00 0.  1.
</event>
<event>
 5   0  0.3872969E-08  0.3897871E+04  0.7818609E-02  0.8025472E-01
       -2   -1    0    0    0  501  0.00000000000E+00  0.00000000000E+00  0.21818353864E+04  0.21818353864E+04  0.25500000920E-02 0. -1.
        2   -1    0    0  501    0  0.00000000000E+00  0.00000000000E+00 -0.17408968465E+04  0.17408968465E+04  0.25500000920E-02 0.  1.
    10030    2    1    2    0    0  0.00000000000E+00  0.00000000000E+00  0.44093853995E+03  0.39227322329E+04  0.38978713903E+04 0.  0.
        2    1    3    3  502    0 -0.13953986563E+03  0.28198404463E+03  0.21561097219E+04  0.21789436680E+04  0.25500000920E-02 0. -1.
       -2    1    3    3    0  502  0.13953986563E+03 -0.28198404463E+03 -0.17151711820E+04  0.17437885649E+04  0.25500000920E-02 0.  1.
</event>
<event>
 5   0  0.1164500E-08  0.3881203E+04  0.7818609E-02  0.8028950E-01
        1   -1    0    0  501    0  0.00000000000E+00  0.00000000000E+00  0.20371980797E+04  0.20371980797E+04  0.50400001928E-02 0.  1.
       -1   -1    0    0    0  501  0.00000000000E+00  0.00000000000E+00 -0.18485851314E+04  0.18485851314E+04  0.50400001928E-02 0. -1.
    10030    2    1    2    0    0  0.00000000000E+00  0.00000000000E+00  0.18861294830E+03  0.38857832112E+04  0.38812029475E+04 0.  0.
        3    1    3    3  502    0 -0.41776910464E+03  0.94406845201E+03  0.17394552536E+04  0.20227458704E+04  0.10100000352E+00 0.  1.
       -3    1    3    3    0  502  0.41776910464E+03 -0.94406845201E+03 -0.15508423053E+04  0.18630373407E+04  0.10100000352E+00 0. -1.
</event>
<event>
 5   0  0.1164500E-08  0.3816661E+04  0.7818609E-02  0.8042589E-01
       -1   -1    0    0    0  501  0.00000000000E+00  0.00000000000E+00  0.18951442642E+04  0.18951442642E+04  0.50400001928E-02 0.  1.
        1   -1    0    0  501    0  0.00000000000E+00  0.00000000000E+00 -0.19216089571E+04  0.19216089571E+04  0.50400001928E-02 0. -1.
    10030    2    1    2    0    0  0.00000000000E+00  0.00000000000E+00 -0.26464692910E+02  0.38167532213E+04  0.38166614695E+04 0.  0.
        5    1    3    3  502    0  0.98105415933E+03  0.14894722080E+04  0.66553973040E+03  0.19036701249E+04  0.46999998093E+01 0.  1.
       -5    1    3    3    0  502 -0.98105415933E+03 -0.14894722080E+04 -0.69200442331E+03  0.19130830964E+04  0.46999998093E+01 0. -1.
</event>
<event>
 5   0  0.3669347E-08  0.3917518E+04  0.7818609E-02  0.8021396E-01
       -2   -1    0    0    0  501  0.00000000000E+00  0.00000000000E+00  0.16943597216E+04  0.16943597216E+04  0.25500000920E-02 0.  1.
        2   -1    0    0  501    0  0.00000000000E+00  0.00000000000E+00 -0.22644172500E+04  0.22644172500E+04  0.25500000920E-02 0. -1.
    10030    2    1    2    0    0  0.00000000000E+00  0.00000000000E+00 -0.57005752833E+03  0.39587769716E+04  0.39175182865E+04 0.  0.
        5    1    3    3  502    0  0.63484176445E+03 -0.16233785479E+04 -0.11879339131E+04  0.21094053777E+04  0.46999998093E+01 0. -1.
       -5    1    3    3    0  502 -0.63484176445E+03  0.16233785479E+04  0.61787638476E+03  0.18493715939E+04  0.46999998093E+01 0.  1.
</event>
<event>
 5   0  0.1164500E-08  0.3904905E+04  0.7818609E-02  0.8024010E-01
       -1   -1    0    0    0  501  0.00000000000E+00  0.00000000000E+00  0.21425137122E+04  0.21425137122E+04  0.50400001928E-02 0.  1.
        1   -1    0    0  501    0  0.00000000000E+00  0.00000000000E+00 -0.17792513279E+04  0.17792513280E+04  0.50400001928E-02 0. -1.
    10030    2    1    2    0    0  0.00000000000E+00  0.00000000000E+00  0.36326238426E+03  0.39217650402E+04  0.39049047966E+04 0.  0.
        5    1    3    3  502    0 -0.97442937616E+03  0.67194807641E+03 -0.13778195375E+04  0.18164348583E+04  0.46999998093E+01 0. -1.
       -5    1    3    3    0  502  0.97442937616E+03 -0.67194807641E+03  0.17410819217E+04  0.21053301819E+04  0.46999998093E+01 0.  1.
</event>
<event>
 5   0  0.1164500E-08  0.3900160E+04  0.7818609E-02  0.8024996E-01
        1   -1    0    0  501    0  0.00000000000E+00  0.00000000000E+00  0.27372364037E+04  0.27372364038E+04  0.50400001928E-02 0. -1.
       -1   -1    0    0    0  501  0.00000000000E+00  0.00000000000E+00 -0.13892885624E+04  0.13892885624E+04  0.50400001928E-02 0.  1.
    10030    2    1    2    0    0  0.00000000000E+00  0.00000000000E+00  0.13479478413E+04  0.41265249662E+04  0.39001596010E+04 0.  0.
        2    1    3    3  502    0 -0.60491846266E+03  0.38110246057E+03 -0.12456168163E+04  0.14362195811E+04  0.25500000920E-02 0.  1.
       -2    1    3    3    0  502  0.60491846266E+03 -0.38110246057E+03  0.25935646576E+04  0.26903053851E+04  0.25500000920E-02 0. -1.
</event>
<event>
 5   0  0.3669347E-08  0.3852374E+04  0.7818609E-02  0.8035008E-01
        2   -1    0    0  501    0  0.00000000000E+00  0.00000000000E+00  0.23154627630E+04  0.23154627630E+04  0.25500000920E-02 0.  1.
       -2   -1    0    0    0  501  0.00000000000E+00  0.00000000000E+00 -0.16023561104E+04  0.16023561104E+04  0.25500000920E-02 0. -1.
    10030    2    1    2    0    0  0.00000000000E+00  0.00000000000E+00  0.71310665261E+03  0.39178188733E+04  0.38523737651E+04 0.  0.
        5    1    3    3  502    0 -0.24250141586E+02  0.11789793562E+04  0.19054479486E+04  0.22408334089E+04  0.46999998093E+01 0.  1.
       -5    1    3    3    0  502  0.24250141586E+02 -0.11789793562E+04 -0.11923412960E+04  0.16769854644E+04  0.46999998093E+01 0. -1.
</event>
<event>
 5   0  0.1164500E-08  0.3893402E+04  0.7818609E-02  0.8026403E-01
       -1   -1    0    0    0  501  0.00000000000E+00  0.00000000000E+00  0.18038266302E+04  0.18038266302E+04  0.50400001928E-02 0.  1.
        1   -1    0    0  501    0  0.00000000000E+00  0.00000000000E+00 -0.21008919109E+04  0.21008919109E+04  0.50400001928E-02 0. -1.
    10030    2    1    2    0    0  0.00000000000E+00  0.00000000000E+00 -0.29706528063E+03  0.39047185411E+04  0.38934019962E+04 0.  0.
        1    1    3    3  502    0  0.72616394441E+03  0.63987117511E+03  0.15454284308E+04  0.18234851877E+04  0.50400001928E-02 0.  1.
       -1    1    3    3    0  502 -0.72616394441E+03 -0.63987117511E+03 -0.18424937114E+04  0.20812333535E+04  0.50400001928E-02 0. -1.
</event>
<event>
 5   0  0.3690572E-08  0.3894470E+04  0.7818609E-02  0.8026180E-01
       -2   -1    0    0    0  501  0.00000000000E+00  0.00000000000E+00  0.14571737352E+04  0.14571737352E+04  0.25500000920E-02 0. -1.
        2   -1    0    0  501    0  0.00000000000E+00  0.00000000000E+00 -0.26021090920E+04  0.26021090920E+04  0.25500000920E-02 0.  1.
    10030    2    1    2    0    0  0.00000000000E+00  0.00000000000E+00 -0.11449353567E+04  0.40592828272E+04  0.38944704518E+04 0.  0.
        3    1    3    3  502    0  0.12560101173E+04  0.82693916529E+03  0.71695167580E+03  0.16659560359E+04  0.10100000352E+00 0. -1.
       -3    1    3    3    0  502 -0.12560101173E+04 -0.82693916529E+03 -0.18618870325E+04  0.23933267913E+04  0.10100000352E+00 0.  1.
</event>
<event>
 5   0  0.3769985E-08  0.3894240E+04  0.7818609E-02  0.8026228E-01
       -2   -1    0    0    0  501  0.00000000000E+00  0.00000000000E+00  0.16919011144E+04  0.16919011144E+04  0.25500000920E-02 0. -1.
        2   -1    0    0  501    0  0.00000000000E+00  0.00000000000E+00 -0.22408385404E+04  0.22408385404E+04  0.25500000920E-02 0.  1.
    10030    2    1    2    0    0  0.00000000000E+00  0.00000000000E+00 -0.54893742600E+03  0.39327396548E+04  0.38942404773E+04 0.  0.
        1    1    3    3  502    0  0.51136007111E+03  0.18612452943E+03 -0.21624821325E+04  0.22299014409E+04  0.50400001928E-02 0.  1.
       -1    1    3    3    0  502 -0.51136007111E+03 -0.18612452943E+03  0.16135447065E+04  0.17028382139E+04  0.50400001928E-02 0. -1.
</event>
<event>
 5   0  0.3690572E-08  0.3902271E+04  0.7818609E-02  0.8024557E-01
        2   -1    0    0  501    0  0.00000000000E+00  0.00000000000E+00  0.17219301622E+04  0.17219301622E+04  0.25500000920E-02 0. -1.
       -2   -1    0    0    0  501  0.00000000000E+00  0.00000000000E+00 -0.22108507762E+04  0.22108507762E+04  0.25500000920E-02 0.  1.
    10030    2    1    2    0    0  0.00000000000E+00  0.00000000000E+00 -0.48892061394E+03  0.39327809384E+04  0.39022714594E+04 0.  0.
        3    1    3    3  502    0 -0.11999685796E+04  0.11794324193E+04  0.75116286390E+03  0.18426152832E+04  0.10100000352E+00 0. -1.
       -3    1    3    3    0  502  0.11999685796E+04 -0.11794324193E+04 -0.12400834778E+04  0.20901656551E+04  0.10100000352E+00 0.  1.
</event>
<event>
 5   0  0.1164500E-08  0.3901246E+04  0.7818609E-02  0.8024770E-01
        1   -1    0    0  501    0  0.00000000000E+00  0.00000000000E+00  0.26943465109E+04  0.26943465109E+04  0.50400001928E-02 0. -1.
       -1   -1    0    0    0  501  0.00000000000E+00  0.00000000000E+00 -0.14121899813E+04  0.14121899813E+04  0.50400001928E-02 0.  1.
    10030    2    1    2    0    0  0.00000000000E+00  0.00000000000E+00  0.12821565297E+04  0.41065364922E+04  0.39012455184E+04 0.  0.
        2    1    3    3  502    0 -0.91555093342E+03  0.84676636045E+03  0.22198996706E+04  0.25462131349E+04  0.25500000920E-02 0. -1.
       -2    1    3    3    0  502  0.91555093342E+03 -0.84676636045E+03 -0.93774314093E+03  0.15603233573E+04  0.25500000920E-02 0.  1.
</event>
<event>
 5   0  0.3724293E-08  0.3901106E+04  0.7818609E-02  0.8024799E-01
       -2   -1    0    0    0  501  0.00000000000E+00  0.00000000000E+00  0.15304352861E+04  0.15304352861E+04  0.25500000920E-02 0. -1.
        2   -1    0    0  501    0  0.00000000000E+00  0.00000000000E+00 -0.24859965835E+04  0.24859965835E+04  0.25500000920E-02 0.  1.
    10030    2    1    2    0    0  0.00000000000E+00  0.00000000000E+00 -0.95556129736E+03  0.40164318696E+04  0.39011059419E+04 0.  0.
        4    1    3    3  502    0  0.15256060180E+04 -0.27398410663E+03 -0.16968947763E+04  0.22982590166E+04  0.12699999809E+01 0.  1.
       -4    1    3    3    0  502 -0.15256060180E+04  0.27398410663E+03  0.74133347893E+03  0.17181728530E+04  0.12699999809E+01 0. -1.
</event>
<event>
 5   0  0.1164500E-08  0.3898982E+04  0.7818609E-02  0.8025241E-01
        1   -1    0    0  501    0  0.00000000000E+00  0.00000000000E+00  0.19670557326E+04  0.19670557326E+04  0.50400001928E-02 0. -1.
       -1   -1    0    0    0  501  0.00000000000E+00  0.00000000000E+00 -0.19320833970E+04  0.19320833970E+04  0.50400001928E-02 0.  1.
    10030    2    1    2    0    0  0.00000000000E+00  0.00000000000E+00  0.34972335543E+02  0.38991391296E+04  0.38989822887E+04 0.  0.
        5    1    3    3  502    0  0.35000482308E+03 -0.92368317567E+03  0.16982678052E+04  0.19646449077E+04  0.46999998093E+01 0. -1.
       -5    1    3    3    0  502 -0.35000482308E+03  0.92368317567E+03 -0.16632954696E+04  0.19344942219E+04  0.46999998093E+01 0.  1.
</event>
<event>
 5   0  0.1164500E-08  0.3900087E+04  0.7818609E-02  0.8025011E-01
        1   -1    0    0  501    0  0.00000000000E+00  0.00000000000E+00  0.30525118813E+04  0.30525118813E+04  0.50400001928E-02 0.  1.
       -1   -1    0    0    0  501  0.00000000000E+00  0.00000000000E+00 -0.12457508618E+04  0.12457508618E+04  0.50400001928E-02 0. -1.
    10030    2    1    2    0    0  0.00000000000E+00  0.00000000000E+00  0.18067610195E+04  0.42982627431E+04  0.39000868230E+04 0.  0.
        2    1    3    3  502    0 -0.58745928169E+03  0.13581622498E+04 -0.49630340446E+03  0.15607787075E+04  0.25500000920E-02 0. -1.
       -2    1    3    3    0  502  0.58745928169E+03 -0.13581622498E+04  0.23030644240E+04  0.27374840357E+04  0.25500000920E-02 0.  1.
</event>
<event>
 5   0  0.1164500E-08  0.3902007E+04  0.7818609E-02  0.8024612E-01
        1   -1    0    0  501    0  0.00000000000E+00  0.00000000000E+00  0.13653895606E+04  0.13653895606E+04  0.50400001928E-02 0. -1.
       -1   -1    0    0    0  501  0.00000000000E+00  0.00000000000E+00 -0.27877860196E+04  0.27877860196E+04  0.50400001928E-02 0.  1.
    10030    2    1    2    0    0  0.00000000000E+00  0.00000000000E+00 -0.14223964590E+04  0.41531755802E+04  0.39020066266E+04 0.  0.
        2    1    3    3  502    0  0.28408038866E+03 -0.12254140801E+04 -0.22985265632E+04  0.26202224517E+04  0.25500000920E-02 0.  1.
       -2    1    3    3    0  502 -0.28408038866E+03  0.12254140801E+04  0.87613010416E+03  0.15329531285E+04  0.25500000920E-02 0. -1.
</event>
<event>
 5   0  0.1164500E-08  0.3919348E+04  0.7818609E-02  0.8021017E-01
        1   -1    0    0  501    0  0.00000000000E+00  0.00000000000E+00  0.13590664575E+04  0.13590664576E+04  0.50400001928E-02 0. -1.
       -1   -1    0    0    0  501  0.00000000000E+00  0.00000000000E+00 -0.28257060101E+04  0.28257060101E+04  0.50400001928E-02 0.  1.
    10030    2    1    2    0    0  0.00000000000E+00  0.00000000000E+00 -0.14666395526E+04  0.41847724677E+04  0.39193480362E+04 0.  0.
        3    1    3    3  502    0  0.14166839928E+04  0.36862008618E+03 -0.21244130531E+04  0.25799234743E+04  0.10100000352E+00 0.  1.
       -3    1    3    3    0  502 -0.14166839928E+04 -0.36862008618E+03  0.65777350050E+03  0.16048489933E+04  0.10100000352E+00 0. -1.
</event>
<event>
 5   0  0.1164500E-08  0.3901974E+04  0.7818609E-02  0.8024619E-01
       -1   -1    0    0    0  501  0.00000000000E+00  0.00000000000E+00  0.17326209936E+04  0.17326209936E+04  0.50400001928E-02 0.  1.
        1   -1    0    0  501    0  0.00000000000E+00  0.00000000000E+00 -0.21968738990E+04  0.21968738990E+04  0.50400001928E-02 0. -1.
    10030    2    1    2    0    0  0.00000000000E+00  0.00000000000E+00 -0.46425290542E+03  0.39294948926E+04  0.39019737763E+04 0.  0.
        5    1    3    3  502    0 -0.54895748836E+03 -0.13177218699E+04  0.11071339969E+04  0.18065195896E+04  0.46999998093E+01 0.  1.
       -5    1    3    3    0  502  0.54895748836E+03  0.13177218699E+04 -0.15713869023E+04  0.21229753030E+04  0.46999998093E+01 0. -1.
</event>
<event>
 5   0  0.3669347E-08  0.3902321E+04  0.7818609E-02  0.8024547E-01
        2   -1    0    0  501    0  0.00000000000E+00  0.00000000000E+00  0.25430964301E+04  0.25430964301E+04  0.25500000920E-02 0. -1.
       -2   -1    0    0    0  501  0.00000000000E+00  0.00000000000E+00 -0.14970049749E+04  0.14970049749E+04  0.25500000920E-02 0.  1.
    10030    2    1    2    0    0  0.00000000000E+00  0.00000000000E+00  0.10460914552E+04  0.40401014050E+04  0.39023213643E+04 0.  0.
        5    1    3    3  502    0 -0.58505529922E+02  0.87522106662E+03 -0.12813527863E+04  0.15528431555E+04  0.46999998093E+01 0.  1.
       -5    1    3    3    0  502  0.58505529922E+02 -0.87522106662E+03  0.23274442416E+04  0.24872582496E+04  0.46999998093E+01 0. -1.
</event>
<event>
 5   0  0.1164500E-08  0.3908122E+04  0.7818609E-02  0.8023342E-01
        1   -1    0    0  501    0  0.00000000000E+00  0.00000000000E+00  0.20308857814E+04  0.20308857814E+04  0.50400001928E-02 0. -1.
       -1   -1    0    0    0  501  0.00000000000E+00  0.00000000000E+00 -0.18801422409E+04  0.18801422409E+04  0.50400001928E-02 0.  1.
    10030    2    1    2    0    0  0.00000000000E+00  0.00000000000E+00  0.15074354050E+03  0.39110280224E+04  0.39081218733E+04 0.  0.
        3    1    3    3  502    0  0.14270966861E+04 -0.13000787424E+04 -0.22741634828E+03  0.19438435878E+04  0.10100000352E+00 0.  1.
       -3    1    3    3    0  502 -0.14270966861E+04  0.13000787424E+04  0.37815988878E+03  0.19671844346E+04  0.10100000352E+00 0. -1.
</event>
<event>
 5   0  0.1164500E-08  0.3901269E+04  0.7818609E-02  0.8024765E-01
        1   -1    0    0  501    0  0.00000000000E+00  0.00000000000E+00  0.18240542269E+04  0.18240542269E+04  0.50400001928E-02 0.  1.
       -1   -1    0    0    0  501  0.00000000000E+00  0.00000000000E+00 -0.20859982832E+04  0.20859982832E+04  0.50400001928E-02 0. -1.
    10030    2    1    2    0    0  0.00000000000E+00  0.00000000000E+00 -0.26194405630E+03  0.39100525101E+04  0.39012685044E+04 0.  0.
        5    1    3    3  502    0 -0.95230218497E+03  0.77286105620E+03  0.13892682699E+04  0.18531816100E+04  0.46999998093E+01 0.  1.
       -5    1    3    3    0  502  0.95230218497E+03 -0.77286105620E+03 -0.16512123262E+04  0.20568709002E+04  0.46999998093E+01 0. -1.
</event>
<event>
 5   0  0.1164500E-08  0.3909006E+04  0.7818609E-02  0.8023159E-01
       -1   -1    0    0    0  501  0.00000000000E+00  0.00000000000E+00  0.12365806347E+04  0.12365806348E+04  0.50400001928E-02 0.  1.
        1   -1    0    0  501    0  0.00000000000E+00  0.00000000000E+00 -0.30892299877E+04  0.30892299877E+04  0.50400001928E-02 0. -1.
    10030    2    1    2    0    0  0.00000000000E+00  0.00000000000E+00 -0.18526493530E+04  0.43258106225E+04  0.39090060011E+04 0.  0.
        4    1    3    3  502    0 -0.72496984587E+02 -0.16606816051E+03 -0.30799141450E+04  0.30852402176E+04  0.12699999809E+01 0. -1.
       -4    1    3    3    0  502  0.72496984587E+02  0.16606816051E+03  0.12272647921E+04  0.12405704049E+04  0.12699999809E+01 0.  1.
</event>
<event>
 5   0  0.1164500E-08  0.3909892E+04  0.7818609E-02  0.8022975E-01
       -1   -1    0    0    0  501  0.00000000000E+00  0.00000000000E+00  0.12954662602E+04  0.12954662602E+04  0.50400001928E-02 0. -1.
        1   -1    0    0  501    0  0.00000000000E+00  0.00000000000E+00 -0.29501453787E+04  0.29501453787E+04  0.50400001928E-02 0.  1.
    10030    2    1    2    0    0  0.00000000000E+00  0.00000000000E+00 -0.16546791185E+04  0.42456116389E+04  0.39098919683E+04 0.  0.
        2    1    3    3  502    0 -0.17821707271E+04 -0.62804770433E+03 -0.28306549934E+03  0.19106811604E+04  0.25500000920E-02 0. -1.
       -2    1    3    3    0  502  0.17821707271E+04  0.62804770433E+03 -0.13716136191E+04  0.23349304786E+04  0.25500000920E-02 0.  1.
</event>
<event>
 5   0  0.3872969E-08  0.3949768E+04  0.7818609E-02  0.8014757E-01
       -2   -1    0    0    0  501  0.00000000000E+00  0.00000000000E+00  0.18064379535E+04  0.18064379535E+04  0.25500000920E-02 0.  1.
        2   -1    0    0  501    0  0.00000000000E+00  0.00000000000E+00 -0.21590375647E+04  0.21590375647E+04  0.25500000920E-02 0. -1.
    10030    2    1    2    0    0  0.00000000000E+00  0.00000000000E+00 -0.35259961122E+03  0.39654755181E+04  0.39497682969E+04 0.  0.
        2    1    3    3  502    0  0.53658488099E+03  0.18741073019E+04  0.14113135989E+03  0.19545126181E+04  0.25500000920E-02 0.  1.
       -2    1    3    3    0  502 -0.53658488099E+03 -0.18741073019E+04 -0.49373097111E+03  0.20109629000E+04  0.25500000920E-02 0. -1.
</event>
<event>
 5   0  0.3690572E-08  0.3883903E+04  0.7818609E-02  0.8028386E-01
        2   -1    0    0  501    0  0.00000000000E+00  0.00000000000E+00  0.20770962339E+04  0.20770962339E+04  0.25500000920E-02 0. -1.
       -2   -1    0    0    0  501  0.00000000000E+00  0.00000000000E+00 -0.18155994494E+04  0.18155994494E+04  0.25500000920E-02 0.  1.
    10030    2    1    2    0    0  0.00000000000E+00  0.00000000000E+00  0.26149678449E+03  0.38926956833E+04  0.38839025625E+04 0.  0.
        3    1    3    3  502    0  0.76634754958E+03 -0.12671757522E+04  0.13898376454E+04  0.20309287640E+04  0.10100000352E+00 0. -1.
       -3    1    3    3    0  502 -0.76634754958E+03  0.12671757522E+04 -0.11283408609E+04  0.18617669194E+04  0.10100000352E+00 0.  1.
</event>
<event>
 5   0  0.3724293E-08  0.3897451E+04  0.7818609E-02  0.8025560E-01
       -2   -1    0    0    0  501  0.00000000000E+00  0.00000000000E+00  0.16057351679E+04  0.16057351679E+04  0.25500000920E-02 0.  1.
        2   -1    0    0  501    0  0.00000000000E+00  0.00000000000E+00 -0.23649798061E+04  0.23649798061E+04  0.25500000920E-02 0. -1.
    10030    2    1    2    0    0  0.00000000000E+00  0.00000000000E+00 -0.75924463827E+03  0.39707149740E+04  0.38974510881E+04 0.  0.
        4    1    3    3  502    0 -0.11780016775E+04  0.44745322999E+03  0.11348019207E+04  0.16957828155E+04  0.12699999809E+01 0.  1.
       -4    1    3    3    0  502  0.11780016775E+04 -0.44745322999E+03 -0.18940465590E+04  0.22749321585E+04  0.12699999809E+01 0. -1.
</event>
<event>
 5   0  0.1164500E-08  0.3900775E+04  0.7818609E-02  0.8024868E-01
        1   -1    0    0  501    0  0.00000000000E+00  0.00000000000E+00  0.16243638987E+04  0.16243638987E+04  0.50400001928E-02 0. -1.
       -1   -1    0    0    0  501  0.00000000000E+00  0.00000000000E+00 -0.23418464551E+04  0.23418464551E+04  0.50400001928E-02 0.  1.
    10030    2    1    2    0    0  0.00000000000E+00  0.00000000000E+00 -0.71748255634E+03  0.39662103538E+04  0.39007747118E+04 0.  0.
        5    1    3    3  502    0 -0.72979955381E+03 -0.48117784719E+03 -0.21315051733E+04  0.23037959769E+04  0.46999998093E+01 0.  1.
       -5    1    3    3    0  502  0.72979955381E+03  0.48117784719E+03  0.14140226170E+04  0.16624143769E+04  0.46999998093E+01 0. -1.
</event>
<event>
 5   0  0.3769985E-08  0.3919610E+04  0.7818609E-02  0.8020963E-01
       -2   -1    0    0    0  501  0.00000000000E+00  0.00000000000E+00  0.17264957512E+04  0.17264957512E+04  0.25500000920E-02 0. -1.
        2   -1    0    0  501    0  0.00000000000E+00  0.00000000000E+00 -0.22246420585E+04  0.22246420585E+04  0.25500000920E-02 0.  1.
    10030    2    1    2    0    0  0.00000000000E+00  0.00000000000E+00 -0.49814630726E+03  0.39511378097E+04  0.39196097060E+04 0.  0.
        1    1    3    3  502    0 -0.35056938259E+03 -0.13963833530E+04 -0.15894489828E+04  0.21445590292E+04  0.50400001928E-02 0.  1.
       -1    1    3    3    0  502  0.35056938259E+03  0.13963833530E+04  0.10913026756E+04  0.18065787805E+04  0.50400001928E-02 0. -1.
</event>
<event>
 5   0  0.3669347E-08  0.3894882E+04  0.7818609E-02  0.8026094E-01
        2   -1    0    0  501    0  0.00000000000E+00  0.00000000000E+00  0.27426962658E+04  0.27426962658E+04  0.25500000920E-02 0.  1.
       -2   -1    0    0    0  501  0.00000000000E+00  0.00000000000E+00 -0.13827730448E+04  0.13827730448E+04  0.25500000920E-02 0. -1.
    10030    2    1    2    0    0  0.00000000000E+00  0.00000000000E+00  0.13599232210E+04  0.41254693106E+04  0.38948820092E+04 0.  0.
        5    1    3    3  502    0  0.26581511360E+03 -0.23071182213E+03 -0.13487968598E+04  0.13939729834E+04  0.46999998093E+01 0. -1.
       -5    1    3    3    0  502 -0.26581511360E+03  0.23071182213E+03  0.27087200808E+04  0.27314963272E+04  0.46999998093E+01 0.  1.
</event>
<event>
 5   0  0.1164500E-08  0.3903531E+04  0.7818609E-02  0.8024295E-01
       -1   -1    0    0    0  501  0.00000000000E+00  0.00000000000E+00  0.13051965162E+04  0.13051965162E+04  0.50400001928E-02 0.  1.
        1   -1    0    0  501    0  0.00000000000E+00  0.00000000000E+00 -0.29186324916E+04  0.29186324916E+04  0.50400001928E-02 0. -1.
    10030    2    1    2    0    0  0.00000000000E+00  0.00000000000E+00 -0.16134359753E+04  0.42238290078E+04  0.39035312015E+04 0.  0.
        4    1    3    3  502    0 -0.14752722406E+04 -0.43160588322E+03  0.49475224824E+03  0.16147734275E+04  0.12699999809E+01 0.  1.
       -4    1    3    3    0  502  0.14752722406E+04  0.43160588322E+03 -0.21081882236E+04  0.26090555803E+04  0.12699999809E+01 0. -1.
</event>
<event>
 5   0  0.1164500E-08  0.3903588E+04  0.7818609E-02  0.8024283E-01
       -1   -1    0    0    0  501  0.00000000000E+00  0.00000000000E+00  0.19048991067E+04  0.19048991067E+04  0.50400001928E-02 0. -1.
        1   -1    0    0  501    0  0.00000000000E+00  0.00000000000E+00 -0.19998434405E+04  0.19998434405E+04  0.50400001928E-02 0.  1.
    10030    2    1    2    0    0  0.00000000000E+00  0.00000000000E+00 -0.94944333821E+02  0.39047425473E+04  0.39035880845E+04 0.  0.
        2    1    3    3  502    0 -0.55758039473E+03 -0.94343169535E+03 -0.16630475665E+04  0.19916542041E+04  0.25500000920E-02 0.  1.
       -2    1    3    3    0  502  0.55758039473E+03  0.94343169535E+03  0.15681032327E+04  0.19130883431E+04  0.25500000920E-02 0. -1.
</event>
<event>
 5   0  0.1164500E-08  0.3885619E+04  0.7818609E-02  0.8028027E-01
       -1   -1    0    0    0  501  0.00000000000E+00  0.00000000000E+00  0.14654672765E+04  0.14654672765E+04  0.50400001928E-02 0.  1.
        1   -1    0    0  501    0  0.00000000000E+00  0.00000000000E+00 -0.25756351743E+04  0.25756351743E+04  0.50400001928E-02 0. -1.
    10030    2    1    2    0    0  0.00000000000E+00  0.00000000000E+00 -0.11101678978E+04  0.40411024508E+04  0.38856191600E+04 0.  0.
        2    1    3    3  502    0  0.34154636104E+03 -0.19810930330E+02 -0.25440601208E+04  0.25669609050E+04  0.25500000920E-02 0. -1.
       -2    1    3    3    0  502 -0.34154636104E+03  0.19810930330E+02  0.14338922230E+04  0.14741415457E+04  0.25500000920E-02 0.  1.
</event>
<event>
 5   0  0.1164500E-08  0.3890751E+04  0.7818609E-02  0.8026955E-01
        1   -1    0    0  501    0  0.00000000000E+00  0.00000000000E+00  0.26096844519E+04  0.26096844519E+04  0.50400001928E-02 0.  1.
       -1   -1    0    0    0  501  0.00000000000E+00  0.00000000000E+00 -0.14501702131E+04  0.14501702131E+04  0.50400001928E-02 0. -1.
    10030    2    1    2    0    0  0.00000000000E+00  0.00000000000E+00  0.11595142388E+04  0.40598546650E+04  0.38907514223E+04 0.  0.
        5    1    3    3  502    0  0.68917339409E+03  0.93824774024E+03  0.22060855753E+04  0.24944146497E+04  0.46999998093E+01 0.  1.
       -5    1    3    3    0  502 -0.68917339409E+03 -0.93824774024E+03 -0.10465713364E+04  0.15654400153E+04  0.46999998093E+01 0. -1.
</event>
<event>
 5   0  0.1164500E-08  0.3913916E+04  0.7818609E-02  0.8022141E-01
        1   -1    0    0  501    0  0.00000000000E+00  0.00000000000E+00  0.10786519738E+04  0.10786519738E+04  0.50400001928E-02 0.  1.
       -1   -1    0    0    0  501  0.00000000000E+00  0.00000000000E+00 -0.35504351486E+04  0.35504351486E+04  0.50400001928E-02 0. -1.
    10030    2    1    2    0    0  0.00000000000E+00  0.00000000000E+00 -0.24717831748E+04  0.46290871224E+04  0.39139156255E+04 0.  0.
        4    1    3    3  502    0  0.54805800752E+03 -0.16360973792E+04 -0.14387030330E+03  0.17314394274E+04  0.12699999809E+01 0.  1.
       -4    1    3    3    0  502 -0.54805800752E+03  0.16360973792E+04 -0.23279128715E+04  0.28976476950E+04  0.12699999809E+01 0. -1.
</event>
<event>
 5   0  0.3872969E-08  0.3871450E+04  0.7818609E-02  0.8030993E-01
        2   -1    0    0  501    0  0.00000000000E+00  0.00000000000E+00  0.22048822040E+04  0.22048822040E+04  0.25500000920E-02 0. -1.
       -2   -1    0    0    0  501  0.00000000000E+00  0.00000000000E+00 -0.16994243705E+04  0.16994243705E+04  0.25500000920E-02 0.  1.
    10030    2    1    2    0    0  0.00000000000E+00  0.00000000000E+00  0.50545783355E+03  0.39043065745E+04  0.38714496259E+04 0.  0.
        2    1    3    3  502    0 -0.79285419072E+03  0.12621782954E+04 -0.99279078472E+03  0.17909062955E+04  0.25500000920E-02 0.  1.
       -2    1    3    3    0  502  0.79285419072E+03 -0.12621782954E+04  0.14982486183E+04  0.21134002790E+04  0.25500000920E-02 0. -1.
</event>
<event>
 5   0  0.3872969E-08  0.3902134E+04  0.7818609E-02  0.8024585E-01
       -2   -1    0    0    0  501  0.00000000000E+00  0.00000000000E+00  0.13494508959E+04  0.13494508959E+04  0.25500000920E-02 0.  1.
        2   -1    0    0  501    0  0.00000000000E+00  0.00000000000E+00 -0.28208976744E+04  0.28208976744E+04  0.25500000920E-02 0. -1.
    10030    2    1    2    0    0  0.00000000000E+00  0.00000000000E+00 -0.14714467785E+04  0.41703485703E+04  0.39021342335E+04 0.  0.
        2    1    3    3  502    0 -0.15549899647E+03 -0.10247345107E+04 -0.25023406092E+04  0.27084994517E+04  0.25500000920E-02 0. -1.
       -2    1    3    3    0  502  0.15549899647E+03  0.10247345107E+04  0.10308938307E+04  0.14618491186E+04  0.25500000920E-02 0.  1.
</event>
<event>
 5   0  0.3690572E-08  0.3905103E+04  0.7818609E-02  0.8023969E-01
        2   -1    0    0  501    0  0.00000000000E+00  0.00000000000E+00  0.19164484719E+04  0.19164484719E+04  0.25500000920E-02 0.  1.
       -2   -1    0    0    0  501  0.00000000000E+00  0.00000000000E+00 -0.19893344200E+04  0.19893344200E+04  0.25500000920E-02 0. -1.
    10030    2    1    2    0    0  0.00000000000E+00  0.00000000000E+00 -0.72885948171E+02  0.39057828919E+04  0.39051027691E+04 0.  0.
        3    1    3    3  502    0 -0.10287947904E+04  0.55001633868E+03 -0.16024487870E+04  0.19821147340E+04  0.10100000352E+00 0. -1.
       -3    1    3    3    0  502  0.10287947904E+04 -0.55001633868E+03  0.15295628388E+04  0.19236681579E+04  0.10100000352E+00 0.  1.
</event>
<event>
 5   0  0.1164500E-08  0.3900045E+04  0.7818609E-02  0.8025020E-01
        1   -1    0    0  501    0  0.00000000000E+00  0.00000000000E+00  0.12597813940E+04  0.12597813940E+04  0.50400001928E-02 0.  1.
       -1   -1    0    0    0  501  0.00000000000E+00  0.00000000000E+00 -0.30184507053E+04  0.30184507053E+04  0.50400001928E-02 0. -1.
    10030    2    1    2    0    0  0.00000000000E+00  0.00000000000E+00 -0.17586693113E+04  0.42782320994E+04  0.39000451471E+04 0.  0.
        1    1    3    3  502    0 -0.18492543629E+04  0.60447671445E+03 -0.10242602808E+04  0.21986911834E+04  0.50400001928E-02 0.  1.
       -1    1    3    3    0  502  0.18492543629E+04 -0.60447671445E+03 -0.73440903054E+03  0.20795409160E+04  0.50400001928E-02 0. -1.
</event>
<event>
 5   0  0.1164500E-08  0.3896974E+04  0.7818609E-02  0.8025659E-01
       -1   -1    0    0    0  501  0.00000000000E+00  0.00000000000E+00  0.12368751263E+04  0.12368751263E+04  0.50400001928E-02 0. -1.
        1   -1    0    0  501    0  0.00000000000E+00  0.00000000000E+00 -0.30695106404E+04  0.30695106404E+04  0.50400001928E-02 0.  1.
    10030    2    1    2    0    0  0.00000000000E+00  0.00000000000E+00 -0.18326355141E+04  0.43063857667E+04  0.38969738829E+04 0.  0.
        2    1    3    3  502    0 -0.58813856551E+02  0.11024618240E+04 -0.26905208218E+04  0.29082268543E+04  0.25500000920E-02 0.  1.
       -2    1    3    3    0  502  0.58813856551E+02 -0.11024618240E+04  0.85788530776E+03  0.13981589125E+04  0.25500000920E-02 0. -1.
</event>
<event>
 5   0  0.1164500E-08  0.3901756E+04  0.7818609E-02  0.8024664E-01
       -1   -1    0    0    0  501  0.00000000000E+00  0.00000000000E+00  0.30428379580E+04  0.30428379580E+04  0.50400001928E-02 0. -1.
        1   -1    0    0  501    0  0.00000000000E+00  0.00000000000E+00 -0.12507815800E+04  0.12507815800E+04  0.50400001928E-02 0.  1.
    10030    2    1    2    0    0  0.00000000000E+00  0.00000000000E+00  0.17920563780E+04  0.42936195380E+04  0.39017563577E+04 0.  0.
        2    1    3    3  502    0  0.39159195357E+03  0.17027384421E+04  0.18511016772E+04  0.25454351062E+04  0.25500000920E-02 0. -1.
       -2    1    3    3    0  502 -0.39159195357E+03 -0.17027384421E+04 -0.59045299198E+02  0.17481844318E+04  0.25500000920E-02 0.  1.
</event>
<event>
 5   0  0.3690572E-08  0.3905388E+04  0.7818609E-02  0.8023909E-01
        2   -1    0    0  501    0  0.00000000000E+00  0.00000000000E+00  0.20398518693E+04  0.20398518693E+04  0.25500000920E-02 0. -1.
       -2   -1    0    0    0  501  0.00000000000E+00  0.00000000000E+00 -0.18692605223E+04  0.18692605223E+04  0.25500000920E-02 0.  1.
    10030    2    1    2    0    0  0.00000000000E+00  0.00000000000E+00  0.17059134698E+03  0.39091123916E+04  0.39053883652E+04 0.  0.
        3    1    3    3  502    0  0.13724183401E+04  0.88734808105E+03  0.11550035766E+04  0.20012376145E+04  0.10100000352E+00 0. -1.
       -3    1    3    3    0  502 -0.13724183401E+04 -0.88734808105E+03 -0.98441222967E+03  0.19078747772E+04  0.10100000352E+00 0.  1.
</event>
<event>
 5   0  0.3872969E-08  0.3897796E+04  0.7818609E-02  0.8025488E-01
       -2   -1    0    0    0  501  0.00000000000E+00  0.00000000000E+00  0.20217266495E+04  0.20217266495E+04  0.25500000920E-02 0. -1.
        2   -1    0    0  501    0  0.00000000000E+00  0.00000000000E+00 -0.18786926677E+04  0.18786926677E+04  0.25500000920E-02 0.  1.
    10030    2    1    2    0    0  0.00000000000E+00  0.00000000000E+00  0.14303398182E+03  0.39004193172E+04  0.38977958040E+04 0.  0.
        2    1    3    3  502    0  0.13027430035E+04 -0.13776915043E+04  0.52240857366E+03  0.19667445009E+04  0.25500000920E-02 0. -1.
       -2    1    3    3    0  502 -0.13027430035E+04  0.13776915043E+04 -0.37937459184E+03  0.19336748163E+04  0.25500000920E-02 0.  1.
</event>
<event>
 5   0  0.3872969E-08  0.3897032E+04  0.7818609E-02  0.8025647E-01
       -2   -1    0    0    0  501  0.00000000000E+00  0.00000000000E+00  0.12922965002E+04  0.12922965003E+04  0.25500000920E-02 0. -1.
        2   -1    0    0  501    0  0.00000000000E+00  0.00000000000E+00 -0.29379599294E+04  0.29379599294E+04  0.25500000920E-02 0.  1.
    10030    2    1    2    0    0  0.00000000000E+00  0.00000000000E+00 -0.16456634291E+04  0.42302564296E+04  0.38970323759E+04 0.  0.
        2    1    3    3  502    0 -0.24786886751E+03  0.44678284719E+03  0.12182858352E+04  0.13210882879E+04  0.25500000920E-02 0. -1.
       -2    1    3    3    0  502  0.24786886751E+03 -0.44678284719E+03 -0.28639492644E+04  0.29091681418E+04  0.25500000920E-02 0.  1.
</event>
<event>
 5   0  0.1164500E-08  0.3899139E+04  0.7818609E-02  0.8025208E-01
        1   -1    0    0  501    0  0.00000000000E+00  0.00000000000E+00  0.22923642072E+04  0.22923642072E+04  0.50400001928E-02 0. -1.
       -1   -1    0    0    0  501  0.00000000000E+00  0.00000000000E+00 -0.16580355497E+04  0.16580355497E+04  0.50400001928E-02 0.  1.
    10030    2    1    2    0    0  0.00000000000E+00  0.00000000000E+00  0.63432865752E+03  0.39503997569E+04  0.38991390580E+04 0.  0.
        4    1    3    3  502    0 -0.20602916027E+03  0.12086335349E+04  0.18528676761E+04  0.22217928064E+04  0.12699999809E+01 0. -1.
       -4    1    3    3    0  502  0.20602916027E+03 -0.12086335349E+04 -0.12185390186E+04  0.17286069505E+04  0.12699999809E+01 0.  1.
</event>
<event>
 5   0  0.3769985E-08  0.3895331E+04  0.7818609E-02  0.8026001E-01
        2   -1    0    0  501    0  0.00000000000E+00  0.00000000000E+00  0.17402437071E+04  0.17402437071E+04  0.25500000920E-02 0. -1.
       -2   -1    0    0    0  501  0.00000000000E+00  0.00000000000E+00 -0.21798103837E+04  0.21798103837E+04  0.25500000920E-02 0.  1.
    10030    2    1    2    0    0  0.00000000000E+00  0.00000000000E+00 -0.43956667654E+03  0.39200540908E+04  0.38953312070E+04 0.  0.
        1    1    3    3  502    0 -0.34919272324E+03  0.49286135244E+03 -0.20831706354E+04  0.21689738973E+04  0.50400001928E-02 0.  1.
       -1    1    3    3    0  502  0.34919272324E+03 -0.49286135244E+03  0.16436039589E+04  0.17510801936E+04  0.50400001928E-02 0. -1.
</event>
<event>
 5   0  0.3690572E-08  0.3902531E+04  0.7818609E-02  0.8024503E-01
       -2   -1    0    0    0  501  0.00000000000E+00  0.00000000000E+00  0.14644940273E+04  0.14644940273E+04  0.25500000920E-02 0. -1.
        2   -1    0    0  501    0  0.00000000000E+00  0.00000000000E+00 -0.25998316973E+04  0.25998316973E+04  0.25500000920E-02 0.  1.
    10030    2    1    2    0    0  0.00000000000E+00  0.00000000000E+00 -0.11353376700E+04  0.40643257246E+04  0.39025314824E+04 0.  0.
        3    1    3    3  502    0 -0.52948096917E+03 -0.17951943887E+04 -0.11422341966E+04  0.21926632117E+04  0.10100000352E+00 0.  1.
       -3    1    3    3    0  502  0.52948096917E+03  0.17951943887E+04  0.68965266147E+01  0.18716625129E+04  0.10100000352E+00 0. -1.
</event>
<event>
 5   0  0.1164500E-08  0.3899728E+04  0.7818609E-02  0.8025086E-01
       -1   -1    0    0    0  501  0.00000000000E+00  0.00000000000E+00  0.16351302866E+04  0.16351302866E+04  0.50400001928E-02 0.  1.
        1   -1    0    0  501    0  0.00000000000E+00  0.00000000000E+00 -0.23251781084E+04  0.23251781084E+04  0.50400001928E-02 0. -1.
    10030    2    1    2    0    0  0.00000000000E+00  0.00000000000E+00 -0.69004782182E+03  0.39603083950E+04  0.38997277581E+04 0.  0.
        2    1    3    3  502    0  0.79182589650E+03  0.17293605129E+04 -0.78098654643E+03  0.20561167330E+04  0.25500000920E-02 0. -1.
       -2    1    3    3    0  502 -0.79182589650E+03 -0.17293605129E+04  0.90938724613E+02  0.19041916620E+04  0.25500000920E-02 0.  1.
</event>
<event>
 5   0  0.3690572E-08  0.3895829E+04  0.7818609E-02  0.8025897E-01
        2   -1    0    0  501    0  0.00000000000E+00  0.00000000000E+00  0.20443828531E+04  0.20443828532E+04  0.25500000920E-02 0.  1.
       -2   -1    0    0    0  501  0.00000000000E+00  0.00000000000E+00 -0.18559978117E+04  0.18559978117E+04  0.25500000920E-02 0. -1.
    10030    2    1    2    0    0  0.00000000000E+00  0.00000000000E+00  0.18838504141E+03  0.39003806649E+04  0.38958285906E+04 0.  0.
        3    1    3    3  502    0  0.94212023052E+03  0.12250273975E+04 -0.10929785869E+04  0.18928509860E+04  0.10100000352E+00 0. -1.
       -3    1    3    3    0  502 -0.94212023052E+03 -0.12250273975E+04  0.12813636283E+04  0.20075296789E+04  0.10100000352E+00 0.  1.
</event>
<event>
 5   0  0.3872969E-08  0.3905032E+04  0.7818609E-02  0.8023983E-01
       -2   -1    0    0    0  501  0.00000000000E+00  0.00000000000E+00  0.24807711804E+04  0.24807711804E+04  0.25500000920E-02 0. -1.
        2   -1    0    0  501    0  0.00000000000E+00  0.00000000000E+00 -0.15367477519E+04  0.15367477519E+04  0.25500000920E-02 0.  1.
    10030    2    1    2    0    0  0.00000000000E+00  0.00000000000E+00  0.94402342854E+03  0.40175189323E+04  0.39050324119E+04 0.  0.
        2    1    3    3  502    0  0.96728617239E+03 -0.12931482276E+04  0.16010969118E+04  0.22740682045E+04  0.25500000920E-02 0. -1.
       -2    1    3    3    0  502 -0.96728617239E+03  0.12931482276E+04 -0.65707348322E+03  0.17434507278E+04  0.25500000920E-02 0.  1.
</event>
<event>
 5   0  0.3669347E-08  0.3896989E+04  0.7818609E-02  0.8025656E-01
        2   -1    0    0  501    0  0.00000000000E+00  0.00000000000E+00  0.32129932958E+04  0.32129932958E+04  0.25500000920E-02 0.  1.
       -2   -1    0    0    0  501  0.00000000000E+00  0.00000000000E+00 -0.11816493772E+04  0.11816493772E+04  0.25500000920E-02 0. -1.
    10030    2    1    2    0    0  0.00000000000E+00  0.00000000000E+00  0.20313439185E+04  0.43946426730E+04  0.38969893646E+04 0.  0.
        5    1    3    3  502    0 -0.34509271853E+03  0.11714282443E+04  0.27278772813E+04  0.29887572113E+04  0.46999998093E+01 0.  1.
       -5    1    3    3    0  502  0.34509271853E+03 -0.11714282443E+04 -0.69653336279E+03  0.14058854617E+04  0.46999998093E+01 0. -1.
</event>
<event>
 5   0  0.1164500E-08  0.3886683E+04  0.7818609E-02  0.8027804E-01
        1   -1    0    0  501    0  0.00000000000E+00  0.00000000000E+00  0.20807581092E+04  0.20807581092E+04  0.50400001928E-02 0.  1.
       -1   -1    0    0    0  501  0.00000000000E+00  0.00000000000E+00 -0.18150005520E+04  0.18150005520E+04  0.50400001928E-02 0. -1.
    10030    2    1    2    0    0  0.00000000000E+00  0.00000000000E+00  0.26575755720E+03  0.38957586613E+04  0.38866834792E+04 0.  0.
        5    1    3    3  502    0 -0.73577932877E+03  0.58286067346E+03 -0.15726986835E+04  0.18315296952E+04  0.46999998093E+01 0. -1.
       -5    1    3    3    0  502  0.73577932877E+03 -0.58286067346E+03  0.18384562407E+04  0.20642289661E+04  0.46999998093E+01 0.  1.
</event>
<event>
 5   0  0.1164500E-08  0.3903899E+04  0.7818609E-02  0.8024219E-01
       -3   -1    0    0    0  501  0.00000000000E+00  0.00000000000E+00  0.17607617366E+04  0.17607617395E+04  0.10100000352E+00 0.  1.
        3   -1    0    0  501    0  0.00000000000E+00  0.00000000000E+00 -0.21638965075E+04  0.21638965098E+04  0.10100000352E+00 0. -1.
    10030    2    1    2    0    0  0.00000000000E+00  0.00000000000E+00 -0.40313477087E+03  0.39246582493E+04  0.39038986578E+04 0.  0.
        1    1    3    3  502    0  0.62424252468E+03 -0.72202216267E+03  0.15101645988E+04  0.17865026864E+04  0.50400001928E-02 0.  1.
       -1    1    3    3    0  502 -0.62424252468E+03  0.72202216267E+03 -0.19132993697E+04  0.21381555629E+04  0.50400001928E-02 0. -1.
</event>
<event>
 5   0  0.3769985E-08  0.3907732E+04  0.7818609E-02  0.8023423E-01
        2   -1    0    0  501    0  0.00000000000E+00  0.00000000000E+00  0.24137917160E+04  0.24137917160E+04  0.25500000920E-02 0.  1.
       -2   -1    0    0    0  501  0.00000000000E+00  0.00000000000E+00 -0.15815752039E+04  0.15815752039E+04  0.25500000920E-02 0. -1.
    10030    2    1    2    0    0  0.00000000000E+00  0.00000000000E+00  0.83221651211E+03  0.39953669200E+04  0.39077323990E+04 0.  0.
        1    1    3    3  502    0 -0.14745514835E+04  0.68023680946E+03  0.15270148095E+04  0.22290801741E+04  0.50400001928E-02 0.  1.
       -1    1    3    3    0  502  0.14745514835E+04 -0.68023680946E+03 -0.69479829736E+03  0.17662867458E+04  0.50400001928E-02 0. -1.
</event>
<event>
 5   0  0.1164500E-08  0.3904102E+04  0.7818609E-02  0.8024177E-01
       -1   -1    0    0    0  501  0.00000000000E+00  0.00000000000E+00  0.22754965047E+04  0.22754965047E+04  0.50400001928E-02 0. -1.
        1   -1    0    0  501    0  0.00000000000E+00  0.00000000000E+00 -0.16745808444E+04  0.16745808444E+04  0.50400001928E-02 0.  1.
    10030    2    1    2    0    0  0.00000000000E+00  0.00000000000E+00  0.60091566027E+03  0.39500773491E+04  0.39041018728E+04 0.  0.
        4    1    3    3  502    0  0.44440004018E+01 -0.66356008971E+03 -0.15569630810E+04  0.16924737487E+04  0.12699999809E+01 0.  1.
       -4    1    3    3    0  502 -0.44440004018E+01  0.66356008971E+03  0.21578787412E+04  0.22576036004E+04  0.12699999809E+01 0. -1.
</event>
<event>
 5   0  0.3872969E-08  0.3898343E+04  0.7818609E-02  0.8025374E-01
       -2   -1    0    0    0  501  0.00000000000E+00  0.00000000000E+00  0.14396162970E+04  0.14396162970E+04  0.25500000920E-02 0. -1.
        2   -1    0    0  501    0  0.00000000000E+00  0.00000000000E+00 -0.26390846640E+04  0.26390846640E+04  0.25500000920E-02 0.  1.
    10030    2    1    2    0    0  0.00000000000E+00  0.00000000000E+00 -0.11994683671E+04  0.40787009610E+04  0.38983428743E+04 0.  0.
        2    1    3    3  502    0  0.16592534888E+04 -0.91099880833E+03 -0.10862512958E+04  0.21824259086E+04  0.25500000920E-02 0.  1.
       -2    1    3    3    0  502 -0.16592534888E+04  0.91099880833E+03 -0.11321707125E+03  0.18962750524E+04  0.25500000920E-02 0. -1.
</event>
<event>
 5   0  0.1164500E-08  0.3894864E+04  0.7818609E-02  0.8026098E-01
        1   -1    0    0  501    0  0.00000000000E+00  0.00000000000E+00  0.12366873066E+04  0.12366873066E+04  0.50400001928E-02 0. -1.
       -1   -1    0    0    0  501  0.00000000000E+00  0.00000000000E+00 -0.30666540071E+04  0.30666540071E+04  0.50400001928E-02 0.  1.
    10030    2    1    2    0    0  0.00000000000E+00  0.00000000000E+00 -0.18299667004E+04  0.43033413137E+04  0.38948643542E+04 0.  0.
        1    1    3    3  502    0  0.17872641287E+03  0.16476490594E+04  0.21491166424E+03  0.16711904670E+04  0.50400001928E-02 0. -1.
       -1    1    3    3    0  502 -0.17872641287E+03 -0.16476490594E+04 -0.20448783647E+04  0.26321508467E+04  0.50400001928E-02 0.  1.
</event>
<event>
 5   0  0.3724293E-08  0.3895211E+04  0.7818609E-02  0.8026026E-01
        2   -1    0    0  501    0  0.00000000000E+00  0.00000000000E+00  0.17750025615E+04  0.17750025615E+04  0.25500000920E-02 0. -1.
       -2   -1    0    0    0  501  0.00000000000E+00  0.00000000000E+00 -0.21369927466E+04  0.21369927466E+04  0.25500000920E-02 0.  1.
    10030    2    1    2    0    0  0.00000000000E+00  0.00000000000E+00 -0.36199018507E+03  0.39119953080E+04  0.38952112133E+04 0.  0.
        4    1    3    3  502    0 -0.10552601120E+04 -0.15110594913E+04 -0.81322433629E+03  0.20144999688E+04  0.12699999809E+01 0.  1.
       -4    1    3    3    0  502  0.10552601120E+04  0.15110594913E+04  0.45123415122E+03  0.18974953392E+04  0.12699999809E+01 0. -1.
</event>
<event>
 5   0  0.1164500E-08  0.3903149E+04  0.7818609E-02  0.8024375E-01
       -1   -1    0    0    0  501  0.00000000000E+00  0.00000000000E+00  0.13532236751E+04  0.13532236751E+04  0.50400001928E-02 0.  1.
        1   -1    0    0  501    0  0.00000000000E+00  0.00000000000E+00 -0.28144962858E+04  0.28144962858E+04  0.50400001928E-02 0. -1.
    10030    2    1    2    0    0  0.00000000000E+00  0.00000000000E+00 -0.14612726107E+04  0.41677199609E+04  0.39031489890E+04 0.  0.
        4    1    3    3  502    0 -0.46433095593E+03  0.18857238931E+04 -0.93626044272E+03  0.21559552563E+04  0.12699999809E+01 0. -1.
       -4    1    3    3    0  502  0.46433095593E+03 -0.18857238931E+04 -0.52501216794E+03  0.20117647047E+04  0.12699999809E+01 0.  1.
</event>
<event>
 5   0  0.3669347E-08  0.3870007E+04  0.7818609E-02  0.8031296E-01
        2   -1    0    0  501    0  0.00000000000E+00  0.00000000000E+00  0.18752199852E+04  0.18752199852E+04  0.25500000920E-02 0.  1.
       -2   -1    0    0    0  501  0.00000000000E+00  0.00000000000E+00 -0.19966925243E+04  0.19966925243E+04  0.25500000920E-02 0. -1.
    10030    2    1    2    0    0  0.00000000000E+00  0.00000000000E+00 -0.12147253919E+03  0.38719125095E+04  0.38700065767E+04 0.  0.
        5    1    3    3  502    0  0.42779789353E+01 -0.40968336825E+03 -0.19527934483E+04  0.19953152896E+04  0.46999998093E+01 0. -1.
       -5    1    3    3    0  502 -0.42779789353E+01  0.40968336825E+03  0.18313209091E+04  0.18765972198E+04  0.46999998093E+01 0.  1.
</event>
<event>
 5   0  0.1164500E-08  0.3993932E+04  0.7818609E-02  0.8005772E-01
        1   -1    0    0  501    0  0.00000000000E+00  0.00000000000E+00  0.28737075148E+04  0.28737075148E+04  0.50400001928E-02 0. -1.
       -1   -1    0    0    0  501  0.00000000000E+00  0.00000000000E+00 -0.13877102062E+04  0.13877102062E+04  0.50400001928E-02 0.  1.
    10030    2    1    2    0    0  0.00000000000E+00  0.00000000000E+00  0.14859973086E+04  0.42614177211E+04  0.39939320215E+04 0.  0.
        4    1    3    3  502    0 -0.24000730876E+03 -0.10535289205E+04 -0.10488633177E+04  0.15058693724E+04  0.12699999809E+01 0.  1.
       -4    1    3    3    0  502  0.24000730876E+03  0.10535289205E+04  0.25348606263E+04  0.27555483487E+04  0.12699999809E+01 0. -1.
</event>
<event>
 5   0  0.1164500E-08  0.3894764E+04  0.7818609E-02  0.8026119E-01
        1   -1    0    0  501    0  0.00000000000E+00  0.00000000000E+00  0.23340036180E+04  0.23340036180E+04  0.50400001928E-02 0.  1.
       -1   -1    0    0    0  501  0.00000000000E+00  0.00000000000E+00 -0.16248029944E+04  0.16248029944E+04  0.50400001928E-02 0. -1.
    10030    2    1    2    0    0  0.00000000000E+00  0.00000000000E+00  0.70920062358E+03  0.39588066124E+04  0.38947636988E+04 0.  0.
        5    1    3    3  502    0  0.44768157232E+03 -0.15926699054E+04 -0.68954862519E+03  0.17923491887E+04  0.46999998093E+01 0. -1.
       -5    1    3    3    0  502 -0.44768157232E+03  0.15926699054E+04  0.13987492488E+04  0.21664574237E+04  0.46999998093E+01 0.  1.
</event>
<event>
 5   0  0.3769985E-08  0.3896446E+04  0.7818609E-02  0.8025769E-01
       -2   -1    0    0    0  501  0.00000000000E+00  0.00000000000E+00  0.19219453001E+04  0.19219453001E+04  0.25500000920E-02 0. -1.
        2   -1    0    0  501    0  0.00000000000E+00  0.00000000000E+00 -0.19748604295E+04  0.19748604295E+04  0.25500000920E-02 0.  1.
    10030    2    1    2    0    0  0.00000000000E+00  0.00000000000E+00 -0.52915129421E+02  0.38968057297E+04  0.38964464431E+04 0.  0.
        1    1    3    3  502    0  0.20056925623E+03 -0.80975678821E+03  0.17342841235E+04  0.19244935707E+04  0.50400001928E-02 0. -1.
       -1    1    3    3    0  502 -0.20056925623E+03  0.80975678821E+03 -0.17871992529E+04  0.19723121589E+04  0.50400001928E-02 0.  1.
</event>
<event>
 5   0  0.1164500E-08  0.3898149E+04  0.7818609E-02  0.8025414E-01
       -1   -1    0    0    0  501  0.00000000000E+00  0.00000000000E+00  0.18508759883E+04  0.18508759883E+04  0.50400001928E-02 0. -1.
        1   -1    0    0  501    0  0.00000000000E+00  0.00000000000E+00 -0.20524833380E+04  0.20524833380E+04  0.50400001928E-02 0.  1.
    10030    2    1    2    0    0  0.00000000000E+00  0.00000000000E+00 -0.20160734967E+03  0.39033593263E+04  0.38981493695E+04 0.  0.
        5    1    3    3  502    0  0.16384414281E+04 -0.57322329337E+03  0.78683174850E+03  0.19058335572E+04  0.46999998093E+01 0. -1.
       -5    1    3    3    0  502 -0.16384414281E+04  0.57322329337E+03 -0.98843909817E+03  0.19975257691E+04  0.46999998093E+01 0.  1.
</event>
<event>
 5   0  0.3769985E-08  0.3900577E+04  0.7818609E-02  0.8024909E-01
       -2   -1    0    0    0  501  0.00000000000E+00  0.00000000000E+00  0.19567084361E+04  0.19567084361E+04  0.25500000920E-02 0.  1.
        2   -1    0    0  501    0  0.00000000000E+00  0.00000000000E+00 -0.19438896417E+04  0.19438896417E+04  0.25500000920E-02 0. -1.
    10030    2    1    2    0    0  0.00000000000E+00  0.00000000000E+00  0.12818794442E+02  0.39005980778E+04  0.39005770141E+04 0.  0.
        1    1    3    3  502    0  0.64485891282E+03 -0.12705106711E+03 -0.18298031952E+04  0.19442645716E+04  0.50400001928E-02 0. -1.
       -1    1    3    3    0  502 -0.64485891282E+03  0.12705106711E+03  0.18426219896E+04  0.19563335063E+04  0.50400001928E-02 0.  1.
</event>
<event>
 5   0  0.1164500E-08  0.3902780E+04  0.7818609E-02  0.8024451E-01
       -1   -1    0    0    0  501  0.00000000000E+00  0.00000000000E+00  0.22774439640E+04  0.22774439640E+04  0.50400001928E-02 0. -1.
        1   -1    0    0  501    0  0.00000000000E+00  0.00000000000E+00 -0.16720159888E+04  0.16720159888E+04  0.50400001928E-02 0.  1.
    10030    2    1    2    0    0  0.00000000000E+00  0.00000000000E+00  0.60542797517E+03  0.39494599527E+04  0.39027798920E+04 0.  0.
        3    1    3    3  502    0 -0.11765640287E+04  0.14544722757E+04  0.86444808468E+03  0.20608403664E+04  0.10100000352E+00 0. -1.
       -3    1    3    3    0  502  0.11765640287E+04 -0.14544722757E+04 -0.25902010951E+03  0.18886195863E+04  0.10100000352E+00 0.  1.
</event>
<event>
 5   0  0.1164500E-08  0.3901200E+04  0.7818609E-02  0.8024780E-01
        1   -1    0    0  501    0  0.00000000000E+00  0.00000000000E+00  0.23040978424E+04  0.23040978424E+04  0.50400001928E-02 0. -1.
       -1   -1    0    0    0  501  0.00000000000E+00  0.00000000000E+00 -0.16513366516E+04  0.16513366516E+04  0.50400001928E-02 0.  1.
    10030    2    1    2    0    0  0.00000000000E+00  0.00000000000E+00  0.65276119084E+03  0.39554344941E+04  0.39012004389E+04 0.  0.
        5    1    3    3  502    0  0.18770213042E+04  0.51051863385E+03  0.17951917640E+03  0.19534808616E+04  0.46999998093E+01 0. -1.
       -5    1    3    3    0  502 -0.18770213042E+04 -0.51051863385E+03  0.47324201444E+03  0.20019536324E+04  0.46999998093E+01 0.  1.
</event>
<event>
 5   0  0.3724293E-08  0.3910498E+04  0.7818609E-02  0.8022849E-01
        2   -1    0    0  501    0  0.00000000000E+00  0.00000000000E+00  0.20014195878E+04  0.20014195878E+04  0.25500000920E-02 0.  1.
       -2   -1    0    0    0  501  0.00000000000E+00  0.00000000000E+00 -0.19101437784E+04  0.19101437784E+04  0.25500000920E-02 0. -1.
    10030    2    1    2    0    0  0.00000000000E+00  0.00000000000E+00  0.91275809374E+02  0.39115633662E+04  0.39104982668E+04 0.  0.
        4    1    3    3  502    0  0.70481391220E+03 -0.41287982196E+03 -0.17312932880E+04  0.19143172308E+04  0.12699999809E+01 0. -1.
       -4    1    3    3    0  502 -0.70481391220E+03  0.41287982196E+03  0.18225690973E+04  0.19972461355E+04  0.12699999809E+01 0.  1.
</event>
<event>
 5   0  0.3872969E-08  0.3907093E+04  0.7818609E-02  0.8023556E-01
        2   -1    0    0  501    0  0.00000000000E+00  0.00000000000E+00  0.17396146896E+04  0.17396146896E+04  0.25500000920E-02 0.  1.
       -2   -1    0    0    0  501  0.00000000000E+00  0.00000000000E+00 -0.21937864194E+04  0.21937864194E+04  0.25500000920E-02 0. -1.
    10030    2    1    2    0    0  0.00000000000E+00  0.00000000000E+00 -0.45417172985E+03  0.39334011090E+04  0.39070925666E+04 0.  0.
        2    1    3    3  502    0 -0.14056102261E+04 -0.64528784214E+03 -0.14285229362E+04  0.21054249657E+04  0.25500000920E-02 0. -1.
       -2    1    3    3    0  502  0.14056102261E+04  0.64528784214E+03  0.97435120637E+03  0.18279761433E+04  0.25500000920E-02 0.  1.
</event>
<event>
 5   0  0.1164500E-08  0.3899035E+04  0.7818609E-02  0.8025230E-01
       -1   -1    0    0    0  501  0.00000000000E+00  0.00000000000E+00  0.19056536839E+04  0.19056536839E+04  0.50400001928E-02 0.  1.
        1   -1    0    0  501    0  0.00000000000E+00  0.00000000000E+00 -0.19943914584E+04  0.19943914584E+04  0.50400001928E-02 0. -1.
    10030    2    1    2    0    0  0.00000000000E+00  0.00000000000E+00 -0.88737774465E+02  0.39000451423E+04  0.38990354858E+04 0.  0.
        1    1    3    3  502    0 -0.11579068374E+04 -0.93270414874E+03  0.12168835424E+04  0.19213252793E+04  0.50400001928E-02 0.  1.
       -1    1    3    3    0  502  0.11579068374E+04  0.93270414874E+03 -0.13056213169E+04  0.19787198630E+04  0.50400001928E-02 0. -1.
</event>
<event>
 5   0  0.3669347E-08  0.3924490E+04  0.7818609E-02  0.8019955E-01
        2   -1    0    0  501    0  0.00000000000E+00  0.00000000000E+00  0.21322236348E+04  0.21322236348E+04  0.25500000920E-02 0. -1.
       -2   -1    0    0    0  501  0.00000000000E+00  0.00000000000E+00 -0.18058169941E+04  0.18058169941E+04  0.25500000920E-02 0.  1.
    10030    2    1    2    0    0  0.00000000000E+00  0.00000000000E+00  0.32640664065E+03  0.39380406289E+04  0.39244901198E+04 0.  0.
        5    1    3    3  502    0 -0.88133105646E+03 -0.25125139773E+03 -0.15778702613E+04  0.18247104831E+04  0.46999998093E+01 0.  1.
       -5    1    3    3    0  502  0.88133105646E+03  0.25125139773E+03  0.19042769019E+04  0.21133301458E+04  0.46999998093E+01 0. -1.
</event>
<event>
 5   0  0.1164500E-08  0.3882229E+04  0.7818609E-02  0.8028735E-01
        1   -1    0    0  501    0  0.00000000000E+00  0.00000000000E+00  0.21003192199E+04  0.21003192199E+04  0.50400001928E-02 0. -1.
       -1   -1    0    0    0  501  0.00000000000E+00  0.00000000000E+00 -0.17939772848E+04  0.17939772848E+04  0.50400001928E-02 0.  1.
    10030    2    1    2    0    0  0.00000000000E+00  0.00000000000E+00  0.30634193513E+03  0.38942965047E+04  0.38822287266E+04 0.  0.
        1    1    3    3  502    0  0.13332602508E+04  0.38674080120E+02 -0.12614774456E+04  0.18358659882E+04  0.50400001928E-02 0.  1.
       -1    1    3    3    0  502 -0.13332602508E+04 -0.38674080120E+02  0.15678193807E+04  0.20584305165E+04  0.50400001928E-02 0. -1.
</event>
<event>
 5   0  0.3724293E-08  0.3910981E+04  0.7818609E-02  0.8022749E-01
       -2   -1    0    0    0  501  0.00000000000E+00  0.00000000000E+00  0.18045911424E+04  0.18045911424E+04  0.25500000920E-02 0. -1.
        2   -1    0    0  501    0  0.00000000000E+00  0.00000000000E+00 -0.21190076796E+04  0.21190076796E+04  0.25500000920E-02 0.  1.
    10030    2    1    2    0    0  0.00000000000E+00  0.00000000000E+00 -0.31441653716E+03  0.39235988220E+04  0.39109806900E+04 0.  0.
        4    1    3    3  502    0 -0.16929878841E+04  0.81601486577E+03  0.38476858142E+03  0.19183682418E+04  0.12699999809E+01 0. -1.
       -4    1    3    3    0  502  0.16929878841E+04 -0.81601486577E+03 -0.69918511858E+03  0.20052305802E+04  0.12699999809E+01 0.  1.
</event>
<event>
 5   0  0.1164500E-08  0.3896091E+04  0.7818609E-02  0.8025843E-01
        1   -1    0    0  501    0  0.00000000000E+00  0.00000000000E+00  0.20161200847E+04  0.20161200847E+04  0.50400001928E-02 0.  1.
       -1   -1    0    0    0  501  0.00000000000E+00  0.00000000000E+00 -0.18822693121E+04  0.18822693121E+04  0.50400001928E-02 0. -1.
    10030    2    1    2    0    0  0.00000000000E+00  0.00000000000E+00  0.13385077261E+03  0.38983893968E+04  0.38960908433E+04 0.  0.
        4    1    3    3  502    0  0.10420871785E+04 -0.58774092097E+03  0.16051983953E+04  0.20020111335E+04  0.12699999809E+01 0.  1.
       -4    1    3    3    0  502 -0.10420871785E+04  0.58774092097E+03 -0.14713476227E+04  0.18963782632E+04  0.12699999809E+01 0. -1.
</event>
<event>
 5   0  0.1164500E-08  0.3886910E+04  0.7818609E-02  0.8027757E-01
        1   -1    0    0  501    0  0.00000000000E+00  0.00000000000E+00  0.25298794404E+04  0.25298794404E+04  0.50400001928E-02 0.  1.
       -1   -1    0    0    0  501  0.00000000000E+00  0.00000000000E+00 -0.14929636329E+04  0.14929636329E+04  0.50400001928E-02 0. -1.
    10030    2    1    2    0    0  0.00000000000E+00  0.00000000000E+00  0.10369158075E+04  0.40228430733E+04  0.38869103411E+04 0.  0.
        2    1    3    3  502    0  0.52351611999E+03 -0.77382864934E+02  0.24538722165E+04  0.25102880493E+04  0.25500000920E-02 0.  1.
       -2    1    3    3    0  502 -0.52351611999E+03  0.77382864934E+02 -0.14169564089E+04  0.15125550240E+04  0.25500000920E-02 0. -1.
</event>
<event>
 5   0  0.3872969E-08  0.3902702E+04  0.7818609E-02  0.8024467E-01
       -2   -1    0    0    0  501  0.00000000000E+00  0.00000000000E+00  0.14742693256E+04  0.14742693256E+04  0.25500000920E-02 0.  1.
        2   -1    0    0  501    0  0.00000000000E+00  0.00000000000E+00 -0.25828192368E+04  0.25828192368E+04  0.25500000920E-02 0. -1.
    10030    2    1    2    0    0  0.00000000000E+00  0.00000000000E+00 -0.11085499112E+04  0.40570885624E+04  0.39027022302E+04 0.  0.
        2    1    3    3  502    0  0.11956664357E+04 -0.14753344899E+04 -0.87582398100E+02  0.19010262384E+04  0.25500000920E-02 0.  1.
       -2    1    3    3    0  502 -0.11956664357E+04  0.14753344899E+04 -0.10209675131E+04  0.21560623241E+04  0.25500000920E-02 0. -1.
</event>
<event>
 5   0  0.1164500E-08  0.3894375E+04  0.7818609E-02  0.8026200E-01
       -3   -1    0    0    0  501  0.00000000000E+00  0.00000000000E+00  0.23755673016E+04  0.23755673037E+04  0.10100000352E+00 0. -1.
        3   -1    0    0  501    0  0.00000000000E+00  0.00000000000E+00 -0.15960561555E+04  0.15960561587E+04  0.10100000352E+00 0.  1.
    10030    2    1    2    0    0  0.00000000000E+00  0.00000000000E+00  0.77951114612E+03  0.39716234624E+04  0.38943748279E+04 0.  0.
        5    1    3    3  502    0  0.83476476098E+02 -0.38506267819E+03 -0.15549716204E+04  0.16041198267E+04  0.46999998093E+01 0.  1.
       -5    1    3    3    0  502 -0.83476476098E+02  0.38506267819E+03  0.23344827665E+04  0.23675036357E+04  0.46999998093E+01 0. -1.
</event>
<event>
 5   0  0.1164500E-08  0.3889417E+04  0.7818609E-02  0.8027234E-01
        1   -1    0    0  501    0  0.00000000000E+00  0.00000000000E+00  0.22203866684E+04  0.22203866684E+04  0.50400001928E-02 0.  1.
       -1   -1    0    0    0  501  0.00000000000E+00  0.00000000000E+00 -0.17032580377E+04  0.17032580377E+04  0.50400001928E-02 0. -1.
    10030    2    1    2    0    0  0.00000000000E+00  0.00000000000E+00  0.51712863073E+03  0.39236447062E+04  0.38894171491E+04 0.  0.
        1    1    3    3  502    0  0.12094828163E+04  0.14436556679E+04 -0.23036676629E+03  0.18973822012E+04  0.50400001928E-02 0. -1.
       -1    1    3    3    0  502 -0.12094828163E+04 -0.14436556679E+04  0.74749539702E+03  0.20262625050E+04  0.50400001928E-02 0.  1.
</event>
<event>
 5   0  0.1164500E-08  0.3896796E+04  0.7818609E-02  0.8025696E-01
        1   -1    0    0  501    0  0.00000000000E+00  0.00000000000E+00  0.19558780735E+04  0.19558780735E+04  0.50400001928E-02 0.  1.
       -1   -1    0    0    0  501  0.00000000000E+00  0.00000000000E+00 -0.19409463021E+04  0.19409463021E+04  0.50400001928E-02 0. -1.
    10030    2    1    2    0    0  0.00000000000E+00  0.00000000000E+00  0.14931771392E+02  0.38968243757E+04  0.38967957680E+04 0.  0.
        5    1    3    3  502    0  0.28805169111E+03 -0.26786364561E+01  0.19344598642E+04  0.19557960037E+04  0.46999998093E+01 0.  1.
       -5    1    3    3    0  502 -0.28805169111E+03  0.26786364561E+01 -0.19195280928E+04  0.19410283720E+04  0.46999998093E+01 0. -1.
</event>
<event>
 5   0  0.3872969E-08  0.3901507E+04  0.7818609E-02  0.8024716E-01
       -2   -1    0    0    0  501  0.00000000000E+00  0.00000000000E+00  0.18491600056E+04  0.18491600056E+04  0.25500000920E-02 0. -1.
        2   -1    0    0  501    0  0.00000000000E+00  0.00000000000E+00 -0.20579289227E+04  0.20579289227E+04  0.25500000920E-02 0.  1.
    10030    2    1    2    0    0  0.00000000000E+00  0.00000000000E+00 -0.20876891711E+03  0.39070889284E+04  0.39015073284E+04 0.  0.
        2    1    3    3  502    0  0.20624407893E+03 -0.95537205470E+03  0.15862746908E+04  0.18632068532E+04  0.25500000920E-02 0. -1.
       -2    1    3    3    0  502 -0.20624407893E+03  0.95537205470E+03 -0.17950436079E+04  0.20438820752E+04  0.25500000920E-02 0.  1.
</event>
<event>
 5   0  0.3872969E-08  0.3891058E+04  0.7818609E-02  0.8026892E-01
       -2   -1    0    0    0  501  0.00000000000E+00  0.00000000000E+00  0.16074329242E+04  0.16074329242E+04  0.25500000920E-02 0. -1.
        2   -1    0    0  501    0  0.00000000000E+00  0.00000000000E+00 -0.23547379074E+04  0.23547379074E+04  0.25500000920E-02 0.  1.
    10030    2    1    2    0    0  0.00000000000E+00  0.00000000000E+00 -0.74730498320E+03  0.39621708316E+04  0.38910580773E+04 0.  0.
        2    1    3    3  502    0 -0.11283257430E+04  0.14275832065E+02 -0.19874706325E+04  0.22854676320E+04  0.25500000920E-02 0.  1.
       -2    1    3    3    0  502  0.11283257430E+04 -0.14275832065E+02  0.12401656493E+04  0.16767031996E+04  0.25500000920E-02 0. -1.
</event>
<event>
 5   0  0.1164500E-08  0.3897497E+04  0.7818609E-02  0.8025550E-01
       -1   -1    0    0    0  501  0.00000000000E+00  0.00000000000E+00  0.16424098906E+04  0.16424098906E+04  0.50400001928E-02 0. -1.
        1   -1    0    0  501    0  0.00000000000E+00  0.00000000000E+00 -0.23122247969E+04  0.23122247969E+04  0.50400001928E-02 0.  1.
    10030    2    1    2    0    0  0.00000000000E+00  0.00000000000E+00 -0.66981490634E+03  0.39546346875E+04  0.38974970818E+04 0.  0.
        1    1    3    3  502    0 -0.90851237635E+03  0.38762192514E+03  0.13695932432E+04  0.16886181175E+04  0.50400001928E-02 0. -1.
       -1    1    3    3    0  502  0.90851237635E+03 -0.38762192514E+03 -0.20394081496E+04  0.22660165700E+04  0.50400001928E-02 0.  1.
</event>
<event>
 5   0  0.3690572E-08  0.3916083E+04  0.7818609E-02  0.8021692E-01
       -2   -1    0    0    0  501  0.00000000000E+00  0.00000000000E+00  0.22003336512E+04  0.22003336512E+04  0.25500000920E-02 0. -1.
        2   -1    0    0  501    0  0.00000000000E+00  0.00000000000E+00 -0.17424300402E+04  0.17424300402E+04  0.25500000920E-02 0.  1.
    10030    2    1    2    0    0  0.00000000000E+00  0.00000000000E+00  0.45790361098E+03  0.39427636914E+04  0.39160834783E+04 0.  0.
        3    1    3    3  502    0  0.10601299685E+04  0.15927330699E+03 -0.14207117771E+04  0.17797936678E+04  0.10100000352E+00 0.  1.
       -3    1    3    3    0  502 -0.10601299685E+04 -0.15927330699E+03  0.18786153881E+04  0.21629700236E+04  0.10100000352E+00 0. -1.
</event>
<event>
 5   0  0.3690572E-08  0.3907457E+04  0.7818609E-02  0.8023480E-01
       -2   -1    0    0    0  501  0.00000000000E+00  0.00000000000E+00  0.18366782207E+04  0.18366782207E+04  0.25500000920E-02 0.  1.
        2   -1    0    0  501    0  0.00000000000E+00  0.00000000000E+00 -0.20782378766E+04  0.20782378766E+04  0.25500000920E-02 0. -1.
    10030    2    1    2    0    0  0.00000000000E+00  0.00000000000E+00 -0.24155965590E+03  0.39149160973E+04  0.39074565872E+04 0.  0.
        3    1    3    3  502    0 -0.28224947028E+03  0.17606061573E+04  0.67927790758E+03  0.19080925791E+04  0.10100000352E+00 0.  1.
       -3    1    3    3    0  502  0.28224947028E+03 -0.17606061573E+04 -0.92083756348E+03  0.20068235182E+04  0.10100000352E+00 0. -1.
</event>
<event>
 5   0  0.3724293E-08  0.3902601E+04  0.7818609E-02  0.8024488E-01
       -2   -1    0    0    0  501  0.00000000000E+00  0.00000000000E+00  0.21762819578E+04  0.21762819578E+04  0.25500000920E-02 0.  1.
        2   -1    0    0  501    0  0.00000000000E+00  0.00000000000E+00 -0.17495776435E+04  0.17495776435E+04  0.25500000920E-02 0. -1.
    10030    2    1    2    0    0  0.00000000000E+00  0.00000000000E+00  0.42670431439E+03  0.39258596013E+04  0.39026013167E+04 0.  0.
        4    1    3    3  502    0  0.25798144442E+02 -0.12300195933E+03  0.21722058822E+04  0.21758389264E+04  0.12699999809E+01 0.  1.
       -4    1    3    3    0  502 -0.25798144442E+02  0.12300195933E+03 -0.17455015678E+04  0.17500206748E+04  0.12699999809E+01 0. -1.
</event>
<event>
 5   0  0.1164500E-08  0.3941002E+04  0.7818609E-02  0.8016555E-01
        1   -1    0    0  501    0  0.00000000000E+00  0.00000000000E+00  0.12132013389E+04  0.12132013389E+04  0.50400001928E-02 0. -1.
       -1   -1    0    0    0  501  0.00000000000E+00  0.00000000000E+00 -0.32005191841E+04  0.32005191841E+04  0.50400001928E-02 0.  1.
    10030    2    1    2    0    0  0.00000000000E+00  0.00000000000E+00 -0.19873178452E+04  0.44137205230E+04  0.39410019839E+04 0.  0.
        4    1    3    3  502    0  0.16136815032E+04  0.91435954120E+03 -0.17389519887E+04  0.25424352492E+04  0.12699999809E+01 0.  1.
       -4    1    3    3    0  502 -0.16136815032E+04 -0.91435954120E+03 -0.24836585649E+03  0.18712852738E+04  0.12699999809E+01 0. -1.
</event>
<event>
 5   0  0.1164500E-08  0.3906533E+04  0.7818609E-02  0.8023672E-01
       -1   -1    0    0    0  501  0.00000000000E+00  0.00000000000E+00  0.32220746709E+04  0.32220746709E+04  0.50400001928E-02 0.  1.
        1   -1    0    0  501    0  0.00000000000E+00  0.00000000000E+00 -0.11840970505E+04  0.11840970505E+04  0.50400001928E-02 0. -1.
    10030    2    1    2    0    0  0.00000000000E+00  0.00000000000E+00  0.20379776204E+04  0.44061717214E+04  0.39065325363E+04 0.  0.
        4    1    3    3  502    0  0.21717217219E+03  0.74698672896E+03  0.30398146525E+04  0.31377743163E+04  0.12699999809E+01 0.  1.
       -4    1    3    3    0  502 -0.21717217219E+03 -0.74698672896E+03 -0.10018370321E+04  0.12683974051E+04  0.12699999809E+01 0. -1.
</event>
<event>
 5   0  0.3669347E-08  0.3898291E+04  0.7818609E-02  0.8025385E-01
        2   -1    0    0  501    0  0.00000000000E+00  0.00000000000E+00  0.13018849940E+04  0.13018849940E+04  0.25500000920E-02 0.  1.
       -2   -1    0    0    0  501  0.00000000000E+00  0.00000000000E+00 -0.29182062605E+04  0.29182062605E+04  0.25500000920E-02 0. -1.
    10030    2    1    2    0    0  0.00000000000E+00  0.00000000000E+00 -0.16163212665E+04  0.42200912545E+04  0.38982913898E+04 0.  0.
        5    1    3    3  502    0 -0.97125305221E+03  0.42043260562E+03  0.96373450478E+03  0.14313987400E+04  0.46999998093E+01 0.  1.
       -5    1    3    3    0  502  0.97125305221E+03 -0.42043260562E+03 -0.25800557713E+04  0.27886925145E+04  0.46999998093E+01 0. -1.
</event>
<event>
 5   0  0.1164500E-08  0.3911799E+04  0.7818609E-02  0.8022580E-01
       -1   -1    0    0    0  501  0.00000000000E+00  0.00000000000E+00  0.18247873363E+04  0.18247873363E+04  0.50400001928E-02 0.  1.
        1   -1    0    0  501    0  0.00000000000E+00  0.00000000000E+00 -0.20964324548E+04  0.20964324548E+04  0.50400001928E-02 0. -1.
    10030    2    1    2    0    0  0.00000000000E+00  0.00000000000E+00 -0.27164511842E+03  0.39212197911E+04  0.39117992765E+04 0.  0.
        4    1    3    3  502    0  0.29468650658E+03  0.19283047291E+04  0.71481144641E+01  0.19507055067E+04  0.12699999809E+01 0. -1.
       -4    1    3    3    0  502 -0.29468650658E+03 -0.19283047291E+04 -0.27879323288E+03  0.19705142844E+04  0.12699999809E+01 0.  1.
</event>
<event>
 5   0  0.3690572E-08  0.3907593E+04  0.7818609E-02  0.8023452E-01
       -2   -1    0    0    0  501  0.00000000000E+00  0.00000000000E+00  0.17794832118E+04  0.17794832118E+04  0.25500000920E-02 0.  1.
        2   -1    0    0  501    0  0.00000000000E+00  0.00000000000E+00 -0.21451845895E+04  0.21451845895E+04  0.25500000920E-02 0. -1.
    10030    2    1    2    0    0  0.00000000000E+00  0.00000000000E+00 -0.36570137775E+03  0.39246678013E+04  0.39075925904E+04 0.  0.
        3    1    3    3  502    0  0.14141628467E+04  0.12588241038E+04 -0.66747889179E+03  0.20074916593E+04  0.10100000352E+00 0. -1.
       -3    1    3    3    0  502 -0.14141628467E+04 -0.12588241038E+04  0.30177751404E+03  0.19171761420E+04  0.10100000352E+00 0.  1.
</event>
<event>
 5   0  0.3669347E-08  0.3896788E+04  0.7818609E-02  0.8025697E-01
        2   -1    0    0  501    0  0.00000000000E+00  0.00000000000E+00  0.19287184814E+04  0.19287184814E+04  0.25500000920E-02 0. -1.
       -2   -1    0    0    0  501  0.00000000000E+00  0.00000000000E+00 -0.19682706145E+04  0.19682706145E+04  0.25500000920E-02 0.  1.
    10030    2    1    2    0    0  0.00000000000E+00  0.00000000000E+00 -0.39552133098E+02  0.38969890958E+04  0.38967883753E+04 0.  0.
        5    1    3    3  502    0  0.64056228876E+03  0.12247058695E+03  0.18163192479E+04  0.19298592671E+04  0.46999998093E+01 0. -1.
       -5    1    3    3    0  502 -0.64056228876E+03 -0.12247058695E+03 -0.18558713810E+04  0.19671298288E+04  0.46999998093E+01 0.  1.
</event>
<event>
 5   0  0.1164500E-08  0.3917850E+04  0.7818609E-02  0.8021327E-01
        1   -1    0    0  501    0  0.00000000000E+00  0.00000000000E+00  0.11347589824E+04  0.11347589824E+04  0.50400001928E-02 0.  1.
       -1   -1    0    0    0  501  0.00000000000E+00  0.00000000000E+00 -0.33816754653E+04  0.33816754653E+04  0.50400001928E-02 0. -1.
    10030    2    1    2    0    0  0.00000000000E+00  0.00000000000E+00 -0.22469164829E+04  0.45164344478E+04  0.39178497214E+04 0.  0.
        4    1    3    3  502    0  0.83053700320E+03  0.87007268710E+03  0.65891387633E+03  0.13714909055E+04  0.12699999809E+01 0.  1.
       -4    1    3    3    0  502 -0.83053700320E+03 -0.87007268710E+03 -0.29058303592E+04  0.31449435423E+04  0.12699999809E+01 0. -1.
</event>
<event>
 5   0  0.1164500E-08  0.3891753E+04  0.7818609E-02  0.8026747E-01
        1   -1    0    0  501    0  0.00000000000E+00  0.00000000000E+00  0.19462992391E+04  0.19462992391E+04  0.50400001928E-02 0.  1.
       -1   -1    0    0    0  501  0.00000000000E+00  0.00000000000E+00 -0.19454541515E+04  0.19454541515E+04  0.50400001928E-02 0. -1.
    10030    2    1    2    0    0  0.00000000000E+00  0.00000000000E+00  0.84508766518E+00  0.38917533906E+04  0.38917532988E+04 0.  0.
        3    1    3    3  502    0 -0.53492902761E+03  0.35472290854E+03  0.18373925156E+04  0.19462755902E+04  0.10100000352E+00 0.  1.
       -3    1    3    3    0  502  0.53492902761E+03 -0.35472290854E+03 -0.18365474280E+04  0.19454778004E+04  0.10100000352E+00 0. -1.
</event>
<event>
 5   0  0.1164500E-08  0.3901011E+04  0.7818609E-02  0.8024819E-01
        1   -1    0    0  501    0  0.00000000000E+00  0.00000000000E+00  0.24582575320E+04  0.24582575320E+04  0.50400001928E-02 0. -1.
       -1   -1    0    0    0  501  0.00000000000E+00  0.00000000000E+00 -0.15476292432E+04  0.15476292432E+04  0.50400001928E-02 0.  1.
    10030    2    1    2    0    0  0.00000000000E+00  0.00000000000E+00  0.91062828884E+03  0.40058867752E+04  0.39010107633E+04 0.  0.
        4    1    3    3  502    0  0.12812394304E+04 -0.13688292859E+04 -0.96918176291E+02  0.18774085431E+04  0.12699999809E+01 0. -1.
       -4    1    3    3    0  502 -0.12812394304E+04  0.13688292859E+04  0.10075464651E+04  0.21284782321E+04  0.12699999809E+01 0.  1.
</event>
<event>
 5   0  0.3669347E-08  0.3901436E+04  0.7818609E-02  0.8024731E-01
        2   -1    0    0  501    0  0.00000000000E+00  0.00000000000E+00  0.16330148759E+04  0.16330148759E+04  0.25500000920E-02 0.  1.
       -2   -1    0    0    0  501  0.00000000000E+00  0.00000000000E+00 -0.23302302866E+04  0.23302302866E+04  0.25500000920E-02 0. -1.
    10030    2    1    2    0    0  0.00000000000E+00  0.00000000000E+00 -0.69721541067E+03  0.39632451626E+04  0.39014360035E+04 0.  0.
        5    1    3    3  502    0 -0.16422777515E+04 -0.29607467352E+03 -0.13748311594E+04  0.21621561536E+04  0.46999998093E+01 0.  1.
       -5    1    3    3    0  502  0.16422777515E+04  0.29607467352E+03  0.67761574875E+03  0.18010890090E+04  0.46999998093E+01 0. -1.
</event>
<event>
 5   0  0.1164500E-08  0.3903403E+04  0.7818609E-02  0.8024322E-01
       -1   -1    0    0    0  501  0.00000000000E+00  0.00000000000E+00  0.26185900188E+04  0.26185900188E+04  0.50400001928E-02 0. -1.
        1   -1    0    0  501    0  0.00000000000E+00  0.00000000000E+00 -0.14546529544E+04  0.14546529544E+04  0.50400001928E-02 0.  1.
    10030    2    1    2    0    0  0.00000000000E+00  0.00000000000E+00  0.11639370645E+04  0.40732429732E+04  0.39034034929E+04 0.  0.
        4    1    3    3  502    0  0.18464747139E+04 -0.39361320180E+03  0.10982035500E+04  0.21841366422E+04  0.12699999809E+01 0. -1.
       -4    1    3    3    0  502 -0.18464747139E+04  0.39361320180E+03  0.65733514491E+02  0.18891063310E+04  0.12699999809E+01 0.  1.
</event>
<event>
 5   0  0.1164500E-08  0.3903665E+04  0.7818609E-02  0.8024267E-01
        1   -1    0    0  501    0  0.00000000000E+00  0.00000000000E+00  0.27400556096E+04  0.27400556096E+04  0.50400001928E-02 0. -1.
       -1   -1    0    0    0  501  0.00000000000E+00  0.00000000000E+00 -0.13903552331E+04  0.13903552331E+04  0.50400001928E-02 0.  1.
    10030    2    1    2    0    0  0.00000000000E+00  0.00000000000E+00  0.13497003764E+04  0.41304108427E+04  0.39036652807E+04 0.  0.
        2    1    3    3  502    0 -0.42101369698E+03 -0.17690594026E+04  0.14251415641E+04  0.23103792288E+04  0.25500000920E-02 0. -1.
       -2    1    3    3    0  502  0.42101369698E+03  0.17690594026E+04 -0.75441187697E+02  0.18200316139E+04  0.25500000920E-02 0.  1.
</event>
<event>
 5   0  0.1164500E-08  0.3896148E+04  0.7818609E-02  0.8025831E-01
       -3   -1    0    0    0  501  0.00000000000E+00  0.00000000000E+00  0.16781804542E+04  0.16781804572E+04  0.10100000352E+00 0. -1.
        3   -1    0    0  501    0  0.00000000000E+00  0.00000000000E+00 -0.22613736527E+04  0.22613736550E+04  0.10100000352E+00 0.  1.
    10030    2    1    2    0    0  0.00000000000E+00  0.00000000000E+00 -0.58319319859E+03  0.39395541122E+04  0.38961483925E+04 0.  0.
        5    1    3    3  502    0 -0.64587831988E+03  0.14995915183E+04  0.78280279802E+03  0.18107279853E+04  0.46999998093E+01 0. -1.
       -5    1    3    3    0  502  0.64587831988E+03 -0.14995915183E+04 -0.13659959966E+04  0.21288261269E+04  0.46999998093E+01 0.  1.
</event>
<event>
 5   0  0.3872969E-08  0.3899034E+04  0.7818609E-02  0.8025230E-01
       -2   -1    0    0    0  501  0.00000000000E+00  0.00000000000E+00  0.13218975051E+04  0.13218975051E+04  0.25500000920E-02 0.  1.
        2   -1    0    0  501    0  0.00000000000E+00  0.00000000000E+00 -0.28751221613E+04  0.28751221613E+04  0.25500000920E-02 0. -1.
    10030    2    1    2    0    0  0.00000000000E+00  0.00000000000E+00 -0.15532246562E+04  0.41970196664E+04  0.38990341429E+04 0.  0.
        2    1    3    3  502    0  0.53984734032E+03  0.18731588792E+04 -0.79963560942E+03  0.21070302432E+04  0.25500000920E-02 0. -1.
       -2    1    3    3    0  502 -0.53984734032E+03 -0.18731588792E+04 -0.75358904673E+03  0.20899894232E+04  0.25500000920E-02 0.  1.
</event>
<event>
 5   0  0.3724293E-08  0.3881731E+04  0.7818609E-02  0.8028840E-01
        2   -1    0    0  501    0  0.00000000000E+00  0.00000000000E+00  0.29520221625E+04  0.29520221625E+04  0.25500000920E-02 0.  1.
       -2   -1    0    0    0  501  0.00000000000E+00  0.00000000000E+00 -0.12760602353E+04  0.12760602353E+04  0.25500000920E-02 0. -1.
    10030    2    1    2    0    0  0.00000000000E+00  0.00000000000E+00  0.16759619272E+04  0.42280823978E+04  0.38817305910E+04 0.  0.
        4    1    3    3  502    0 -0.13265533347E+04 -0.12369266073E+04  0.85527262995E+02  0.18157774388E+04  0.12699999809E+01 0. -1.
       -4    1    3    3    0  502  0.13265533347E+04  0.12369266073E+04  0.15904346642E+04  0.24123049591E+04  0.12699999809E+01 0.  1.
</event>
<event>
 5   0  0.3690572E-08  0.3908932E+04  0.7818609E-02  0.8023174E-01
       -2   -1    0    0    0  501  0.00000000000E+00  0.00000000000E+00  0.24675158512E+04  0.24675158512E+04  0.25500000920E-02 0.  1.
        2   -1    0    0  501    0  0.00000000000E+00  0.00000000000E+00 -0.15480902927E+04  0.15480902927E+04  0.25500000920E-02 0. -1.
    10030    2    1    2    0    0  0.00000000000E+00  0.00000000000E+00  0.91942555852E+03  0.40156061438E+04  0.39089319954E+04 0.  0.
        3    1    3    3  502    0 -0.14871935832E+04 -0.95356411185E+03  0.13185344973E+04  0.22044415393E+04  0.10100000352E+00 0.  1.
       -3    1    3    3    0  502  0.14871935832E+04  0.95356411185E+03 -0.39910893882E+03  0.18111646045E+04  0.10100000352E+00 0. -1.
</event>
<event>
 5   0  0.1164500E-08  0.3906055E+04  0.7818609E-02  0.8023771E-01
       -1   -1    0    0    0  501  0.00000000000E+00  0.00000000000E+00  0.14399907980E+04  0.14399907980E+04  0.50400001928E-02 0.  1.
        1   -1    0    0  501    0  0.00000000000E+00  0.00000000000E+00 -0.26488483882E+04  0.26488483883E+04  0.50400001928E-02 0. -1.
    10030    2    1    2    0    0  0.00000000000E+00  0.00000000000E+00 -0.12088575903E+04  0.40888391863E+04  0.39060554550E+04 0.  0.
        1    1    3    3  502    0 -0.78571687911E+03  0.12201928356E+04  0.76367084732E+03  0.16399435153E+04  0.50400001928E-02 0.  1.
       -1    1    3    3    0  502  0.78571687911E+03 -0.12201928356E+04 -0.19725284376E+04  0.24488956710E+04  0.50400001928E-02 0. -1.
</event>
<event>
 5   0  0.1164500E-08  0.3912026E+04  0.7818609E-02  0.8022533E-01
       -1   -1    0    0    0  501  0.00000000000E+00  0.00000000000E+00  0.16925493634E+04  0.16925493634E+04  0.50400001928E-02 0. -1.
        1   -1    0    0  501    0  0.00000000000E+00  0.00000000000E+00 -0.22604875889E+04  0.22604875889E+04  0.50400001928E-02 0.  1.
    10030    2    1    2    0    0  0.00000000000E+00  0.00000000000E+00 -0.56793822545E+03  0.39530369523E+04  0.39120259864E+04 0.  0.
        3    1    3    3  502    0  0.17200815740E+04  0.35063965212E+03  0.58783734720E+03  0.18512648497E+04  0.10100000352E+00 0. -1.
       -3    1    3    3    0  502 -0.17200815740E+04 -0.35063965212E+03 -0.11557755727E+04  0.21017721026E+04  0.10100000352E+00 0.  1.
</event>
<event>
 5   0  0.1164500E-08  0.3899315E+04  0.7818609E-02  0.8025172E-01
       -3   -1    0    0    0  501  0.00000000000E+00  0.00000000000E+00  0.17879888543E+04  0.17879888571E+04  0.10100000352E+00 0.  1.
        3   -1    0    0  501    0  0.00000000000E+00  0.00000000000E+00 -0.21259441684E+04  0.21259441708E+04  0.10100000352E+00 0. -1.
    10030    2    1    2    0    0  0.00000000000E+00  0.00000000000E+00 -0.33795531410E+03  0.39139330279E+04  0.38993150620E+04 0.  0.
        1    1    3    3  502    0 -0.11246416023E+04 -0.25762214681E+03  0.14085300177E+04  0.18207538864E+04  0.50400001928E-02 0.  1.
       -1    1    3    3    0  502  0.11246416023E+04  0.25762214681E+03 -0.17464853318E+04  0.20931791415E+04  0.50400001928E-02 0. -1.
</event>
<event>
 5   0  0.1164500E-08  0.3904838E+04  0.7818609E-02  0.8024024E-01
        1   -1    0    0  501    0  0.00000000000E+00  0.00000000000E+00  0.14241955550E+04  0.14241955550E+04  0.50400001928E-02 0.  1.
       -1   -1    0    0    0  501  0.00000000000E+00  0.00000000000E+00 -0.26765567545E+04  0.26765567545E+04  0.50400001928E-02 0. -1.
    10030    2    1    2    0    0  0.00000000000E+00  0.00000000000E+00 -0.12523611996E+04  0.41007523095E+04  0.39048381439E+04 0.  0.
        5    1    3    3  502    0  0.44671009340E+03  0.56265026962E+03  0.12803354191E+04  0.14681301403E+04  0.46999998093E+01 0.  1.
       -5    1    3    3    0  502 -0.44671009340E+03 -0.56265026962E+03 -0.25326966187E+04  0.26326221692E+04  0.46999998093E+01 0. -1.
</event>
<event>
 5   0  0.3872969E-08  0.3900516E+04  0.7818609E-02  0.8024922E-01
       -2   -1    0    0    0  501  0.00000000000E+00  0.00000000000E+00  0.17819512721E+04  0.17819512721E+04  0.25500000920E-02 0. -1.
        2   -1    0    0  501    0  0.00000000000E+00  0.00000000000E+00 -0.21344613823E+04  0.21344613823E+04  0.25500000920E-02 0.  1.
    10030    2    1    2    0    0  0.00000000000E+00  0.00000000000E+00 -0.35251011017E+03  0.39164126544E+04  0.39005159532E+04 0.  0.
        2    1    3    3  502    0  0.25728051666E+03 -0.14969842465E+04 -0.14044947721E+04  0.20687582419E+04  0.25500000920E-02 0.  1.
       -2    1    3    3    0  502 -0.25728051666E+03  0.14969842465E+04  0.10519846620E+04  0.18476544124E+04  0.25500000920E-02 0. -1.
</event>
<event>
 5   0  0.3872969E-08  0.3888959E+04  0.7818609E-02  0.8027329E-01
        2   -1    0    0  501    0  0.00000000000E+00  0.00000000000E+00  0.32212303333E+04  0.32212303333E+04  0.25500000920E-02 0.  1.
       -2   -1    0    0    0  501  0.00000000000E+00  0.00000000000E+00 -0.11737754612E+04  0.11737754612E+04  0.25500000920E-02 0. -1.
    10030    2    1    2    0    0  0.00000000000E+00  0.00000000000E+00  0.20474548721E+04  0.43950057944E+04  0.38889593055E+04 0.  0.
        2    1    3    3  502    0  0.86430613125E+03  0.10994184160E+04  0.25505474631E+04  0.29087863971E+04  0.25500000920E-02 0.  1.
       -2    1    3    3    0  502 -0.86430613125E+03 -0.10994184160E+04 -0.50309259103E+03  0.14862193974E+04  0.25500000920E-02 0. -1.
</event>
<event>
 5   0  0.1164500E-08  0.3903849E+04  0.7818609E-02  0.8024229E-01
       -1   -1    0    0    0  501  0.00000000000E+00  0.00000000000E+00  0.17670098171E+04  0.17670098171E+04  0.50400001928E-02 0.  1.
        1   -1    0    0  501    0  0.00000000000E+00  0.00000000000E+00 -0.21561899374E+04  0.21561899374E+04  0.50400001928E-02 0. -1.
    10030    2    1    2    0    0  0.00000000000E+00  0.00000000000E+00 -0.38918012031E+03  0.39231997545E+04  0.39038487609E+04 0.  0.
        3    1    3    3  502    0  0.13654822764E+04 -0.11640180734E+04  0.57767786661E+03  0.18849911539E+04  0.10100000352E+00 0.  1.
       -3    1    3    3    0  502 -0.13654822764E+04  0.11640180734E+04 -0.96685798692E+03  0.20382086006E+04  0.10100000352E+00 0. -1.
</event>
<event>
 5   0  0.1164500E-08  0.3897138E+04  0.7818609E-02  0.8025625E-01
       -1   -1    0    0    0  501  0.00000000000E+00  0.00000000000E+00  0.12588565830E+04  0.12588565830E+04  0.50400001928E-02 0. -1.
        1   -1    0    0  501    0  0.00000000000E+00  0.00000000000E+00 -0.30161672671E+04  0.30161672671E+04  0.50400001928E-02 0.  1.
    10030    2    1    2    0    0  0.00000000000E+00  0.00000000000E+00 -0.17573106841E+04  0.42750238501E+04  0.38971384475E+04 0.  0.
        1    1    3    3  502    0  0.10232664547E+04 -0.37429851349E+03 -0.26507708570E+04  0.28659657623E+04  0.50400001928E-02 0.  1.
       -1    1    3    3    0  502 -0.10232664547E+04  0.37429851349E+03  0.89346017286E+03  0.14090580879E+04  0.50400001928E-02 0. -1.
</event>
<event>
 5   0  0.3690572E-08  0.3890004E+04  0.7818609E-02  0.8027111E-01
       -2   -1    0    0    0  501  0.00000000000E+00  0.00000000000E+00  0.16487110571E+04  0.16487110571E+04  0.25500000920E-02 0.  1.
        2   -1    0    0  501    0  0.00000000000E+00  0.00000000000E+00 -0.22945400054E+04  0.22945400054E+04  0.25500000920E-02 0. -1.
    10030    2    1    2    0    0  0.00000000000E+00  0.00000000000E+00 -0.64582894830E+03  0.39432510624E+04  0.38900043587E+04 0.  0.
        3    1    3    3  502    0  0.35976878691E+03  0.19114266645E+04 -0.32993706330E+03  0.19727756967E+04  0.10100000352E+00 0. -1.
       -3    1    3    3    0  502 -0.35976878691E+03 -0.19114266645E+04 -0.31589188500E+03  0.19704753657E+04  0.10100000352E+00 0.  1.
</event>
<event>
 5   0  0.3669347E-08  0.3897178E+04  0.7818609E-02  0.8025616E-01
       -2   -1    0    0    0  501  0.00000000000E+00  0.00000000000E+00  0.16037637827E+04  0.16037637827E+04  0.25500000920E-02 0.  1.
        2   -1    0    0  501    0  0.00000000000E+00  0.00000000000E+00 -0.23675551743E+04  0.23675551743E+04  0.25500000920E-02 0. -1.
    10030    2    1    2    0    0  0.00000000000E+00  0.00000000000E+00 -0.76379139162E+03  0.39713189571E+04  0.38971780777E+04 0.  0.
        5    1    3    3  502    0  0.95168909538E+03 -0.16996851599E+04 -0.33265061709E+03  0.19761883261E+04  0.46999998093E+01 0. -1.
       -5    1    3    3    0  502 -0.95168909538E+03  0.16996851599E+04 -0.43114077453E+03  0.19951306310E+04  0.46999998093E+01 0.  1.
</event>
<event>
 5   0  0.1164500E-08  0.3821924E+04  0.7818609E-02  0.8041466E-01
        1   -1    0    0  501    0  0.00000000000E+00  0.00000000000E+00  0.22281365291E+04  0.22281365291E+04  0.50400001928E-02 0.  1.
       -1   -1    0    0    0  501  0.00000000000E+00  0.00000000000E+00 -0.16389373203E+04  0.16389373203E+04  0.50400001928E-02 0. -1.
    10030    2    1    2    0    0  0.00000000000E+00  0.00000000000E+00  0.58919920880E+03  0.38670738495E+04  0.38219241816E+04 0.  0.
        2    1    3    3  502    0 -0.61187333321E+03  0.16813662451E+04 -0.38444300636E+03  0.18300759140E+04  0.25500000920E-02 0. -1.
       -2    1    3    3    0  502  0.61187333321E+03 -0.16813662451E+04  0.97364221516E+03  0.20369979355E+04  0.25500000920E-02 0.  1.
</event>
<event>
 5   0  0.1164500E-08  0.3897040E+04  0.7818609E-02  0.8025645E-01
        1   -1    0    0  501    0  0.00000000000E+00  0.00000000000E+00  0.24290306859E+04  0.24290306859E+04  0.50400001928E-02 0.  1.
       -1   -1    0    0    0  501  0.00000000000E+00  0.00000000000E+00 -0.15630636948E+04  0.15630636949E+04  0.50400001928E-02 0. -1.
    10030    2    1    2    0    0  0.00000000000E+00  0.00000000000E+00  0.86596699105E+03  0.39920943808E+04  0.38970397374E+04 0.  0.
        2    1    3    3  502    0  0.72208998555E+03  0.11519853224E+04 -0.99685772266E+03  0.16858853607E+04  0.25500000920E-02 0. -1.
       -2    1    3    3    0  502 -0.72208998555E+03 -0.11519853224E+04  0.18628247137E+04  0.23062090201E+04  0.25500000920E-02 0.  1.
</event>
<event>
 5   0  0.1164500E-08  0.3902319E+04  0.7818609E-02  0.8024547E-01
        1   -1    0    0  501    0  0.00000000000E+00  0.00000000000E+00  0.16690443051E+04  0.16690443051E+04  0.50400001928E-02 0. -1.
       -1   -1    0    0    0  501  0.00000000000E+00  0.00000000000E+00 -0.22809601036E+04  0.22809601036E+04  0.50400001928E-02 0.  1.
    10030    2    1    2    0    0  0.00000000000E+00  0.00000000000E+00 -0.61191579858E+03  0.39500044087E+04  0.39023190393E+04 0.  0.
        3    1    3    3  502    0  0.60516045799E+03  0.14043997614E+04 -0.15325684469E+04  0.21650228461E+04  0.10100000352E+00 0.  1.
       -3    1    3    3    0  502 -0.60516045799E+03 -0.14043997614E+04  0.92065264831E+03  0.17849815626E+04  0.10100000352E+00 0. -1.
</event>
<event>
 5   0  0.3690572E-08  0.3910393E+04  0.7818609E-02  0.8022871E-01
        2   -1    0    0  501    0  0.00000000000E+00  0.00000000000E+00  0.16850772561E+04  0.16850772561E+04  0.25500000920E-02 0. -1.
       -2   -1    0    0    0  501  0.00000000000E+00  0.00000000000E+00 -0.22686156136E+04  0.22686156136E+04  0.25500000920E-02 0.  1.
    10030    2    1    2    0    0  0.00000000000E+00  0.00000000000E+00 -0.58353835753E+03  0.39536928696E+04  0.39103926008E+04 0.  0.
        3    1    3    3  502    0  0.11164652521E+04  0.10766073618E+04  0.91188120713E+03  0.17991957694E+04  0.10100000352E+00 0. -1.
       -3    1    3    3    0  502 -0.11164652521E+04 -0.10766073618E+04 -0.14954195647E+04  0.21544971003E+04  0.10100000352E+00 0.  1.
</event>
<event>
 5   0  0.1164500E-08  0.3902505E+04  0.7818609E-02  0.8024508E-01
        1   -1    0    0  501    0  0.00000000000E+00  0.00000000000E+00  0.29802143873E+04  0.29802143873E+04  0.50400001928E-02 0.  1.
       -1   -1    0    0    0  501  0.00000000000E+00  0.00000000000E+00 -0.12775548126E+04  0.12775548126E+04  0.50400001928E-02 0. -1.
    10030    2    1    2    0    0  0.00000000000E+00  0.00000000000E+00  0.17026595747E+04  0.42577691998E+04  0.39025054685E+04 0.  0.
        5    1    3    3  502    0  0.29726714283E+03  0.19282726699E+04  0.88144509754E+03  0.21409275545E+04  0.46999998093E+01 0. -1.
       -5    1    3    3    0  502 -0.29726714283E+03 -0.19282726699E+04  0.82121447714E+03  0.21168416453E+04  0.46999998093E+01 0.  1.
</event>
<event>
 5   0  0.1164500E-08  0.3873351E+04  0.7818609E-02  0.8030595E-01
       -1   -1    0    0    0  501  0.00000000000E+00  0.00000000000E+00  0.19591344974E+04  0.19591344974E+04  0.50400001928E-02 0. -1.
        1   -1    0    0  501    0  0.00000000000E+00  0.00000000000E+00 -0.19144740500E+04  0.19144740500E+04  0.50400001928E-02 0.  1.
    10030    2    1    2    0    0  0.00000000000E+00  0.00000000000E+00  0.44660447388E+02  0.38736085473E+04  0.38733510843E+04 0.  0.
        4    1    3    3  502    0 -0.18535140858E+03 -0.19206293386E+04  0.18828805855E+03  0.19387176707E+04  0.12699999809E+01 0. -1.
       -4    1    3    3    0  502  0.18535140858E+03  0.19206293386E+04 -0.14362761116E+03  0.19348908766E+04  0.12699999809E+01 0.  1.
</event>
<event>
 5   0  0.3690572E-08  0.3897631E+04  0.7818609E-02  0.8025522E-01
       -2   -1    0    0    0  501  0.00000000000E+00  0.00000000000E+00  0.18056654618E+04  0.18056654618E+04  0.25500000920E-02 0.  1.
        2   -1    0    0  501    0  0.00000000000E+00  0.00000000000E+00 -0.21033138321E+04  0.21033138321E+04  0.25500000920E-02 0. -1.
    10030    2    1    2    0    0  0.00000000000E+00  0.00000000000E+00 -0.29764837030E+03  0.39089792939E+04  0.38976306352E+04 0.  0.
        3    1    3    3  502    0  0.14775488706E+04 -0.12345168918E+03 -0.14172161274E+04  0.20510710730E+04  0.10100000352E+00 0. -1.
       -3    1    3    3    0  502 -0.14775488706E+04  0.12345168918E+03  0.11195677571E+04  0.18579082209E+04  0.10100000352E+00 0.  1.
</event>
<event>
 5   0  0.3669347E-08  0.3894432E+04  0.7818609E-02  0.8026188E-01
       -2   -1    0    0    0  501  0.00000000000E+00  0.00000000000E+00  0.13676161230E+04  0.13676161230E+04  0.25500000920E-02 0.  1.
        2   -1    0    0  501    0  0.00000000000E+00  0.00000000000E+00 -0.27724518371E+04  0.27724518371E+04  0.25500000920E-02 0. -1.
    10030    2    1    2    0    0  0.00000000000E+00  0.00000000000E+00 -0.14048357141E+04  0.41400679601E+04  0.38944318367E+04 0.  0.
        5    1    3    3  502    0 -0.12808052958E+03 -0.18301982910E+04 -0.88917506223E+01  0.18347020357E+04  0.46999998093E+01 0.  1.
       -5    1    3    3    0  502  0.12808052958E+03  0.18301982910E+04 -0.13959439634E+04  0.23053659244E+04  0.46999998093E+01 0. -1.
</event>
<event>
 5   0  0.3669347E-08  0.3896528E+04  0.7818609E-02  0.8025752E-01
        2   -1    0    0  501    0  0.00000000000E+00  0.00000000000E+00  0.19004885754E+04  0.19004885754E+04  0.25500000920E-02 0. -1.
       -2   -1    0    0    0  501  0.00000000000E+00  0.00000000000E+00 -0.19972405081E+04  0.19972405081E+04  0.25500000920E-02 0.  1.
    10030    2    1    2    0    0  0.00000000000E+00  0.00000000000E+00 -0.96751932676E+02  0.38977290835E+04  0.38965280791E+04 0.  0.
        5    1    3    3  502    0 -0.16607671868E+04 -0.31220759516E+03  0.92150498137E+03  0.19247895344E+04  0.46999998093E+01 0. -1.
       -5    1    3    3    0  502  0.16607671868E+04  0.31220759516E+03 -0.10182569140E+04  0.19729395490E+04  0.46999998093E+01 0.  1.
</event>
<event>
 5   0  0.3669347E-08  0.3896249E+04  0.7818609E-02  0.8025810E-01
       -2   -1    0    0    0  501  0.00000000000E+00  0.00000000000E+00  0.26093785924E+04  0.26093785924E+04  0.25500000920E-02 0.  1.
        2   -1    0    0  501    0  0.00000000000E+00  0.00000000000E+00 -0.14544417615E+04  0.14544417615E+04  0.25500000920E-02 0. -1.
    10030    2    1    2    0    0  0.00000000000E+00  0.00000000000E+00  0.11549368309E+04  0.40638203539E+04  0.38962490662E+04 0.  0.
        5    1    3    3  502    0  0.84283796188E+03 -0.12746570156E+04  0.18377578093E+04  0.23900841394E+04  0.46999998093E+01 0.  1.
       -5    1    3    3    0  502 -0.84283796188E+03  0.12746570156E+04 -0.68282097841E+03  0.16737362146E+04  0.46999998093E+01 0. -1.
</event>
<event>
 5   0  0.3872969E-08  0.3901652E+04  0.7818609E-02  0.8024686E-01
       -2   -1    0    0    0  501  0.00000000000E+00  0.00000000000E+00  0.16821743507E+04  0.16821743507E+04  0.25500000920E-02 0.  1.
        2   -1    0    0  501    0  0.00000000000E+00  0.00000000000E+00 -0.22623831227E+04  0.22623831227E+04  0.25500000920E-02 0. -1.
    10030    2    1    2    0    0  0.00000000000E+00  0.00000000000E+00 -0.58020877195E+03  0.39445574734E+04  0.39016523989E+04 0.  0.
        2    1    3    3  502    0 -0.85064651196E+03  0.27688695499E+03 -0.20427938318E+04  0.22300835216E+04  0.25500000920E-02 0. -1.
       -2    1    3    3    0  502  0.85064651196E+03 -0.27688695499E+03  0.14625850598E+04  0.17144739518E+04  0.25500000920E-02 0.  1.
</event>
<event>
 5   0  0.3724293E-08  0.3898656E+04  0.7818609E-02  0.8025309E-01
       -2   -1    0    0    0  501  0.00000000000E+00  0.00000000000E+00  0.17850751017E+04  0.17850751017E+04  0.25500000920E-02 0. -1.
        2   -1    0    0  501    0  0.00000000000E+00  0.00000000000E+00 -0.21286945679E+04  0.21286945679E+04  0.25500000920E-02 0.  1.
    10030    2    1    2    0    0  0.00000000000E+00  0.00000000000E+00 -0.34361946611E+03  0.39137696696E+04  0.38986560106E+04 0.  0.
        4    1    3    3  502    0 -0.61792175595E+03 -0.14263826932E+04 -0.13525851055E+04  0.20605540431E+04  0.12699999809E+01 0.  1.
       -4    1    3    3    0  502  0.61792175595E+03  0.14263826932E+04  0.10089656394E+04  0.18532156265E+04  0.12699999809E+01 0. -1.
</event>
<event>
 5   0  0.3669347E-08  0.3901637E+04  0.7818609E-02  0.8024689E-01
       -2   -1    0    0    0  501  0.00000000000E+00  0.00000000000E+00  0.14061580955E+04  0.14061580955E+04  0.25500000920E-02 0.  1.
        2   -1    0    0  501    0  0.00000000000E+00  0.00000000000E+00 -0.27064478223E+04  0.27064478223E+04  0.25500000920E-02 0. -1.
    10030    2    1    2    0    0  0.00000000000E+00  0.00000000000E+00 -0.13002897268E+04  0.41126059178E+04  0.39016373565E+04 0.  0.
        5    1    3    3  502    0  0.57011026741E+02 -0.60540393118E+03  0.13037037505E+04  0.14385512630E+04  0.46999998093E+01 0.  1.
       -5    1    3    3    0  502 -0.57011026741E+02  0.60540393118E+03 -0.26039934774E+04  0.26740546549E+04  0.46999998093E+01 0. -1.
</event>
<event>
 5   0  0.3669347E-08  0.3897429E+04  0.7818609E-02  0.8025564E-01
       -2   -1    0    0    0  501  0.00000000000E+00  0.00000000000E+00  0.23727930290E+04  0.23727930290E+04  0.25500000920E-02 0. -1.
        2   -1    0    0  501    0  0.00000000000E+00  0.00000000000E+00 -0.16004298803E+04  0.16004298803E+04  0.25500000920E-02 0.  1.
    10030    2    1    2    0    0  0.00000000000E+00  0.00000000000E+00  0.77236314872E+03  0.39732229093E+04  0.38974293391E+04 0.  0.
        5    1    3    3  502    0 -0.19484741201E+04 -0.27940426196E+02  0.39801371258E+03  0.19889115288E+04  0.46999998093E+01 0.  1.
       -5    1    3    3    0  502  0.19484741201E+04  0.27940426196E+02  0.37434943614E+03  0.19843113804E+04  0.46999998093E+01 0. -1.
</event>
<event>
 5   0  0.3769985E-08  0.3897902E+04  0.7818609E-02  0.8025466E-01
        2   -1    0    0  501    0  0.00000000000E+00  0.00000000000E+00  0.24552292226E+04  0.24552292226E+04  0.25500000920E-02 0. -1.
       -2   -1    0    0    0  501  0.00000000000E+00  0.00000000000E+00 -0.15470691611E+04  0.15470691611E+04  0.25500000920E-02 0.  1.
    10030    2    1    2    0    0  0.00000000000E+00  0.00000000000E+00  0.90816006148E+03  0.40022983837E+04  0.38979016989E+04 0.  0.
        1    1    3    3  502    0  0.17418933712E+04  0.81299111859E+03  0.78403111371E+03  0.20760182713E+04  0.50400001928E-02 0. -1.
       -1    1    3    3    0  502 -0.17418933712E+04 -0.81299111859E+03  0.12412894777E+03  0.19262801123E+04  0.50400001928E-02 0.  1.
</event>
<event>
 5   0  0.3769985E-08  0.3900714E+04  0.7818609E-02  0.8024881E-01
       -2   -1    0    0    0  501  0.00000000000E+00  0.00000000000E+00  0.14650257863E+04  0.14650257863E+04  0.25500000920E-02 0. -1.
        2   -1    0    0  501    0  0.00000000000E+00  0.00000000000E+00 -0.25964682336E+04  0.25964682336E+04  0.25500000920E-02 0.  1.
    10030    2    1    2    0    0  0.00000000000E+00  0.00000000000E+00 -0.11314424473E+04  0.40614940199E+04  0.39007142502E+04 0.  0.
        1    1    3    3  502    0  0.12201490329E+04 -0.10345163086E+04 -0.17274636026E+04  0.23543827543E+04  0.50400001928E-02 0.  1.
       -1    1    3    3    0  502 -0.12201490329E+04  0.10345163086E+04  0.59602115534E+03  0.17071112656E+04  0.50400001928E-02 0. -1.
</event>
<event>
 5   0  0.1164500E-08  0.3889246E+04  0.7818609E-02  0.8027270E-01
       -1   -1    0    0    0  501  0.00000000000E+00  0.00000000000E+00  0.15573610726E+04  0.15573610726E+04  0.50400001928E-02 0.  1.
        1   -1    0    0  501    0  0.00000000000E+00  0.00000000000E+00 -0.24281830733E+04  0.24281830733E+04  0.50400001928E-02 0. -1.
    10030    2    1    2    0    0  0.00000000000E+00  0.00000000000E+00 -0.87082200062E+03  0.39855441459E+04  0.38892455801E+04 0.  0.
        2    1    3    3  502    0  0.60704342745E+03  0.17862801266E+04 -0.91852798780E+03  0.20983307837E+04  0.25500000920E-02 0. -1.
       -2    1    3    3    0  502 -0.60704342745E+03 -0.17862801266E+04  0.47705987174E+02  0.18872133622E+04  0.25500000920E-02 0.  1.
</event>
<event>
 5   0  0.3690572E-08  0.3899241E+04  0.7818609E-02  0.8025187E-01
       -2   -1    0    0    0  501  0.00000000000E+00  0.00000000000E+00  0.22821030130E+04  0.22821030130E+04  0.25500000920E-02 0. -1.
        2   -1    0    0  501    0  0.00000000000E+00  0.00000000000E+00 -0.16655779221E+04  0.16655779221E+04  0.25500000920E-02 0.  1.
    10030    2    1    2    0    0  0.00000000000E+00  0.00000000000E+00  0.61652509081E+03  0.39476809351E+04  0.38992411541E+04 0.  0.
        3    1    3    3  502    0  0.11194499702E+04  0.14115682295E+04  0.10627229526E+04  0.20916675611E+04  0.10100000352E+00 0. -1.
       -3    1    3    3    0  502 -0.11194499702E+04 -0.14115682295E+04 -0.44619786174E+03  0.18560133740E+04  0.10100000352E+00 0.  1.
</event>
<event>
 5   0  0.1164500E-08  0.3894304E+04  0.7818609E-02  0.8026215E-01
        1   -1    0    0  501    0  0.00000000000E+00  0.00000000000E+00  0.25749471884E+04  0.25749471884E+04  0.50400001928E-02 0. -1.
       -1   -1    0    0    0  501  0.00000000000E+00  0.00000000000E+00 -0.14724190232E+04  0.14724190232E+04  0.50400001928E-02 0.  1.
    10030    2    1    2    0    0  0.00000000000E+00  0.00000000000E+00  0.11025281652E+04  0.40473662116E+04  0.38943041606E+04 0.  0.
        4    1    3    3  502    0 -0.82339137187E+03 -0.57711370227E+03  0.22842443608E+04  0.24957578988E+04  0.12699999809E+01 0. -1.
       -4    1    3    3    0  502  0.82339137187E+03  0.57711370227E+03 -0.11817161956E+04  0.15516083128E+04  0.12699999809E+01 0.  1.
</event>
<event>
 5   0  0.1164500E-08  0.3898783E+04  0.7818609E-02  0.8025282E-01
       -1   -1    0    0    0  501  0.00000000000E+00  0.00000000000E+00  0.12344483032E+04  0.12344483032E+04  0.50400001928E-02 0. -1.
        1   -1    0    0  501    0  0.00000000000E+00  0.00000000000E+00 -0.30784020533E+04  0.30784020533E+04  0.50400001928E-02 0.  1.
    10030    2    1    2    0    0  0.00000000000E+00  0.00000000000E+00 -0.18439537501E+04  0.43128503566E+04  0.38987834982E+04 0.  0.
        3    1    3    3  502    0  0.15948666469E+04 -0.10678108334E+04 -0.54471653282E+03  0.19951279931E+04  0.10100000352E+00 0. -1.
       -3    1    3    3    0  502 -0.15948666469E+04  0.10678108334E+04 -0.12992372172E+04  0.23177223635E+04  0.10100000352E+00 0.  1.
</event>
<event>
 5   0  0.1164500E-08  0.3891098E+04  0.7818609E-02  0.8026883E-01
        3   -1    0    0  501    0  0.00000000000E+00  0.00000000000E+00  0.20679032497E+04  0.20679032522E+04  0.10100000352E+00 0.  1.
       -3   -1    0    0    0  501  0.00000000000E+00  0.00000000000E+00 -0.18304345043E+04  0.18304345071E+04  0.10100000352E+00 0. -1.
    10030    2    1    2    0    0  0.00000000000E+00  0.00000000000E+00  0.23746874535E+03  0.38983377593E+04  0.38910982872E+04 0.  0.
        3    1    3    3  502    0  0.57102620093E+02 -0.59827418356E+03 -0.17351052480E+04  0.18362415255E+04  0.10100000352E+00 0. -1.
       -3    1    3    3    0  502 -0.57102620093E+02  0.59827418356E+03  0.19725739934E+04  0.20620962338E+04  0.10100000352E+00 0.  1.
</event>
<event>
 5   0  0.3724293E-08  0.3887958E+04  0.7818609E-02  0.8027538E-01
       -2   -1    0    0    0  501  0.00000000000E+00  0.00000000000E+00  0.33691418015E+04  0.33691418015E+04  0.25500000920E-02 0. -1.
        2   -1    0    0  501    0  0.00000000000E+00  0.00000000000E+00 -0.11216669891E+04  0.11216669891E+04  0.25500000920E-02 0.  1.
    10030    2    1    2    0    0  0.00000000000E+00  0.00000000000E+00  0.22474748124E+04  0.44908087905E+04  0.38879584052E+04 0.  0.
        4    1    3    3  502    0 -0.92978453325E+03 -0.58317147380E+03  0.29770405982E+04  0.31729104277E+04  0.12699999809E+01 0. -1.
       -4    1    3    3    0  502  0.92978453325E+03  0.58317147380E+03 -0.72956578577E+03  0.13178983628E+04  0.12699999809E+01 0.  1.
</event>
<event>
 5   0  0.1164500E-08  0.3901472E+04  0.7818609E-02  0.8024723E-01
       -1   -1    0    0    0  501  0.00000000000E+00  0.00000000000E+00  0.21569086009E+04  0.21569086009E+04  0.50400001928E-02 0. -1.
        1   -1    0    0  501    0  0.00000000000E+00  0.00000000000E+00 -0.17642708916E+04  0.17642708916E+04  0.50400001928E-02 0.  1.
    10030    2    1    2    0    0  0.00000000000E+00  0.00000000000E+00  0.39263770938E+03  0.39211794925E+04  0.39014720608E+04 0.  0.
        4    1    3    3  502    0 -0.76050304493E+03 -0.97671200359E+03 -0.13189566105E+04  0.18088613470E+04  0.12699999809E+01 0.  1.
       -4    1    3    3    0  502  0.76050304493E+03  0.97671200359E+03  0.17115943199E+04  0.21123181455E+04  0.12699999809E+01 0. -1.
</event>
<event>
 5   0  0.3872969E-08  0.3902426E+04  0.7818609E-02  0.8024525E-01
       -2   -1    0    0    0  501  0.00000000000E+00  0.00000000000E+00  0.16417128673E+04  0.16417128673E+04  0.25500000920E-02 0.  1.
        2   -1    0    0  501    0  0.00000000000E+00  0.00000000000E+00 -0.23190613541E+04  0.23190613541E+04  0.25500000920E-02 0. -1.
    10030    2    1    2    0    0  0.00000000000E+00  0.00000000000E+00 -0.67734848681E+03  0.39607742213E+04  0.39024263555E+04 0.  0.
        2    1    3    3  502    0 -0.46037950438E+03  0.13973863536E+04 -0.16394744976E+04  0.22028423769E+04  0.25500000920E-02 0. -1.
       -2    1    3    3    0  502  0.46037950438E+03 -0.13973863536E+04  0.96212601076E+03  0.17579318445E+04  0.25500000920E-02 0.  1.
</event>
<event>
 5   0  0.3769985E-08  0.3901223E+04  0.7818609E-02  0.8024775E-01
        2   -1    0    0  501    0  0.00000000000E+00  0.00000000000E+00  0.21827872418E+04  0.21827872418E+04  0.25500000920E-02 0.  1.
       -2   -1    0    0    0  501  0.00000000000E+00  0.00000000000E+00 -0.17431312801E+04  0.17431312801E+04  0.25500000920E-02 0. -1.
    10030    2    1    2    0    0  0.00000000000E+00  0.00000000000E+00  0.43965596168E+03  0.39259185219E+04  0.39012227412E+04 0.  0.
        1    1    3    3  502    0 -0.11541730665E+04  0.20162967340E+03  0.17892240612E+04  0.21387128685E+04  0.50400001928E-02 0.  1.
       -1    1    3    3    0  502  0.11541730665E+04 -0.20162967340E+03 -0.13495680995E+04  0.17872056535E+04  0.50400001928E-02 0. -1.
</event>
<event>
 5   0  0.3669347E-08  0.3892512E+04  0.7818609E-02  0.8026588E-01
       -2   -1    0    0    0  501  0.00000000000E+00  0.00000000000E+00  0.17166104442E+04  0.17166104442E+04  0.25500000920E-02 0. -1.
        2   -1    0    0  501    0  0.00000000000E+00  0.00000000000E+00 -0.22066234578E+04  0.22066234578E+04  0.25500000920E-02 0.  1.
    10030    2    1    2    0    0  0.00000000000E+00  0.00000000000E+00 -0.49001301358E+03  0.39232339020E+04  0.38925122345E+04 0.  0.
        5    1    3    3  502    0  0.13773736240E+03  0.68680204841E+03  0.15851503758E+04  0.17330298436E+04  0.46999998093E+01 0. -1.
       -5    1    3    3    0  502 -0.13773736240E+03 -0.68680204841E+03 -0.20751633894E+04  0.21902040584E+04  0.46999998093E+01 0.  1.
</event>
<event>
 5   0  0.1164500E-08  0.3890562E+04  0.7818609E-02  0.8026995E-01
       -1   -1    0    0    0  501  0.00000000000E+00  0.00000000000E+00  0.16706440838E+04  0.16706440838E+04  0.50400001928E-02 0.  1.
        1   -1    0    0  501    0  0.00000000000E+00  0.00000000000E+00 -0.22650649954E+04  0.22650649954E+04  0.50400001928E-02 0. -1.
    10030    2    1    2    0    0  0.00000000000E+00  0.00000000000E+00 -0.59442091166E+03  0.39357090792E+04  0.38905616222E+04 0.  0.
        2    1    3    3  502    0  0.13024280013E+03 -0.64227678673E+03  0.15556098966E+04  0.16880180118E+04  0.25500000920E-02 0.  1.
       -2    1    3    3    0  502 -0.13024280013E+03  0.64227678673E+03 -0.21500308083E+04  0.22476910674E+04  0.25500000920E-02 0. -1.
</event>
<event>
 5   0  0.1164500E-08  0.3896569E+04  0.7818609E-02  0.8025743E-01
       -1   -1    0    0    0  501  0.00000000000E+00  0.00000000000E+00  0.19012282123E+04  0.19012282123E+04  0.50400001928E-02 0.  1.
        1   -1    0    0  501    0  0.00000000000E+00  0.00000000000E+00 -0.19965059587E+04  0.19965059587E+04  0.50400001928E-02 0. -1.
    10030    2    1    2    0    0  0.00000000000E+00  0.00000000000E+00 -0.95277746440E+02  0.38977341711E+04  0.38965694937E+04 0.  0.
        4    1    3    3  502    0 -0.26645453945E+03 -0.18955822892E+04 -0.41048908452E+03  0.19577367387E+04  0.12699999809E+01 0. -1.
       -4    1    3    3    0  502  0.26645453945E+03  0.18955822892E+04  0.31521133808E+03  0.19399974323E+04  0.12699999809E+01 0.  1.
</event>
<event>
 5   0  0.3724293E-08  0.3901933E+04  0.7818609E-02  0.8024627E-01
       -2   -1    0    0    0  501  0.00000000000E+00  0.00000000000E+00  0.25121657484E+04  0.25121657484E+04  0.25500000920E-02 0.  1.
        2   -1    0    0  501    0  0.00000000000E+00  0.00000000000E+00 -0.15151353765E+04  0.15151353765E+04  0.25500000920E-02 0. -1.
    10030    2    1    2    0    0  0.00000000000E+00  0.00000000000E+00  0.99703037187E+03  0.40273011249E+04  0.39019334680E+04 0.  0.
        4    1    3    3  502    0 -0.14644864907E+04  0.12846821956E+04  0.38957509414E+03  0.19866804957E+04  0.12699999809E+01 0. -1.
       -4    1    3    3    0  502  0.14644864907E+04 -0.12846821956E+04  0.60745527773E+03  0.20406206292E+04  0.12699999809E+01 0.  1.
</event>
<event>
 5   0  0.3690572E-08  0.3905195E+04  0.7818609E-02  0.8023950E-01
        2   -1    0    0  501    0  0.00000000000E+00  0.00000000000E+00  0.17727660813E+04  0.17727660813E+04  0.25500000920E-02 0.  1.
       -2   -1    0    0    0  501  0.00000000000E+00  0.00000000000E+00 -0.21506715522E+04  0.21506715522E+04  0.25500000920E-02 0. -1.
    10030    2    1    2    0    0  0.00000000000E+00  0.00000000000E+00 -0.37790547093E+03  0.39234376335E+04  0.39051952984E+04 0.  0.
        3    1    3    3  502    0 -0.23391392098E+03 -0.19194502919E+04  0.83667786004E+02  0.19354600110E+04  0.10100000352E+00 0.  1.
       -3    1    3    3    0  502  0.23391392098E+03  0.19194502919E+04 -0.46157325694E+03  0.19879776225E+04  0.10100000352E+00 0. -1.
</event>
<event>
 5   0  0.1164500E-08  0.3902913E+04  0.7818609E-02  0.8024424E-01
        1   -1    0    0  501    0  0.00000000000E+00  0.00000000000E+00  0.13902005541E+04  0.13902005541E+04  0.50400001928E-02 0. -1.
       -1   -1    0    0    0  501  0.00000000000E+00  0.00000000000E+00 -0.27393041923E+04  0.27393041923E+04  0.50400001928E-02 0.  1.
    10030    2    1    2    0    0  0.00000000000E+00  0.00000000000E+00 -0.13491036383E+04  0.41295047464E+04  0.39029128640E+04 0.  0.
        1    1    3    3  502    0 -0.10013141312E+04 -0.36868280430E+02 -0.24463451414E+04  0.26435948650E+04  0.50400001928E-02 0.  1.
       -1    1    3    3    0  502  0.10013141312E+04  0.36868280430E+02  0.10972415032E+04  0.14859098814E+04  0.50400001928E-02 0. -1.
</event>
<event>
 5   0  0.1164500E-08  0.3903573E+04  0.7818609E-02  0.8024287E-01
       -1   -1    0    0    0  501  0.00000000000E+00  0.00000000000E+00  0.17382122466E+04  0.17382122466E+04  0.50400001928E-02 0. -1.
        1   -1    0    0  501    0  0.00000000000E+00  0.00000000000E+00 -0.21916023654E+04  0.21916023654E+04  0.50400001928E-02 0.  1.
    10030    2    1    2    0    0  0.00000000000E+00  0.00000000000E+00 -0.45339011879E+03  0.39298146121E+04  0.39035727591E+04 0.  0.
        3    1    3    3  502    0  0.68134149784E+03 -0.17560545097E+04 -0.74151959378E+03  0.20243035829E+04  0.10100000352E+00 0. -1.
       -3    1    3    3    0  502 -0.68134149784E+03  0.17560545097E+04  0.28812947500E+03  0.19055110291E+04  0.10100000352E+00 0.  1.
</event>
<event>
 5   0  0.1164500E-08  0.3891482E+04  0.7818609E-02  0.8026803E-01
       -1   -1    0    0    0  501  0.00000000000E+00  0.00000000000E+00  0.14485716085E+04  0.14485716085E+04  0.50400001928E-02 0.  1.
        1   -1    0    0  501    0  0.00000000000E+00  0.00000000000E+00 -0.26135459309E+04  0.26135459309E+04  0.50400001928E-02 0. -1.
    10030    2    1    2    0    0  0.00000000000E+00  0.00000000000E+00 -0.11649743224E+04  0.40621175394E+04  0.38914822025E+04 0.  0.
        2    1    3    3  502    0 -0.58270020419E+03 -0.17922250061E+04 -0.10877555507E+04  0.21759646455E+04  0.25500000920E-02 0. -1.
       -2    1    3    3    0  502  0.58270020419E+03  0.17922250061E+04 -0.77218771698E+02  0.18861528939E+04  0.25500000920E-02 0.  1.
</event>
<event>
 5   0  0.1164500E-08  0.3922546E+04  0.7818609E-02  0.8020356E-01
       -1   -1    0    0    0  501  0.00000000000E+00  0.00000000000E+00  0.31723679875E+04  0.31723679875E+04  0.50400001928E-02 0. -1.
        1   -1    0    0  501    0  0.00000000000E+00  0.00000000000E+00 -0.12125300318E+04  0.12125300318E+04  0.50400001928E-02 0.  1.
    10030    2    1    2    0    0  0.00000000000E+00  0.00000000000E+00  0.19598379557E+04  0.43848980193E+04  0.39225458349E+04 0.  0.
        2    1    3    3  502    0  0.48033033311E+03 -0.14720119758E+04 -0.36573655331E+03  0.15910058806E+04  0.25500000920E-02 0.  1.
       -2    1    3    3    0  502 -0.48033033311E+03  0.14720119758E+04  0.23255745090E+04  0.27938921387E+04  0.25500000920E-02 0. -1.
</event>
<event>
 5   0  0.3669347E-08  0.3874594E+04  0.7818609E-02  0.8030334E-01
        2   -1    0    0  501    0  0.00000000000E+00  0.00000000000E+00  0.13660904469E+04  0.13660904469E+04  0.25500000920E-02 0. -1.
       -2   -1    0    0    0  501  0.00000000000E+00  0.00000000000E+00 -0.27473432974E+04  0.27473432974E+04  0.25500000920E-02 0.  1.
    10030    2    1    2    0    0  0.00000000000E+00  0.00000000000E+00 -0.13812528505E+04  0.41134337443E+04  0.38745938796E+04 0.  0.
        5    1    3    3  502    0  0.41984147867E+03  0.13895686819E+04 -0.20526477701E+04  0.25140709909E+04  0.46999998093E+01 0.  1.
       -5    1    3    3    0  502 -0.41984147867E+03 -0.13895686819E+04  0.67139491963E+03  0.15993627535E+04  0.46999998093E+01 0. -1.
</event>
<event>
 5   0  0.1164500E-08  0.3906397E+04  0.7818609E-02  0.8023700E-01
        3   -1    0    0  501    0  0.00000000000E+00  0.00000000000E+00  0.17416859159E+04  0.17416859189E+04  0.10100000352E+00 0.  1.
       -3   -1    0    0    0  501  0.00000000000E+00  0.00000000000E+00 -0.21903979407E+04  0.21903979431E+04  0.10100000352E+00 0. -1.
    10030    2    1    2    0    0  0.00000000000E+00  0.00000000000E+00 -0.44871202481E+03  0.39320838619E+04  0.39063974473E+04 0.  0.
        3    1    3    3  502    0 -0.12803012361E+04  0.10237356469E+04 -0.12933085102E+04  0.20880260637E+04  0.10100000352E+00 0. -1.
       -3    1    3    3    0  502  0.12803012361E+04 -0.10237356469E+04  0.84459648540E+03  0.18440577982E+04  0.10100000352E+00 0.  1.
</event>
<event>
 5   0  0.1164500E-08  0.3897513E+04  0.7818609E-02  0.8025547E-01
        1   -1    0    0  501    0  0.00000000000E+00  0.00000000000E+00  0.19931954990E+04  0.19931954990E+04  0.50400001928E-02 0. -1.
       -1   -1    0    0    0  501  0.00000000000E+00  0.00000000000E+00 -0.19053084031E+04  0.19053084031E+04  0.50400001928E-02 0.  1.
    10030    2    1    2    0    0  0.00000000000E+00  0.00000000000E+00  0.87887095930E+02  0.38985039021E+04  0.38975131216E+04 0.  0.
        3    1    3    3  502    0  0.19346800804E+04  0.50383709347E+02  0.27231407287E+03  0.19544002907E+04  0.10100000352E+00 0. -1.
       -3    1    3    3    0  502 -0.19346800804E+04 -0.50383709347E+02 -0.18442697694E+03  0.19441036114E+04  0.10100000352E+00 0.  1.
</event>
<event>
 5   0  0.1164500E-08  0.3893906E+04  0.7818609E-02  0.8026298E-01
       -1   -1    0    0    0  501  0.00000000000E+00  0.00000000000E+00  0.20557664822E+04  0.20557664822E+04  0.50400001928E-02 0. -1.
        1   -1    0    0  501    0  0.00000000000E+00  0.00000000000E+00 -0.18438993041E+04  0.18438993041E+04  0.50400001928E-02 0.  1.
    10030    2    1    2    0    0  0.00000000000E+00  0.00000000000E+00  0.21186717811E+03  0.38996657864E+04  0.38939062064E+04 0.  0.
        5    1    3    3  502    0 -0.17119824456E+03  0.12214363060E+04  0.16146108902E+04  0.20317986872E+04  0.46999998093E+01 0. -1.
       -5    1    3    3    0  502  0.17119824456E+03 -0.12214363060E+04 -0.14027437121E+04  0.18678670992E+04  0.46999998093E+01 0.  1.
</event>
<event>
 5   0  0.1164500E-08  0.3893492E+04  0.7818609E-02  0.8026384E-01
       -1   -1    0    0    0  501  0.00000000000E+00  0.00000000000E+00  0.16925469611E+04  0.16925469611E+04  0.50400001928E-02 0.  1.
        1   -1    0    0  501    0  0.00000000000E+00  0.00000000000E+00 -0.22391223924E+04  0.22391223924E+04  0.50400001928E-02 0. -1.
    10030    2    1    2    0    0  0.00000000000E+00  0.00000000000E+00 -0.54657543128E+03  0.39316693535E+04  0.38934919035E+04 0.  0.
        1    1    3    3  502    0  0.51949702076E+03  0.17961502279E+04  0.27404826946E+03  0.18897447579E+04  0.50400001928E-02 0.  1.
       -1    1    3    3    0  502 -0.51949702076E+03 -0.17961502279E+04 -0.82062370074E+03  0.20419245956E+04  0.50400001928E-02 0. -1.
</event>
<event>
 5   0  0.3872969E-08  0.3905799E+04  0.7818609E-02  0.8023824E-01
        2   -1    0    0  501    0  0.00000000000E+00  0.00000000000E+00  0.19891270309E+04  0.19891270309E+04  0.25500000920E-02 0.  1.
       -2   -1    0    0    0  501  0.00000000000E+00  0.00000000000E+00 -0.19173314336E+04  0.19173314336E+04  0.25500000920E-02 0. -1.
    10030    2    1    2    0    0  0.00000000000E+00  0.00000000000E+00  0.71795597352E+02  0.39064584645E+04  0.39057986542E+04 0.  0.
        2    1    3    3  502    0 -0.17891761264E+04  0.29892312647E+03 -0.68762577129E+03  0.19399318153E+04  0.25500000920E-02 0.  1.
       -2    1    3    3    0  502  0.17891761264E+04 -0.29892312647E+03  0.75942136864E+03  0.19665266492E+04  0.25500000920E-02 0. -1.
</event>
<event>
 5   0  0.3769985E-08  0.3898999E+04  0.7818609E-02  0.8025237E-01
        2   -1    0    0  501    0  0.00000000000E+00  0.00000000000E+00  0.20150114491E+04  0.20150114491E+04  0.25500000920E-02 0. -1.
       -2   -1    0    0    0  501  0.00000000000E+00  0.00000000000E+00 -0.18861172063E+04  0.18861172063E+04  0.25500000920E-02 0.  1.
    10030    2    1    2    0    0  0.00000000000E+00  0.00000000000E+00  0.12889424277E+03  0.39011286554E+04  0.38989987253E+04 0.  0.
        1    1    3    3  502    0 -0.62973389581E+03  0.33966144974E+03 -0.17499968839E+04  0.18906146550E+04  0.50400001928E-02 0.  1.
       -1    1    3    3    0  502  0.62973389581E+03 -0.33966144974E+03  0.18788911267E+04  0.20105140004E+04  0.50400001928E-02 0. -1.
</event>
<event>
 5   0  0.1164500E-08  0.3891851E+04  0.7818609E-02  0.8026726E-01
        1   -1    0    0  501    0  0.00000000000E+00  0.00000000000E+00  0.11203540641E+04  0.11203540641E+04  0.50400001928E-02 0. -1.
       -1   -1    0    0    0  501  0.00000000000E+00  0.00000000000E+00 -0.33798472124E+04  0.33798472124E+04  0.50400001928E-02 0.  1.
    10030    2    1    2    0    0  0.00000000000E+00  0.00000000000E+00 -0.22594931483E+04  0.45002012765E+04  0.38918507477E+04 0.  0.
        2    1    3    3  502    0  0.11136992845E+04 -0.12935876369E+04 -0.49393795547E+02  0.17076694111E+04  0.25500000920E-02 0.  1.
       -2    1    3    3    0  502 -0.11136992845E+04  0.12935876369E+04 -0.22100993527E+04  0.27925318654E+04  0.25500000920E-02 0. -1.
</event>
<event>
 5   0  0.1164500E-08  0.3891085E+04  0.7818609E-02  0.8026886E-01
        1   -1    0    0  501    0  0.00000000000E+00  0.00000000000E+00  0.24934240043E+04  0.24934240043E+04  0.50400001928E-02 0.  1.
       -1   -1    0    0    0  501  0.00000000000E+00  0.00000000000E+00 -0.15180476742E+04  0.15180476742E+04  0.50400001928E-02 0. -1.
    10030    2    1    2    0    0  0.00000000000E+00  0.00000000000E+00  0.97537633008E+03  0.40114716785E+04  0.38910854581E+04 0.  0.
        3    1    3    3  502    0 -0.11378739854E+04 -0.13739602244E+04  0.12879867770E+04  0.22003258515E+04  0.10100000352E+00 0. -1.
       -3    1    3    3    0  502  0.11378739854E+04  0.13739602244E+04 -0.31261044692E+03  0.18111458270E+04  0.10100000352E+00 0.  1.
</event>
<event>
 5   0  0.3872969E-08  0.3894484E+04  0.7818609E-02  0.8026177E-01
       -2   -1    0    0    0  501  0.00000000000E+00  0.00000000000E+00  0.16866142940E+04  0.16866142940E+04  0.25500000920E-02 0.  1.
        2   -1    0    0  501    0  0.00000000000E+00  0.00000000000E+00 -0.22481436954E+04  0.22481436954E+04  0.25500000920E-02 0. -1.
    10030    2    1    2    0    0  0.00000000000E+00  0.00000000000E+00 -0.56152940135E+03  0.39347579894E+04  0.38944839410E+04 0.  0.
        2    1    3    3  502    0  0.72439560222E+02  0.16514208441E+04  0.75910819633E+03  0.18189787102E+04  0.25500000920E-02 0.  1.
       -2    1    3    3    0  502 -0.72439560222E+02 -0.16514208441E+04 -0.13206375977E+04  0.21157792793E+04  0.25500000920E-02 0. -1.
</event>
<event>
 5   0  0.3690572E-08  0.3901355E+04  0.7818609E-02  0.8024748E-01
       -2   -1    0    0    0  501  0.00000000000E+00  0.00000000000E+00  0.13633384153E+04  0.13633384153E+04  0.25500000920E-02 0.  1.
        2   -1    0    0  501    0  0.00000000000E+00  0.00000000000E+00 -0.27910473483E+04  0.27910473483E+04  0.25500000920E-02 0. -1.
    10030    2    1    2    0    0  0.00000000000E+00  0.00000000000E+00 -0.14277089330E+04  0.41543857636E+04  0.39013546718E+04 0.  0.
        3    1    3    3  502    0  0.13036336045E+04 -0.13352932972E+04 -0.13187395837E+04  0.22850695534E+04  0.10100000352E+00 0. -1.
       -3    1    3    3    0  502 -0.13036336045E+04  0.13352932972E+04 -0.10896934926E+03  0.18693162101E+04  0.10100000352E+00 0.  1.
</event>
<event>
 5   0  0.1164500E-08  0.3889854E+04  0.7818609E-02  0.8027143E-01
       -1   -1    0    0    0  501  0.00000000000E+00  0.00000000000E+00  0.18294374923E+04  0.18294374923E+04  0.50400001928E-02 0.  1.
        1   -1    0    0  501    0  0.00000000000E+00  0.00000000000E+00 -0.20677073916E+04  0.20677073916E+04  0.50400001928E-02 0. -1.
    10030    2    1    2    0    0  0.00000000000E+00  0.00000000000E+00 -0.23826989933E+03  0.38971448839E+04  0.38898542005E+04 0.  0.
        1    1    3    3  502    0  0.38853066332E+03  0.18867068356E+04 -0.38819493431E+03  0.19650226632E+04  0.50400001928E-02 0. -1.
       -1    1    3    3    0  502 -0.38853066332E+03 -0.18867068356E+04  0.14992503499E+03  0.19321222207E+04  0.50400001928E-02 0.  1.
</event>
<event>
 5   0  0.3872969E-08  0.3866821E+04  0.7818609E-02  0.8031965E-01
        2   -1    0    0  501    0  0.00000000000E+00  0.00000000000E+00  0.25740268616E+04  0.25740268616E+04  0.25500000920E-02 0. -1.
       -2   -1    0    0    0  501  0.00000000000E+00  0.00000000000E+00 -0.14522289422E+04  0.14522289422E+04  0.25500000920E-02 0.  1.
    10030    2    1    2    0    0  0.00000000000E+00  0.00000000000E+00  0.11217979194E+04  0.40262558038E+04  0.38668210749E+04 0.  0.
        2    1    3    3  502    0  0.38522799663E+03  0.11543629098E+04 -0.10034181698E+04  0.15772768813E+04  0.25500000920E-02 0.  1.
       -2    1    3    3    0  502 -0.38522799663E+03 -0.11543629098E+04  0.21252160892E+04  0.24489789225E+04  0.25500000920E-02 0. -1.
</event>
<event>
 5   0  0.1164500E-08  0.3882157E+04  0.7818609E-02  0.8028750E-01
       -1   -1    0    0    0  501  0.00000000000E+00  0.00000000000E+00  0.14617051096E+04  0.14617051096E+04  0.50400001928E-02 0.  1.
        1   -1    0    0  501    0  0.00000000000E+00  0.00000000000E+00 -0.25776648606E+04  0.25776648607E+04  0.50400001928E-02 0. -1.
    10030    2    1    2    0    0  0.00000000000E+00  0.00000000000E+00 -0.11159597511E+04  0.40393699702E+04  0.38821570796E+04 0.  0.
        4    1    3    3  502    0  0.19930579084E+03  0.18730623621E+04 -0.70277979113E+02  0.18849472189E+04  0.12699999809E+01 0. -1.
       -4    1    3    3    0  502 -0.19930579084E+03 -0.18730623621E+04 -0.10456817719E+04  0.21544227514E+04  0.12699999809E+01 0.  1.
</event>
<event>
 5   0  0.1164500E-08  0.3897733E+04  0.7818609E-02  0.8025501E-01
       -1   -1    0    0    0  501  0.00000000000E+00  0.00000000000E+00  0.14899821803E+04  0.14899821803E+04  0.50400001928E-02 0.  1.
        1   -1    0    0  501    0  0.00000000000E+00  0.00000000000E+00 -0.25490776269E+04  0.25490776269E+04  0.50400001928E-02 0. -1.
    10030    2    1    2    0    0  0.00000000000E+00  0.00000000000E+00 -0.10590954467E+04  0.40390598072E+04  0.38977327975E+04 0.  0.
        3    1    3    3  502    0 -0.24379306114E+03 -0.41568468951E+03 -0.24863630513E+04  0.25326330273E+04  0.10100000352E+00 0. -1.
       -3    1    3    3    0  502  0.24379306114E+03  0.41568468951E+03  0.14272676047E+04  0.15064267799E+04  0.10100000352E+00 0.  1.
</event>
<event>
 5   0  0.3669347E-08  0.3854866E+04  0.7818609E-02  0.8034482E-01
        2   -1    0    0  501    0  0.00000000000E+00  0.00000000000E+00  0.21440995776E+04  0.21440995776E+04  0.25500000920E-02 0.  1.
       -2   -1    0    0    0  501  0.00000000000E+00  0.00000000000E+00 -0.17326612426E+04  0.17326612426E+04  0.25500000920E-02 0. -1.
    10030    2    1    2    0    0  0.00000000000E+00  0.00000000000E+00  0.41143833497E+03  0.38767608202E+04  0.38548661395E+04 0.  0.
        5    1    3    3  502    0  0.12846956732E+04 -0.44208121304E+03  0.15806335972E+04  0.20842992660E+04  0.46999998093E+01 0.  1.
       -5    1    3    3    0  502 -0.12846956732E+04  0.44208121304E+03 -0.11691952622E+04  0.17924615541E+04  0.46999998093E+01 0. -1.
</event>
<event>
 5   0  0.3872969E-08  0.3907664E+04  0.7818609E-02  0.8023437E-01
        2   -1    0    0  501    0  0.00000000000E+00  0.00000000000E+00  0.31533360596E+04  0.31533360596E+04  0.25500000920E-02 0.  1.
       -2   -1    0    0    0  501  0.00000000000E+00  0.00000000000E+00 -0.12106097527E+04  0.12106097527E+04  0.25500000920E-02 0. -1.
    10030    2    1    2    0    0  0.00000000000E+00  0.00000000000E+00  0.19427263069E+04  0.43639458123E+04  0.39076639504E+04 0.  0.
        2    1    3    3  502    0 -0.11968302331E+04  0.15335723375E+04  0.76783991182E+03  0.20913691332E+04  0.25500000920E-02 0. -1.
       -2    1    3    3    0  502  0.11968302331E+04 -0.15335723375E+04  0.11748863951E+04  0.22725766791E+04  0.25500000920E-02 0.  1.
</event>
<event>
 5   0  0.1164500E-08  0.3900059E+04  0.7818609E-02  0.8025017E-01
       -1   -1    0    0    0  501  0.00000000000E+00  0.00000000000E+00  0.28535963546E+04  0.28535963546E+04  0.50400001928E-02 0.  1.
        1   -1    0    0  501    0  0.00000000000E+00  0.00000000000E+00 -0.13325696901E+04  0.13325696901E+04  0.50400001928E-02 0. -1.
    10030    2    1    2    0    0  0.00000000000E+00  0.00000000000E+00  0.15210266645E+04  0.41861660446E+04  0.39000594918E+04 0.  0.
        2    1    3    3  502    0 -0.42357832647E+03  0.18092782416E+04  0.12576870914E+03  0.18624511060E+04  0.25500000920E-02 0. -1.
       -2    1    3    3    0  502  0.42357832647E+03 -0.18092782416E+04  0.13952579554E+04  0.23237149386E+04  0.25500000920E-02 0.  1.
</event>
<event>
 5   0  0.1164500E-08  0.3899501E+04  0.7818609E-02  0.8025133E-01
        1   -1    0    0  501    0  0.00000000000E+00  0.00000000000E+00  0.11836865903E+04  0.11836865903E+04  0.50400001928E-02 0. -1.
       -1   -1    0    0    0  501  0.00000000000E+00  0.00000000000E+00 -0.32115996026E+04  0.32115996026E+04  0.50400001928E-02 0.  1.
    10030    2    1    2    0    0  0.00000000000E+00  0.00000000000E+00 -0.20279130123E+04  0.43952861930E+04  0.38995011903E+04 0.  0.
        1    1    3    3  502    0  0.18419769394E+03  0.93356334471E+03 -0.29321028343E+04  0.30826443746E+04  0.50400001928E-02 0.  1.
       -1    1    3    3    0  502 -0.18419769394E+03 -0.93356334471E+03  0.90418982205E+03  0.13126418184E+04  0.50400001928E-02 0. -1.
</event>
<event>
 5   0  0.3872969E-08  0.3900370E+04  0.7818609E-02  0.8024952E-01
        2   -1    0    0  501    0  0.00000000000E+00  0.00000000000E+00  0.19384026261E+04  0.19384026261E+04  0.25500000920E-02 0.  1.
       -2   -1    0    0    0  501  0.00000000000E+00  0.00000000000E+00 -0.19620386034E+04  0.19620386034E+04  0.25500000920E-02 0. -1.
    10030    2    1    2    0    0  0.00000000000E+00  0.00000000000E+00 -0.23635977323E+02  0.39004412295E+04  0.39003696140E+04 0.  0.
        2    1    3    3  502    0  0.17702254357E+04  0.78090409822E+03 -0.25618179595E+03  0.19517014158E+04  0.25500000920E-02 0.  1.
       -2    1    3    3    0  502 -0.17702254357E+04 -0.78090409822E+03  0.23254581863E+03  0.19487398137E+04  0.25500000920E-02 0. -1.
</event>
<event>
 5   0  0.1164500E-08  0.3899238E+04  0.7818609E-02  0.8025188E-01
        1   -1    0    0  501    0  0.00000000000E+00  0.00000000000E+00  0.25198738066E+04  0.25198738066E+04  0.50400001928E-02 0. -1.
       -1   -1    0    0    0  501  0.00000000000E+00  0.00000000000E+00 -0.15084147677E+04  0.15084147677E+04  0.50400001928E-02 0.  1.
    10030    2    1    2    0    0  0.00000000000E+00  0.00000000000E+00  0.10114590389E+04  0.40282885744E+04  0.38992383168E+04 0.  0.
        1    1    3    3  502    0 -0.25924841182E+03 -0.27208398291E+03 -0.14706393911E+04  0.15178997501E+04  0.50400001928E-02 0.  1.
       -1    1    3    3    0  502  0.25924841182E+03  0.27208398291E+03  0.24820984300E+04  0.25103888242E+04  0.50400001928E-02 0. -1.
</event>
<event>
 5   0  0.3669347E-08  0.3901365E+04  0.7818609E-02  0.8024745E-01
       -2   -1    0    0    0  501  0.00000000000E+00  0.00000000000E+00  0.13707878364E+04  0.13707878364E+04  0.25500000920E-02 0. -1.
        2   -1    0    0  501    0  0.00000000000E+00  0.00000000000E+00 -0.27758939908E+04  0.27758939908E+04  0.25500000920E-02 0.  1.
    10030    2    1    2    0    0  0.00000000000E+00  0.00000000000E+00 -0.14051061544E+04  0.41466818273E+04  0.39013647447E+04 0.  0.
        5    1    3    3  502    0  0.13566928404E+04  0.84496269992E+03  0.48604988182E+03  0.16705819361E+04  0.46999998093E+01 0. -1.
       -5    1    3    3    0  502 -0.13566928404E+04 -0.84496269992E+03 -0.18911560363E+04  0.24760998912E+04  0.46999998093E+01 0.  1.
</event>
<event>
 5   0  0.1164500E-08  0.3893133E+04  0.7818609E-02  0.8026459E-01
       -1   -1    0    0    0  501  0.00000000000E+00  0.00000000000E+00  0.17930560644E+04  0.17930560644E+04  0.50400001928E-02 0. -1.
        1   -1    0    0  501    0  0.00000000000E+00  0.00000000000E+00 -0.21132197997E+04  0.21132197997E+04  0.50400001928E-02 0.  1.
    10030    2    1    2    0    0  0.00000000000E+00  0.00000000000E+00 -0.32016373532E+03  0.39062758641E+04  0.38931332251E+04 0.  0.
        3    1    3    3  502    0  0.61494725449E+02  0.13443956762E+04 -0.15712222707E+04  0.20687969377E+04  0.10100000352E+00 0.  1.
       -3    1    3    3    0  502 -0.61494725449E+02 -0.13443956762E+04  0.12510585354E+04  0.18374789263E+04  0.10100000352E+00 0. -1.
</event>
<event>
 5   0  0.1164500E-08  0.3901334E+04  0.7818609E-02  0.8024752E-01
       -1   -1    0    0    0  501  0.00000000000E+00  0.00000000000E+00  0.14853842254E+04  0.14853842254E+04  0.50400001928E-02 0. -1.
        1   -1    0    0  501    0  0.00000000000E+00  0.00000000000E+00 -0.25616958687E+04  0.25616958687E+04  0.50400001928E-02 0.  1.
    10030    2    1    2    0    0  0.00000000000E+00  0.00000000000E+00 -0.10763116432E+04  0.40470800941E+04  0.39013344557E+04 0.  0.
        5    1    3    3  502    0  0.35835343868E+03 -0.18479235481E+04 -0.73346918674E+01  0.18823693884E+04  0.46999998093E+01 0.  1.
       -5    1    3    3    0  502 -0.35835343868E+03  0.18479235481E+04 -0.10689769514E+04  0.21647107057E+04  0.46999998093E+01 0. -1.
</event>
<event>
 5   0  0.3872969E-08  0.3874617E+04  0.7818609E-02  0.8030329E-01
       -2   -1    0    0    0  501  0.00000000000E+00  0.00000000000E+00  0.22004666260E+04  0.22004666260E+04  0.25500000920E-02 0. -1.
        2   -1    0    0  501    0  0.00000000000E+00  0.00000000000E+00 -0.17056219369E+04  0.17056219369E+04  0.25500000920E-02 0.  1.
    10030    2    1    2    0    0  0.00000000000E+00  0.00000000000E+00  0.49484468905E+03  0.39060885629E+04  0.38746169611E+04 0.  0.
        2    1    3    3  502    0 -0.17247557038E+04 -0.75347528376E+03 -0.21527942759E+03  0.18944266872E+04  0.25500000920E-02 0.  1.
       -2    1    3    3    0  502  0.17247557038E+04  0.75347528376E+03  0.71012411664E+03  0.20116618757E+04  0.25500000920E-02 0. -1.
</event>
<event>
 5   0  0.1164500E-08  0.3894028E+04  0.7818609E-02  0.8026272E-01
        1   -1    0    0  501    0  0.00000000000E+00  0.00000000000E+00  0.26870263970E+04  0.26870263970E+04  0.50400001928E-02 0. -1.
       -1   -1    0    0    0  501  0.00000000000E+00  0.00000000000E+00 -0.14108028320E+04  0.14108028320E+04  0.50400001928E-02 0.  1.
    10030    2    1    2    0    0  0.00000000000E+00  0.00000000000E+00  0.12762235650E+04  0.40978292290E+04  0.38940284799E+04 0.  0.
        1    1    3    3  502    0  0.43683033388E+03 -0.13520549390E+04  0.20389420175E+04  0.24851876890E+04  0.50400001928E-02 0. -1.
       -1    1    3    3    0  502 -0.43683033388E+03  0.13520549390E+04 -0.76271845253E+03  0.16126415400E+04  0.50400001928E-02 0.  1.
</event>
<event>
 5   0  0.3872969E-08  0.3899887E+04  0.7818609E-02  0.8025053E-01
        2   -1    0    0  501    0  0.00000000000E+00  0.00000000000E+00  0.17241127152E+04  0.17241127152E+04  0.25500000920E-02 0.  1.
       -2   -1    0    0    0  501  0.00000000000E+00  0.00000000000E+00 -0.22053542351E+04  0.22053542351E+04  0.25500000920E-02 0. -1.
    10030    2    1    2    0    0  0.00000000000E+00  0.00000000000E+00 -0.48124151991E+03  0.39294669502E+04  0.38998868077E+04 0.  0.
        2    1    3    3  502    0  0.32716479720E+02  0.16739055655E+04  0.76658572710E+03  0.18413809729E+04  0.25500000920E-02 0.  1.
       -2    1    3    3    0  502 -0.32716479720E+02 -0.16739055655E+04 -0.12478272470E+04  0.20880859773E+04  0.25500000920E-02 0. -1.
</event>
<event>
 5   0  0.1164500E-08  0.3901545E+04  0.7818609E-02  0.8024708E-01
        1   -1    0    0  501    0  0.00000000000E+00  0.00000000000E+00  0.25293034898E+04  0.25293034898E+04  0.50400001928E-02 0. -1.
       -1   -1    0    0    0  501  0.00000000000E+00  0.00000000000E+00 -0.15045700123E+04  0.15045700123E+04  0.50400001928E-02 0.  1.
    10030    2    1    2    0    0  0.00000000000E+00  0.00000000000E+00  0.10247334775E+04  0.40338735020E+04  0.39015454285E+04 0.  0.
        2    1    3    3  502    0  0.72962188898E+03  0.16023499965E+04  0.13808818482E+04  0.22375674941E+04  0.25500000920E-02 0.  1.
       -2    1    3    3    0  502 -0.72962188898E+03 -0.16023499965E+04 -0.35614837074E+03  0.17963060079E+04  0.25500000920E-02 0. -1.
</event>
<event>
 5   0  0.1164500E-08  0.3900136E+04  0.7818609E-02  0.8025001E-01
       -1   -1    0    0    0  501  0.00000000000E+00  0.00000000000E+00  0.15866492081E+04  0.15866492081E+04  0.50400001928E-02 0. -1.
        1   -1    0    0  501    0  0.00000000000E+00  0.00000000000E+00 -0.23967274779E+04  0.23967274779E+04  0.50400001928E-02 0.  1.
    10030    2    1    2    0    0  0.00000000000E+00  0.00000000000E+00 -0.81007826982E+03  0.39833766860E+04  0.39001362822E+04 0.  0.
        2    1    3    3  502    0 -0.43101801446E+03 -0.14261367333E+04  0.88003729202E+03  0.17303491400E+04  0.25500000920E-02 0. -1.
       -2    1    3    3    0  502  0.43101801446E+03  0.14261367333E+04 -0.16901155618E+04  0.22530275461E+04  0.25500000920E-02 0.  1.
</event>
<event>
 5   0  0.1164500E-08  0.3899177E+04  0.7818609E-02  0.8025200E-01
        1   -1    0    0  501    0  0.00000000000E+00  0.00000000000E+00  0.23179824220E+04  0.23179824220E+04  0.50400001928E-02 0. -1.
       -1   -1    0    0    0  501  0.00000000000E+00  0.00000000000E+00 -0.16397425789E+04  0.16397425789E+04  0.50400001928E-02 0.  1.
    10030    2    1    2    0    0  0.00000000000E+00  0.00000000000E+00  0.67823984311E+03  0.39577250009E+04  0.38991765667E+04 0.  0.
        4    1    3    3  502    0 -0.90936309326E+03 -0.14048931579E+04 -0.67601078496E+03  0.18048983946E+04  0.12699999809E+01 0.  1.
       -4    1    3    3    0  502  0.90936309326E+03  0.14048931579E+04  0.13542506281E+04  0.21528266064E+04  0.12699999809E+01 0. -1.
</event>
<event>
 5   0  0.1164500E-08  0.3897771E+04  0.7818609E-02  0.8025493E-01
       -1   -1    0    0    0  501  0.00000000000E+00  0.00000000000E+00  0.11989815421E+04  0.11989815421E+04  0.50400001928E-02 0. -1.
        1   -1    0    0  501    0  0.00000000000E+00  0.00000000000E+00 -0.31678176395E+04  0.31678176395E+04  0.50400001928E-02 0.  1.
    10030    2    1    2    0    0  0.00000000000E+00  0.00000000000E+00 -0.19688360973E+04  0.43667991816E+04  0.38977710957E+04 0.  0.
        4    1    3    3  502    0 -0.16916424233E+04  0.11059515673E+03  0.92656644651E+02  0.16977845104E+04  0.12699999809E+01 0. -1.
       -4    1    3    3    0  502  0.16916424233E+04 -0.11059515673E+03 -0.20614927420E+04  0.26690146712E+04  0.12699999809E+01 0.  1.
</event>
<event>
 5   0  0.1164500E-08  0.3861234E+04  0.7818609E-02  0.8033140E-01
       -3   -1    0    0    0  501  0.00000000000E+00  0.00000000000E+00  0.12784805167E+04  0.12784805207E+04  0.10100000352E+00 0. -1.
        3   -1    0    0  501    0  0.00000000000E+00  0.00000000000E+00 -0.29154001692E+04  0.29154001710E+04  0.10100000352E+00 0.  1.
    10030    2    1    2    0    0  0.00000000000E+00  0.00000000000E+00 -0.16369196525E+04  0.41938806916E+04  0.38612341689E+04 0.  0.
        2    1    3    3  502    0  0.21520972640E+03  0.17466291112E+04  0.43818924354E+02  0.17603830766E+04  0.25500000920E-02 0. -1.
       -2    1    3    3    0  502 -0.21520972640E+03 -0.17466291112E+04 -0.16807385769E+04  0.24334976150E+04  0.25500000920E-02 0.  1.
</event>
<event>
 5   0  0.1164500E-08  0.3905531E+04  0.7818609E-02  0.8023880E-01
        1   -1    0    0  501    0  0.00000000000E+00  0.00000000000E+00  0.23860870782E+04  0.23860870782E+04  0.50400001928E-02 0. -1.
       -1   -1    0    0    0  501  0.00000000000E+00  0.00000000000E+00 -0.15981366956E+04  0.15981366956E+04  0.50400001928E-02 0.  1.
    10030    2    1    2    0    0  0.00000000000E+00  0.00000000000E+00  0.78795038259E+03  0.39842237738E+04  0.39055311130E+04 0.  0.
        3    1    3    3  502    0 -0.48252472696E+03  0.21605623814E+03  0.23116879294E+04  0.23713733369E+04  0.10100000352E+00 0. -1.
       -3    1    3    3    0  502  0.48252472696E+03 -0.21605623814E+03 -0.15237375468E+04  0.16128504369E+04  0.10100000352E+00 0.  1.
</event>
<event>
 5   0  0.3669347E-08  0.3886441E+04  0.7818609E-02  0.8027855E-01
       -2   -1    0    0    0  501  0.00000000000E+00  0.00000000000E+00  0.14855514063E+04  0.14855514063E+04  0.25500000920E-02 0.  1.
        2   -1    0    0  501    0  0.00000000000E+00  0.00000000000E+00 -0.25418882298E+04  0.25418882298E+04  0.25500000920E-02 0. -1.
    10030    2    1    2    0    0  0.00000000000E+00  0.00000000000E+00 -0.10563368235E+04  0.40274396362E+04  0.38864408574E+04 0.  0.
        5    1    3    3  502    0 -0.14635488283E+04  0.11725162136E+04 -0.10558719951E+04  0.21521285287E+04  0.46999998093E+01 0. -1.
       -5    1    3    3    0  502  0.14635488283E+04 -0.11725162136E+04 -0.46482843450E+00  0.18753111075E+04  0.46999998093E+01 0.  1.
</event>
<event>
 5   0  0.1164500E-08  0.3895015E+04  0.7818609E-02  0.8026067E-01
       -3   -1    0    0    0  501  0.00000000000E+00  0.00000000000E+00  0.20201230660E+04  0.20201230686E+04  0.10100000352E+00 0.  1.
        3   -1    0    0  501    0  0.00000000000E+00  0.00000000000E+00 -0.18775023738E+04  0.18775023765E+04  0.10100000352E+00 0. -1.
    10030    2    1    2    0    0  0.00000000000E+00  0.00000000000E+00  0.14262069226E+03  0.38976254450E+04  0.38950152051E+04 0.  0.
        2    1    3    3  502    0 -0.14904896335E+04 -0.27685400224E+03 -0.11520384296E+04  0.19040483264E+04  0.25500000920E-02 0. -1.
       -2    1    3    3    0  502  0.14904896335E+04  0.27685400224E+03  0.12946591218E+04  0.19935771186E+04  0.25500000920E-02 0.  1.
</event>
<event>
 5   0  0.3769985E-08  0.3898559E+04  0.7818609E-02  0.8025329E-01
        2   -1    0    0  501    0  0.00000000000E+00  0.00000000000E+00  0.23810892351E+04  0.23810892351E+04  0.25500000920E-02 0. -1.
       -2   -1    0    0    0  501  0.00000000000E+00  0.00000000000E+00 -0.15957780007E+04  0.15957780007E+04  0.25500000920E-02 0.  1.
    10030    2    1    2    0    0  0.00000000000E+00  0.00000000000E+00  0.78531123438E+03  0.39768672358E+04  0.38985586153E+04 0.  0.
        1    1    3    3  502    0  0.18026827975E+04  0.58996292703E+03 -0.65780287671E+02  0.18979063649E+04  0.50400001928E-02 0.  1.
       -1    1    3    3    0  502 -0.18026827975E+04 -0.58996292703E+03  0.85109152205E+03  0.20789608709E+04  0.50400001928E-02 0. -1.
</event>
<event>
 5   0  0.1164500E-08  0.3901719E+04  0.7818609E-02  0.8024672E-01
        1   -1    0    0  501    0  0.00000000000E+00  0.00000000000E+00  0.22950428590E+04  0.22950428590E+04  0.50400001928E-02 0.  1.
       -1   -1    0    0    0  501  0.00000000000E+00  0.00000000000E+00 -0.16582930457E+04  0.16582930457E+04  0.50400001928E-02 0. -1.
    10030    2    1    2    0    0  0.00000000000E+00  0.00000000000E+00  0.63674981333E+03  0.39533359047E+04  0.39017194223E+04 0.  0.
        3    1    3    3  502    0 -0.51767396452E+03 -0.75801462067E+02 -0.15858817951E+04  0.16699560694E+04  0.10100000352E+00 0. -1.
       -3    1    3    3    0  502  0.51767396452E+03  0.75801462067E+02  0.22226316085E+04  0.22833798353E+04  0.10100000352E+00 0.  1.
</event>
<event>
 5   0  0.1164500E-08  0.3904985E+04  0.7818609E-02  0.8023993E-01
       -1   -1    0    0    0  501  0.00000000000E+00  0.00000000000E+00  0.15662441010E+04  0.15662441010E+04  0.50400001928E-02 0. -1.
        1   -1    0    0  501    0  0.00000000000E+00  0.00000000000E+00 -0.24339931036E+04  0.24339931036E+04  0.50400001928E-02 0.  1.
    10030    2    1    2    0    0  0.00000000000E+00  0.00000000000E+00 -0.86774900261E+03  0.40002372047E+04  0.39049851936E+04 0.  0.
        4    1    3    3  502    0  0.96262701843E+03  0.16047105670E+04 -0.10046724869E+04  0.21239386053E+04  0.12699999809E+01 0.  1.
       -4    1    3    3    0  502 -0.96262701843E+03 -0.16047105670E+04  0.13692348429E+03  0.18762985993E+04  0.12699999809E+01 0. -1.
</event>
<event>
 5   0  0.3769985E-08  0.3899214E+04  0.7818609E-02  0.8025193E-01
       -2   -1    0    0    0  501  0.00000000000E+00  0.00000000000E+00  0.13134875062E+04  0.13134875062E+04  0.25500000920E-02 0. -1.
        2   -1    0    0  501    0  0.00000000000E+00  0.00000000000E+00 -0.28937983600E+04  0.28937983600E+04  0.25500000920E-02 0.  1.
    10030    2    1    2    0    0  0.00000000000E+00  0.00000000000E+00 -0.15803108538E+04  0.42072858662E+04  0.38992142754E+04 0.  0.
        1    1    3    3  502    0  0.87842607266E+03  0.16318639655E+04 -0.14432504154E+04  0.23489538370E+04  0.50400001928E-02 0. -1.
       -1    1    3    3    0  502 -0.87842607266E+03 -0.16318639655E+04 -0.13706043842E+03  0.18583320292E+04  0.50400001928E-02 0.  1.
</event>
<event>
 5   0  0.3690572E-08  0.3905930E+04  0.7818609E-02  0.8023797E-01
       -2   -1    0    0    0  501  0.00000000000E+00  0.00000000000E+00  0.16332092063E+04  0.16332092064E+04  0.25500000920E-02 0.  1.
        2   -1    0    0  501    0  0.00000000000E+00  0.00000000000E+00 -0.23353242261E+04  0.23353242261E+04  0.25500000920E-02 0. -1.
    10030    2    1    2    0    0  0.00000000000E+00  0.00000000000E+00 -0.70211501971E+03  0.39685334324E+04  0.39059303761E+04 0.  0.
        3    1    3    3  502    0  0.63683462610E+03 -0.16302603233E+04  0.52929748032E+03  0.18285138489E+04  0.10100000352E+00 0.  1.
       -3    1    3    3    0  502 -0.63683462610E+03  0.16302603233E+04 -0.12314125000E+04  0.21400195836E+04  0.10100000352E+00 0. -1.
</event>
<event>
 5   0  0.3769985E-08  0.3891857E+04  0.7818609E-02  0.8026725E-01
        2   -1    0    0  501    0  0.00000000000E+00  0.00000000000E+00  0.13882910373E+04  0.13882910373E+04  0.25500000920E-02 0. -1.
       -2   -1    0    0    0  501  0.00000000000E+00  0.00000000000E+00 -0.27275525959E+04  0.27275525959E+04  0.25500000920E-02 0.  1.
    10030    2    1    2    0    0  0.00000000000E+00  0.00000000000E+00 -0.13392615587E+04  0.41158436332E+04  0.38918565352E+04 0.  0.
        1    1    3    3  502    0 -0.13100742533E+03  0.77078478349E+03  0.12148809733E+04  0.14447172413E+04  0.50400001928E-02 0. -1.
       -1    1    3    3    0  502  0.13100742533E+03 -0.77078478349E+03 -0.25541425320E+04  0.26711263919E+04  0.50400001928E-02 0.  1.
</event>
<event>
 5   0  0.3690572E-08  0.3900894E+04  0.7818609E-02  0.8024843E-01
       -2   -1    0    0    0  501  0.00000000000E+00  0.00000000000E+00  0.18411755824E+04  0.18411755824E+04  0.25500000920E-02 0.  1.
        2   -1    0    0  501    0  0.00000000000E+00  0.00000000000E+00 -0.20662030435E+04  0.20662030435E+04  0.25500000920E-02 0. -1.
    10030    2    1    2    0    0  0.00000000000E+00  0.00000000000E+00 -0.22502746105E+03  0.39073786259E+04  0.39008935346E+04 0.  0.
        3    1    3    3  502    0  0.72489875578E+03 -0.12276333790E+04  0.12207440338E+04  0.18769064776E+04  0.10100000352E+00 0.  1.
       -3    1    3    3    0  502 -0.72489875578E+03  0.12276333790E+04 -0.14457714948E+04  0.20304721483E+04  0.10100000352E+00 0. -1.
</event>
<event>
 5   0  0.3872969E-08  0.3883029E+04  0.7818609E-02  0.8028568E-01
       -2   -1    0    0    0  501  0.00000000000E+00  0.00000000000E+00  0.13429935424E+04  0.13429935424E+04  0.25500000920E-02 0. -1.
        2   -1    0    0  501    0  0.00000000000E+00  0.00000000000E+00 -0.28067732682E+04  0.28067732682E+04  0.25500000920E-02 0.  1.
    10030    2    1    2    0    0  0.00000000000E+00  0.00000000000E+00 -0.14637797258E+04  0.41497668106E+04  0.38830289075E+04 0.  0.
        2    1    3    3  502    0  0.13786740563E+04 -0.10905547729E+04 -0.16127852032E+04  0.23856085132E+04  0.25500000920E-02 0.  1.
       -2    1    3    3    0  502 -0.13786740563E+04  0.10905547729E+04  0.14900547739E+03  0.17641582975E+04  0.25500000920E-02 0. -1.
</event>
<event>
 5   0  0.3769985E-08  0.3903413E+04  0.7818609E-02  0.8024320E-01
       -2   -1    0    0    0  501  0.00000000000E+00  0.00000000000E+00  0.28697807451E+04  0.28697807451E+04  0.25500000920E-02 0. -1.
        2   -1    0    0  501    0  0.00000000000E+00  0.00000000000E+00 -0.13273341636E+04  0.13273341636E+04  0.25500000920E-02 0.  1.
    10030    2    1    2    0    0  0.00000000000E+00  0.00000000000E+00  0.15424465815E+04  0.41971149087E+04  0.39034128785E+04 0.  0.
        1    1    3    3  502    0 -0.15658252703E+04  0.11600622854E+04  0.65539247496E+03  0.20559894404E+04  0.50400001928E-02 0. -1.
       -1    1    3    3    0  502  0.15658252703E+04 -0.11600622854E+04  0.88705410650E+03  0.21411254683E+04  0.50400001928E-02 0.  1.
</event>
<event>
 5   0  0.1164500E-08  0.3901722E+04  0.7818609E-02  0.8024671E-01
        1   -1    0    0  501    0  0.00000000000E+00  0.00000000000E+00  0.14148005621E+04  0.14148005621E+04  0.50400001928E-02 0.  1.
       -1   -1    0    0    0  501  0.00000000000E+00  0.00000000000E+00 -0.26900321655E+04  0.26900321655E+04  0.50400001928E-02 0. -1.
    10030    2    1    2    0    0  0.00000000000E+00  0.00000000000E+00 -0.12752316034E+04  0.41048327277E+04  0.39017221941E+04 0.  0.
        5    1    3    3  502    0  0.44429430897E+02  0.12145925733E+04 -0.22430376263E+04  0.25511661993E+04  0.46999998093E+01 0. -1.
       -5    1    3    3    0  502 -0.44429430897E+02 -0.12145925733E+04  0.96780602287E+03  0.15536665284E+04  0.46999998093E+01 0.  1.
</event>
<event>
 5   0  0.1164500E-08  0.3903961E+04  0.7818609E-02  0.8024206E-01
       -1   -1    0    0    0  501  0.00000000000E+00  0.00000000000E+00  0.28824992056E+04  0.28824992056E+04  0.50400001928E-02 0. -1.
        1   -1    0    0  501    0  0.00000000000E+00  0.00000000000E+00 -0.13218488164E+04  0.13218488164E+04  0.50400001928E-02 0.  1.
    10030    2    1    2    0    0  0.00000000000E+00  0.00000000000E+00  0.15606503891E+04  0.42043480220E+04  0.39039611490E+04 0.  0.
        5    1    3    3  502    0 -0.11972401031E+03 -0.78453931301E+03 -0.11402530978E+04  0.13892569918E+04  0.46999998093E+01 0.  1.
       -5    1    3    3    0  502  0.11972401031E+03  0.78453931301E+03  0.27009034870E+04  0.28150910302E+04  0.46999998093E+01 0. -1.
</event>
<event>
 5   0  0.3872969E-08  0.3900740E+04  0.7818609E-02  0.8024875E-01
        2   -1    0    0  501    0  0.00000000000E+00  0.00000000000E+00  0.21243956621E+04  0.21243956621E+04  0.25500000920E-02 0.  1.
       -2   -1    0    0    0  501  0.00000000000E+00  0.00000000000E+00 -0.17906004363E+04  0.17906004363E+04  0.25500000920E-02 0. -1.
    10030    2    1    2    0    0  0.00000000000E+00  0.00000000000E+00  0.33379522580E+03  0.39149960983E+04  0.39007403396E+04 0.  0.
        2    1    3    3  502    0  0.53222847179E+03  0.18694510359E+04  0.55947402611E+01  0.19437452567E+04  0.25500000920E-02 0.  1.
       -2    1    3    3    0  502 -0.53222847179E+03 -0.18694510359E+04  0.32820048554E+03  0.19712508416E+04  0.25500000920E-02 0. -1.
</event>
<event>
 5   0  0.1164500E-08  0.3927332E+04  0.7818609E-02  0.8019369E-01
       -1   -1    0    0    0  501  0.00000000000E+00  0.00000000000E+00  0.20020262788E+04  0.20020262788E+04  0.50400001928E-02 0. -1.
        1   -1    0    0  501    0  0.00000000000E+00  0.00000000000E+00 -0.19260405357E+04  0.19260405357E+04  0.50400001928E-02 0.  1.
    10030    2    1    2    0    0  0.00000000000E+00  0.00000000000E+00  0.75985743046E+02  0.39280668145E+04  0.39273317999E+04 0.  0.
        3    1    3    3  502    0 -0.84777476621E+03 -0.15790566369E+04  0.84054060022E+03  0.19795581395E+04  0.10100000352E+00 0. -1.
       -3    1    3    3    0  502  0.84777476621E+03  0.15790566369E+04 -0.76455485718E+03  0.19485086750E+04  0.10100000352E+00 0.  1.
</event>
<event>
 5   0  0.1164500E-08  0.3907856E+04  0.7818609E-02  0.8023397E-01
        1   -1    0    0  501    0  0.00000000000E+00  0.00000000000E+00  0.25418060271E+04  0.25418060271E+04  0.50400001928E-02 0. -1.
       -1   -1    0    0    0  501  0.00000000000E+00  0.00000000000E+00 -0.15020166366E+04  0.15020166366E+04  0.50400001928E-02 0.  1.
    10030    2    1    2    0    0  0.00000000000E+00  0.00000000000E+00  0.10397893905E+04  0.40438226636E+04  0.39078561589E+04 0.  0.
        5    1    3    3  502    0 -0.11602337185E+04 -0.72207626026E+03 -0.92521767837E+03  0.16503291337E+04  0.46999998093E+01 0.  1.
       -5    1    3    3    0  502  0.11602337185E+04  0.72207626026E+03  0.19650070689E+04  0.23934935299E+04  0.46999998093E+01 0. -1.
</event>
<event>
 5   0  0.1164500E-08  0.3950991E+04  0.7818609E-02  0.8014507E-01
        1   -1    0    0  501    0  0.00000000000E+00  0.00000000000E+00  0.24682141147E+04  0.24682141147E+04  0.50400001928E-02 0.  1.
       -1   -1    0    0    0  501  0.00000000000E+00  0.00000000000E+00 -0.15811359504E+04  0.15811359504E+04  0.50400001928E-02 0. -1.
    10030    2    1    2    0    0  0.00000000000E+00  0.00000000000E+00  0.88707816426E+03  0.40493500651E+04  0.39509907973E+04 0.  0.
        2    1    3    3  502    0 -0.15840954226E+04 -0.48625039107E+03  0.15458535344E+04  0.22661555331E+04  0.25500000920E-02 0.  1.
       -2    1    3    3    0  502  0.15840954226E+04  0.48625039107E+03 -0.65877537010E+03  0.17831945320E+04  0.25500000920E-02 0. -1.
</event>
<event>
 5   0  0.3690572E-08  0.3903015E+04  0.7818609E-02  0.8024402E-01
        2   -1    0    0  501    0  0.00000000000E+00  0.00000000000E+00  0.27167173458E+04  0.27167173458E+04  0.25500000920E-02 0. -1.
       -2   -1    0    0    0  501  0.00000000000E+00  0.00000000000E+00 -0.14018322178E+04  0.14018322178E+04  0.25500000920E-02 0.  1.
    10030    2    1    2    0    0  0.00000000000E+00  0.00000000000E+00  0.13148851280E+04  0.41185495636E+04  0.39030151945E+04 0.  0.
        3    1    3    3  502    0 -0.36903086318E+03  0.13286113301E+04 -0.79975443449E+03  0.15940511316E+04  0.10100000352E+00 0.  1.
       -3    1    3    3    0  502  0.36903086318E+03 -0.13286113301E+04  0.21146395624E+04  0.25244984321E+04  0.10100000352E+00 0. -1.
</event>
<event>
 5   0  0.3872969E-08  0.3901785E+04  0.7818609E-02  0.8024658E-01
        2   -1    0    0  501    0  0.00000000000E+00  0.00000000000E+00  0.22280906784E+04  0.22280906784E+04  0.25500000920E-02 0.  1.
       -2   -1    0    0    0  501  0.00000000000E+00  0.00000000000E+00 -0.17081804238E+04  0.17081804238E+04  0.25500000920E-02 0. -1.
    10030    2    1    2    0    0  0.00000000000E+00  0.00000000000E+00  0.51991025456E+03  0.39362711022E+04  0.39017846580E+04 0.  0.
        2    1    3    3  502    0  0.96272211845E+03 -0.69695899032E+03 -0.13007789398E+04  0.17619907950E+04  0.25500000920E-02 0. -1.
       -2    1    3    3    0  502 -0.96272211845E+03  0.69695899032E+03  0.18206891944E+04  0.21742803072E+04  0.25500000920E-02 0.  1.
</event>
<event>
 5   0  0.1164500E-08  0.3809119E+04  0.7818609E-02  0.8044201E-01
        1   -1    0    0  501    0  0.00000000000E+00  0.00000000000E+00  0.13546987680E+04  0.13546987680E+04  0.50400001928E-02 0. -1.
       -1   -1    0    0    0  501  0.00000000000E+00  0.00000000000E+00 -0.26776037162E+04  0.26776037162E+04  0.50400001928E-02 0.  1.
    10030    2    1    2    0    0  0.00000000000E+00  0.00000000000E+00 -0.13229049481E+04  0.40323024842E+04  0.38091187724E+04 0.  0.
        3    1    3    3  502    0  0.17593518902E+04 -0.65210553377E+03 -0.10073800863E+04  0.21296420707E+04  0.10100000352E+00 0.  1.
       -3    1    3    3    0  502 -0.17593518902E+04  0.65210553377E+03 -0.31552486181E+03  0.19026604135E+04  0.10100000352E+00 0. -1.
</event>
<event>
 5   0  0.3690572E-08  0.3912179E+04  0.7818609E-02  0.8022501E-01
       -2   -1    0    0    0  501  0.00000000000E+00  0.00000000000E+00  0.30873045918E+04  0.30873045918E+04  0.25500000920E-02 0. -1.
        2   -1    0    0  501    0  0.00000000000E+00  0.00000000000E+00 -0.12393614928E+04  0.12393614928E+04  0.25500000920E-02 0.  1.
    10030    2    1    2    0    0  0.00000000000E+00  0.00000000000E+00  0.18479430990E+04  0.43266660846E+04  0.39121791511E+04 0.  0.
        3    1    3    3  502    0  0.13296386725E+04 -0.43040332411E+03  0.24375856781E+04  0.28098060376E+04  0.10100000352E+00 0. -1.
       -3    1    3    3    0  502 -0.13296386725E+04  0.43040332411E+03 -0.58964257911E+03  0.15168600470E+04  0.10100000352E+00 0.  1.
</event>
<event>
 5   0  0.1164500E-08  0.3898112E+04  0.7818609E-02  0.8025422E-01
        1   -1    0    0  501    0  0.00000000000E+00  0.00000000000E+00  0.22379852927E+04  0.22379852927E+04  0.50400001928E-02 0.  1.
       -1   -1    0    0    0  501  0.00000000000E+00  0.00000000000E+00 -0.16974280942E+04  0.16974280943E+04  0.50400001928E-02 0. -1.
    10030    2    1    2    0    0  0.00000000000E+00  0.00000000000E+00  0.54055719849E+03  0.39354133870E+04  0.38981119073E+04 0.  0.
        2    1    3    3  502    0  0.13542797592E+04 -0.93942780288E+02  0.16822035785E+04  0.21616446960E+04  0.25500000920E-02 0.  1.
       -2    1    3    3    0  502 -0.13542797592E+04  0.93942780288E+02 -0.11416463800E+04  0.17737686910E+04  0.25500000920E-02 0. -1.
</event>
<event>
 5   0  0.1164500E-08  0.3927033E+04  0.7818609E-02  0.8019430E-01
        1   -1    0    0  501    0  0.00000000000E+00  0.00000000000E+00  0.20348202916E+04  0.20348202916E+04  0.50400001928E-02 0. -1.
       -1   -1    0    0    0  501  0.00000000000E+00  0.00000000000E+00 -0.18947115939E+04  0.18947115939E+04  0.50400001928E-02 0.  1.
    10030    2    1    2    0    0  0.00000000000E+00  0.00000000000E+00  0.14010869768E+03  0.39295318855E+04  0.39270332813E+04 0.  0.
        5    1    3    3  502    0  0.17544501969E+04  0.84393353460E+03 -0.18516911224E+03  0.19556658698E+04  0.46999998093E+01 0. -1.
       -5    1    3    3    0  502 -0.17544501969E+04 -0.84393353460E+03  0.32527780992E+03  0.19738660157E+04  0.46999998093E+01 0.  1.
</event>
<event>
 5   0  0.1164500E-08  0.3901213E+04  0.7818609E-02  0.8024777E-01
       -1   -1    0    0    0  501  0.00000000000E+00  0.00000000000E+00  0.21926082647E+04  0.21926082647E+04  0.50400001928E-02 0.  1.
        1   -1    0    0  501    0  0.00000000000E+00  0.00000000000E+00 -0.17353152925E+04  0.17353152925E+04  0.50400001928E-02 0. -1.
    10030    2    1    2    0    0  0.00000000000E+00  0.00000000000E+00  0.45729297218E+03  0.39279235572E+04  0.39012134790E+04 0.  0.
        5    1    3    3  502    0 -0.17078649140E+04  0.25811847443E+03 -0.68387923605E+03  0.18577245788E+04  0.46999998093E+01 0.  1.
       -5    1    3    3    0  502  0.17078649140E+04 -0.25811847443E+03  0.11411722082E+04  0.20701989784E+04  0.46999998093E+01 0. -1.
</event>
<event>
 5   0  0.1164500E-08  0.3896725E+04  0.7818609E-02  0.8025711E-01
        1   -1    0    0  501    0  0.00000000000E+00  0.00000000000E+00  0.23284350595E+04  0.23284350595E+04  0.50400001928E-02 0.  1.
       -1   -1    0    0    0  501  0.00000000000E+00  0.00000000000E+00 -0.16303292500E+04  0.16303292500E+04  0.50400001928E-02 0. -1.
    10030    2    1    2    0    0  0.00000000000E+00  0.00000000000E+00  0.69810580950E+03  0.39587643095E+04  0.38967246679E+04 0.  0.
        2    1    3    3  502    0  0.12423548505E+04  0.41736793802E+03  0.18136974749E+04  0.22376639830E+04  0.25500000920E-02 0.  1.
       -2    1    3    3    0  502 -0.12423548505E+04 -0.41736793802E+03 -0.11155916654E+04  0.17211003266E+04  0.25500000920E-02 0. -1.
</event>
<event>
 5   0  0.3724293E-08  0.3887473E+04  0.7818609E-02  0.8027640E-01
        2   -1    0    0  501    0  0.00000000000E+00  0.00000000000E+00  0.19269847592E+04  0.19269847592E+04  0.25500000920E-02 0. -1.
       -2   -1    0    0    0  501  0.00000000000E+00  0.00000000000E+00 -0.19606334494E+04  0.19606334494E+04  0.25500000920E-02 0.  1.
    10030    2    1    2    0    0  0.00000000000E+00  0.00000000000E+00 -0.33648690234E+02  0.38876182087E+04  0.38874725854E+04 0.  0.
        4    1    3    3  502    0 -0.47077831828E+03  0.44325593318E+03  0.18162749017E+04  0.19279429916E+04  0.12699999809E+01 0. -1.
       -4    1    3    3    0  502  0.47077831828E+03 -0.44325593318E+03 -0.18499235920E+04  0.19596752171E+04  0.12699999809E+01 0.  1.
</event>
<event>
 5   0  0.1164500E-08  0.3865692E+04  0.7818609E-02  0.8032203E-01
        1   -1    0    0  501    0  0.00000000000E+00  0.00000000000E+00  0.14437184802E+04  0.14437184802E+04  0.50400001928E-02 0.  1.
       -1   -1    0    0    0  501  0.00000000000E+00  0.00000000000E+00 -0.25876885100E+04  0.25876885100E+04  0.50400001928E-02 0. -1.
    10030    2    1    2    0    0  0.00000000000E+00  0.00000000000E+00 -0.11439700298E+04  0.40314069903E+04  0.38656920327E+04 0.  0.
        4    1    3    3  502    0 -0.14058421044E+03  0.36931198819E+03 -0.25451115777E+04  0.25756066898E+04  0.12699999809E+01 0. -1.
       -4    1    3    3    0  502  0.14058421044E+03 -0.36931198819E+03  0.14011415479E+04  0.14558003005E+04  0.12699999809E+01 0.  1.
</event>
<event>
 5   0  0.1164500E-08  0.3917086E+04  0.7818609E-02  0.8021485E-01
       -1   -1    0    0    0  501  0.00000000000E+00  0.00000000000E+00  0.29858214437E+04  0.29858214437E+04  0.50400001928E-02 0.  1.
        1   -1    0    0  501    0  0.00000000000E+00  0.00000000000E+00 -0.12847018332E+04  0.12847018332E+04  0.50400001928E-02 0. -1.
    10030    2    1    2    0    0  0.00000000000E+00  0.00000000000E+00  0.17011196105E+04  0.42705232769E+04  0.39170857955E+04 0.  0.
        5    1    3    3  502    0 -0.68950706678E+03 -0.17290506923E+04  0.18665386723E+03  0.18708014453E+04  0.46999998093E+01 0. -1.
       -5    1    3    3    0  502  0.68950706678E+03  0.17290506923E+04  0.15144657432E+04  0.23997218316E+04  0.46999998093E+01 0.  1.
</event>
<event>
 5   0  0.1164500E-08  0.3905789E+04  0.7818609E-02  0.8023826E-01
        1   -1    0    0  501    0  0.00000000000E+00  0.00000000000E+00  0.19846163812E+04  0.19846163812E+04  0.50400001928E-02 0. -1.
       -1   -1    0    0    0  501  0.00000000000E+00  0.00000000000E+00 -0.19216794802E+04  0.19216794802E+04  0.50400001928E-02 0.  1.
    10030    2    1    2    0    0  0.00000000000E+00  0.00000000000E+00  0.62936901020E+02  0.39062958614E+04  0.39057888196E+04 0.  0.
        2    1    3    3  502    0  0.88229414284E+03  0.13727236544E+04 -0.10415097628E+04  0.19358604732E+04  0.25500000920E-02 0.  1.
       -2    1    3    3    0  502 -0.88229414284E+03 -0.13727236544E+04  0.11044466638E+04  0.19704353882E+04  0.25500000920E-02 0. -1.
</event>
<event>
 5   0  0.3769985E-08  0.3899096E+04  0.7818609E-02  0.8025217E-01
        2   -1    0    0  501    0  0.00000000000E+00  0.00000000000E+00  0.14574850795E+04  0.14574850795E+04  0.25500000920E-02 0. -1.
       -2   -1    0    0    0  501  0.00000000000E+00  0.00000000000E+00 -0.26077370321E+04  0.26077370321E+04  0.25500000920E-02 0.  1.
    10030    2    1    2    0    0  0.00000000000E+00  0.00000000000E+00 -0.11502519527E+04  0.40652221116E+04  0.38990962109E+04 0.  0.
        1    1    3    3  502    0  0.20417470003E+03  0.59575965531E+03  0.13485096781E+04  0.14883195984E+04  0.50400001928E-02 0. -1.
       -1    1    3    3    0  502 -0.20417470003E+03 -0.59575965531E+03 -0.24987616308E+04  0.25769025132E+04  0.50400001928E-02 0.  1.
</event>
<event>
 5   0  0.3690572E-08  0.3901643E+04  0.7818609E-02  0.8024688E-01
       -2   -1    0    0    0  501  0.00000000000E+00  0.00000000000E+00  0.16412107763E+04  0.16412107763E+04  0.25500000920E-02 0. -1.
        2   -1    0    0  501    0  0.00000000000E+00  0.00000000000E+00 -0.23188390177E+04  0.23188390177E+04  0.25500000920E-02 0.  1.
    10030    2    1    2    0    0  0.00000000000E+00  0.00000000000E+00 -0.67762824142E+03  0.39600497941E+04  0.39016425180E+04 0.  0.
        3    1    3    3  502    0  0.78494625428E+03 -0.17635615561E+04 -0.62483687629E+03  0.20289679929E+04  0.10100000352E+00 0. -1.
       -3    1    3    3    0  502 -0.78494625428E+03  0.17635615561E+04 -0.52791365133E+02  0.19310818011E+04  0.10100000352E+00 0.  1.
</event>
<event>
 5   0  0.3690572E-08  0.3886280E+04  0.7818609E-02  0.8027889E-01
       -2   -1    0    0    0  501  0.00000000000E+00  0.00000000000E+00  0.20986942267E+04  0.20986942267E+04  0.25500000920E-02 0.  1.
        2   -1    0    0  501    0  0.00000000000E+00  0.00000000000E+00 -0.17991150158E+04  0.17991150158E+04  0.25500000920E-02 0. -1.
    10030    2    1    2    0    0  0.00000000000E+00  0.00000000000E+00  0.29957921090E+03  0.38978092424E+04  0.38862796074E+04 0.  0.
        3    1    3    3  502    0  0.46756517612E+03  0.17806579403E+04  0.77327071414E+03  0.19968243543E+04  0.10100000352E+00 0.  1.
       -3    1    3    3    0  502 -0.46756517612E+03 -0.17806579403E+04 -0.47369150324E+03  0.19009848881E+04  0.10100000352E+00 0. -1.
</event>
<event>
 5   0  0.1164500E-08  0.3880455E+04  0.7818609E-02  0.8029106E-01
       -1   -1    0    0    0  501  0.00000000000E+00  0.00000000000E+00  0.24869099083E+04  0.24869099083E+04  0.50400001928E-02 0. -1.
        1   -1    0    0  501    0  0.00000000000E+00  0.00000000000E+00 -0.15137193354E+04  0.15137193354E+04  0.50400001928E-02 0.  1.
    10030    2    1    2    0    0  0.00000000000E+00  0.00000000000E+00  0.97319057288E+03  0.40006292438E+04  0.38804554443E+04 0.  0.
        4    1    3    3  502    0 -0.18371527860E+04 -0.51921885324E+03  0.84338120536E+03  0.20871061418E+04  0.12699999809E+01 0. -1.
       -4    1    3    3    0  502  0.18371527860E+04  0.51921885324E+03  0.12980936752E+03  0.19135231019E+04  0.12699999809E+01 0.  1.
</event>
<event>
 5   0  0.3769985E-08  0.3894977E+04  0.7818609E-02  0.8026075E-01
        2   -1    0    0  501    0  0.00000000000E+00  0.00000000000E+00  0.27051913761E+04  0.27051913761E+04  0.25500000920E-02 0. -1.
       -2   -1    0    0    0  501  0.00000000000E+00  0.00000000000E+00 -0.14020125162E+04  0.14020125162E+04  0.25500000920E-02 0.  1.
    10030    2    1    2    0    0  0.00000000000E+00  0.00000000000E+00  0.13031788599E+04  0.41072038923E+04  0.38949773647E+04 0.  0.
        1    1    3    3  502    0 -0.15464404543E+04 -0.11836925471E+04  0.66244826172E+03  0.20570473558E+04  0.50400001928E-02 0.  1.
       -1    1    3    3    0  502  0.15464404543E+04  0.11836925471E+04  0.64073059822E+03  0.20501565365E+04  0.50400001928E-02 0. -1.
</event>
<event>
 5   0  0.1164500E-08  0.3906466E+04  0.7818609E-02  0.8023686E-01
        1   -1    0    0  501    0  0.00000000000E+00  0.00000000000E+00  0.23589093854E+04  0.23589093854E+04  0.50400001928E-02 0.  1.
       -1   -1    0    0    0  501  0.00000000000E+00  0.00000000000E+00 -0.16173230201E+04  0.16173230201E+04  0.50400001928E-02 0. -1.
    10030    2    1    2    0    0  0.00000000000E+00  0.00000000000E+00  0.74158636536E+03  0.39762324055E+04  0.39064656412E+04 0.  0.
        2    1    3    3  502    0  0.16090882323E+03  0.17298095325E+04 -0.53789114722E+03  0.18186422282E+04  0.25500000920E-02 0.  1.
       -2    1    3    3    0  502 -0.16090882323E+03 -0.17298095325E+04  0.12794775126E+04  0.21575901773E+04  0.25500000920E-02 0. -1.
</event>
<event>
 5   0  0.1164500E-08  0.3901710E+04  0.7818609E-02  0.8024674E-01
       -1   -1    0    0    0  501  0.00000000000E+00  0.00000000000E+00  0.14591241841E+04  0.14591241841E+04  0.50400001928E-02 0.  1.
        1   -1    0    0  501    0  0.00000000000E+00  0.00000000000E+00 -0.26083008538E+04  0.26083008538E+04  0.50400001928E-02 0. -1.
    10030    2    1    2    0    0  0.00000000000E+00  0.00000000000E+00 -0.11491766697E+04  0.40674250380E+04  0.39017098074E+04 0.  0.
        3    1    3    3  502    0 -0.15447337317E+03  0.95458888057E+03 -0.23408741657E+04  0.25327443265E+04  0.10100000352E+00 0. -1.
       -3    1    3    3    0  502  0.15447337317E+03 -0.95458888057E+03  0.11916974960E+04  0.15346807114E+04  0.10100000352E+00 0.  1.
</event>
<event>
 5   0  0.1164500E-08  0.3892006E+04  0.7818609E-02  0.8026694E-01
        3   -1    0    0  501    0  0.00000000000E+00  0.00000000000E+00  0.18719482862E+04  0.18719482889E+04  0.10100000352E+00 0.  1.
       -3   -1    0    0    0  501  0.00000000000E+00  0.00000000000E+00 -0.20229870035E+04  0.20229870061E+04  0.10100000352E+00 0. -1.
    10030    2    1    2    0    0  0.00000000000E+00  0.00000000000E+00 -0.15103871731E+03  0.38949352950E+04  0.38920056858E+04 0.  0.
        4    1    3    3  502    0  0.17248296646E+04  0.57925423038E+03  0.61518319019E+03  0.19206834215E+04  0.12699999809E+01 0.  1.
       -4    1    3    3    0  502 -0.17248296646E+04 -0.57925423038E+03 -0.76622190751E+03  0.19742518735E+04  0.12699999809E+01 0. -1.
</event>
<event>
 5   0  0.3872969E-08  0.3902105E+04  0.7818609E-02  0.8024592E-01
       -2   -1    0    0    0  501  0.00000000000E+00  0.00000000000E+00  0.13967089935E+04  0.13967089935E+04  0.25500000920E-02 0.  1.
        2   -1    0    0  501    0  0.00000000000E+00  0.00000000000E+00 -0.27254107581E+04  0.27254107581E+04  0.25500000920E-02 0. -1.
    10030    2    1    2    0    0  0.00000000000E+00  0.00000000000E+00 -0.13287017646E+04  0.41221197516E+04  0.39021049278E+04 0.  0.
        2    1    3    3  502    0  0.87057112286E+03  0.14508827141E+04  0.36183812975E+03  0.17302836652E+04  0.25500000920E-02 0. -1.
       -2    1    3    3    0  502 -0.87057112286E+03 -0.14508827141E+04 -0.16905398943E+04  0.23918360864E+04  0.25500000920E-02 0.  1.
</event>
<event>
 5   0  0.3769985E-08  0.3899141E+04  0.7818609E-02  0.8025208E-01
       -2   -1    0    0    0  501  0.00000000000E+00  0.00000000000E+00  0.21176515008E+04  0.21176515008E+04  0.25500000920E-02 0. -1.
        2   -1    0    0  501    0  0.00000000000E+00  0.00000000000E+00 -0.17948302938E+04  0.17948302938E+04  0.25500000920E-02 0.  1.
    10030    2    1    2    0    0  0.00000000000E+00  0.00000000000E+00  0.32282120693E+03  0.39124817946E+04  0.38991409645E+04 0.  0.
        1    1    3    3  502    0  0.17551280613E+04  0.84678970384E+03  0.10378807249E+03  0.19514864279E+04  0.50400001928E-02 0. -1.
       -1    1    3    3    0  502 -0.17551280613E+04 -0.84678970384E+03  0.21903313444E+03  0.19609953667E+04  0.50400001928E-02 0.  1.
</event>
<event>
 5   0  0.3669347E-08  0.3903045E+04  0.7818609E-02  0.8024396E-01
       -2   -1    0    0    0  501  0.00000000000E+00  0.00000000000E+00  0.28226568629E+04  0.28226568629E+04  0.25500000920E-02 0.  1.
        2   -1    0    0  501    0  0.00000000000E+00  0.00000000000E+00 -0.13492396502E+04  0.13492396502E+04  0.25500000920E-02 0. -1.
    10030    2    1    2    0    0  0.00000000000E+00  0.00000000000E+00  0.14734172127E+04  0.41718965131E+04  0.39030452513E+04 0.  0.
        5    1    3    3  502    0  0.18277137456E+04  0.63792781400E+03  0.10005494920E+04  0.21791307459E+04  0.46999998093E+01 0.  1.
       -5    1    3    3    0  502 -0.18277137456E+04 -0.63792781400E+03  0.47286772077E+03  0.19927657673E+04  0.46999998093E+01 0. -1.
</event>
<event>
 5   0  0.1164500E-08  0.3911103E+04  0.7818609E-02  0.8022724E-01
        1   -1    0    0  501    0  0.00000000000E+00  0.00000000000E+00  0.15695547942E+04  0.15695547942E+04  0.50400001928E-02 0. -1.
       -1   -1    0    0    0  501  0.00000000000E+00  0.00000000000E+00 -0.24364753261E+04  0.24364753261E+04  0.50400001928E-02 0.  1.
    10030    2    1    2    0    0  0.00000000000E+00  0.00000000000E+00 -0.86692053186E+03  0.40060301203E+04  0.39111029283E+04 0.  0.
        2    1    3    3  502    0  0.29890665864E+03 -0.19325240375E+04 -0.44747380671E+03  0.20060476450E+04  0.25500000920E-02 0.  1.
       -2    1    3    3    0  502 -0.29890665864E+03  0.19325240375E+04 -0.41944672514E+03  0.19999824753E+04  0.25500000920E-02 0. -1.
</event>
<event>
 5   0  0.3724293E-08  0.3897814E+04  0.7818609E-02  0.8025484E-01
        2   -1    0    0  501    0  0.00000000000E+00  0.00000000000E+00  0.23927275989E+04  0.23927275989E+04  0.25500000920E-02 0.  1.
       -2   -1    0    0    0  501  0.00000000000E+00  0.00000000000E+00 -0.15874096561E+04  0.15874096561E+04  0.25500000920E-02 0. -1.
    10030    2    1    2    0    0  0.00000000000E+00  0.00000000000E+00  0.80531794281E+03  0.39801372551E+04  0.38978142054E+04 0.  0.
        4    1    3    3  502    0 -0.26302300902E+03  0.31045360081E+03  0.23488710878E+04  0.23838539262E+04  0.12699999809E+01 0.  1.
       -4    1    3    3    0  502  0.26302300902E+03 -0.31045360081E+03 -0.15435531450E+04  0.15962833288E+04  0.12699999809E+01 0. -1.
</event>
<event>
 5   0  0.3769985E-08  0.3896680E+04  0.7818609E-02  0.8025720E-01
        2   -1    0    0  501    0  0.00000000000E+00  0.00000000000E+00  0.28779495256E+04  0.28779495256E+04  0.25500000920E-02 0. -1.
       -2   -1    0    0    0  501  0.00000000000E+00  0.00000000000E+00 -0.13190048172E+04  0.13190048172E+04  0.25500000920E-02 0.  1.
    10030    2    1    2    0    0  0.00000000000E+00  0.00000000000E+00  0.15589447083E+04  0.41969543428E+04  0.38966802732E+04 0.  0.
        1    1    3    3  502    0 -0.14926957962E+04  0.12054162888E+04  0.41444610002E+03  0.19628893854E+04  0.50400001928E-02 0. -1.
       -1    1    3    3    0  502  0.14926957962E+04 -0.12054162888E+04  0.11444986083E+04  0.22340649574E+04  0.50400001928E-02 0.  1.
</event>
<event>
 5   0  0.1164500E-08  0.3902322E+04  0.7818609E-02  0.8024546E-01
        1   -1    0    0  501    0  0.00000000000E+00  0.00000000000E+00  0.21931550525E+04  0.21931550525E+04  0.50400001928E-02 0.  1.
       -1   -1    0    0    0  501  0.00000000000E+00  0.00000000000E+00 -0.17358689520E+04  0.17358689520E+04  0.50400001928E-02 0. -1.
    10030    2    1    2    0    0  0.00000000000E+00  0.00000000000E+00  0.45728610050E+03  0.39290240046E+04  0.39023222638E+04 0.  0.
        1    1    3    3  502    0 -0.12897890797E+03 -0.90846845515E+02 -0.17294368589E+04  0.17366175621E+04  0.50400001928E-02 0. -1.
       -1    1    3    3    0  502  0.12897890797E+03  0.90846845515E+02  0.21867229594E+04  0.21924064425E+04  0.50400001928E-02 0.  1.
</event>
<event>
 5   0  0.1164500E-08  0.3880050E+04  0.7818609E-02  0.8029191E-01
       -1   -1    0    0    0  501  0.00000000000E+00  0.00000000000E+00  0.22953551234E+04  0.22953551234E+04  0.50400001928E-02 0.  1.
        1   -1    0    0  501    0  0.00000000000E+00  0.00000000000E+00 -0.16397013183E+04  0.16397013183E+04  0.50400001928E-02 0. -1.
    10030    2    1    2    0    0  0.00000000000E+00  0.00000000000E+00  0.65565380512E+03  0.39350564418E+04  0.38800499079E+04 0.  0.
        5    1    3    3  502    0  0.16503880556E+04 -0.90378051762E+03 -0.15117681578E+03  0.18877172664E+04  0.46999998093E+01 0. -1.
       -5    1    3    3    0  502 -0.16503880556E+04  0.90378051762E+03  0.80683062089E+03  0.20473391754E+04  0.46999998093E+01 0.  1.
</event>
<event>
 5   0  0.3669347E-08  0.3899718E+04  0.7818609E-02  0.8025088E-01
        2   -1    0    0  501    0  0.00000000000E+00  0.00000000000E+00  0.26315855157E+04  0.26315855157E+04  0.25500000920E-02 0.  1.
       -2   -1    0    0    0  501  0.00000000000E+00  0.00000000000E+00 -0.14447376001E+04  0.14447376001E+04  0.25500000920E-02 0. -1.
    10030    2    1    2    0    0  0.00000000000E+00  0.00000000000E+00  0.11868479155E+04  0.40763231158E+04  0.38997182168E+04 0.  0.
        5    1    3    3  502    0  0.14230721095E+04  0.11360135583E+04 -0.13548445125E+03  0.18259351467E+04  0.46999998093E+01 0. -1.
       -5    1    3    3    0  502 -0.14230721095E+04 -0.11360135583E+04  0.13223323668E+04  0.22503879691E+04  0.46999998093E+01 0.  1.
</event>
<event>
 5   0  0.3669347E-08  0.3896332E+04  0.7818609E-02  0.8025793E-01
        2   -1    0    0  501    0  0.00000000000E+00  0.00000000000E+00  0.14732879569E+04  0.14732879569E+04  0.25500000920E-02 0. -1.
       -2   -1    0    0    0  501  0.00000000000E+00  0.00000000000E+00 -0.25761088792E+04  0.25761088792E+04  0.25500000920E-02 0.  1.
    10030    2    1    2    0    0  0.00000000000E+00  0.00000000000E+00 -0.11028209223E+04  0.40493968361E+04  0.38963317043E+04 0.  0.
        5    1    3    3  502    0 -0.46235615596E+03  0.80471536138E+03  0.12287681908E+04  0.15398809644E+04  0.46999998093E+01 0. -1.
       -5    1    3    3    0  502  0.46235615596E+03 -0.80471536138E+03 -0.23315891131E+04  0.25095158717E+04  0.46999998093E+01 0.  1.
</event>
<event>
 5   0  0.3669347E-08  0.3898480E+04  0.7818609E-02  0.8025345E-01
       -2   -1    0    0    0  501  0.00000000000E+00  0.00000000000E+00  0.16641036720E+04  0.16641036720E+04  0.25500000920E-02 0. -1.
        2   -1    0    0  501    0  0.00000000000E+00  0.00000000000E+00 -0.22832331982E+04  0.22832331982E+04  0.25500000920E-02 0.  1.
    10030    2    1    2    0    0  0.00000000000E+00  0.00000000000E+00 -0.61912952626E+03  0.39473368702E+04  0.38984800880E+04 0.  0.
        5    1    3    3  502    0  0.16697037057E+04  0.78046369989E+03  0.33279946891E+03  0.18729152752E+04  0.46999998093E+01 0. -1.
       -5    1    3    3    0  502 -0.16697037057E+04 -0.78046369989E+03 -0.95192899517E+03  0.20744215949E+04  0.46999998093E+01 0.  1.
</event>
<event>
 5   0  0.3724293E-08  0.3897047E+04  0.7818609E-02  0.8025644E-01
       -2   -1    0    0    0  501  0.00000000000E+00  0.00000000000E+00  0.19846318580E+04  0.19846318580E+04  0.25500000920E-02 0. -1.
        2   -1    0    0  501    0  0.00000000000E+00  0.00000000000E+00 -0.19130722040E+04  0.19130722040E+04  0.25500000920E-02 0.  1.
    10030    2    1    2    0    0  0.00000000000E+00  0.00000000000E+00  0.71559653999E+02  0.38977040620E+04  0.38970471091E+04 0.  0.
        4    1    3    3  502    0 -0.14219760120E+04 -0.13298767892E+04 -0.42683233700E+02  0.19474114933E+04  0.12699999809E+01 0. -1.
       -4    1    3    3    0  502  0.14219760120E+04  0.13298767892E+04  0.11424288770E+03  0.19502925686E+04  0.12699999809E+01 0.  1.
</event>
<event>
 5   0  0.3724293E-08  0.3885002E+04  0.7818609E-02  0.8028156E-01
       -2   -1    0    0    0  501  0.00000000000E+00  0.00000000000E+00  0.19055444969E+04  0.19055444969E+04  0.25500000920E-02 0.  1.
        2   -1    0    0  501    0  0.00000000000E+00  0.00000000000E+00 -0.19801743777E+04  0.19801743777E+04  0.25500000920E-02 0. -1.
    10030    2    1    2    0    0  0.00000000000E+00  0.00000000000E+00 -0.74629880757E+02  0.38857188746E+04  0.38850021304E+04 0.  0.
        4    1    3    3  502    0 -0.14099876130E+04  0.46636965019E+02  0.12982473672E+04  0.19172083650E+04  0.12699999809E+01 0.  1.
       -4    1    3    3    0  502  0.14099876130E+04 -0.46636965019E+02 -0.13728772480E+04  0.19685105096E+04  0.12699999809E+01 0. -1.
</event>
<event>
 5   0  0.1164500E-08  0.3878814E+04  0.7818609E-02  0.8029450E-01
        1   -1    0    0  501    0  0.00000000000E+00  0.00000000000E+00  0.16114423143E+04  0.16114423143E+04  0.50400001928E-02 0. -1.
       -1   -1    0    0    0  501  0.00000000000E+00  0.00000000000E+00 -0.23341199381E+04  0.23341199381E+04  0.50400001928E-02 0.  1.
    10030    2    1    2    0    0  0.00000000000E+00  0.00000000000E+00 -0.72267762382E+03  0.39455622524E+04  0.38788140636E+04 0.  0.
        5    1    3    3  502    0  0.52477811501E+03  0.17682338869E+04  0.24833690119E+03  0.18611116182E+04  0.46999998093E+01 0.  1.
       -5    1    3    3    0  502 -0.52477811501E+03 -0.17682338869E+04 -0.97101452501E+03  0.20844506343E+04  0.46999998093E+01 0. -1.
</event>
<event>
 5   0  0.3690572E-08  0.3937949E+04  0.7818609E-02  0.8017182E-01
        2   -1    0    0  501    0  0.00000000000E+00  0.00000000000E+00  0.23347931253E+04  0.23347931253E+04  0.25500000920E-02 0.  1.
       -2   -1    0    0    0  501  0.00000000000E+00  0.00000000000E+00 -0.16604728857E+04  0.16604728857E+04  0.25500000920E-02 0. -1.
    10030    2    1    2    0    0  0.00000000000E+00  0.00000000000E+00  0.67432023967E+03  0.39952660110E+04  0.39379490491E+04 0.  0.
        3    1    3    3  502    0 -0.13189975708E+03 -0.19114799193E+04 -0.12299135586E+03  0.19199687267E+04  0.10100000352E+00 0. -1.
       -3    1    3    3    0  502  0.13189975708E+03  0.19114799193E+04  0.79731159553E+03  0.20752972843E+04  0.10100000352E+00 0.  1.
</event>
<event>
 5   0  0.3872969E-08  0.3896910E+04  0.7818609E-02  0.8025672E-01
       -2   -1    0    0    0  501  0.00000000000E+00  0.00000000000E+00  0.12620882555E+04  0.12620882555E+04  0.25500000920E-02 0.  1.
        2   -1    0    0  501    0  0.00000000000E+00  0.00000000000E+00 -0.30080920922E+04  0.30080920922E+04  0.25500000920E-02 0. -1.
    10030    2    1    2    0    0  0.00000000000E+00  0.00000000000E+00 -0.17460038366E+04  0.42701803477E+04  0.38969104178E+04 0.  0.
        2    1    3    3  502    0  0.11938520704E+04 -0.33397777118E+03 -0.25202034852E+04  0.28086027708E+04  0.25500000920E-02 0. -1.
       -2    1    3    3    0  502 -0.11938520704E+04  0.33397777118E+03  0.77419964852E+03  0.14615775769E+04  0.25500000920E-02 0.  1.
</event>
<event>
 5   0  0.1164500E-08  0.3903159E+04  0.7818609E-02  0.8024372E-01
       -1   -1    0    0    0  501  0.00000000000E+00  0.00000000000E+00  0.14014083103E+04  0.14014083103E+04  0.50400001928E-02 0. -1.
        1   -1    0    0  501    0  0.00000000000E+00  0.00000000000E+00 -0.27177399748E+04  0.27177399748E+04  0.50400001928E-02 0.  1.
    10030    2    1    2    0    0  0.00000000000E+00  0.00000000000E+00 -0.13163316645E+04  0.41191482851E+04  0.39031594310E+04 0.  0.
        3    1    3    3  502    0  0.68791676485E+03 -0.18189450237E+04 -0.83116675183E+03  0.21148590152E+04  0.10100000352E+00 0.  1.
       -3    1    3    3    0  502 -0.68791676485E+03  0.18189450237E+04 -0.48516491271E+03  0.20042892699E+04  0.10100000352E+00 0. -1.
</event>
<event>
 5   0  0.3669347E-08  0.3868690E+04  0.7818609E-02  0.8031573E-01
        2   -1    0    0  501    0  0.00000000000E+00  0.00000000000E+00  0.23021591146E+04  0.23021591146E+04  0.25500000920E-02 0. -1.
       -2   -1    0    0    0  501  0.00000000000E+00  0.00000000000E+00 -0.16252962298E+04  0.16252962298E+04  0.25500000920E-02 0.  1.
    10030    2    1    2    0    0  0.00000000000E+00  0.00000000000E+00  0.67686288473E+03  0.39274553444E+04  0.38686899743E+04 0.  0.
        5    1    3    3  502    0  0.19208143892E+04 -0.13442956965E+03  0.15104922439E+03  0.19314339712E+04  0.46999998093E+01 0.  1.
       -5    1    3    3    0  502 -0.19208143892E+04  0.13442956965E+03  0.52581366033E+03  0.19960213732E+04  0.46999998093E+01 0. -1.
</event>
<event>
 5   0  0.3872969E-08  0.3899557E+04  0.7818609E-02  0.8025121E-01
        2   -1    0    0  501    0  0.00000000000E+00  0.00000000000E+00  0.20169656102E+04  0.20169656102E+04  0.25500000920E-02 0. -1.
       -2   -1    0    0    0  501  0.00000000000E+00  0.00000000000E+00 -0.18848294899E+04  0.18848294899E+04  0.25500000920E-02 0.  1.
    10030    2    1    2    0    0  0.00000000000E+00  0.00000000000E+00  0.13213612031E+03  0.39017951001E+04  0.38995570324E+04 0.  0.
        2    1    3    3  502    0  0.76646259422E+03  0.10881157239E+04 -0.13595919786E+04  0.19026169045E+04  0.25500000920E-02 0.  1.
       -2    1    3    3    0  502 -0.76646259422E+03 -0.10881157239E+04  0.14917280989E+04  0.19991781957E+04  0.25500000920E-02 0. -1.
</event>
<event>
 5   0  0.1164500E-08  0.3898124E+04  0.7818609E-02  0.8025420E-01
        1   -1    0    0  501    0  0.00000000000E+00  0.00000000000E+00  0.23003860715E+04  0.23003860715E+04  0.50400001928E-02 0. -1.
       -1   -1    0    0    0  501  0.00000000000E+00  0.00000000000E+00 -0.16513931556E+04  0.16513931556E+04  0.50400001928E-02 0.  1.
    10030    2    1    2    0    0  0.00000000000E+00  0.00000000000E+00  0.64899291586E+03  0.39517792271E+04  0.38981235556E+04 0.  0.
        1    1    3    3  502    0 -0.84049343325E+02 -0.39105442492E+03  0.22583313259E+04  0.22934795035E+04  0.50400001928E-02 0. -1.
       -1    1    3    3    0  502  0.84049343325E+02  0.39105442492E+03 -0.16093384100E+04  0.16582997236E+04  0.50400001928E-02 0.  1.
</event>
<event>
 5   0  0.3669347E-08  0.3896463E+04  0.7818609E-02  0.8025765E-01
       -2   -1    0    0    0  501  0.00000000000E+00  0.00000000000E+00  0.18733334875E+04  0.18733334875E+04  0.25500000920E-02 0. -1.
        2   -1    0    0  501    0  0.00000000000E+00  0.00000000000E+00 -0.20261240193E+04  0.20261240193E+04  0.25500000920E-02 0.  1.
    10030    2    1    2    0    0  0.00000000000E+00  0.00000000000E+00 -0.15279053189E+03  0.38994575068E+04  0.38964629988E+04 0.  0.
        5    1    3    3  502    0  0.69269746218E+03  0.13538340923E+04  0.11422792161E+04  0.19019780286E+04  0.46999998093E+01 0. -1.
       -5    1    3    3    0  502 -0.69269746218E+03 -0.13538340923E+04 -0.12950697480E+04  0.19974794782E+04  0.46999998093E+01 0.  1.
</event>
<event>
 5   0  0.1164500E-08  0.3949303E+04  0.7818609E-02  0.8014853E-01
       -4   -1    0    0    0  501  0.00000000000E+00  0.00000000000E+00  0.22699134546E+04  0.22699138099E+04  0.12699999809E+01 0. -1.
        4   -1    0    0  501    0  0.00000000000E+00  0.00000000000E+00 -0.17177953208E+04  0.17177957903E+04  0.12699999809E+01 0.  1.
    10030    2    1    2    0    0  0.00000000000E+00  0.00000000000E+00  0.55211813382E+03  0.39877096001E+04  0.39493029032E+04 0.  0.
        1    1    3    3  502    0  0.15817569924E+04 -0.11814284688E+04  0.31542468521E+03  0.19993051648E+04  0.50400001928E-02 0. -1.
       -1    1    3    3    0  502 -0.15817569924E+04  0.11814284688E+04  0.23669344860E+03  0.19884044354E+04  0.50400001928E-02 0.  1.
</event>
<event>
 5   0  0.3690572E-08  0.3901132E+04  0.7818609E-02  0.8024794E-01
        2   -1    0    0  501    0  0.00000000000E+00  0.00000000000E+00  0.23153602976E+04  0.23153602976E+04  0.25500000920E-02 0. -1.
       -2   -1    0    0    0  501  0.00000000000E+00  0.00000000000E+00 -0.16432461720E+04  0.16432461720E+04  0.25500000920E-02 0.  1.
    10030    2    1    2    0    0  0.00000000000E+00  0.00000000000E+00  0.67211412552E+03  0.39586064696E+04  0.39011316029E+04 0.  0.
        3    1    3    3  502    0 -0.18304904879E+04 -0.63351474186E+03  0.10317513674E+03  0.19397632519E+04  0.10100000352E+00 0.  1.
       -3    1    3    3    0  502  0.18304904879E+04  0.63351474186E+03  0.56893898878E+03  0.20188432177E+04  0.10100000352E+00 0. -1.
</event>
<event>
 5   0  0.1164500E-08  0.3901309E+04  0.7818609E-02  0.8024757E-01
        1   -1    0    0  501    0  0.00000000000E+00  0.00000000000E+00  0.21891270957E+04  0.21891270957E+04  0.50400001928E-02 0. -1.
       -1   -1    0    0    0  501  0.00000000000E+00  0.00000000000E+00 -0.17381595519E+04  0.17381595519E+04  0.50400001928E-02 0.  1.
    10030    2    1    2    0    0  0.00000000000E+00  0.00000000000E+00  0.45096754378E+03  0.39272866476E+04  0.39013085865E+04 0.  0.
        2    1    3    3  502    0  0.69018960599E+03 -0.21229577910E+03  0.20496264674E+04  0.21731083374E+04  0.25500000920E-02 0. -1.
       -2    1    3    3    0  502 -0.69018960599E+03  0.21229577910E+03 -0.15986589236E+04  0.17541783102E+04  0.25500000920E-02 0.  1.
</event>
<event>
 5   0  0.1164500E-08  0.3901197E+04  0.7818609E-02  0.8024780E-01
       -1   -1    0    0    0  501  0.00000000000E+00  0.00000000000E+00  0.23569206186E+04  0.23569206186E+04  0.50400001928E-02 0.  1.
        1   -1    0    0  501    0  0.00000000000E+00  0.00000000000E+00 -0.16143247686E+04  0.16143247686E+04  0.50400001928E-02 0. -1.
    10030    2    1    2    0    0  0.00000000000E+00  0.00000000000E+00  0.74259585001E+03  0.39712453872E+04  0.39011974224E+04 0.  0.
        5    1    3    3  502    0 -0.10350824535E+04  0.16531165873E+04  0.39670821159E+03  0.19903742442E+04  0.46999998093E+01 0.  1.
       -5    1    3    3    0  502  0.10350824535E+04 -0.16531165873E+04  0.34588763841E+03  0.19808711430E+04  0.46999998093E+01 0. -1.
</event>
<event>
 5   0  0.3872969E-08  0.3936328E+04  0.7818609E-02  0.8017516E-01
       -2   -1    0    0    0  501  0.00000000000E+00  0.00000000000E+00  0.24576726452E+04  0.24576726452E+04  0.25500000920E-02 0.  1.
        2   -1    0    0  501    0  0.00000000000E+00  0.00000000000E+00 -0.15761539465E+04  0.15761539465E+04  0.25500000920E-02 0. -1.
    10030    2    1    2    0    0  0.00000000000E+00  0.00000000000E+00  0.88151869869E+03  0.40338265916E+04  0.39363284613E+04 0.  0.
        2    1    3    3  502    0  0.11741236266E+04 -0.55655286673E+03  0.19556688838E+04  0.23479689451E+04  0.25500000920E-02 0.  1.
       -2    1    3    3    0  502 -0.11741236266E+04  0.55655286673E+03 -0.10741501851E+04  0.16858576465E+04  0.25500000920E-02 0. -1.
</event>
<event>
 5   0  0.3769985E-08  0.3900968E+04  0.7818609E-02  0.8024828E-01
       -2   -1    0    0    0  501  0.00000000000E+00  0.00000000000E+00  0.15678868236E+04  0.15678868236E+04  0.25500000920E-02 0.  1.
        2   -1    0    0  501    0  0.00000000000E+00  0.00000000000E+00 -0.24264422776E+04  0.24264422776E+04  0.25500000920E-02 0. -1.
    10030    2    1    2    0    0  0.00000000000E+00  0.00000000000E+00 -0.85855545399E+03  0.39943291012E+04  0.39009675084E+04 0.  0.
        1    1    3    3  502    0 -0.87747458816E+03 -0.15362149377E+04  0.41163799433E+03  0.18164151029E+04  0.50400001928E-02 0.  1.
       -1    1    3    3    0  502  0.87747458816E+03  0.15362149377E+04 -0.12701934483E+04  0.21779139983E+04  0.50400001928E-02 0. -1.
</event>
<event>
 5   0  0.1164500E-08  0.3903886E+04  0.7818609E-02  0.8024222E-01
        1   -1    0    0  501    0  0.00000000000E+00  0.00000000000E+00  0.26491894790E+04  0.26491894790E+04  0.50400001928E-02 0.  1.
       -1   -1    0    0    0  501  0.00000000000E+00  0.00000000000E+00 -0.14382061836E+04  0.14382061836E+04  0.50400001928E-02 0. -1.
    10030    2    1    2    0    0  0.00000000000E+00  0.00000000000E+00  0.12109832955E+04  0.40873956626E+04  0.39038855978E+04 0.  0.
        4    1    3    3  502    0  0.12860613120E+04 -0.13852706914E+04  0.11153641736E+04  0.21947590846E+04  0.12699999809E+01 0. -1.
       -4    1    3    3    0  502 -0.12860613120E+04  0.13852706914E+04  0.95619121812E+02  0.18926365780E+04  0.12699999809E+01 0.  1.
</event>
<event>
 5   0  0.1164500E-08  0.3904680E+04  0.7818609E-02  0.8024057E-01
       -1   -1    0    0    0  501  0.00000000000E+00  0.00000000000E+00  0.16566790564E+04  0.16566790564E+04  0.50400001928E-02 0.  1.
        1   -1    0    0  501    0  0.00000000000E+00  0.00000000000E+00 -0.23007658283E+04  0.23007658283E+04  0.50400001928E-02 0. -1.
    10030    2    1    2    0    0  0.00000000000E+00  0.00000000000E+00 -0.64408677182E+03  0.39574448847E+04  0.39046795318E+04 0.  0.
        3    1    3    3  502    0  0.13751951825E+04  0.10943564258E+04  0.53965326592E+03  0.18384785651E+04  0.10100000352E+00 0.  1.
       -3    1    3    3    0  502 -0.13751951825E+04 -0.10943564258E+04 -0.11837400377E+04  0.21189663196E+04  0.10100000352E+00 0. -1.
</event>
<event>
 5   0  0.3872969E-08  0.3889537E+04  0.7818609E-02  0.8027209E-01
        2   -1    0    0  501    0  0.00000000000E+00  0.00000000000E+00  0.16067121661E+04  0.16067121661E+04  0.25500000920E-02 0. -1.
       -2   -1    0    0    0  501  0.00000000000E+00  0.00000000000E+00 -0.23539527659E+04  0.23539527659E+04  0.25500000920E-02 0.  1.
    10030    2    1    2    0    0  0.00000000000E+00  0.00000000000E+00 -0.74724059988E+03  0.39606649320E+04  0.38895370148E+04 0.  0.
        2    1    3    3  502    0  0.36263652973E+03  0.18425245283E+04 -0.88855813007E+03  0.20774834393E+04  0.25500000920E-02 0.  1.
       -2    1    3    3    0  502 -0.36263652973E+03 -0.18425245283E+04  0.14131753019E+03  0.18831814927E+04  0.25500000920E-02 0. -1.
</event>
<event>
 5   0  0.1164500E-08  0.3891861E+04  0.7818609E-02  0.8026724E-01
        1   -1    0    0  501    0  0.00000000000E+00  0.00000000000E+00  0.16339561591E+04  0.16339561591E+04  0.50400001928E-02 0.  1.
       -1   -1    0    0    0  501  0.00000000000E+00  0.00000000000E+00 -0.23174706674E+04  0.23174706674E+04  0.50400001928E-02 0. -1.
    10030    2    1    2    0    0  0.00000000000E+00  0.00000000000E+00 -0.68351450829E+03  0.39514268266E+04  0.38918609794E+04 0.  0.
        3    1    3    3  502    0 -0.11187041755E+04  0.95866972443E+03 -0.16324729095E+04  0.21989803281E+04  0.10100000352E+00 0. -1.
       -3    1    3    3    0  502  0.11187041755E+04 -0.95866972443E+03  0.94895840121E+03  0.17524464985E+04  0.10100000352E+00 0.  1.
</event>
<event>
 5   0  0.1164500E-08  0.3898930E+04  0.7818609E-02  0.8025252E-01
       -1   -1    0    0    0  501  0.00000000000E+00  0.00000000000E+00  0.23785338043E+04  0.23785338043E+04  0.50400001928E-02 0.  1.
        1   -1    0    0  501    0  0.00000000000E+00  0.00000000000E+00 -0.15977969052E+04  0.15977969052E+04  0.50400001928E-02 0. -1.
    10030    2    1    2    0    0  0.00000000000E+00  0.00000000000E+00  0.78073689912E+03  0.39763307094E+04  0.38989300847E+04 0.  0.
        1    1    3    3  502    0  0.10657955459E+04  0.70483931064E+03  0.18919059151E+04  0.22829863317E+04  0.50400001928E-02 0.  1.
       -1    1    3    3    0  502 -0.10657955459E+04 -0.70483931064E+03 -0.11111690160E+04  0.16933443777E+04  0.50400001928E-02 0. -1.
</event>
<event>
 5   0  0.1164500E-08  0.3892459E+04  0.7818609E-02  0.8026599E-01
       -1   -1    0    0    0  501  0.00000000000E+00  0.00000000000E+00  0.20974247606E+04  0.20974247607E+04  0.50400001928E-02 0. -1.
        1   -1    0    0  501    0  0.00000000000E+00  0.00000000000E+00 -0.18059333249E+04  0.18059333249E+04  0.50400001928E-02 0.  1.
    10030    2    1    2    0    0  0.00000000000E+00  0.00000000000E+00  0.29149143575E+03  0.39033580856E+04  0.38924590026E+04 0.  0.
        2    1    3    3  502    0  0.97919869864E+03  0.11100846746E+04 -0.11213949006E+04  0.18570526647E+04  0.25500000920E-02 0.  1.
       -2    1    3    3    0  502 -0.97919869864E+03 -0.11100846746E+04  0.14128863363E+04  0.20463054209E+04  0.25500000920E-02 0. -1.
</event>
<event>
 5   0  0.3724293E-08  0.3895383E+04  0.7818609E-02  0.8025990E-01
        2   -1    0    0  501    0  0.00000000000E+00  0.00000000000E+00  0.21149659014E+04  0.21149659014E+04  0.25500000920E-02 0.  1.
       -2   -1    0    0    0  501  0.00000000000E+00  0.00000000000E+00 -0.17936471826E+04  0.17936471826E+04  0.25500000920E-02 0. -1.
    10030    2    1    2    0    0  0.00000000000E+00  0.00000000000E+00  0.32131871879E+03  0.39086130840E+04  0.38953832316E+04 0.  0.
        4    1    3    3  502    0  0.17165226883E+04  0.25593219549E+03  0.10477147934E+04  0.20272294713E+04  0.12699999809E+01 0.  1.
       -4    1    3    3    0  502 -0.17165226883E+04 -0.25593219549E+03 -0.72639607460E+03  0.18813836127E+04  0.12699999809E+01 0. -1.
</event>
<event>
 5   0  0.1164500E-08  0.3898901E+04  0.7818609E-02  0.8025258E-01
       -1   -1    0    0    0  501  0.00000000000E+00  0.00000000000E+00  0.14269053165E+04  0.14269053165E+04  0.50400001928E-02 0.  1.
        1   -1    0    0  501    0  0.00000000000E+00  0.00000000000E+00 -0.26633562849E+04  0.26633562849E+04  0.50400001928E-02 0. -1.
    10030    2    1    2    0    0  0.00000000000E+00  0.00000000000E+00 -0.12364509684E+04  0.40902616014E+04  0.38989009952E+04 0.  0.
        2    1    3    3  502    0  0.68659743846E+03 -0.11587862395E+04  0.86025473357E+03  0.15981989232E+04  0.25500000920E-02 0.  1.
       -2    1    3    3    0  502 -0.68659743846E+03  0.11587862395E+04 -0.20967057020E+04  0.24920626782E+04  0.25500000920E-02 0. -1.
</event>
<event>
 5   0  0.3724293E-08  0.3890083E+04  0.7818609E-02  0.8027095E-01
        2   -1    0    0  501    0  0.00000000000E+00  0.00000000000E+00  0.24493019604E+04  0.24493019604E+04  0.25500000920E-02 0.  1.
       -2   -1    0    0    0  501  0.00000000000E+00  0.00000000000E+00 -0.15445974467E+04  0.15445974467E+04  0.25500000920E-02 0. -1.
    10030    2    1    2    0    0  0.00000000000E+00  0.00000000000E+00  0.90470451364E+03  0.39938994071E+04  0.38900825463E+04 0.  0.
        4    1    3    3  502    0  0.12867758421E+03 -0.13394834629E+04  0.18942581312E+04  0.23235725400E+04  0.12699999809E+01 0.  1.
       -4    1    3    3    0  502 -0.12867758421E+03  0.13394834629E+04 -0.98955361751E+03  0.16703268671E+04  0.12699999809E+01 0. -1.
</event>
<event>
 5   0  0.3769985E-08  0.3900838E+04  0.7818609E-02  0.8024855E-01
       -2   -1    0    0    0  501  0.00000000000E+00  0.00000000000E+00  0.17918834736E+04  0.17918834736E+04  0.25500000920E-02 0.  1.
        2   -1    0    0  501    0  0.00000000000E+00  0.00000000000E+00 -0.21229803314E+04  0.21229803314E+04  0.25500000920E-02 0. -1.
    10030    2    1    2    0    0  0.00000000000E+00  0.00000000000E+00 -0.33109685781E+03  0.39148638050E+04  0.39008375360E+04 0.  0.
        1    1    3    3  502    0 -0.31362947383E+03  0.11565823956E+04 -0.17099407359E+04  0.20880477976E+04  0.50400001928E-02 0. -1.
       -1    1    3    3    0  502  0.31362947383E+03 -0.11565823956E+04  0.13788438781E+04  0.18268160074E+04  0.50400001928E-02 0.  1.
</event>
<event>
 5   0  0.3669347E-08  0.3899582E+04  0.7818609E-02  0.8025116E-01
       -2   -1    0    0    0  501  0.00000000000E+00  0.00000000000E+00  0.16862400400E+04  0.16862400400E+04  0.25500000920E-02 0.  1.
        2   -1    0    0  501    0  0.00000000000E+00  0.00000000000E+00 -0.22545337115E+04  0.22545337115E+04  0.25500000920E-02 0. -1.
    10030    2    1    2    0    0  0.00000000000E+00  0.00000000000E+00 -0.56829367146E+03  0.39407737515E+04  0.38995820370E+04 0.  0.
        5    1    3    3  502    0  0.54732181235E+03 -0.18695295753E+04 -0.19983336544E+03  0.19582281438E+04  0.46999998093E+01 0. -1.
       -5    1    3    3    0  502 -0.54732181235E+03  0.18695295753E+04 -0.36846030602E+03  0.19825456077E+04  0.46999998093E+01 0.  1.
</event>
<event>
 5   0  0.3690572E-08  0.3894283E+04  0.7818609E-02  0.8026219E-01
       -2   -1    0    0    0  501  0.00000000000E+00  0.00000000000E+00  0.18985980672E+04  0.18985980672E+04  0.25500000920E-02 0.  1.
        2   -1    0    0  501    0  0.00000000000E+00  0.00000000000E+00 -0.19969261915E+04  0.19969261915E+04  0.25500000920E-02 0. -1.
    10030    2    1    2    0    0  0.00000000000E+00  0.00000000000E+00 -0.98328124249E+02  0.38955242587E+04  0.38942830958E+04 0.  0.
        3    1    3    3  502    0  0.13118203755E+04  0.71902846723E+03  0.11976221892E+04  0.19162916147E+04  0.10100000352E+00 0.  1.
       -3    1    3    3    0  502 -0.13118203755E+04 -0.71902846723E+03 -0.12959503134E+04  0.19792326441E+04  0.10100000352E+00 0. -1.
</event>
<event>
 5   0  0.3724293E-08  0.3939156E+04  0.7818609E-02  0.8016934E-01
       -2   -1    0    0    0  501  0.00000000000E+00  0.00000000000E+00  0.14356694974E+04  0.14356694974E+04  0.25500000920E-02 0.  1.
        2   -1    0    0  501    0  0.00000000000E+00  0.00000000000E+00 -0.27020404519E+04  0.27020404519E+04  0.25500000920E-02 0. -1.
    10030    2    1    2    0    0  0.00000000000E+00  0.00000000000E+00 -0.12663709544E+04  0.41377099493E+04  0.39391557764E+04 0.  0.
        4    1    3    3  502    0  0.18927398325E+04 -0.53517785433E+03 -0.52629139793E+03  0.20361394004E+04  0.12699999809E+01 0. -1.
       -4    1    3    3    0  502 -0.18927398325E+04  0.53517785433E+03 -0.74007955651E+03  0.21015705489E+04  0.12699999809E+01 0.  1.
</event>
<event>
 5   0  0.1164500E-08  0.3900084E+04  0.7818609E-02  0.8025012E-01
        1   -1    0    0  501    0  0.00000000000E+00  0.00000000000E+00  0.14366475611E+04  0.14366475611E+04  0.50400001928E-02 0.  1.
       -1   -1    0    0    0  501  0.00000000000E+00  0.00000000000E+00 -0.26469006573E+04  0.26469006573E+04  0.50400001928E-02 0. -1.
    10030    2    1    2    0    0  0.00000000000E+00  0.00000000000E+00 -0.12102530962E+04  0.40835482184E+04  0.39000837805E+04 0.  0.
        3    1    3    3  502    0 -0.30919468742E+03  0.59446972325E+03  0.13123222215E+04  0.14734942246E+04  0.10100000352E+00 0.  1.
       -3    1    3    3    0  502  0.30919468742E+03 -0.59446972325E+03 -0.25225753178E+04  0.26100539938E+04  0.10100000352E+00 0. -1.
</event>
<event>
 5   0  0.1164500E-08  0.3901965E+04  0.7818609E-02  0.8024621E-01
       -1   -1    0    0    0  501  0.00000000000E+00  0.00000000000E+00  0.24758348372E+04  0.24758348372E+04  0.50400001928E-02 0. -1.
        1   -1    0    0  501    0  0.00000000000E+00  0.00000000000E+00 -0.15373936767E+04  0.15373936767E+04  0.50400001928E-02 0.  1.
    10030    2    1    2    0    0  0.00000000000E+00  0.00000000000E+00  0.93844116051E+03  0.40132285139E+04  0.39019650553E+04 0.  0.
        2    1    3    3  502    0 -0.62611121872E+03 -0.64902248765E+03 -0.13101655912E+04  0.15905280017E+04  0.25500000920E-02 0.  1.
       -2    1    3    3    0  502  0.62611121872E+03  0.64902248765E+03  0.22486067518E+04  0.24227005122E+04  0.25500000920E-02 0. -1.
</event>
<event>
 5   0  0.1164500E-08  0.3897823E+04  0.7818609E-02  0.8025482E-01
        1   -1    0    0  501    0  0.00000000000E+00  0.00000000000E+00  0.19044755808E+04  0.19044755808E+04  0.50400001928E-02 0.  1.
       -1   -1    0    0    0  501  0.00000000000E+00  0.00000000000E+00 -0.19943839663E+04  0.19943839663E+04  0.50400001928E-02 0. -1.
    10030    2    1    2    0    0  0.00000000000E+00  0.00000000000E+00 -0.89908385578E+02  0.38988595471E+04  0.38978227577E+04 0.  0.
        5    1    3    3  502    0  0.56031969912E+03 -0.18513822530E+04  0.19314075979E+03  0.19439392621E+04  0.46999998093E+01 0.  1.
       -5    1    3    3    0  502 -0.56031969912E+03  0.18513822530E+04 -0.28304914537E+03  0.19549202849E+04  0.46999998093E+01 0. -1.
</event>
<event>
 5   0  0.3724293E-08  0.3899992E+04  0.7818609E-02  0.8025031E-01
        2   -1    0    0  501    0  0.00000000000E+00  0.00000000000E+00  0.19182437367E+04  0.19182437367E+04  0.25500000920E-02 0.  1.
       -2   -1    0    0    0  501  0.00000000000E+00  0.00000000000E+00 -0.19822733553E+04  0.19822733553E+04  0.25500000920E-02 0. -1.
    10030    2    1    2    0    0  0.00000000000E+00  0.00000000000E+00 -0.64029618628E+02  0.39005170920E+04  0.38999915119E+04 0.  0.
        4    1    3    3  502    0 -0.32715706720E+03 -0.13221419252E+04 -0.14276923264E+04  0.19731695337E+04  0.12699999809E+01 0. -1.
       -4    1    3    3    0  502  0.32715706720E+03  0.13221419252E+04  0.13636627078E+04  0.19273475583E+04  0.12699999809E+01 0.  1.
</event>
<event>
 5   0  0.1164500E-08  0.3898485E+04  0.7818609E-02  0.8025344E-01
       -1   -1    0    0    0  501  0.00000000000E+00  0.00000000000E+00  0.24717546548E+04  0.24717546548E+04  0.50400001928E-02 0.  1.
        1   -1    0    0  501    0  0.00000000000E+00  0.00000000000E+00 -0.15371855662E+04  0.15371855662E+04  0.50400001928E-02 0. -1.
    10030    2    1    2    0    0  0.00000000000E+00  0.00000000000E+00  0.93456908866E+03  0.40089402210E+04  0.38984846176E+04 0.  0.
        1    1    3    3  502    0 -0.36532370110E+03  0.18754946521E+04  0.86369853959E+03  0.20968826300E+04  0.50400001928E-02 0.  1.
       -1    1    3    3    0  502  0.36532370110E+03 -0.18754946521E+04  0.70870549065E+02  0.19120575910E+04  0.50400001928E-02 0. -1.
</event>
<event>
 5   0  0.1164500E-08  0.3899876E+04  0.7818609E-02  0.8025055E-01
        1   -1    0    0  501    0  0.00000000000E+00  0.00000000000E+00  0.10269639073E+04  0.10269639073E+04  0.50400001928E-02 0. -1.
       -1   -1    0    0    0  501  0.00000000000E+00  0.00000000000E+00 -0.37024268252E+04  0.37024268252E+04  0.50400001928E-02 0.  1.
    10030    2    1    2    0    0  0.00000000000E+00  0.00000000000E+00 -0.26754629179E+04  0.47293907325E+04  0.38998762641E+04 0.  0.
        5    1    3    3  502    0  0.98522797673E+03  0.11008015961E+04 -0.28811540002E+04  0.32378246992E+04  0.46999998093E+01 0.  1.
       -5    1    3    3    0  502 -0.98522797673E+03 -0.11008015961E+04  0.20569108229E+03  0.14915660332E+04  0.46999998093E+01 0. -1.
</event>
<event>
 5   0  0.1164500E-08  0.3876141E+04  0.7818609E-02  0.8030010E-01
        1   -1    0    0  501    0  0.00000000000E+00  0.00000000000E+00  0.15439189452E+04  0.15439189452E+04  0.50400001928E-02 0. -1.
       -1   -1    0    0    0  501  0.00000000000E+00  0.00000000000E+00 -0.24328459409E+04  0.24328459409E+04  0.50400001928E-02 0.  1.
    10030    2    1    2    0    0  0.00000000000E+00  0.00000000000E+00 -0.88892699565E+03  0.39767648861E+04  0.38761408328E+04 0.  0.
        1    1    3    3  502    0 -0.63339586669E+03 -0.54963106643E+03  0.13481301034E+04  0.15876836615E+04  0.50400001928E-02 0. -1.
       -1    1    3    3    0  502  0.63339586669E+03  0.54963106643E+03 -0.22370570991E+04  0.23890812246E+04  0.50400001928E-02 0.  1.
</event>
<event>
 5   0  0.1164500E-08  0.3902189E+04  0.7818609E-02  0.8024574E-01
        1   -1    0    0  501    0  0.00000000000E+00  0.00000000000E+00  0.17808239213E+04  0.17808239213E+04  0.50400001928E-02 0.  1.
       -1   -1    0    0    0  501  0.00000000000E+00  0.00000000000E+00 -0.21376448006E+04  0.21376448006E+04  0.50400001928E-02 0. -1.
    10030    2    1    2    0    0  0.00000000000E+00  0.00000000000E+00 -0.35682087932E+03  0.39184687219E+04  0.39021886147E+04 0.  0.
        2    1    3    3  502    0 -0.84772529010E+03  0.15446346797E+04  0.66308006312E+03  0.18826071368E+04  0.25500000920E-02 0.  1.
       -2    1    3    3    0  502  0.84772529010E+03 -0.15446346797E+04 -0.10199009424E+04  0.20358615851E+04  0.25500000920E-02 0. -1.
</event>
<event>
 5   0  0.3669347E-08  0.3850742E+04  0.7818609E-02  0.8035353E-01
        2   -1    0    0  501    0  0.00000000000E+00  0.00000000000E+00  0.24505279868E+04  0.24505279868E+04  0.25500000920E-02 0.  1.
       -2   -1    0    0    0  501  0.00000000000E+00  0.00000000000E+00 -0.15127574391E+04  0.15127574391E+04  0.25500000920E-02 0. -1.
    10030    2    1    2    0    0  0.00000000000E+00  0.00000000000E+00  0.93777054770E+03  0.39632854258E+04  0.38507424955E+04 0.  0.
        5    1    3    3  502    0  0.83752078508E+03  0.78409476153E+02 -0.13136215313E+04  0.15598758697E+04  0.46999998093E+01 0. -1.
       -5    1    3    3    0  502 -0.83752078508E+03 -0.78409476153E+02  0.22513920790E+04  0.24034095562E+04  0.46999998093E+01 0.  1.
</event>
<event>
 5   0  0.3724293E-08  0.3899229E+04  0.7818609E-02  0.8025190E-01
        2   -1    0    0  501    0  0.00000000000E+00  0.00000000000E+00  0.22222869550E+04  0.22222869550E+04  0.25500000920E-02 0.  1.
       -2   -1    0    0    0  501  0.00000000000E+00  0.00000000000E+00 -0.17103984768E+04  0.17103984768E+04  0.25500000920E-02 0. -1.
    10030    2    1    2    0    0  0.00000000000E+00  0.00000000000E+00  0.51188847820E+03  0.39326854318E+04  0.38992287560E+04 0.  0.
        4    1    3    3  502    0 -0.16115618037E+04  0.95168307252E+03 -0.29478356090E+03  0.18946585651E+04  0.12699999809E+01 0.  1.
       -4    1    3    3    0  502  0.16115618037E+04 -0.95168307252E+03  0.80667203910E+03  0.20380268667E+04  0.12699999809E+01 0. -1.
</event>
<event>
 5   0  0.1164500E-08  0.3897139E+04  0.7818609E-02  0.8025625E-01
        1   -1    0    0  501    0  0.00000000000E+00  0.00000000000E+00  0.15101609882E+04  0.15101609882E+04  0.50400001928E-02 0.  1.
       -1   -1    0    0    0  501  0.00000000000E+00  0.00000000000E+00 -0.25142501139E+04  0.25142501139E+04  0.50400001928E-02 0. -1.
    10030    2    1    2    0    0  0.00000000000E+00  0.00000000000E+00 -0.10040891257E+04  0.40244111021E+04  0.38971386614E+04 0.  0.
        5    1    3    3  502    0 -0.51125192828E+03 -0.74632716928E+03  0.12801559450E+04  0.15675471640E+04  0.46999998093E+01 0.  1.
       -5    1    3    3    0  502  0.51125192828E+03  0.74632716928E+03 -0.22842450707E+04  0.24568639381E+04  0.46999998093E+01 0. -1.
</event>
<event>
 5   0  0.1164500E-08  0.3896887E+04  0.7818609E-02  0.8025677E-01
       -1   -1    0    0    0  501  0.00000000000E+00  0.00000000000E+00  0.15612773402E+04  0.15612773402E+04  0.50400001928E-02 0. -1.
        1   -1    0    0  501    0  0.00000000000E+00  0.00000000000E+00 -0.24316190678E+04  0.24316190678E+04  0.50400001928E-02 0.  1.
    10030    2    1    2    0    0  0.00000000000E+00  0.00000000000E+00 -0.87034172759E+03  0.39928964080E+04  0.38968868347E+04 0.  0.
        2    1    3    3  502    0 -0.11845424970E+03 -0.16486952282E+04 -0.14921898084E+04  0.22268492964E+04  0.25500000920E-02 0. -1.
       -2    1    3    3    0  502  0.11845424970E+03  0.16486952282E+04  0.62184808082E+03  0.17660471116E+04  0.25500000920E-02 0.  1.
</event>
<event>
 5   0  0.3724293E-08  0.3920109E+04  0.7818609E-02  0.8020860E-01
        2   -1    0    0  501    0  0.00000000000E+00  0.00000000000E+00  0.23646431829E+04  0.23646431829E+04  0.25500000920E-02 0. -1.
       -2   -1    0    0    0  501  0.00000000000E+00  0.00000000000E+00 -0.16246903121E+04  0.16246903121E+04  0.25500000920E-02 0.  1.
    10030    2    1    2    0    0  0.00000000000E+00  0.00000000000E+00  0.73995287078E+03  0.39893334951E+04  0.39201086061E+04 0.  0.
        4    1    3    3  502    0  0.14311245311E+04 -0.45096179858E+03  0.16533275732E+04  0.22327063498E+04  0.12699999809E+01 0. -1.
       -4    1    3    3    0  502 -0.14311245311E+04  0.45096179858E+03 -0.91337470243E+03  0.17566271452E+04  0.12699999809E+01 0.  1.
</event>
<event>
 5   0  0.1164500E-08  0.3902663E+04  0.7818609E-02  0.8024476E-01
       -1   -1    0    0    0  501  0.00000000000E+00  0.00000000000E+00  0.16907532906E+04  0.16907532906E+04  0.50400001928E-02 0. -1.
        1   -1    0    0  501    0  0.00000000000E+00  0.00000000000E+00 -0.22520696602E+04  0.22520696602E+04  0.50400001928E-02 0.  1.
    10030    2    1    2    0    0  0.00000000000E+00  0.00000000000E+00 -0.56131636959E+03  0.39428229508E+04  0.39026627775E+04 0.  0.
        1    1    3    3  502    0  0.67061349031E+03 -0.49682242181E+03 -0.20626510967E+04  0.22251032603E+04  0.50400001928E-02 0.  1.
       -1    1    3    3    0  502 -0.67061349031E+03  0.49682242181E+03  0.15013347271E+04  0.17177196905E+04  0.50400001928E-02 0. -1.
</event>
<event>
 5   0  0.3769985E-08  0.3902183E+04  0.7818609E-02  0.8024575E-01
       -2   -1    0    0    0  501  0.00000000000E+00  0.00000000000E+00  0.18268799938E+04  0.18268799938E+04  0.25500000920E-02 0.  1.
        2   -1    0    0  501    0  0.00000000000E+00  0.00000000000E+00 -0.20837484894E+04  0.20837484894E+04  0.25500000920E-02 0. -1.
    10030    2    1    2    0    0  0.00000000000E+00  0.00000000000E+00 -0.25686849561E+03  0.39106284833E+04  0.39021831979E+04 0.  0.
        1    1    3    3  502    0  0.37816858917E+03 -0.18630919571E+04 -0.56828652719E+03  0.19842058108E+04  0.50400001928E-02 0. -1.
       -1    1    3    3    0  502 -0.37816858917E+03  0.18630919571E+04  0.31141803158E+03  0.19264226725E+04  0.50400001928E-02 0.  1.
</event>
<event>
 5   0  0.1164500E-08  0.3895035E+04  0.7818609E-02  0.8026063E-01
        1   -1    0    0  501    0  0.00000000000E+00  0.00000000000E+00  0.25165780984E+04  0.25165780984E+04  0.50400001928E-02 0. -1.
       -1   -1    0    0    0  501  0.00000000000E+00  0.00000000000E+00 -0.15071352611E+04  0.15071352611E+04  0.50400001928E-02 0.  1.
    10030    2    1    2    0    0  0.00000000000E+00  0.00000000000E+00  0.10094428372E+04  0.40237133595E+04  0.38950345772E+04 0.  0.
        1    1    3    3  502    0  0.75805912553E+03 -0.88477954300E+03 -0.11073901064E+04  0.16074207057E+04  0.50400001928E-02 0.  1.
       -1    1    3    3    0  502 -0.75805912553E+03  0.88477954300E+03  0.21168329436E+04  0.24162926538E+04  0.50400001928E-02 0. -1.
</event>
<event>
 5   0  0.1164500E-08  0.3902486E+04  0.7818609E-02  0.8024512E-01
        1   -1    0    0  501    0  0.00000000000E+00  0.00000000000E+00  0.26521036296E+04  0.26521036296E+04  0.50400001928E-02 0. -1.
       -1   -1    0    0    0  501  0.00000000000E+00  0.00000000000E+00 -0.14355958830E+04  0.14355958831E+04  0.50400001928E-02 0.  1.
    10030    2    1    2    0    0  0.00000000000E+00  0.00000000000E+00  0.12165077465E+04  0.40876995126E+04  0.39024859011E+04 0.  0.
        1    1    3    3  502    0 -0.18966715579E+03  0.26606705562E+03 -0.14067354017E+04  0.14441848214E+04  0.50400001928E-02 0.  1.
       -1    1    3    3    0  502  0.18966715579E+03 -0.26606705562E+03  0.26232431482E+04  0.26435146912E+04  0.50400001928E-02 0. -1.
</event>
<event>
 5   0  0.3669347E-08  0.3899112E+04  0.7818609E-02  0.8025214E-01
       -2   -1    0    0    0  501  0.00000000000E+00  0.00000000000E+00  0.19323473591E+04  0.19323473591E+04  0.25500000920E-02 0. -1.
        2   -1    0    0  501    0  0.00000000000E+00  0.00000000000E+00 -0.19669175991E+04  0.19669175991E+04  0.25500000920E-02 0.  1.
    10030    2    1    2    0    0  0.00000000000E+00  0.00000000000E+00 -0.34570240011E+02  0.38992649582E+04  0.38991117082E+04 0.  0.
        5    1    3    3  502    0  0.19075397270E+04 -0.82473202006E+02  0.37673074517E+03  0.19461391994E+04  0.46999998093E+01 0.  1.
       -5    1    3    3    0  502 -0.19075397270E+04  0.82473202006E+02 -0.41130098518E+03  0.19531257588E+04  0.46999998093E+01 0. -1.
</event>
<event>
 5   0  0.3690572E-08  0.3900709E+04  0.7818609E-02  0.8024882E-01
        2   -1    0    0  501    0  0.00000000000E+00  0.00000000000E+00  0.18381109820E+04  0.18381109821E+04  0.25500000920E-02 0. -1.
       -2   -1    0    0    0  501  0.00000000000E+00  0.00000000000E+00 -0.20694516045E+04  0.20694516045E+04  0.25500000920E-02 0.  1.
    10030    2    1    2    0    0  0.00000000000E+00  0.00000000000E+00 -0.23134062249E+03  0.39075625866E+04  0.39007085106E+04 0.  0.
        3    1    3    3  502    0 -0.13114097582E+04  0.18553175218E+03  0.13185101280E+04  0.18688730703E+04  0.10100000352E+00 0. -1.
       -3    1    3    3    0  502  0.13114097582E+04 -0.18553175218E+03 -0.15498507505E+04  0.20386895163E+04  0.10100000352E+00 0.  1.
</event>
<event>
 5   0  0.3724293E-08  0.3906166E+04  0.7818609E-02  0.8023748E-01
       -2   -1    0    0    0  501  0.00000000000E+00  0.00000000000E+00  0.16743303265E+04  0.16743303265E+04  0.25500000920E-02 0. -1.
        2   -1    0    0  501    0  0.00000000000E+00  0.00000000000E+00 -0.22782438432E+04  0.22782438432E+04  0.25500000920E-02 0.  1.
    10030    2    1    2    0    0  0.00000000000E+00  0.00000000000E+00 -0.60391351667E+03  0.39525741697E+04  0.39061657711E+04 0.  0.
        4    1    3    3  502    0 -0.10594802111E+02  0.17528505150E+04  0.56963273290E+03  0.18431169906E+04  0.12699999809E+01 0.  1.
       -4    1    3    3    0  502  0.10594802111E+02 -0.17528505150E+04 -0.11735462496E+04  0.21094571791E+04  0.12699999809E+01 0. -1.
</event>
<event>
 5   0  0.3690572E-08  0.3871895E+04  0.7818609E-02  0.8030900E-01
       -2   -1    0    0    0  501  0.00000000000E+00  0.00000000000E+00  0.16243016093E+04  0.16243016093E+04  0.25500000920E-02 0. -1.
        2   -1    0    0  501    0  0.00000000000E+00  0.00000000000E+00 -0.23073876449E+04  0.23073876449E+04  0.25500000920E-02 0.  1.
    10030    2    1    2    0    0  0.00000000000E+00  0.00000000000E+00 -0.68308603560E+03  0.39316892541E+04  0.38718953833E+04 0.  0.
        3    1    3    3  502    0  0.15101472475E+04 -0.48592074204E+03 -0.14682866866E+04  0.21616034514E+04  0.10100000352E+00 0.  1.
       -3    1    3    3    0  502 -0.15101472475E+04  0.48592074204E+03  0.78520065104E+03  0.17700858028E+04  0.10100000352E+00 0. -1.
</event>
<event>
 5   0  0.3769985E-08  0.3899186E+04  0.7818609E-02  0.8025198E-01
        2   -1    0    0  501    0  0.00000000000E+00  0.00000000000E+00  0.16205390072E+04  0.16205390072E+04  0.25500000920E-02 0.  1.
       -2   -1    0    0    0  501  0.00000000000E+00  0.00000000000E+00 -0.23454625736E+04  0.23454625736E+04  0.25500000920E-02 0. -1.
    10030    2    1    2    0    0  0.00000000000E+00  0.00000000000E+00 -0.72492356638E+03  0.39660015808E+04  0.38991863718E+04 0.  0.
        1    1    3    3  502    0  0.14547576584E+04  0.11284892225E+03 -0.16776220979E+04  0.22233916945E+04  0.50400001928E-02 0. -1.
       -1    1    3    3    0  502 -0.14547576584E+04 -0.11284892225E+03  0.95269853148E+03  0.17426098863E+04  0.50400001928E-02 0.  1.
</event>
<event>
 5   0  0.1164500E-08  0.3902198E+04  0.7818609E-02  0.8024572E-01
        1   -1    0    0  501    0  0.00000000000E+00  0.00000000000E+00  0.18247499453E+04  0.18247499453E+04  0.50400001928E-02 0.  1.
       -1   -1    0    0    0  501  0.00000000000E+00  0.00000000000E+00 -0.20861966504E+04  0.20861966504E+04  0.50400001928E-02 0. -1.
    10030    2    1    2    0    0  0.00000000000E+00  0.00000000000E+00 -0.26144670508E+03  0.39109465957E+04  0.39021979569E+04 0.  0.
        2    1    3    3  502    0  0.28705712781E+03  0.95718578105E+03  0.15487964239E+04  0.18431974329E+04  0.25500000920E-02 0.  1.
       -2    1    3    3    0  502 -0.28705712781E+03 -0.95718578105E+03 -0.18102431290E+04  0.20677491628E+04  0.25500000920E-02 0. -1.
</event>
<event>
 5   0  0.1164500E-08  0.3881516E+04  0.7818609E-02  0.8028885E-01
        1   -1    0    0  501    0  0.00000000000E+00  0.00000000000E+00  0.14023916863E+04  0.14023916863E+04  0.50400001928E-02 0.  1.
       -1   -1    0    0    0  501  0.00000000000E+00  0.00000000000E+00 -0.26857979475E+04  0.26857979475E+04  0.50400001928E-02 0. -1.
    10030    2    1    2    0    0  0.00000000000E+00  0.00000000000E+00 -0.12834062612E+04  0.40881896338E+04  0.38815155353E+04 0.  0.
        4    1    3    3  502    0 -0.14791674122E+04  0.54881555551E+03 -0.18321058211E+04  0.24177981925E+04  0.12699999809E+01 0. -1.
       -4    1    3    3    0  502  0.14791674122E+04 -0.54881555551E+03  0.54869955991E+03  0.16703914413E+04  0.12699999809E+01 0.  1.
</event>
<event>
 5   0  0.3669347E-08  0.3899250E+04  0.7818609E-02  0.8025185E-01
       -2   -1    0    0    0  501  0.00000000000E+00  0.00000000000E+00  0.18696810531E+04  0.18696810531E+04  0.25500000920E-02 0. -1.
        2   -1    0    0  501    0  0.00000000000E+00  0.00000000000E+00 -0.20329867671E+04  0.20329867671E+04  0.25500000920E-02 0.  1.
    10030    2    1    2    0    0  0.00000000000E+00  0.00000000000E+00 -0.16330571399E+03  0.39026678202E+04  0.38992495892E+04 0.  0.
        5    1    3    3  502    0  0.18181853798E+04 -0.38146162235E+02 -0.78495053542E+03  0.19807631454E+04  0.46999998093E+01 0.  1.
       -5    1    3    3    0  502 -0.18181853798E+04  0.38146162235E+02  0.62164482142E+03  0.19219046748E+04  0.46999998093E+01 0. -1.
</event>
<event>
 5   0  0.1164500E-08  0.3873443E+04  0.7818609E-02  0.8030575E-01
        1   -1    0    0  501    0  0.00000000000E+00  0.00000000000E+00  0.17083014977E+04  0.17083014977E+04  0.50400001928E-02 0. -1.
       -1   -1    0    0    0  501  0.00000000000E+00  0.00000000000E+00 -0.21956840550E+04  0.21956840550E+04  0.50400001928E-02 0.  1.
    10030    2    1    2    0    0  0.00000000000E+00  0.00000000000E+00 -0.48738255730E+03  0.39039855527E+04  0.38734430987E+04 0.  0.
        1    1    3    3  502    0 -0.20555867548E+03 -0.24346940647E+03 -0.21690838598E+04  0.21923632253E+04  0.50400001928E-02 0.  1.
       -1    1    3    3    0  502  0.20555867548E+03  0.24346940647E+03  0.16817013025E+04  0.17116223274E+04  0.50400001928E-02 0. -1.
</event>
<event>
 5   0  0.1164500E-08  0.3875323E+04  0.7818609E-02  0.8030181E-01
        1   -1    0    0  501    0  0.00000000000E+00  0.00000000000E+00  0.22617325219E+04  0.22617325220E+04  0.50400001928E-02 0. -1.
       -1   -1    0    0    0  501  0.00000000000E+00  0.00000000000E+00 -0.16600245576E+04  0.16600245576E+04  0.50400001928E-02 0.  1.
    10030    2    1    2    0    0  0.00000000000E+00  0.00000000000E+00  0.60170796435E+03  0.39217570796E+04  0.38753227113E+04 0.  0.
        4    1    3    3  502    0 -0.83235638421E+03 -0.16947082691E+04 -0.13988325942E+03  0.18932570367E+04  0.12699999809E+01 0.  1.
       -4    1    3    3    0  502  0.83235638421E+03  0.16947082691E+04  0.74159122377E+03  0.20285000429E+04  0.12699999809E+01 0. -1.
</event>
<event>
 5   0  0.1164500E-08  0.3899272E+04  0.7818609E-02  0.8025181E-01
        1   -1    0    0  501    0  0.00000000000E+00  0.00000000000E+00  0.27485062229E+04  0.27485062229E+04  0.50400001928E-02 0.  1.
       -1   -1    0    0    0  501  0.00000000000E+00  0.00000000000E+00 -0.13829625096E+04  0.13829625096E+04  0.50400001928E-02 0. -1.
    10030    2    1    2    0    0  0.00000000000E+00  0.00000000000E+00  0.13655437133E+04  0.41314687325E+04  0.38992722725E+04 0.  0.
        5    1    3    3  502    0 -0.19093206215E+04 -0.23609158556E+03  0.10175196553E+04  0.21763760730E+04  0.46999998093E+01 0.  1.
       -5    1    3    3    0  502  0.19093206215E+04  0.23609158556E+03  0.34802405800E+03  0.19550926595E+04  0.46999998093E+01 0. -1.
</event>
<event>
 5   0  0.3724293E-08  0.3907150E+04  0.7818609E-02  0.8023544E-01
       -2   -1    0    0    0  501  0.00000000000E+00  0.00000000000E+00  0.24133632902E+04  0.24133632902E+04  0.25500000920E-02 0.  1.
        2   -1    0    0  501    0  0.00000000000E+00  0.00000000000E+00 -0.15813841871E+04  0.15813841871E+04  0.25500000920E-02 0. -1.
    10030    2    1    2    0    0  0.00000000000E+00  0.00000000000E+00  0.83197910314E+03  0.39947474773E+04  0.39071496233E+04 0.  0.
        4    1    3    3  502    0 -0.82544868275E+03 -0.15917793504E+04 -0.37684806031E+03  0.18322508294E+04  0.12699999809E+01 0.  1.
       -4    1    3    3    0  502  0.82544868275E+03  0.15917793504E+04  0.12088271635E+04  0.21624966479E+04  0.12699999809E+01 0. -1.
</event>
<event>
 5   0  0.1164500E-08  0.3898721E+04  0.7818609E-02  0.8025295E-01
        1   -1    0    0  501    0  0.00000000000E+00  0.00000000000E+00  0.23432208959E+04  0.23432208959E+04  0.50400001928E-02 0. -1.
       -1   -1    0    0    0  501  0.00000000000E+00  0.00000000000E+00 -0.16217023656E+04  0.16217023657E+04  0.50400001928E-02 0.  1.
    10030    2    1    2    0    0  0.00000000000E+00  0.00000000000E+00  0.72151853022E+03  0.39649232615E+04  0.38987212622E+04 0.  0.
        1    1    3    3  502    0 -0.10734527100E+04  0.13159120578E+03 -0.12886281029E+04  0.16823136907E+04  0.50400001928E-02 0.  1.
       -1    1    3    3    0  502  0.10734527100E+04 -0.13159120578E+03  0.20101466331E+04  0.22826095708E+04  0.50400001928E-02 0. -1.
</event>
<event>
 5   0  0.3872969E-08  0.3894449E+04  0.7818609E-02  0.8026185E-01
       -2   -1    0    0    0  501  0.00000000000E+00  0.00000000000E+00  0.19849907017E+04  0.19849907017E+04  0.25500000920E-02 0. -1.
        2   -1    0    0  501    0  0.00000000000E+00  0.00000000000E+00 -0.19101768468E+04  0.19101768468E+04  0.25500000920E-02 0.  1.
    10030    2    1    2    0    0  0.00000000000E+00  0.00000000000E+00  0.74813854916E+02  0.38951675484E+04  0.38944490133E+04 0.  0.
        2    1    3    3  502    0 -0.18645994325E+04 -0.94082199817E+01  0.59863764476E+03  0.19583632421E+04  0.25500000920E-02 0. -1.
       -2    1    3    3    0  502  0.18645994325E+04  0.94082199817E+01 -0.52382378985E+03  0.19368043063E+04  0.25500000920E-02 0.  1.
</event>
<event>
 5   0  0.3669347E-08  0.3865844E+04  0.7818609E-02  0.8032171E-01
       -2   -1    0    0    0  501  0.00000000000E+00  0.00000000000E+00  0.14959813499E+04  0.14959813499E+04  0.25500000920E-02 0. -1.
        2   -1    0    0  501    0  0.00000000000E+00  0.00000000000E+00 -0.24974825883E+04  0.24974825883E+04  0.25500000920E-02 0.  1.
    10030    2    1    2    0    0  0.00000000000E+00  0.00000000000E+00 -0.10015012385E+04  0.39934639382E+04  0.38658439564E+04 0.  0.
        5    1    3    3  502    0 -0.13102808883E+04 -0.12262574080E+04 -0.12425239013E+04  0.21827576531E+04  0.46999998093E+01 0.  1.
       -5    1    3    3    0  502  0.13102808883E+04  0.12262574080E+04  0.24102266284E+03  0.18107062851E+04  0.46999998093E+01 0. -1.
</event>
<event>
 5   0  0.1164500E-08  0.3894728E+04  0.7818609E-02  0.8026126E-01
        1   -1    0    0  501    0  0.00000000000E+00  0.00000000000E+00  0.22881474819E+04  0.22881474819E+04  0.50400001928E-02 0.  1.
       -1   -1    0    0    0  501  0.00000000000E+00  0.00000000000E+00 -0.16573352349E+04  0.16573352350E+04  0.50400001928E-02 0. -1.
    10030    2    1    2    0    0  0.00000000000E+00  0.00000000000E+00  0.63081224694E+03  0.39454827169E+04  0.38947284601E+04 0.  0.
        3    1    3    3  502    0  0.10139747494E+03  0.44477969318E+03 -0.16024412894E+04  0.16661117968E+04  0.10100000352E+00 0. -1.
       -3    1    3    3    0  502 -0.10139747494E+03 -0.44477969318E+03  0.22332535363E+04  0.22793709200E+04  0.10100000352E+00 0.  1.
</event>
<event>
 5   0  0.1164500E-08  0.3894483E+04  0.7818609E-02  0.8026178E-01
       -1   -1    0    0    0  501  0.00000000000E+00  0.00000000000E+00  0.23685263384E+04  0.23685263384E+04  0.50400001928E-02 0. -1.
        1   -1    0    0  501    0  0.00000000000E+00  0.00000000000E+00 -0.16008894087E+04  0.16008894087E+04  0.50400001928E-02 0.  1.
    10030    2    1    2    0    0  0.00000000000E+00  0.00000000000E+00  0.76763692968E+03  0.39694157471E+04  0.38944826251E+04 0.  0.
        5    1    3    3  502    0  0.17449742503E+04  0.40010436149E+03 -0.39688808774E+03  0.18337286819E+04  0.46999998093E+01 0.  1.
       -5    1    3    3    0  502 -0.17449742503E+04 -0.40010436149E+03  0.11645250174E+04  0.21356870652E+04  0.46999998093E+01 0. -1.
</event>
<event>
 5   0  0.3872969E-08  0.3901494E+04  0.7818609E-02  0.8024718E-01
        2   -1    0    0  501    0  0.00000000000E+00  0.00000000000E+00  0.28499943852E+04  0.28499943852E+04  0.25500000920E-02 0.  1.
       -2   -1    0    0    0  501  0.00000000000E+00  0.00000000000E+00 -0.13352358196E+04  0.13352358196E+04  0.25500000920E-02 0. -1.
    10030    2    1    2    0    0  0.00000000000E+00  0.00000000000E+00  0.15147585656E+04  0.41852302048E+04  0.39014943746E+04 0.  0.
        2    1    3    3  502    0  0.47835017091E+03 -0.14326557553E+04  0.20817029094E+04  0.25719269822E+04  0.25500000920E-02 0.  1.
       -2    1    3    3    0  502 -0.47835017091E+03  0.14326557553E+04 -0.56694434378E+03  0.16133032226E+04  0.25500000920E-02 0. -1.
</event>
<event>
 5   0  0.1164500E-08  0.3897477E+04  0.7818609E-02  0.8025554E-01
        1   -1    0    0  501    0  0.00000000000E+00  0.00000000000E+00  0.19131261445E+04  0.19131261445E+04  0.50400001928E-02 0.  1.
       -1   -1    0    0    0  501  0.00000000000E+00  0.00000000000E+00 -0.19850142478E+04  0.19850142478E+04  0.50400001928E-02 0. -1.
    10030    2    1    2    0    0  0.00000000000E+00  0.00000000000E+00 -0.71888103332E+02  0.38981403923E+04  0.38974774686E+04 0.  0.
        4    1    3    3  502    0 -0.87211770925E+03  0.88961123513E+03  0.14628379748E+04  0.19214301970E+04  0.12699999809E+01 0.  1.
       -4    1    3    3    0  502  0.87211770925E+03 -0.88961123513E+03 -0.15347260781E+04  0.19767101953E+04  0.12699999809E+01 0. -1.
</event>
<event>
 5   0  0.3690572E-08  0.3897574E+04  0.7818609E-02  0.8025534E-01
        2   -1    0    0  501    0  0.00000000000E+00  0.00000000000E+00  0.23341494111E+04  0.23341494111E+04  0.25500000920E-02 0. -1.
       -2   -1    0    0    0  501  0.00000000000E+00  0.00000000000E+00 -0.16270467789E+04  0.16270467789E+04  0.25500000920E-02 0.  1.
    10030    2    1    2    0    0  0.00000000000E+00  0.00000000000E+00  0.70710263220E+03  0.39611961900E+04  0.38975737483E+04 0.  0.
        3    1    3    3  502    0 -0.40121739794E+03  0.14530569242E+03  0.22860849996E+04  0.23255695604E+04  0.10100000352E+00 0. -1.
       -3    1    3    3    0  502  0.40121739794E+03 -0.14530569242E+03 -0.15789823674E+04  0.16356266296E+04  0.10100000352E+00 0.  1.
</event>
<event>
 5   0  0.3669347E-08  0.3898409E+04  0.7818609E-02  0.8025360E-01
       -2   -1    0    0    0  501  0.00000000000E+00  0.00000000000E+00  0.19575339411E+04  0.19575339411E+04  0.25500000920E-02 0. -1.
        2   -1    0    0  501    0  0.00000000000E+00  0.00000000000E+00 -0.19409101067E+04  0.19409101067E+04  0.25500000920E-02 0.  1.
    10030    2    1    2    0    0  0.00000000000E+00  0.00000000000E+00  0.16623834317E+02  0.38984440478E+04  0.38984086038E+04 0.  0.
        5    1    3    3  502    0 -0.62932413636E+03 -0.19990219080E+03 -0.18256528386E+04  0.19414015894E+04  0.46999998093E+01 0.  1.
       -5    1    3    3    0  502  0.62932413636E+03  0.19990219080E+03  0.18422766729E+04  0.19570424584E+04  0.46999998093E+01 0. -1.
</event>
<event>
 5   0  0.3769985E-08  0.3896370E+04  0.7818609E-02  0.8025785E-01
        2   -1    0    0  501    0  0.00000000000E+00  0.00000000000E+00  0.14039333252E+04  0.14039333252E+04  0.25500000920E-02 0. -1.
       -2   -1    0    0    0  501  0.00000000000E+00  0.00000000000E+00 -0.27034220783E+04  0.27034220783E+04  0.25500000920E-02 0.  1.
    10030    2    1    2    0    0  0.00000000000E+00  0.00000000000E+00 -0.12994887531E+04  0.41073554035E+04  0.38963697709E+04 0.  0.
        1    1    3    3  502    0 -0.19188119474E+04 -0.21402091867E+02 -0.29518802477E+03  0.19415028481E+04  0.50400001928E-02 0.  1.
       -1    1    3    3    0  502  0.19188119474E+04  0.21402091867E+02 -0.10043007284E+04  0.21658525555E+04  0.50400001928E-02 0. -1.
</event>
<event>
 5   0  0.1164500E-08  0.3895814E+04  0.7818609E-02  0.8025900E-01
       -1   -1    0    0    0  501  0.00000000000E+00  0.00000000000E+00  0.13441357717E+04  0.13441357717E+04  0.50400001928E-02 0. -1.
        1   -1    0    0  501    0  0.00000000000E+00  0.00000000000E+00 -0.28228860911E+04  0.28228860911E+04  0.50400001928E-02 0.  1.
    10030    2    1    2    0    0  0.00000000000E+00  0.00000000000E+00 -0.14787503194E+04  0.41670218629E+04  0.38958142536E+04 0.  0.
        1    1    3    3  502    0  0.26937774917E+03 -0.78162716992E+03 -0.26259157278E+04  0.27529872528E+04  0.50400001928E-02 0.  1.
       -1    1    3    3    0  502 -0.26937774917E+03  0.78162716992E+03  0.11471654083E+04  0.14140346101E+04  0.50400001928E-02 0. -1.
</event>
<event>
 5   0  0.3769985E-08  0.3893168E+04  0.7818609E-02  0.8026452E-01
       -2   -1    0    0    0  501  0.00000000000E+00  0.00000000000E+00  0.21671093679E+04  0.21671093679E+04  0.25500000920E-02 0. -1.
        2   -1    0    0  501    0  0.00000000000E+00  0.00000000000E+00 -0.17484988928E+04  0.17484988928E+04  0.25500000920E-02 0.  1.
    10030    2    1    2    0    0  0.00000000000E+00  0.00000000000E+00  0.41861047516E+03  0.39156082607E+04  0.38931675178E+04 0.  0.
        1    1    3    3  502    0 -0.18209414755E+02 -0.12045515355E+04  0.17471420651E+04  0.21222114362E+04  0.50400001928E-02 0. -1.
       -1    1    3    3    0  502  0.18209414755E+02  0.12045515355E+04 -0.13285315900E+04  0.17933968244E+04  0.50400001928E-02 0.  1.
</event>
<event>
 5   0  0.1164500E-08  0.3890047E+04  0.7818609E-02  0.8027102E-01
       -1   -1    0    0    0  501  0.00000000000E+00  0.00000000000E+00  0.14845628971E+04  0.14845628971E+04  0.50400001928E-02 0. -1.
        1   -1    0    0  501    0  0.00000000000E+00  0.00000000000E+00 -0.25483035675E+04  0.25483035675E+04  0.50400001928E-02 0.  1.
    10030    2    1    2    0    0  0.00000000000E+00  0.00000000000E+00 -0.10637406704E+04  0.40328664646E+04  0.38900472629E+04 0.  0.
        1    1    3    3  502    0 -0.11010600415E+04 -0.13017079830E+04  0.43862910971E+03  0.17604466433E+04  0.50400001928E-02 0. -1.
       -1    1    3    3    0  502  0.11010600415E+04  0.13017079830E+04 -0.15023697801E+04  0.22724198213E+04  0.50400001928E-02 0.  1.
</event>
<event>
 5   0  0.3724293E-08  0.3899699E+04  0.7818609E-02  0.8025092E-01
        2   -1    0    0  501    0  0.00000000000E+00  0.00000000000E+00  0.18736571259E+04  0.18736571259E+04  0.25500000920E-02 0. -1.
       -2   -1    0    0    0  501  0.00000000000E+00  0.00000000000E+00 -0.20291404780E+04  0.20291404780E+04  0.25500000920E-02 0.  1.
    10030    2    1    2    0    0  0.00000000000E+00  0.00000000000E+00 -0.15548335211E+03  0.39027976040E+04  0.38996992275E+04 0.  0.
        4    1    3    3  502    0 -0.10905148650E+04  0.87573625365E+03 -0.14374142141E+04  0.20055667260E+04  0.12699999809E+01 0.  1.
       -4    1    3    3    0  502  0.10905148650E+04 -0.87573625365E+03  0.12819308619E+04  0.18972308780E+04  0.12699999809E+01 0. -1.
</event>
<event>
 5   0  0.1164500E-08  0.3908372E+04  0.7818609E-02  0.8023290E-01
        1   -1    0    0  501    0  0.00000000000E+00  0.00000000000E+00  0.12597449494E+04  0.12597449495E+04  0.50400001928E-02 0. -1.
       -1   -1    0    0    0  501  0.00000000000E+00  0.00000000000E+00 -0.30314417072E+04  0.30314417072E+04  0.50400001928E-02 0.  1.
    10030    2    1    2    0    0  0.00000000000E+00  0.00000000000E+00 -0.17716967578E+04  0.42911866567E+04  0.39083722342E+04 0.  0.
        1    1    3    3  502    0 -0.88394056035E+03  0.60142494344E+03  0.91015326124E+03  0.14040804236E+04  0.50400001928E-02 0. -1.
       -1    1    3    3    0  502  0.88394056035E+03 -0.60142494344E+03 -0.26818500190E+04  0.28871062331E+04  0.50400001928E-02 0.  1.
</event>
<event>
 5   0  0.3669347E-08  0.3898852E+04  0.7818609E-02  0.8025268E-01
       -2   -1    0    0    0  501  0.00000000000E+00  0.00000000000E+00  0.26561854431E+04  0.26561854431E+04  0.25500000920E-02 0. -1.
        2   -1    0    0  501    0  0.00000000000E+00  0.00000000000E+00 -0.14307218190E+04  0.14307218190E+04  0.25500000920E-02 0.  1.
    10030    2    1    2    0    0  0.00000000000E+00  0.00000000000E+00  0.12254636241E+04  0.40869072622E+04  0.38988523793E+04 0.  0.
        5    1    3    3  502    0 -0.97856045387E+03 -0.63710448914E+02 -0.11533472883E+04  0.15138928762E+04  0.46999998093E+01 0.  1.
       -5    1    3    3    0  502  0.97856045387E+03  0.63710448914E+02  0.23788109124E+04  0.25730143859E+04  0.46999998093E+01 0. -1.
</event>
<event>
 5   0  0.3669347E-08  0.3907221E+04  0.7818609E-02  0.8023529E-01
        2   -1    0    0  501    0  0.00000000000E+00  0.00000000000E+00  0.23291842682E+04  0.23291842682E+04  0.25500000920E-02 0. -1.
       -2   -1    0    0    0  501  0.00000000000E+00  0.00000000000E+00 -0.16385970178E+04  0.16385970178E+04  0.25500000920E-02 0.  1.
    10030    2    1    2    0    0  0.00000000000E+00  0.00000000000E+00  0.69058725035E+03  0.39677812860E+04  0.39072212099E+04 0.  0.
        5    1    3    3  502    0  0.26793462850E+01 -0.15392952575E+04  0.15669084213E+04  0.21965111335E+04  0.46999998093E+01 0. -1.
       -5    1    3    3    0  502 -0.26793462850E+01  0.15392952575E+04 -0.87632117095E+03  0.17712701526E+04  0.46999998093E+01 0.  1.
</event>
<event>
 5   0  0.3872969E-08  0.3900665E+04  0.7818609E-02  0.8024891E-01
       -2   -1    0    0    0  501  0.00000000000E+00  0.00000000000E+00  0.19813797366E+04  0.19813797366E+04  0.25500000920E-02 0.  1.
        2   -1    0    0  501    0  0.00000000000E+00  0.00000000000E+00 -0.19197719003E+04  0.19197719003E+04  0.25500000920E-02 0. -1.
    10030    2    1    2    0    0  0.00000000000E+00  0.00000000000E+00  0.61607836241E+02  0.39011516369E+04  0.39006651444E+04 0.  0.
        2    1    3    3  502    0 -0.14204224040E+04  0.49771076190E+03  0.12713139413E+04  0.19701662229E+04  0.25500000920E-02 0.  1.
       -2    1    3    3    0  502  0.14204224040E+04 -0.49771076190E+03 -0.12097061051E+04  0.19309854140E+04  0.25500000920E-02 0. -1.
</event>
<event>
 5   0  0.3872969E-08  0.3906055E+04  0.7818609E-02  0.8023771E-01
       -2   -1    0    0    0  501  0.00000000000E+00  0.00000000000E+00  0.14796096503E+04  0.14796096503E+04  0.25500000920E-02 0.  1.
        2   -1    0    0  501    0  0.00000000000E+00  0.00000000000E+00 -0.25779213989E+04  0.25779213989E+04  0.25500000920E-02 0. -1.
    10030    2    1    2    0    0  0.00000000000E+00  0.00000000000E+00 -0.10983117486E+04  0.40575310492E+04  0.39060554934E+04 0.  0.
        2    1    3    3  502    0  0.72744958378E+03 -0.15405318148E+04  0.44280866700E+03  0.17602558578E+04  0.25500000920E-02 0.  1.
       -2    1    3    3    0  502 -0.72744958378E+03  0.15405318148E+04 -0.15411204156E+04  0.22972751914E+04  0.25500000920E-02 0. -1.
</event>
<event>
 5   0  0.3769985E-08  0.3891830E+04  0.7818609E-02  0.8026730E-01
        2   -1    0    0  501    0  0.00000000000E+00  0.00000000000E+00  0.13599859012E+04  0.13599859012E+04  0.25500000920E-02 0.  1.
       -2   -1    0    0    0  501  0.00000000000E+00  0.00000000000E+00 -0.27842832630E+04  0.27842832630E+04  0.25500000920E-02 0. -1.
    10030    2    1    2    0    0  0.00000000000E+00  0.00000000000E+00 -0.14242973617E+04  0.41442691642E+04  0.38918304088E+04 0.  0.
        1    1    3    3  502    0 -0.90743837973E+03 -0.69274137531E+03 -0.23901965786E+04  0.26488440329E+04  0.50400001928E-02 0. -1.
       -1    1    3    3    0  502  0.90743837973E+03  0.69274137531E+03  0.96589921689E+03  0.14954251313E+04  0.50400001928E-02 0.  1.
</event>
<event>
 5   0  0.1164500E-08  0.3900046E+04  0.7818609E-02  0.8025020E-01
       -1   -1    0    0    0  501  0.00000000000E+00  0.00000000000E+00  0.27597452812E+04  0.27597452812E+04  0.50400001928E-02 0. -1.
        1   -1    0    0  501    0  0.00000000000E+00  0.00000000000E+00 -0.13778772315E+04  0.13778772315E+04  0.50400001928E-02 0.  1.
    10030    2    1    2    0    0  0.00000000000E+00  0.00000000000E+00  0.13818680497E+04  0.41376225127E+04  0.39000462498E+04 0.  0.
        5    1    3    3  502    0 -0.18909146471E+04 -0.33038707995E+03  0.32672242412E+03  0.19471731966E+04  0.46999998093E+01 0. -1.
       -5    1    3    3    0  502  0.18909146471E+04  0.33038707995E+03  0.10551456256E+04  0.21904493161E+04  0.46999998093E+01 0.  1.
</event>
<event>
 5   0  0.1164500E-08  0.3838110E+04  0.7818609E-02  0.8038026E-01
       -1   -1    0    0    0  501  0.00000000000E+00  0.00000000000E+00  0.13923167569E+04  0.13923167570E+04  0.50400001928E-02 0. -1.
        1   -1    0    0  501    0  0.00000000000E+00  0.00000000000E+00 -0.26450674794E+04  0.26450674794E+04  0.50400001928E-02 0.  1.
    10030    2    1    2    0    0  0.00000000000E+00  0.00000000000E+00 -0.12527507225E+04  0.40373842364E+04  0.38381098342E+04 0.  0.
        3    1    3    3  502    0 -0.16308486337E+04  0.94397381726E+03 -0.24416791365E+03  0.19000978433E+04  0.10100000352E+00 0. -1.
       -3    1    3    3    0  502  0.16308486337E+04 -0.94397381726E+03 -0.10085828088E+04  0.21372863931E+04  0.10100000352E+00 0.  1.
</event>
<event>
 5   0  0.3690572E-08  0.3893863E+04  0.7818609E-02  0.8026307E-01
        2   -1    0    0  501    0  0.00000000000E+00  0.00000000000E+00  0.12848157356E+04  0.12848157356E+04  0.25500000920E-02 0. -1.
       -2   -1    0    0    0  501  0.00000000000E+00  0.00000000000E+00 -0.29502611295E+04  0.29502611295E+04  0.25500000920E-02 0.  1.
    10030    2    1    2    0    0  0.00000000000E+00  0.00000000000E+00 -0.16654453940E+04  0.42350768651E+04  0.38938628241E+04 0.  0.
        3    1    3    3  502    0 -0.13343435803E+04 -0.69832891245E+03  0.50925677227E+03  0.15898045573E+04  0.10100000352E+00 0. -1.
       -3    1    3    3    0  502  0.13343435803E+04  0.69832891245E+03 -0.21747021662E+04  0.26452723078E+04  0.10100000352E+00 0.  1.
</event>
<event>
 5   0  0.1164500E-08  0.3894743E+04  0.7818609E-02  0.8026123E-01
       -1   -1    0    0    0  501  0.00000000000E+00  0.00000000000E+00  0.15147058911E+04  0.15147058911E+04  0.50400001928E-02 0.  1.
        1   -1    0    0  501    0  0.00000000000E+00  0.00000000000E+00 -0.25036249278E+04  0.25036249278E+04  0.50400001928E-02 0. -1.
    10030    2    1    2    0    0  0.00000000000E+00  0.00000000000E+00 -0.98891903667E+03  0.40183308189E+04  0.38947428296E+04 0.  0.
        1    1    3    3  502    0 -0.61802635678E+03  0.12628661470E+04 -0.18846080147E+04  0.23512836605E+04  0.50400001928E-02 0. -1.
       -1    1    3    3    0  502  0.61802635678E+03 -0.12628661470E+04  0.89568897804E+03  0.16670471584E+04  0.50400001928E-02 0.  1.
</event>
<event>
 5   0  0.3872969E-08  0.3895677E+04  0.7818609E-02  0.8025929E-01
        2   -1    0    0  501    0  0.00000000000E+00  0.00000000000E+00  0.20164349091E+04  0.20164349091E+04  0.25500000920E-02 0.  1.
       -2   -1    0    0    0  501  0.00000000000E+00  0.00000000000E+00 -0.18815761176E+04  0.18815761176E+04  0.25500000920E-02 0. -1.
    10030    2    1    2    0    0  0.00000000000E+00  0.00000000000E+00  0.13485879151E+03  0.38980110268E+04  0.38956774855E+04 0.  0.
        2    1    3    3  502    0  0.13875171367E+04  0.11160155779E+04 -0.72258847562E+03  0.19216734061E+04  0.25500000920E-02 0. -1.
       -2    1    3    3    0  502 -0.13875171367E+04 -0.11160155779E+04  0.85744726713E+03  0.19763376206E+04  0.25500000920E-02 0.  1.
</event>
<event>
 5   0  0.1164500E-08  0.3896103E+04  0.7818609E-02  0.8025840E-01
        1   -1    0    0  501    0  0.00000000000E+00  0.00000000000E+00  0.23249926075E+04  0.23249926075E+04  0.50400001928E-02 0. -1.
       -1   -1    0    0    0  501  0.00000000000E+00  0.00000000000E+00 -0.16322221513E+04  0.16322221513E+04  0.50400001928E-02 0.  1.
    10030    2    1    2    0    0  0.00000000000E+00  0.00000000000E+00  0.69277045621E+03  0.39572147588E+04  0.38961028917E+04 0.  0.
        4    1    3    3  502    0 -0.19362576761E+03  0.86069849580E+03  0.21104672931E+04  0.22874366979E+04  0.12699999809E+01 0. -1.
       -4    1    3    3    0  502  0.19362576761E+03 -0.86069849580E+03 -0.14176968369E+04  0.16697780610E+04  0.12699999809E+01 0.  1.
</event>
<event>
 5   0  0.1164500E-08  0.3903730E+04  0.7818609E-02  0.8024254E-01
       -1   -1    0    0    0  501  0.00000000000E+00  0.00000000000E+00  0.16289019102E+04  0.16289019102E+04  0.50400001928E-02 0.  1.
        1   -1    0    0  501    0  0.00000000000E+00  0.00000000000E+00 -0.23388621839E+04  0.23388621839E+04  0.50400001928E-02 0. -1.
    10030    2    1    2    0    0  0.00000000000E+00  0.00000000000E+00 -0.70996027373E+03  0.39677640941E+04  0.39037300516E+04 0.  0.
        1    1    3    3  502    0 -0.74695030170E+03 -0.11855799099E+04  0.10260731926E+04  0.17367673052E+04  0.50400001928E-02 0.  1.
       -1    1    3    3    0  502  0.74695030170E+03  0.11855799099E+04 -0.17360334663E+04  0.22309967889E+04  0.50400001928E-02 0. -1.
</event>
<event>
 5   0  0.1164500E-08  0.3895825E+04  0.7818609E-02  0.8025898E-01
       -1   -1    0    0    0  501  0.00000000000E+00  0.00000000000E+00  0.24369641162E+04  0.24369641163E+04  0.50400001928E-02 0. -1.
        1   -1    0    0  501    0  0.00000000000E+00  0.00000000000E+00 -0.15570040492E+04  0.15570040492E+04  0.50400001928E-02 0.  1.
    10030    2    1    2    0    0  0.00000000000E+00  0.00000000000E+00  0.87996006709E+03  0.39939681654E+04  0.38958249430E+04 0.  0.
        2    1    3    3  502    0 -0.16096132112E+04 -0.98209751566E+03 -0.61204375630E+02  0.18865620042E+04  0.25500000920E-02 0.  1.
       -2    1    3    3    0  502  0.16096132112E+04  0.98209751566E+03  0.94116444272E+03  0.21074061612E+04  0.25500000920E-02 0. -1.
</event>
<event>
 5   0  0.1164500E-08  0.3901251E+04  0.7818609E-02  0.8024769E-01
       -1   -1    0    0    0  501  0.00000000000E+00  0.00000000000E+00  0.20124381878E+04  0.20124381878E+04  0.50400001928E-02 0. -1.
        1   -1    0    0  501    0  0.00000000000E+00  0.00000000000E+00 -0.18907115762E+04  0.18907115762E+04  0.50400001928E-02 0.  1.
    10030    2    1    2    0    0  0.00000000000E+00  0.00000000000E+00  0.12172661154E+03  0.39031497640E+04  0.39012511727E+04 0.  0.
        5    1    3    3  502    0  0.59490019551E+03 -0.17258561352E+04 -0.62680840944E+03  0.19301286263E+04  0.46999998093E+01 0.  1.
       -5    1    3    3    0  502 -0.59490019551E+03  0.17258561352E+04  0.74853502098E+03  0.19730211377E+04  0.46999998093E+01 0. -1.
</event>
<event>
 5   0  0.3724293E-08  0.3894433E+04  0.7818609E-02  0.8026188E-01
        2   -1    0    0  501    0  0.00000000000E+00  0.00000000000E+00  0.20635959900E+04  0.20635959900E+04  0.25500000920E-02 0.  1.
       -2   -1    0    0    0  501  0.00000000000E+00  0.00000000000E+00 -0.18374000923E+04  0.18374000923E+04  0.25500000920E-02 0. -1.
    10030    2    1    2    0    0  0.00000000000E+00  0.00000000000E+00  0.22619589772E+03  0.39009960823E+04  0.38944326737E+04 0.  0.
        4    1    3    3  502    0 -0.66013991552E+03 -0.17678321625E+04 -0.36795572090E+03  0.19226045585E+04  0.12699999809E+01 0. -1.
       -4    1    3    3    0  502  0.66013991552E+03  0.17678321625E+04  0.59415161862E+03  0.19783915239E+04  0.12699999809E+01 0.  1.
</event>
<event>
 5   0  0.3724293E-08  0.3900128E+04  0.7818609E-02  0.8025003E-01
       -2   -1    0    0    0  501  0.00000000000E+00  0.00000000000E+00  0.17778937243E+04  0.17778937243E+04  0.25500000920E-02 0.  1.
        2   -1    0    0  501    0  0.00000000000E+00  0.00000000000E+00 -0.21389075542E+04  0.21389075542E+04  0.25500000920E-02 0. -1.
    10030    2    1    2    0    0  0.00000000000E+00  0.00000000000E+00 -0.36101382985E+03  0.39168012785E+04  0.39001283658E+04 0.  0.
        4    1    3    3  502    0 -0.32147269044E+03  0.16072253879E+03  0.17443432615E+04  0.17809860898E+04  0.12699999809E+01 0.  1.
       -4    1    3    3    0  502  0.32147269044E+03 -0.16072253879E+03 -0.21053570914E+04  0.21358151887E+04  0.12699999809E+01 0. -1.
</event>
<event>
 5   0  0.1164500E-08  0.3906432E+04  0.7818609E-02  0.8023693E-01
       -1   -1    0    0    0  501  0.00000000000E+00  0.00000000000E+00  0.14477955186E+04  0.14477955187E+04  0.50400001928E-02 0. -1.
        1   -1    0    0  501    0  0.00000000000E+00  0.00000000000E+00 -0.26350776930E+04  0.26350776930E+04  0.50400001928E-02 0.  1.
    10030    2    1    2    0    0  0.00000000000E+00  0.00000000000E+00 -0.11872821743E+04  0.40828732116E+04  0.39064324774E+04 0.  0.
        2    1    3    3  502    0 -0.12215340977E+04  0.97975393663E+03  0.62656155706E+03  0.16866068638E+04  0.25500000920E-02 0. -1.
       -2    1    3    3    0  502  0.12215340977E+04 -0.97975393663E+03 -0.18138437314E+04  0.23962663479E+04  0.25500000920E-02 0.  1.
</event>
<event>
 5   0  0.3724293E-08  0.3896793E+04  0.7818609E-02  0.8025696E-01
        2   -1    0    0  501    0  0.00000000000E+00  0.00000000000E+00  0.20755436834E+04  0.20755436835E+04  0.25500000920E-02 0.  1.
       -2   -1    0    0    0  501  0.00000000000E+00  0.00000000000E+00 -0.18290385753E+04  0.18290385753E+04  0.25500000920E-02 0. -1.
    10030    2    1    2    0    0  0.00000000000E+00  0.00000000000E+00  0.24650510813E+03  0.39045822588E+04  0.38967932774E+04 0.  0.
        4    1    3    3  502    0  0.10212356992E+04 -0.14429867843E+04  0.94410588422E+03  0.20041134565E+04  0.12699999809E+01 0. -1.
       -4    1    3    3    0  502 -0.10212356992E+04  0.14429867843E+04 -0.69760077609E+03  0.19004688023E+04  0.12699999809E+01 0.  1.
</event>
<event>
 5   0  0.3769985E-08  0.3898906E+04  0.7818609E-02  0.8025257E-01
       -2   -1    0    0    0  501  0.00000000000E+00  0.00000000000E+00  0.24379574256E+04  0.24379574256E+04  0.25500000920E-02 0.  1.
        2   -1    0    0  501    0  0.00000000000E+00  0.00000000000E+00 -0.15588325718E+04  0.15588325718E+04  0.25500000920E-02 0. -1.
    10030    2    1    2    0    0  0.00000000000E+00  0.00000000000E+00  0.87912485381E+03  0.39967899974E+04  0.38989062280E+04 0.  0.
        1    1    3    3  502    0  0.19035021515E+04 -0.36812872823E+03  0.64846332851E+03  0.20443443667E+04  0.50400001928E-02 0.  1.
       -1    1    3    3    0  502 -0.19035021515E+04  0.36812872823E+03  0.23066152530E+03  0.19524456307E+04  0.50400001928E-02 0. -1.
</event>
<event>
 5   0  0.3724293E-08  0.3929951E+04  0.7818609E-02  0.8018829E-01
        2   -1    0    0  501    0  0.00000000000E+00  0.00000000000E+00  0.29975956358E+04  0.29975956358E+04  0.25500000920E-02 0. -1.
       -2   -1    0    0    0  501  0.00000000000E+00  0.00000000000E+00 -0.12880749584E+04  0.12880749584E+04  0.25500000920E-02 0.  1.
    10030    2    1    2    0    0  0.00000000000E+00  0.00000000000E+00  0.17095206773E+04  0.42856705942E+04  0.39299505717E+04 0.  0.
        4    1    3    3  502    0 -0.56918448990E+03  0.82078990403E+03  0.27001037544E+04  0.28789284374E+04  0.12699999809E+01 0. -1.
       -4    1    3    3    0  502  0.56918448990E+03 -0.82078990403E+03 -0.99058307711E+03  0.14067421568E+04  0.12699999809E+01 0.  1.
</event>
<event>
 5   0  0.1164500E-08  0.3906247E+04  0.7818609E-02  0.8023731E-01
       -1   -1    0    0    0  501  0.00000000000E+00  0.00000000000E+00  0.12866224172E+04  0.12866224173E+04  0.50400001928E-02 0. -1.
        1   -1    0    0  501    0  0.00000000000E+00  0.00000000000E+00 -0.29648886677E+04  0.29648886677E+04  0.50400001928E-02 0.  1.
    10030    2    1    2    0    0  0.00000000000E+00  0.00000000000E+00 -0.16782662504E+04  0.42515110849E+04  0.39062474189E+04 0.  0.
        5    1    3    3  502    0 -0.14495052620E+04 -0.27419647044E+02 -0.22635712472E+04  0.26880465440E+04  0.46999998093E+01 0.  1.
       -5    1    3    3    0  502  0.14495052620E+04  0.27419647044E+02  0.58530499679E+03  0.15634645409E+04  0.46999998093E+01 0. -1.
</event>
<event>
 5   0  0.3669347E-08  0.3916685E+04  0.7818609E-02  0.8021568E-01
        2   -1    0    0  501    0  0.00000000000E+00  0.00000000000E+00  0.24618211274E+04  0.24618211274E+04  0.25500000920E-02 0. -1.
       -2   -1    0    0    0  501  0.00000000000E+00  0.00000000000E+00 -0.15578326011E+04  0.15578326011E+04  0.25500000920E-02 0.  1.
    10030    2    1    2    0    0  0.00000000000E+00  0.00000000000E+00  0.90398852628E+03  0.40196537285E+04  0.39166849301E+04 0.  0.
        5    1    3    3  502    0  0.10198278233E+04  0.16475918317E+04  0.74313421994E+03  0.20753019520E+04  0.46999998093E+01 0. -1.
       -5    1    3    3    0  502 -0.10198278233E+04 -0.16475918317E+04  0.16085430634E+03  0.19443517765E+04  0.46999998093E+01 0.  1.
</event>
<event>
 5   0  0.1164500E-08  0.3909103E+04  0.7818609E-02  0.8023139E-01
        1   -1    0    0  501    0  0.00000000000E+00  0.00000000000E+00  0.21850980360E+04  0.21850980360E+04  0.50400001928E-02 0.  1.
       -1   -1    0    0    0  501  0.00000000000E+00  0.00000000000E+00 -0.17483295702E+04  0.17483295702E+04  0.50400001928E-02 0. -1.
    10030    2    1    2    0    0  0.00000000000E+00  0.00000000000E+00  0.43676846579E+03  0.39334276063E+04  0.39091029714E+04 0.  0.
        5    1    3    3  502    0 -0.54669785767E+03  0.17464534660E+04  0.90914789689E+03  0.20434163171E+04  0.46999998093E+01 0.  1.
       -5    1    3    3    0  502  0.54669785767E+03 -0.17464534660E+04 -0.47237943109E+03  0.18900112892E+04  0.46999998093E+01 0. -1.
</event>
<event>
 5   0  0.1164500E-08  0.3897750E+04  0.7818609E-02  0.8025497E-01
        1   -1    0    0  501    0  0.00000000000E+00  0.00000000000E+00  0.16929012086E+04  0.16929012086E+04  0.50400001928E-02 0.  1.
       -1   -1    0    0    0  501  0.00000000000E+00  0.00000000000E+00 -0.22435527483E+04  0.22435527483E+04  0.50400001928E-02 0. -1.
    10030    2    1    2    0    0  0.00000000000E+00  0.00000000000E+00 -0.55065153970E+03  0.39364539569E+04  0.38977496888E+04 0.  0.
        3    1    3    3  502    0  0.11970839800E+04 -0.13522462565E+04  0.46443196182E+03  0.18647458407E+04  0.10100000352E+00 0. -1.
       -3    1    3    3    0  502 -0.11970839800E+04  0.13522462565E+04 -0.10150835015E+04  0.20717081161E+04  0.10100000352E+00 0.  1.
</event>
<event>
 5   0  0.3669347E-08  0.3901457E+04  0.7818609E-02  0.8024726E-01
        2   -1    0    0  501    0  0.00000000000E+00  0.00000000000E+00  0.13019137754E+04  0.13019137754E+04  0.25500000920E-02 0.  1.
       -2   -1    0    0    0  501  0.00000000000E+00  0.00000000000E+00 -0.29228834645E+04  0.29228834645E+04  0.25500000920E-02 0. -1.
    10030    2    1    2    0    0  0.00000000000E+00  0.00000000000E+00 -0.16209696891E+04  0.42247972399E+04  0.39014572900E+04 0.  0.
        5    1    3    3  502    0 -0.83587182490E+03 -0.99056699531E+03 -0.23891896579E+04  0.27181158900E+04  0.46999998093E+01 0. -1.
       -5    1    3    3    0  502  0.83587182490E+03  0.99056699531E+03  0.76821996880E+03  0.15066813500E+04  0.46999998093E+01 0.  1.
</event>
<event>
 5   0  0.1164500E-08  0.3901950E+04  0.7818609E-02  0.8024624E-01
        1   -1    0    0  501    0  0.00000000000E+00  0.00000000000E+00  0.25008342333E+04  0.25008342333E+04  0.50400001928E-02 0.  1.
       -1   -1    0    0    0  501  0.00000000000E+00  0.00000000000E+00 -0.15220136542E+04  0.15220136543E+04  0.50400001928E-02 0. -1.
    10030    2    1    2    0    0  0.00000000000E+00  0.00000000000E+00  0.97882057909E+03  0.40228478876E+04  0.39019502048E+04 0.  0.
        1    1    3    3  502    0 -0.12307846483E+04  0.15097027540E+04  0.37520540417E+03  0.19836361439E+04  0.50400001928E-02 0.  1.
       -1    1    3    3    0  502  0.12307846483E+04 -0.15097027540E+04  0.60361517492E+03  0.20392117437E+04  0.50400001928E-02 0. -1.
</event>
<event>
 5   0  0.1164500E-08  0.3897042E+04  0.7818609E-02  0.8025645E-01
        1   -1    0    0  501    0  0.00000000000E+00  0.00000000000E+00  0.23301290086E+04  0.23301290086E+04  0.50400001928E-02 0. -1.
       -1   -1    0    0    0  501  0.00000000000E+00  0.00000000000E+00 -0.16294091089E+04  0.16294091090E+04  0.50400001928E-02 0.  1.
    10030    2    1    2    0    0  0.00000000000E+00  0.00000000000E+00  0.70071989964E+03  0.39595381175E+04  0.38970416634E+04 0.  0.
        4    1    3    3  502    0  0.18039009749E+04 -0.12113695958E+03  0.10886482735E+04  0.21104240253E+04  0.12699999809E+01 0. -1.
       -4    1    3    3    0  502 -0.18039009749E+04  0.12113695958E+03 -0.38792837387E+03  0.18491140923E+04  0.12699999809E+01 0.  1.
</event>
<event>
 5   0  0.1164500E-08  0.3896831E+04  0.7818609E-02  0.8025689E-01
       -1   -1    0    0    0  501  0.00000000000E+00  0.00000000000E+00  0.18248157620E+04  0.18248157620E+04  0.50400001928E-02 0.  1.
        1   -1    0    0  501    0  0.00000000000E+00  0.00000000000E+00 -0.20803866467E+04  0.20803866467E+04  0.50400001928E-02 0. -1.
    10030    2    1    2    0    0  0.00000000000E+00  0.00000000000E+00 -0.25557088468E+03  0.39052024088E+04  0.38968306836E+04 0.  0.
        5    1    3    3  502    0 -0.11127594643E+04 -0.54677110740E+03 -0.16340473999E+04  0.20511765561E+04  0.46999998093E+01 0. -1.
       -5    1    3    3    0  502  0.11127594643E+04  0.54677110740E+03  0.13784765152E+04  0.18540258526E+04  0.46999998093E+01 0.  1.
</event>
<event>
 5   0  0.1164500E-08  0.3904195E+04  0.7818609E-02  0.8024157E-01
       -1   -1    0    0    0  501  0.00000000000E+00  0.00000000000E+00  0.21203039778E+04  0.21203039778E+04  0.50400001928E-02 0.  1.
        1   -1    0    0  501    0  0.00000000000E+00  0.00000000000E+00 -0.17972346324E+04  0.17972346324E+04  0.50400001928E-02 0. -1.
    10030    2    1    2    0    0  0.00000000000E+00  0.00000000000E+00  0.32306934540E+03  0.39175386103E+04  0.39041945342E+04 0.  0.
        1    1    3    3  502    0 -0.16475852682E+04 -0.23596258419E+03  0.11850544492E+04  0.20431763518E+04  0.50400001928E-02 0.  1.
       -1    1    3    3    0  502  0.16475852682E+04  0.23596258419E+03 -0.86198510376E+03  0.18743622585E+04  0.50400001928E-02 0. -1.
</event>
<event>
 5   0  0.1164500E-08  0.3896796E+04  0.7818609E-02  0.8025696E-01
        1   -1    0    0  501    0  0.00000000000E+00  0.00000000000E+00  0.29857126083E+04  0.29857126083E+04  0.50400001928E-02 0. -1.
       -1   -1    0    0    0  501  0.00000000000E+00  0.00000000000E+00 -0.12714733314E+04  0.12714733314E+04  0.50400001928E-02 0.  1.
    10030    2    1    2    0    0  0.00000000000E+00  0.00000000000E+00  0.17142392769E+04  0.42571859397E+04  0.38967955844E+04 0.  0.
        1    1    3    3  502    0 -0.11674930341E+04 -0.13639572637E+04  0.16839750984E+04  0.24615425111E+04  0.50400001928E-02 0. -1.
       -1    1    3    3    0  502  0.11674930341E+04  0.13639572637E+04  0.30264178489E+02  0.17956434285E+04  0.50400001928E-02 0.  1.
</event>
<event>
 5   0  0.3724293E-08  0.3883253E+04  0.7818609E-02  0.8028521E-01
       -2   -1    0    0    0  501  0.00000000000E+00  0.00000000000E+00  0.16768013944E+04  0.16768013944E+04  0.25500000920E-02 0.  1.
        2   -1    0    0  501    0  0.00000000000E+00  0.00000000000E+00 -0.22482771893E+04  0.22482771893E+04  0.25500000920E-02 0. -1.
    10030    2    1    2    0    0  0.00000000000E+00  0.00000000000E+00 -0.57147579490E+03  0.39250785836E+04  0.38832534431E+04 0.  0.
        4    1    3    3  502    0  0.10359903423E+04  0.66204373079E+03 -0.18046994655E+04  0.21836940410E+04  0.12699999809E+01 0. -1.
       -4    1    3    3    0  502 -0.10359903423E+04 -0.66204373079E+03  0.12332236706E+04  0.17413845427E+04  0.12699999809E+01 0.  1.
</event>
<event>
 5   0  0.1164500E-08  0.3906955E+04  0.7818609E-02  0.8023584E-01
       -1   -1    0    0    0  501  0.00000000000E+00  0.00000000000E+00  0.15045550614E+04  0.15045550614E+04  0.50400001928E-02 0.  1.
        1   -1    0    0  501    0  0.00000000000E+00  0.00000000000E+00 -0.25363475351E+04  0.25363475351E+04  0.50400001928E-02 0. -1.
    10030    2    1    2    0    0  0.00000000000E+00  0.00000000000E+00 -0.10317924737E+04  0.40409025965E+04  0.39069550913E+04 0.  0.
        4    1    3    3  502    0 -0.17333441848E+04  0.45859280968E+03  0.28611342263E+03  0.18156684531E+04  0.12699999809E+01 0.  1.
       -4    1    3    3    0  502  0.17333441848E+04 -0.45859280968E+03 -0.13179058964E+04  0.22252341434E+04  0.12699999809E+01 0. -1.
</event>
<event>
 5   0  0.1164500E-08  0.3898539E+04  0.7818609E-02  0.8025333E-01
       -1   -1    0    0    0  501  0.00000000000E+00  0.00000000000E+00  0.16615766686E+04  0.16615766686E+04  0.50400001928E-02 0.  1.
        1   -1    0    0  501    0  0.00000000000E+00  0.00000000000E+00 -0.22867753043E+04  0.22867753043E+04  0.50400001928E-02 0. -1.
    10030    2    1    2    0    0  0.00000000000E+00  0.00000000000E+00 -0.62519863566E+03  0.39483519729E+04  0.38985394660E+04 0.  0.
        1    1    3    3  502    0  0.15955856099E+04  0.11087383347E+04 -0.15420938346E+03  0.19490958590E+04  0.50400001928E-02 0. -1.
       -1    1    3    3    0  502 -0.15955856099E+04 -0.11087383347E+04 -0.47098925220E+03  0.19992561140E+04  0.50400001928E-02 0.  1.
</event>
<event>
 5   0  0.1164500E-08  0.3896845E+04  0.7818609E-02  0.8025686E-01
       -1   -1    0    0    0  501  0.00000000000E+00  0.00000000000E+00  0.16807372613E+04  0.16807372613E+04  0.50400001928E-02 0. -1.
        1   -1    0    0  501    0  0.00000000000E+00  0.00000000000E+00 -0.22587412986E+04  0.22587412986E+04  0.50400001928E-02 0.  1.
    10030    2    1    2    0    0  0.00000000000E+00  0.00000000000E+00 -0.57800403728E+03  0.39394785599E+04  0.38968452185E+04 0.  0.
        3    1    3    3  502    0 -0.11793850528E+04 -0.74366604062E+03  0.10869033342E+04  0.17678651393E+04  0.10100000352E+00 0. -1.
       -3    1    3    3    0  502  0.11793850528E+04  0.74366604062E+03 -0.16649073715E+04  0.21716134206E+04  0.10100000352E+00 0.  1.
</event>
<event>
 5   0  0.1164500E-08  0.3884981E+04  0.7818609E-02  0.8028160E-01
        1   -1    0    0  501    0  0.00000000000E+00  0.00000000000E+00  0.19884469638E+04  0.19884469638E+04  0.50400001928E-02 0. -1.
       -1   -1    0    0    0  501  0.00000000000E+00  0.00000000000E+00 -0.18975957726E+04  0.18975957726E+04  0.50400001928E-02 0.  1.
    10030    2    1    2    0    0  0.00000000000E+00  0.00000000000E+00  0.90851191184E+02  0.38860427364E+04  0.38849805933E+04 0.  0.
        5    1    3    3  502    0 -0.50143915836E+03  0.16024368497E+04  0.10224225709E+04  0.19658624291E+04  0.46999998093E+01 0. -1.
       -5    1    3    3    0  502  0.50143915836E+03 -0.16024368497E+04 -0.93157137976E+03  0.19201803072E+04  0.46999998093E+01 0.  1.
</event>
<event>
 5   0  0.3724293E-08  0.3893419E+04  0.7818609E-02  0.8026399E-01
       -2   -1    0    0    0  501  0.00000000000E+00  0.00000000000E+00  0.25963958549E+04  0.25963958549E+04  0.25500000920E-02 0. -1.
        2   -1    0    0  501    0  0.00000000000E+00  0.00000000000E+00 -0.14595915602E+04  0.14595915602E+04  0.25500000920E-02 0.  1.
    10030    2    1    2    0    0  0.00000000000E+00  0.00000000000E+00  0.11368042947E+04  0.40559874151E+04  0.38934187941E+04 0.  0.
        4    1    3    3  502    0 -0.81244474583E+03 -0.17654412269E+04  0.45041831763E+03  0.19949254283E+04  0.12699999809E+01 0. -1.
       -4    1    3    3    0  502  0.81244474583E+03  0.17654412269E+04  0.68638597710E+03  0.20610619868E+04  0.12699999809E+01 0.  1.
</event>
<event>
 5   0  0.1164500E-08  0.3891262E+04  0.7818609E-02  0.8026849E-01
        1   -1    0    0  501    0  0.00000000000E+00  0.00000000000E+00  0.21880359518E+04  0.21880359518E+04  0.50400001928E-02 0.  1.
       -1   -1    0    0    0  501  0.00000000000E+00  0.00000000000E+00 -0.17300816482E+04  0.17300816483E+04  0.50400001928E-02 0. -1.
    10030    2    1    2    0    0  0.00000000000E+00  0.00000000000E+00  0.45795430357E+03  0.39181176001E+04  0.38912624409E+04 0.  0.
        2    1    3    3  502    0  0.15904151744E+04 -0.87737818543E+02  0.13539895300E+04  0.20905516016E+04  0.25500000920E-02 0.  1.
       -2    1    3    3    0  502 -0.15904151744E+04  0.87737818543E+02 -0.89603522642E+03  0.18275659985E+04  0.25500000920E-02 0. -1.
</event>
<event>
 5   0  0.1164500E-08  0.3909001E+04  0.7818609E-02  0.8023160E-01
        1   -1    0    0  501    0  0.00000000000E+00  0.00000000000E+00  0.11247548760E+04  0.11247548760E+04  0.50400001928E-02 0. -1.
       -1   -1    0    0    0  501  0.00000000000E+00  0.00000000000E+00 -0.33963596672E+04  0.33963596672E+04  0.50400001928E-02 0.  1.
    10030    2    1    2    0    0  0.00000000000E+00  0.00000000000E+00 -0.22716047913E+04  0.45211145432E+04  0.39090009446E+04 0.  0.
        4    1    3    3  502    0  0.84394082406E+03 -0.36355563667E+03  0.85932903294E+03  0.12581163759E+04  0.12699999809E+01 0. -1.
       -4    1    3    3    0  502 -0.84394082406E+03  0.36355563667E+03 -0.31309338242E+04  0.32629981673E+04  0.12699999809E+01 0.  1.
</event>
<event>
 5   0  0.3724293E-08  0.3895428E+04  0.7818609E-02  0.8025981E-01
       -2   -1    0    0    0  501  0.00000000000E+00  0.00000000000E+00  0.21306687110E+04  0.21306687110E+04  0.25500000920E-02 0.  1.
        2   -1    0    0  501    0  0.00000000000E+00  0.00000000000E+00 -0.17804693500E+04  0.17804693500E+04  0.25500000920E-02 0. -1.
    10030    2    1    2    0    0  0.00000000000E+00  0.00000000000E+00  0.35019936096E+03  0.39111380610E+04  0.38954282615E+04 0.  0.
        4    1    3    3  502    0 -0.53536909875E+03 -0.16965274333E+04 -0.62104415081E+03  0.18842831141E+04  0.12699999809E+01 0. -1.
       -4    1    3    3    0  502  0.53536909875E+03  0.16965274333E+04  0.97124351177E+03  0.20268549469E+04  0.12699999809E+01 0.  1.
</event>
<event>
 5   0  0.3669347E-08  0.3909442E+04  0.7818609E-02  0.8023068E-01
       -2   -1    0    0    0  501  0.00000000000E+00  0.00000000000E+00  0.32045103500E+04  0.32045103500E+04  0.25500000920E-02 0. -1.
        2   -1    0    0  501    0  0.00000000000E+00  0.00000000000E+00 -0.11923610489E+04  0.11923610489E+04  0.25500000920E-02 0.  1.
    10030    2    1    2    0    0  0.00000000000E+00  0.00000000000E+00  0.20121493011E+04  0.43968713989E+04  0.39094415571E+04 0.  0.
        5    1    3    3  502    0  0.13517866390E+04  0.99268840135E+03  0.21353307507E+04  0.27152194911E+04  0.46999998093E+01 0. -1.
       -5    1    3    3    0  502 -0.13517866390E+04 -0.99268840135E+03 -0.12318144965E+03  0.16816519078E+04  0.46999998093E+01 0.  1.
</event>
<event>
 5   0  0.1164500E-08  0.3894152E+04  0.7818609E-02  0.8026247E-01
        1   -1    0    0  501    0  0.00000000000E+00  0.00000000000E+00  0.23950525305E+04  0.23950525305E+04  0.50400001928E-02 0. -1.
       -1   -1    0    0    0  501  0.00000000000E+00  0.00000000000E+00 -0.15828897778E+04  0.15828897778E+04  0.50400001928E-02 0.  1.
    10030    2    1    2    0    0  0.00000000000E+00  0.00000000000E+00  0.81216275269E+03  0.39779423083E+04  0.38941515984E+04 0.  0.
        4    1    3    3  502    0  0.67315828935E+03 -0.46342132363E+02  0.22718013733E+04  0.23698887671E+04  0.12699999809E+01 0. -1.
       -4    1    3    3    0  502 -0.67315828935E+03  0.46342132363E+02 -0.14596386206E+04  0.16080535412E+04  0.12699999809E+01 0.  1.
</event>
<event>
 5   0  0.3724293E-08  0.3896128E+04  0.7818609E-02  0.8025835E-01
       -2   -1    0    0    0  501  0.00000000000E+00  0.00000000000E+00  0.15535778549E+04  0.15535778549E+04  0.25500000920E-02 0.  1.
        2   -1    0    0  501    0  0.00000000000E+00  0.00000000000E+00 -0.24427189262E+04  0.24427189262E+04  0.25500000920E-02 0. -1.
    10030    2    1    2    0    0  0.00000000000E+00  0.00000000000E+00 -0.88914107125E+03  0.39962967811E+04  0.38961283498E+04 0.  0.
        4    1    3    3  502    0 -0.98095342841E+02  0.75130165158E+02  0.15495540670E+04  0.15544731125E+04  0.12699999809E+01 0.  1.
       -4    1    3    3    0  502  0.98095342841E+02 -0.75130165158E+02 -0.24386951383E+04  0.24418236686E+04  0.12699999809E+01 0. -1.
</event>
<event>
 5   0  0.3690572E-08  0.3897729E+04  0.7818609E-02  0.8025502E-01
       -2   -1    0    0    0  501  0.00000000000E+00  0.00000000000E+00  0.14233081867E+04  0.14233081867E+04  0.25500000920E-02 0. -1.
        2   -1    0    0  501    0  0.00000000000E+00  0.00000000000E+00 -0.26684820022E+04  0.26684820022E+04  0.25500000920E-02 0.  1.
    10030    2    1    2    0    0  0.00000000000E+00  0.00000000000E+00 -0.12451738154E+04  0.40917901889E+04  0.38977287129E+04 0.  0.
        3    1    3    3  502    0  0.14058868124E+04  0.10444561360E+04 -0.15199354757E+04  0.23189674879E+04  0.10100000352E+00 0.  1.
       -3    1    3    3    0  502 -0.14058868124E+04 -0.10444561360E+04  0.27476166029E+03  0.17728227010E+04  0.10100000352E+00 0. -1.
</event>
<event>
 5   0  0.1164500E-08  0.3903769E+04  0.7818609E-02  0.8024246E-01
       -1   -1    0    0    0  501  0.00000000000E+00  0.00000000000E+00  0.21539631923E+04  0.21539631923E+04  0.50400001928E-02 0.  1.
        1   -1    0    0  501    0  0.00000000000E+00  0.00000000000E+00 -0.17687640369E+04  0.17687640369E+04  0.50400001928E-02 0. -1.
    10030    2    1    2    0    0  0.00000000000E+00  0.00000000000E+00  0.38519915539E+03  0.39227272293E+04  0.39037687593E+04 0.  0.
        5    1    3    3  502    0  0.84336775235E+03  0.23659817737E+03  0.19453707431E+04  0.21334800869E+04  0.46999998093E+01 0.  1.
       -5    1    3    3    0  502 -0.84336775235E+03 -0.23659817737E+03 -0.15601715877E+04  0.17892471423E+04  0.46999998093E+01 0. -1.
</event>
<event>
 5   0  0.3872969E-08  0.3905185E+04  0.7818609E-02  0.8023952E-01
       -2   -1    0    0    0  501  0.00000000000E+00  0.00000000000E+00  0.16351301472E+04  0.16351301472E+04  0.25500000920E-02 0. -1.
        2   -1    0    0  501    0  0.00000000000E+00  0.00000000000E+00 -0.23316906688E+04  0.23316906688E+04  0.25500000920E-02 0.  1.
    10030    2    1    2    0    0  0.00000000000E+00  0.00000000000E+00 -0.69656052162E+03  0.39668208160E+04  0.39051851206E+04 0.  0.
        2    1    3    3  502    0 -0.11620986176E+04 -0.86557793182E+02  0.12431805383E+04  0.17039551929E+04  0.25500000920E-02 0. -1.
       -2    1    3    3    0  502  0.11620986176E+04  0.86557793182E+02 -0.19397410599E+04  0.22628656231E+04  0.25500000920E-02 0.  1.
</event>
<event>
 5   0  0.3872969E-08  0.3897039E+04  0.7818609E-02  0.8025645E-01
        2   -1    0    0  501    0  0.00000000000E+00  0.00000000000E+00  0.12058073375E+04  0.12058073375E+04  0.25500000920E-02 0.  1.
       -2   -1    0    0    0  501  0.00000000000E+00  0.00000000000E+00 -0.31487019339E+04  0.31487019339E+04  0.25500000920E-02 0. -1.
    10030    2    1    2    0    0  0.00000000000E+00  0.00000000000E+00 -0.19428945965E+04  0.43545092714E+04  0.38970388222E+04 0.  0.
        2    1    3    3  502    0 -0.72229200881E+03  0.17985265413E+03  0.10406835091E+04  0.12794822740E+04  0.25500000920E-02 0.  1.
       -2    1    3    3    0  502  0.72229200881E+03 -0.17985265413E+03 -0.29835781056E+04  0.30750269975E+04  0.25500000920E-02 0. -1.
</event>
<event>
 5   0  0.1164500E-08  0.3899773E+04  0.7818609E-02  0.8025076E-01
        1   -1    0    0  501    0  0.00000000000E+00  0.00000000000E+00  0.24482027680E+04  0.24482027680E+04  0.50400001928E-02 0. -1.
       -1   -1    0    0    0  501  0.00000000000E+00  0.00000000000E+00 -0.15529994163E+04  0.15529994163E+04  0.50400001928E-02 0.  1.
    10030    2    1    2    0    0  0.00000000000E+00  0.00000000000E+00  0.89520335172E+03  0.40012021844E+04  0.38997730548E+04 0.  0.
        3    1    3    3  502    0  0.44733206030E+03 -0.10531204768E+04  0.20675554118E+04  0.23630391663E+04  0.10100000352E+00 0. -1.
       -3    1    3    3    0  502 -0.44733206030E+03  0.10531204768E+04 -0.11723520600E+04  0.16381630180E+04  0.10100000352E+00 0.  1.
</event>
<event>
 5   0  0.3690572E-08  0.3924045E+04  0.7818609E-02  0.8020047E-01
        2   -1    0    0  501    0  0.00000000000E+00  0.00000000000E+00  0.18803664011E+04  0.18803664011E+04  0.25500000920E-02 0.  1.
       -2   -1    0    0    0  501  0.00000000000E+00  0.00000000000E+00 -0.20472241412E+04  0.20472241412E+04  0.25500000920E-02 0. -1.
    10030    2    1    2    0    0  0.00000000000E+00  0.00000000000E+00 -0.16685774005E+03  0.39275905423E+04  0.39240445923E+04 0.  0.
        3    1    3    3  502    0 -0.43418867220E+03  0.11508897413E+04 -0.16133599356E+04  0.20287920770E+04  0.10100000352E+00 0. -1.
       -3    1    3    3    0  502  0.43418867220E+03 -0.11508897413E+04  0.14465021955E+04  0.18987984653E+04  0.10100000352E+00 0.  1.
</event>
<event>
 5   0  0.1164500E-08  0.3895990E+04  0.7818609E-02  0.8025864E-01
        1   -1    0    0  501    0  0.00000000000E+00  0.00000000000E+00  0.22458359031E+04  0.22458359032E+04  0.50400001928E-02 0.  1.
       -1   -1    0    0    0  501  0.00000000000E+00  0.00000000000E+00 -0.16896531942E+04  0.16896531942E+04  0.50400001928E-02 0. -1.
    10030    2    1    2    0    0  0.00000000000E+00  0.00000000000E+00  0.55618270899E+03  0.39354890973E+04  0.38959896341E+04 0.  0.
        4    1    3    3  502    0 -0.13511408097E+04  0.62001507465E+03  0.15496956469E+04  0.21474539323E+04  0.12699999809E+01 0. -1.
       -4    1    3    3    0  502  0.13511408097E+04 -0.62001507465E+03 -0.99351293794E+03  0.17880351650E+04  0.12699999809E+01 0.  1.
</event>
<event>
 5   0  0.1164500E-08  0.3910878E+04  0.7818609E-02  0.8022771E-01
       -1   -1    0    0    0  501  0.00000000000E+00  0.00000000000E+00  0.19109839777E+04  0.19109839777E+04  0.50400001928E-02 0. -1.
        1   -1    0    0  501    0  0.00000000000E+00  0.00000000000E+00 -0.20009285827E+04  0.20009285827E+04  0.50400001928E-02 0.  1.
    10030    2    1    2    0    0  0.00000000000E+00  0.00000000000E+00 -0.89944605014E+02  0.39119125604E+04  0.39108783985E+04 0.  0.
        3    1    3    3  502    0  0.11306143042E+03  0.12756966873E+04  0.14331049908E+04  0.19219716048E+04  0.10100000352E+00 0. -1.
       -3    1    3    3    0  502 -0.11306143042E+03 -0.12756966873E+04 -0.15230495958E+04  0.19899409555E+04  0.10100000352E+00 0.  1.
</event>
<event>
 5   0  0.3872969E-08  0.3902605E+04  0.7818609E-02  0.8024488E-01
       -2   -1    0    0    0  501  0.00000000000E+00  0.00000000000E+00  0.21714915427E+04  0.21714915427E+04  0.25500000920E-02 0.  1.
        2   -1    0    0  501    0  0.00000000000E+00  0.00000000000E+00 -0.17534405461E+04  0.17534405461E+04  0.25500000920E-02 0. -1.
    10030    2    1    2    0    0  0.00000000000E+00  0.00000000000E+00  0.41805099661E+03  0.39249320887E+04  0.39026049333E+04 0.  0.
        2    1    3    3  502    0 -0.13408311740E+04 -0.71044602890E+03  0.14428364584E+04  0.20938812867E+04  0.25500000920E-02 0.  1.
       -2    1    3    3    0  502  0.13408311740E+04  0.71044602890E+03 -0.10247854618E+04  0.18310508021E+04  0.25500000920E-02 0. -1.
</event>
<event>
 5   0  0.1164500E-08  0.3903570E+04  0.7818609E-02  0.8024287E-01
       -1   -1    0    0    0  501  0.00000000000E+00  0.00000000000E+00  0.33842317839E+04  0.33842317839E+04  0.50400001928E-02 0. -1.
        1   -1    0    0  501    0  0.00000000000E+00  0.00000000000E+00 -0.11256514989E+04  0.11256514989E+04  0.50400001928E-02 0.  1.
    10030    2    1    2    0    0  0.00000000000E+00  0.00000000000E+00  0.22585802850E+04  0.45098832828E+04  0.39035704581E+04 0.  0.
        5    1    3    3  502    0  0.36632151979E+03  0.18385750457E+04  0.17566780258E+04  0.25691417693E+04  0.46999998093E+01 0.  1.
       -5    1    3    3    0  502 -0.36632151979E+03 -0.18385750457E+04  0.50190225921E+03  0.19407415135E+04  0.46999998093E+01 0. -1.
</event>
<event>
 5   0  0.3724293E-08  0.3803914E+04  0.7818609E-02  0.8045316E-01
       -2   -1    0    0    0  501  0.00000000000E+00  0.00000000000E+00  0.17310077506E+04  0.17310077506E+04  0.25500000920E-02 0.  1.
        2   -1    0    0  501    0  0.00000000000E+00  0.00000000000E+00 -0.20897882372E+04  0.20897882372E+04  0.25500000920E-02 0. -1.
    10030    2    1    2    0    0  0.00000000000E+00  0.00000000000E+00 -0.35878048657E+03  0.38207959878E+04  0.38039135825E+04 0.  0.
        4    1    3    3  502    0  0.12817602706E+04 -0.68948340548E+03 -0.14092185540E+04  0.20258813647E+04  0.12699999809E+01 0. -1.
       -4    1    3    3    0  502 -0.12817602706E+04  0.68948340548E+03  0.10504380675E+04  0.17949146231E+04  0.12699999809E+01 0.  1.
</event>
<event>
 5   0  0.3690572E-08  0.3896620E+04  0.7818609E-02  0.8025733E-01
        2   -1    0    0  501    0  0.00000000000E+00  0.00000000000E+00  0.24107830624E+04  0.24107830624E+04  0.25500000920E-02 0.  1.
       -2   -1    0    0    0  501  0.00000000000E+00  0.00000000000E+00 -0.15745555641E+04  0.15745555641E+04  0.25500000920E-02 0. -1.
    10030    2    1    2    0    0  0.00000000000E+00  0.00000000000E+00  0.83622749835E+03  0.39853386265E+04  0.38966200147E+04 0.  0.
        3    1    3    3  502    0  0.12987823250E+04  0.71825086758E+03 -0.87284164110E+03  0.17217933608E+04  0.10100000352E+00 0. -1.
       -3    1    3    3    0  502 -0.12987823250E+04 -0.71825086758E+03  0.17090691395E+04  0.22635452658E+04  0.10100000352E+00 0.  1.
</event>
<event>
 5   0  0.3669347E-08  0.3902884E+04  0.7818609E-02  0.8024430E-01
        2   -1    0    0  501    0  0.00000000000E+00  0.00000000000E+00  0.26819472961E+04  0.26819472961E+04  0.25500000920E-02 0.  1.
       -2   -1    0    0    0  501  0.00000000000E+00  0.00000000000E+00 -0.14199105792E+04  0.14199105792E+04  0.25500000920E-02 0. -1.
    10030    2    1    2    0    0  0.00000000000E+00  0.00000000000E+00  0.12620367169E+04  0.41018578753E+04  0.39028837229E+04 0.  0.
        5    1    3    3  502    0  0.23920108949E+03  0.53875400838E+03  0.25861346421E+04  0.26524681940E+04  0.46999998093E+01 0.  1.
       -5    1    3    3    0  502 -0.23920108949E+03 -0.53875400838E+03 -0.13240979253E+04  0.14493896814E+04  0.46999998093E+01 0. -1.
</event>
<event>
 5   0  0.1164500E-08  0.3898462E+04  0.7818609E-02  0.8025349E-01
       -1   -1    0    0    0  501  0.00000000000E+00  0.00000000000E+00  0.23221626016E+04  0.23221626016E+04  0.50400001928E-02 0.  1.
        1   -1    0    0  501    0  0.00000000000E+00  0.00000000000E+00 -0.16361912225E+04  0.16361912225E+04  0.50400001928E-02 0. -1.
    10030    2    1    2    0    0  0.00000000000E+00  0.00000000000E+00  0.68597137914E+03  0.39583538241E+04  0.38984622947E+04 0.  0.
        4    1    3    3  502    0 -0.11349503077E+04  0.15512096433E+04  0.13756110803E+02  0.19221223691E+04  0.12699999809E+01 0.  1.
       -4    1    3    3    0  502  0.11349503077E+04 -0.15512096433E+04  0.67221526834E+03  0.20362314550E+04  0.12699999809E+01 0. -1.
</event>
<event>
 5   0  0.1164500E-08  0.3888938E+04  0.7818609E-02  0.8027334E-01
        1   -1    0    0  501    0  0.00000000000E+00  0.00000000000E+00  0.12355609408E+04  0.12355609408E+04  0.50400001928E-02 0. -1.
       -1   -1    0    0    0  501  0.00000000000E+00  0.00000000000E+00 -0.30601164747E+04  0.30601164747E+04  0.50400001928E-02 0.  1.
    10030    2    1    2    0    0  0.00000000000E+00  0.00000000000E+00 -0.18245555339E+04  0.42956774156E+04  0.38889383593E+04 0.  0.
        3    1    3    3  502    0  0.39824850190E+02 -0.11451792982E+04 -0.26475506827E+04  0.28848823670E+04  0.10100000352E+00 0.  1.
       -3    1    3    3    0  502 -0.39824850190E+02  0.11451792982E+04  0.82299514884E+03  0.14107950485E+04  0.10100000352E+00 0. -1.
</event>
<event>
 5   0  0.1164500E-08  0.3886004E+04  0.7818609E-02  0.8027946E-01
        1   -1    0    0  501    0  0.00000000000E+00  0.00000000000E+00  0.27638787262E+04  0.27638787262E+04  0.50400001928E-02 0.  1.
       -1   -1    0    0    0  501  0.00000000000E+00  0.00000000000E+00 -0.13659270249E+04  0.13659270249E+04  0.50400001928E-02 0. -1.
    10030    2    1    2    0    0  0.00000000000E+00  0.00000000000E+00  0.13979517012E+04  0.41298057511E+04  0.38860039350E+04 0.  0.
        5    1    3    3  502    0  0.39279196476E+03 -0.14237199334E+04 -0.64275850212E+03  0.16107217508E+04  0.46999998093E+01 0. -1.
       -5    1    3    3    0  502 -0.39279196476E+03  0.14237199334E+04  0.20407102033E+04  0.25190840003E+04  0.46999998093E+01 0.  1.
</event>
<event>
 5   0  0.3724293E-08  0.3905649E+04  0.7818609E-02  0.8023855E-01
        2   -1    0    0  501    0  0.00000000000E+00  0.00000000000E+00  0.26061952438E+04  0.26061952438E+04  0.25500000920E-02 0.  1.
       -2   -1    0    0    0  501  0.00000000000E+00  0.00000000000E+00 -0.14632532946E+04  0.14632532946E+04  0.25500000920E-02 0. -1.
    10030    2    1    2    0    0  0.00000000000E+00  0.00000000000E+00  0.11429419493E+04  0.40694485384E+04  0.39056491275E+04 0.  0.
        4    1    3    3  502    0  0.17625164294E+04 -0.68314662292E+03  0.10823067277E+04  0.21781971761E+04  0.12699999809E+01 0. -1.
       -4    1    3    3    0  502 -0.17625164294E+04  0.68314662292E+03  0.60635221534E+02  0.18912513623E+04  0.12699999809E+01 0.  1.
</event>
<event>
 5   0  0.3769985E-08  0.3901100E+04  0.7818609E-02  0.8024800E-01
       -2   -1    0    0    0  501  0.00000000000E+00  0.00000000000E+00  0.24389695145E+04  0.24389695145E+04  0.25500000920E-02 0. -1.
        2   -1    0    0  501    0  0.00000000000E+00  0.00000000000E+00 -0.15599397498E+04  0.15599397498E+04  0.25500000920E-02 0.  1.
    10030    2    1    2    0    0  0.00000000000E+00  0.00000000000E+00  0.87902976462E+03  0.39989092643E+04  0.39011000983E+04 0.  0.
        1    1    3    3  502    0 -0.13161828005E+04 -0.13934152911E+04  0.68923059177E+02  0.19179921079E+04  0.50400001928E-02 0.  1.
       -1    1    3    3    0  502  0.13161828005E+04  0.13934152911E+04  0.81010670545E+03  0.20809171564E+04  0.50400001928E-02 0. -1.
</event>
<event>
 5   0  0.3669347E-08  0.3896651E+04  0.7818609E-02  0.8025726E-01
       -2   -1    0    0    0  501  0.00000000000E+00  0.00000000000E+00  0.19252837466E+04  0.19252837466E+04  0.25500000920E-02 0. -1.
        2   -1    0    0  501    0  0.00000000000E+00  0.00000000000E+00 -0.19716435081E+04  0.19716435081E+04  0.25500000920E-02 0.  1.
    10030    2    1    2    0    0  0.00000000000E+00  0.00000000000E+00 -0.46359761473E+02  0.38969272548E+04  0.38966514858E+04 0.  0.
        5    1    3    3  502    0  0.28601263273E+02  0.50592254797E+03  0.18582228969E+04  0.19260815355E+04  0.46999998093E+01 0. -1.
       -5    1    3    3    0  502 -0.28601263273E+02 -0.50592254797E+03 -0.19045826583E+04  0.19708457193E+04  0.46999998093E+01 0.  1.
</event>
<event>
 5   0  0.3724293E-08  0.3901315E+04  0.7818609E-02  0.8024756E-01
       -2   -1    0    0    0  501  0.00000000000E+00  0.00000000000E+00  0.27293084861E+04  0.27293084861E+04  0.25500000920E-02 0. -1.
        2   -1    0    0  501    0  0.00000000000E+00  0.00000000000E+00 -0.13941496963E+04  0.13941496963E+04  0.25500000920E-02 0.  1.
    10030    2    1    2    0    0  0.00000000000E+00  0.00000000000E+00  0.13351587898E+04  0.41234581824E+04  0.39013149563E+04 0.  0.
        4    1    3    3  502    0  0.47618289507E+03  0.91571488124E+03  0.24170568706E+04  0.26282026980E+04  0.12699999809E+01 0. -1.
       -4    1    3    3    0  502 -0.47618289507E+03 -0.91571488124E+03 -0.10818980808E+04  0.14952554843E+04  0.12699999809E+01 0.  1.
</event>
<event>
 5   0  0.3872969E-08  0.3902267E+04  0.7818609E-02  0.8024558E-01
        2   -1    0    0  501    0  0.00000000000E+00  0.00000000000E+00  0.27860751530E+04  0.27860751530E+04  0.25500000920E-02 0.  1.
       -2   -1    0    0    0  501  0.00000000000E+00  0.00000000000E+00 -0.13664106884E+04  0.13664106884E+04  0.25500000920E-02 0. -1.
    10030    2    1    2    0    0  0.00000000000E+00  0.00000000000E+00  0.14196644647E+04  0.41524858414E+04  0.39022674781E+04 0.  0.
        2    1    3    3  502    0  0.54648247657E+03  0.37614699185E+03  0.26623695689E+04  0.27437823124E+04  0.25500000920E-02 0.  1.
       -2    1    3    3    0  502 -0.54648247657E+03 -0.37614699185E+03 -0.12427051042E+04  0.14087035290E+04  0.25500000920E-02 0. -1.
</event>
<event>
 5   0  0.3669347E-08  0.3893747E+04  0.7818609E-02  0.8026331E-01
        2   -1    0    0  501    0  0.00000000000E+00  0.00000000000E+00  0.18943236939E+04  0.18943236939E+04  0.25500000920E-02 0. -1.
       -2   -1    0    0    0  501  0.00000000000E+00  0.00000000000E+00 -0.20008810368E+04  0.20008810368E+04  0.25500000920E-02 0.  1.
    10030    2    1    2    0    0  0.00000000000E+00  0.00000000000E+00 -0.10655734283E+03  0.38952047307E+04  0.38937469649E+04 0.  0.
        5    1    3    3  502    0  0.11198250048E+04  0.15916237631E+04 -0.10825397190E+03  0.19491062714E+04  0.46999998093E+01 0.  1.
       -5    1    3    3    0  502 -0.11198250048E+04 -0.15916237631E+04  0.16966290685E+01  0.19460984593E+04  0.46999998093E+01 0. -1.
</event>
<event>
 5   0  0.3669347E-08  0.3904503E+04  0.7818609E-02  0.8024093E-01
        2   -1    0    0  501    0  0.00000000000E+00  0.00000000000E+00  0.24176199239E+04  0.24176199239E+04  0.25500000920E-02 0.  1.
       -2   -1    0    0    0  501  0.00000000000E+00  0.00000000000E+00 -0.15764623760E+04  0.15764623761E+04  0.25500000920E-02 0. -1.
    10030    2    1    2    0    0  0.00000000000E+00  0.00000000000E+00  0.84115754788E+03  0.39940823000E+04  0.39045034766E+04 0.  0.
        5    1    3    3  502    0  0.14027357183E+04  0.56151545453E+02 -0.96717536419E+03  0.17047788028E+04  0.46999998093E+01 0. -1.
       -5    1    3    3    0  502 -0.14027357183E+04 -0.56151545453E+02  0.18083329121E+04  0.22893034972E+04  0.46999998093E+01 0.  1.
</event>
<event>
 5   0  0.1164500E-08  0.3877807E+04  0.7818609E-02  0.8029661E-01
       -1   -1    0    0    0  501  0.00000000000E+00  0.00000000000E+00  0.21487684810E+04  0.21487684810E+04  0.50400001928E-02 0. -1.
        1   -1    0    0  501    0  0.00000000000E+00  0.00000000000E+00 -0.17495358008E+04  0.17495358008E+04  0.50400001928E-02 0.  1.
    10030    2    1    2    0    0  0.00000000000E+00  0.00000000000E+00  0.39923268020E+03  0.38983042817E+04  0.38778073108E+04 0.  0.
        2    1    3    3  502    0 -0.27216335724E+03 -0.10468388686E+04 -0.14180513925E+04  0.17834837430E+04  0.25500000920E-02 0.  1.
       -2    1    3    3    0  502  0.27216335724E+03  0.10468388686E+04  0.18172840727E+04  0.21148205387E+04  0.25500000920E-02 0. -1.
</event>
<event>
 5   0  0.1164500E-08  0.3906329E+04  0.7818609E-02  0.8023714E-01
       -1   -1    0    0    0  501  0.00000000000E+00  0.00000000000E+00  0.18544071304E+04  0.18544071304E+04  0.50400001928E-02 0.  1.
        1   -1    0    0  501    0  0.00000000000E+00  0.00000000000E+00 -0.20571807631E+04  0.20571807631E+04  0.50400001928E-02 0. -1.
    10030    2    1    2    0    0  0.00000000000E+00  0.00000000000E+00 -0.20277363267E+03  0.39115878935E+04  0.39063285451E+04 0.  0.
        2    1    3    3  502    0 -0.35933170477E+03 -0.77803650515E+03  0.16560803524E+04  0.18646882342E+04  0.25500000920E-02 0.  1.
       -2    1    3    3    0  502  0.35933170477E+03  0.77803650515E+03 -0.18588539850E+04  0.20468996592E+04  0.25500000920E-02 0. -1.
</event>
<event>
 5   0  0.1164500E-08  0.3911541E+04  0.7818609E-02  0.8022633E-01
        1   -1    0    0  501    0  0.00000000000E+00  0.00000000000E+00  0.11722334126E+04  0.11722334126E+04  0.50400001928E-02 0. -1.
       -1   -1    0    0    0  501  0.00000000000E+00  0.00000000000E+00 -0.32630339911E+04  0.32630339911E+04  0.50400001928E-02 0.  1.
    10030    2    1    2    0    0  0.00000000000E+00  0.00000000000E+00 -0.20908005785E+04  0.44352674037E+04  0.39115406023E+04 0.  0.
        2    1    3    3  502    0  0.67189425312E+03  0.13260354953E+03 -0.31226261031E+04  0.31968452212E+04  0.25500000920E-02 0.  1.
       -2    1    3    3    0  502 -0.67189425312E+03 -0.13260354953E+03  0.10318255246E+04  0.12384221825E+04  0.25500000920E-02 0. -1.
</event>
<event>
 5   0  0.1164500E-08  0.3902858E+04  0.7818609E-02  0.8024435E-01
       -1   -1    0    0    0  501  0.00000000000E+00  0.00000000000E+00  0.17845573465E+04  0.17845573465E+04  0.50400001928E-02 0.  1.
        1   -1    0    0  501    0  0.00000000000E+00  0.00000000000E+00 -0.21339050393E+04  0.21339050393E+04  0.50400001928E-02 0. -1.
    10030    2    1    2    0    0  0.00000000000E+00  0.00000000000E+00 -0.34934769274E+03  0.39184623858E+04  0.39028583959E+04 0.  0.
        5    1    3    3  502    0 -0.12105890099E+04  0.41079975080E+02 -0.17107714090E+04  0.20961808651E+04  0.46999998093E+01 0. -1.
       -5    1    3    3    0  502  0.12105890099E+04 -0.41079975080E+02  0.13614237163E+04  0.18222815207E+04  0.46999998093E+01 0.  1.
</event>
<event>
 5   0  0.3690572E-08  0.3902377E+04  0.7818609E-02  0.8024535E-01
        2   -1    0    0  501    0  0.00000000000E+00  0.00000000000E+00  0.21314684903E+04  0.21314684903E+04  0.25500000920E-02 0. -1.
       -2   -1    0    0    0  501  0.00000000000E+00  0.00000000000E+00 -0.17861563171E+04  0.17861563171E+04  0.25500000920E-02 0.  1.
    10030    2    1    2    0    0  0.00000000000E+00  0.00000000000E+00  0.34531217318E+03  0.39176248074E+04  0.39023766649E+04 0.  0.
        3    1    3    3  502    0  0.40882104007E+03 -0.18509511404E+04 -0.29173234766E+03  0.19178796990E+04  0.10100000352E+00 0.  1.
       -3    1    3    3    0  502 -0.40882104007E+03  0.18509511404E+04  0.63704452084E+03  0.19997451084E+04  0.10100000352E+00 0. -1.
</event>
<event>
 5   0  0.1164500E-08  0.3860607E+04  0.7818609E-02  0.8033272E-01
       -1   -1    0    0    0  501  0.00000000000E+00  0.00000000000E+00  0.28734846563E+04  0.28734846563E+04  0.50400001928E-02 0. -1.
        1   -1    0    0  501    0  0.00000000000E+00  0.00000000000E+00 -0.12967083147E+04  0.12967083148E+04  0.50400001928E-02 0.  1.
    10030    2    1    2    0    0  0.00000000000E+00  0.00000000000E+00  0.15767763415E+04  0.41701929710E+04  0.38606069192E+04 0.  0.
        3    1    3    3  502    0  0.10396677730E+04 -0.46538537160E+03  0.24717468721E+04  0.27215850588E+04  0.10100000352E+00 0. -1.
       -3    1    3    3    0  502 -0.10396677730E+04  0.46538537160E+03 -0.89497053063E+03  0.14486079122E+04  0.10100000352E+00 0.  1.
</event>
<event>
 5   0  0.1164500E-08  0.3880116E+04  0.7818609E-02  0.8029177E-01
       -1   -1    0    0    0  501  0.00000000000E+00  0.00000000000E+00  0.16272483409E+04  0.16272483409E+04  0.50400001928E-02 0.  1.
        1   -1    0    0  501    0  0.00000000000E+00  0.00000000000E+00 -0.23130001015E+04  0.23130001015E+04  0.50400001928E-02 0. -1.
    10030    2    1    2    0    0  0.00000000000E+00  0.00000000000E+00 -0.68575176060E+03  0.39402484423E+04  0.38801162753E+04 0.  0.
        2    1    3    3  502    0  0.18823394253E+04  0.46967536717E+03 -0.33741526452E+03  0.19691738682E+04  0.25500000920E-02 0.  1.
       -2    1    3    3    0  502 -0.18823394253E+04 -0.46967536717E+03 -0.34833649608E+03  0.19710745742E+04  0.25500000920E-02 0. -1.
</event>
<event>
 5   0  0.1164500E-08  0.3901679E+04  0.7818609E-02  0.8024680E-01
       -1   -1    0    0    0  501  0.00000000000E+00  0.00000000000E+00  0.13103681530E+04  0.13103681530E+04  0.50400001928E-02 0. -1.
        1   -1    0    0  501    0  0.00000000000E+00  0.00000000000E+00 -0.29043551054E+04  0.29043551054E+04  0.50400001928E-02 0.  1.
    10030    2    1    2    0    0  0.00000000000E+00  0.00000000000E+00 -0.15939869524E+04  0.42147232584E+04  0.39016788362E+04 0.  0.
        5    1    3    3  502    0  0.63236211240E+02 -0.18330112351E+04 -0.15150222902E+04  0.23789164837E+04  0.46999998093E+01 0.  1.
       -5    1    3    3    0  502 -0.63236211240E+02  0.18330112351E+04 -0.78964662277E+02  0.18358067748E+04  0.46999998093E+01 0. -1.
</event>
<event>
 5   0  0.3872969E-08  0.3901775E+04  0.7818609E-02  0.8024660E-01
        2   -1    0    0  501    0  0.00000000000E+00  0.00000000000E+00  0.20844415166E+04  0.20844415166E+04  0.25500000920E-02 0.  1.
       -2   -1    0    0    0  501  0.00000000000E+00  0.00000000000E+00 -0.18258907772E+04  0.18258907772E+04  0.25500000920E-02 0. -1.
    10030    2    1    2    0    0  0.00000000000E+00  0.00000000000E+00  0.25855073940E+03  0.39103322938E+04  0.39017752578E+04 0.  0.
        2    1    3    3  502    0 -0.11061016508E+04  0.14431098313E+04  0.83788734363E+03  0.20020194923E+04  0.25500000920E-02 0. -1.
       -2    1    3    3    0  502  0.11061016508E+04 -0.14431098313E+04 -0.57933660422E+03  0.19083128014E+04  0.25500000920E-02 0.  1.
</event>
<event>
 5   0  0.3724293E-08  0.3899954E+04  0.7818609E-02  0.8025039E-01
       -2   -1    0    0    0  501  0.00000000000E+00  0.00000000000E+00  0.22897609942E+04  0.22897609942E+04  0.25500000920E-02 0.  1.
        2   -1    0    0  501    0  0.00000000000E+00  0.00000000000E+00 -0.16606142704E+04  0.16606142704E+04  0.25500000920E-02 0. -1.
    10030    2    1    2    0    0  0.00000000000E+00  0.00000000000E+00  0.62914672382E+03  0.39503752646E+04  0.38999537345E+04 0.  0.
        4    1    3    3  502    0 -0.90122910105E+03 -0.17254292758E+04  0.43045564949E+03  0.19936433376E+04  0.12699999809E+01 0. -1.
       -4    1    3    3    0  502  0.90122910105E+03  0.17254292758E+04  0.19869107432E+03  0.19567319271E+04  0.12699999809E+01 0.  1.
</event>
<event>
 5   0  0.1164500E-08  0.3916633E+04  0.7818609E-02  0.8021579E-01
        1   -1    0    0  501    0  0.00000000000E+00  0.00000000000E+00  0.24845581082E+04  0.24845581082E+04  0.50400001928E-02 0. -1.
       -1   -1    0    0    0  501  0.00000000000E+00  0.00000000000E+00 -0.15435352736E+04  0.15435352736E+04  0.50400001928E-02 0.  1.
    10030    2    1    2    0    0  0.00000000000E+00  0.00000000000E+00  0.94102283459E+03  0.40280933818E+04  0.39166327780E+04 0.  0.
        3    1    3    3  502    0  0.33348636800E+02  0.77326043850E+03  0.23205815699E+04  0.24462507374E+04  0.10100000352E+00 0. -1.
       -3    1    3    3    0  502 -0.33348636800E+02 -0.77326043850E+03 -0.13795587353E+04  0.15818426444E+04  0.10100000352E+00 0.  1.
</event>
<event>
 5   0  0.3872969E-08  0.3949738E+04  0.7818609E-02  0.8014763E-01
        2   -1    0    0  501    0  0.00000000000E+00  0.00000000000E+00  0.21287751578E+04  0.21287751578E+04  0.25500000920E-02 0.  1.
       -2   -1    0    0    0  501  0.00000000000E+00  0.00000000000E+00 -0.18320897487E+04  0.18320897487E+04  0.25500000920E-02 0. -1.
    10030    2    1    2    0    0  0.00000000000E+00  0.00000000000E+00  0.29668540910E+03  0.39608649065E+04  0.39497377857E+04 0.  0.
        2    1    3    3  502    0 -0.66626718464E+03  0.17614687373E+04 -0.44782605292E+03  0.19357769106E+04  0.25500000920E-02 0. -1.
       -2    1    3    3    0  502  0.66626718464E+03 -0.17614687373E+04  0.74451146202E+03  0.20250879959E+04  0.25500000920E-02 0.  1.
</event>
<event>
 5   0  0.1164500E-08  0.3900926E+04  0.7818609E-02  0.8024837E-01
       -3   -1    0    0    0  501  0.00000000000E+00  0.00000000000E+00  0.13923008844E+04  0.13923008880E+04  0.10100000352E+00 0.  1.
        3   -1    0    0  501    0  0.00000000000E+00  0.00000000000E+00 -0.27323883474E+04  0.27323883492E+04  0.10100000352E+00 0. -1.
    10030    2    1    2    0    0  0.00000000000E+00  0.00000000000E+00 -0.13400874630E+04  0.41246892373E+04  0.39009264150E+04 0.  0.
        2    1    3    3  502    0 -0.58344417708E+03  0.61663482644E+03  0.11867206524E+04  0.14590927057E+04  0.25500000920E-02 0.  1.
       -2    1    3    3    0  502  0.58344417708E+03 -0.61663482644E+03 -0.25268081154E+04  0.26655965316E+04  0.25500000920E-02 0. -1.
</event>
<event>
 5   0  0.1164500E-08  0.3905183E+04  0.7818609E-02  0.8023952E-01
       -1   -1    0    0    0  501  0.00000000000E+00  0.00000000000E+00  0.22434053882E+04  0.22434053882E+04  0.50400001928E-02 0.  1.
        1   -1    0    0  501    0  0.00000000000E+00  0.00000000000E+00 -0.16994763780E+04  0.16994763780E+04  0.50400001928E-02 0. -1.
    10030    2    1    2    0    0  0.00000000000E+00  0.00000000000E+00  0.54392901024E+03  0.39428817663E+04  0.39051834598E+04 0.  0.
        1    1    3    3  502    0 -0.13747625131E+04  0.12195424813E+04 -0.39422209532E+03  0.18795390104E+04  0.50400001928E-02 0.  1.
       -1    1    3    3    0  502  0.13747625131E+04 -0.12195424813E+04  0.93815110556E+03  0.20633427558E+04  0.50400001928E-02 0. -1.
</event>
<event>
 5   0  0.1164500E-08  0.3902223E+04  0.7818609E-02  0.8024567E-01
        1   -1    0    0  501    0  0.00000000000E+00  0.00000000000E+00  0.18942997722E+04  0.18942997722E+04  0.50400001928E-02 0. -1.
       -1   -1    0    0    0  501  0.00000000000E+00  0.00000000000E+00 -0.20096265805E+04  0.20096265805E+04  0.50400001928E-02 0.  1.
    10030    2    1    2    0    0  0.00000000000E+00  0.00000000000E+00 -0.11532680827E+03  0.39039263528E+04  0.39022225327E+04 0.  0.
        4    1    3    3  502    0 -0.37168730015E+03  0.17824943268E+04 -0.75896597437E+03  0.19726805209E+04  0.12699999809E+01 0.  1.
       -4    1    3    3    0  502  0.37168730015E+03 -0.17824943268E+04  0.64363916610E+03  0.19312458319E+04  0.12699999809E+01 0. -1.
</event>
<event>
 5   0  0.1164500E-08  0.3898838E+04  0.7818609E-02  0.8025271E-01
        3   -1    0    0  501    0  0.00000000000E+00  0.00000000000E+00  0.22895799290E+04  0.22895799312E+04  0.10100000352E+00 0. -1.
       -3   -1    0    0    0  501  0.00000000000E+00  0.00000000000E+00 -0.16597951672E+04  0.16597951702E+04  0.10100000352E+00 0.  1.
    10030    2    1    2    0    0  0.00000000000E+00  0.00000000000E+00  0.62978476181E+03  0.39493751015E+04  0.38988376275E+04 0.  0.
        4    1    3    3  502    0 -0.98145482032E+03 -0.59674769968E+03 -0.12806020829E+04  0.17202629709E+04  0.12699999809E+01 0.  1.
       -4    1    3    3    0  502  0.98145482032E+03  0.59674769968E+03  0.19103868447E+04  0.22291121306E+04  0.12699999809E+01 0. -1.
</event>
<event>
 5   0  0.1164500E-08  0.3914176E+04  0.7818609E-02  0.8022087E-01
       -1   -1    0    0    0  501  0.00000000000E+00  0.00000000000E+00  0.13402152919E+04  0.13402152920E+04  0.50400001928E-02 0. -1.
        1   -1    0    0  501    0  0.00000000000E+00  0.00000000000E+00 -0.28578938590E+04  0.28578938590E+04  0.50400001928E-02 0.  1.
    10030    2    1    2    0    0  0.00000000000E+00  0.00000000000E+00 -0.15176785671E+04  0.41981091510E+04  0.39141758022E+04 0.  0.
        3    1    3    3  502    0  0.52403029265E+03  0.56037710788E+03 -0.26898763831E+04  0.27971530558E+04  0.10100000352E+00 0.  1.
       -3    1    3    3    0  502 -0.52403029265E+03 -0.56037710788E+03  0.11721978160E+04  0.14009560952E+04  0.10100000352E+00 0. -1.
</event>
<event>
 5   0  0.3690572E-08  0.3903485E+04  0.7818609E-02  0.8024305E-01
        2   -1    0    0  501    0  0.00000000000E+00  0.00000000000E+00  0.30478959115E+04  0.30478959115E+04  0.25500000920E-02 0.  1.
       -2   -1    0    0    0  501  0.00000000000E+00  0.00000000000E+00 -0.12498125330E+04  0.12498125330E+04  0.25500000920E-02 0. -1.
    10030    2    1    2    0    0  0.00000000000E+00  0.00000000000E+00  0.17980833785E+04  0.42977084444E+04  0.39034848581E+04 0.  0.
        3    1    3    3  502    0 -0.17530718000E+04  0.50543178725E+03  0.16622897385E+04  0.24681833830E+04  0.10100000352E+00 0.  1.
       -3    1    3    3    0  502  0.17530718000E+04 -0.50543178725E+03  0.13579364003E+03  0.18295250614E+04  0.10100000352E+00 0. -1.
</event>
<event>
 5   0  0.3690572E-08  0.3905080E+04  0.7818609E-02  0.8023974E-01
        2   -1    0    0  501    0  0.00000000000E+00  0.00000000000E+00  0.21567953194E+04  0.21567953194E+04  0.25500000920E-02 0. -1.
       -2   -1    0    0    0  501  0.00000000000E+00  0.00000000000E+00 -0.17676282217E+04  0.17676282217E+04  0.25500000920E-02 0.  1.
    10030    2    1    2    0    0  0.00000000000E+00  0.00000000000E+00  0.38916709772E+03  0.39244235411E+04  0.39050799095E+04 0.  0.
        3    1    3    3  502    0  0.20629630377E+03  0.55581187099E+03  0.20641554966E+04  0.21476086527E+04  0.10100000352E+00 0. -1.
       -3    1    3    3    0  502 -0.20629630377E+03 -0.55581187099E+03 -0.16749883989E+04  0.17768148884E+04  0.10100000352E+00 0.  1.
</event>
<event>
 5   0  0.1164500E-08  0.3892548E+04  0.7818609E-02  0.8026581E-01
        1   -1    0    0  501    0  0.00000000000E+00  0.00000000000E+00  0.22478485920E+04  0.22478485920E+04  0.50400001928E-02 0. -1.
       -1   -1    0    0    0  501  0.00000000000E+00  0.00000000000E+00 -0.16851588591E+04  0.16851588591E+04  0.50400001928E-02 0.  1.
    10030    2    1    2    0    0  0.00000000000E+00  0.00000000000E+00  0.56268973284E+03  0.39330074511E+04  0.38925477357E+04 0.  0.
        5    1    3    3  502    0 -0.13099197642E+04 -0.14012146471E+04 -0.51729235637E+02  0.19188512917E+04  0.46999998093E+01 0.  1.
       -5    1    3    3    0  502  0.13099197642E+04  0.14012146471E+04  0.61441896848E+03  0.20141561594E+04  0.46999998093E+01 0. -1.
</event>
<event>
 5   0  0.1164500E-08  0.3875014E+04  0.7818609E-02  0.8030246E-01
       -1   -1    0    0    0  501  0.00000000000E+00  0.00000000000E+00  0.22377374591E+04  0.22377374591E+04  0.50400001928E-02 0.  1.
        1   -1    0    0  501    0  0.00000000000E+00  0.00000000000E+00 -0.16775576816E+04  0.16775576816E+04  0.50400001928E-02 0. -1.
    10030    2    1    2    0    0  0.00000000000E+00  0.00000000000E+00  0.56017977747E+03  0.39152951407E+04  0.38750141491E+04 0.  0.
        3    1    3    3  502    0 -0.51547604812E+03  0.16132296987E+04  0.12309935192E+04  0.20936978462E+04  0.10100000352E+00 0.  1.
       -3    1    3    3    0  502  0.51547604812E+03 -0.16132296987E+04 -0.67081374170E+03  0.18215972945E+04  0.10100000352E+00 0. -1.
</event>
<event>
 5   0  0.1164500E-08  0.3902169E+04  0.7818609E-02  0.8024578E-01
       -1   -1    0    0    0  501  0.00000000000E+00  0.00000000000E+00  0.17773449534E+04  0.17773449534E+04  0.50400001928E-02 0.  1.
        1   -1    0    0  501    0  0.00000000000E+00  0.00000000000E+00 -0.21418080239E+04  0.21418080239E+04  0.50400001928E-02 0. -1.
    10030    2    1    2    0    0  0.00000000000E+00  0.00000000000E+00 -0.36446307049E+03  0.39191529772E+04  0.39021694901E+04 0.  0.
        3    1    3    3  502    0  0.16675976264E+03 -0.12897337091E+04 -0.16430411172E+04  0.20954250122E+04  0.10100000352E+00 0. -1.
       -3    1    3    3    0  502 -0.16675976264E+03  0.12897337091E+04  0.12785780467E+04  0.18237279650E+04  0.10100000352E+00 0.  1.
</event>
<event>
 5   0  0.3872969E-08  0.3901973E+04  0.7818609E-02  0.8024619E-01
        2   -1    0    0  501    0  0.00000000000E+00  0.00000000000E+00  0.17856718029E+04  0.17856718029E+04  0.25500000920E-02 0.  1.
       -2   -1    0    0    0  501  0.00000000000E+00  0.00000000000E+00 -0.21316061013E+04  0.21316061013E+04  0.25500000920E-02 0. -1.
    10030    2    1    2    0    0  0.00000000000E+00  0.00000000000E+00 -0.34593429841E+03  0.39172779042E+04  0.39019733008E+04 0.  0.
        2    1    3    3  502    0 -0.67064232396E+03 -0.18258493984E+04 -0.32476125148E+03  0.19720438694E+04  0.25500000920E-02 0. -1.
       -2    1    3    3    0  502  0.67064232396E+03  0.18258493984E+04 -0.21173046932E+02  0.19452340348E+04  0.25500000920E-02 0.  1.
</event>
<event>
 5   0  0.3872969E-08  0.3901851E+04  0.7818609E-02  0.8024644E-01
       -2   -1    0    0    0  501  0.00000000000E+00  0.00000000000E+00  0.17148087255E+04  0.17148087255E+04  0.25500000920E-02 0. -1.
        2   -1    0    0  501    0  0.00000000000E+00  0.00000000000E+00 -0.22195534151E+04  0.22195534151E+04  0.25500000920E-02 0.  1.
    10030    2    1    2    0    0  0.00000000000E+00  0.00000000000E+00 -0.50474468956E+03  0.39343621405E+04  0.39018506188E+04 0.  0.
        2    1    3    3  502    0 -0.13523475083E+04  0.55656924963E+03  0.10497031118E+04  0.18001360326E+04  0.25500000920E-02 0. -1.
       -2    1    3    3    0  502  0.13523475083E+04 -0.55656924963E+03 -0.15544478013E+04  0.21342261080E+04  0.25500000920E-02 0.  1.
</event>
<event>
 5   0  0.1164500E-08  0.3905386E+04  0.7818609E-02  0.8023910E-01
        1   -1    0    0  501    0  0.00000000000E+00  0.00000000000E+00  0.20452778260E+04  0.20452778260E+04  0.50400001928E-02 0. -1.
       -1   -1    0    0    0  501  0.00000000000E+00  0.00000000000E+00 -0.18642994203E+04  0.18642994203E+04  0.50400001928E-02 0.  1.
    10030    2    1    2    0    0  0.00000000000E+00  0.00000000000E+00  0.18097840572E+03  0.39095772463E+04  0.39053861604E+04 0.  0.
        1    1    3    3  502    0  0.19055535611E+04  0.21384578643E+03  0.45986467429E+03  0.19718873987E+04  0.50400001928E-02 0. -1.
       -1    1    3    3    0  502 -0.19055535611E+04 -0.21384578643E+03 -0.27888626858E+03  0.19376898476E+04  0.50400001928E-02 0.  1.
</event>
<event>
 5   0  0.3769985E-08  0.3899613E+04  0.7818609E-02  0.8025110E-01
        2   -1    0    0  501    0  0.00000000000E+00  0.00000000000E+00  0.11266324048E+04  0.11266324048E+04  0.25500000920E-02 0.  1.
       -2   -1    0    0    0  501  0.00000000000E+00  0.00000000000E+00 -0.33744328047E+04  0.33744328047E+04  0.25500000920E-02 0. -1.
    10030    2    1    2    0    0  0.00000000000E+00  0.00000000000E+00 -0.22478003999E+04  0.45010652094E+04  0.38996129785E+04 0.  0.
        1    1    3    3  502    0  0.13502632950E+04 -0.11717933940E+04 -0.20220058402E+04  0.26990402631E+04  0.50400001928E-02 0. -1.
       -1    1    3    3    0  502 -0.13502632950E+04  0.11717933940E+04 -0.22579455970E+03  0.18020249463E+04  0.50400001928E-02 0.  1.
</event>
<event>
 5   0  0.3669347E-08  0.3897586E+04  0.7818609E-02  0.8025531E-01
        2   -1    0    0  501    0  0.00000000000E+00  0.00000000000E+00  0.17566107500E+04  0.17566107500E+04  0.25500000920E-02 0.  1.
       -2   -1    0    0    0  501  0.00000000000E+00  0.00000000000E+00 -0.21620009724E+04  0.21620009725E+04  0.25500000920E-02 0. -1.
    10030    2    1    2    0    0  0.00000000000E+00  0.00000000000E+00 -0.40539022243E+03  0.39186117225E+04  0.38975859964E+04 0.  0.
        5    1    3    3  502    0 -0.85516000441E+03  0.96026152741E+03 -0.16749618903E+04  0.21116155564E+04  0.46999998093E+01 0. -1.
       -5    1    3    3    0  502  0.85516000441E+03 -0.96026152741E+03  0.12695716679E+04  0.18069961660E+04  0.46999998093E+01 0.  1.
</event>
<event>
 5   0  0.3669347E-08  0.3904869E+04  0.7818609E-02  0.8024017E-01
       -2   -1    0    0    0  501  0.00000000000E+00  0.00000000000E+00  0.24114071049E+04  0.24114071049E+04  0.25500000920E-02 0.  1.
        2   -1    0    0  501    0  0.00000000000E+00  0.00000000000E+00 -0.15808202451E+04  0.15808202451E+04  0.25500000920E-02 0. -1.
    10030    2    1    2    0    0  0.00000000000E+00  0.00000000000E+00  0.83058685986E+03  0.39922273500E+04  0.39048693553E+04 0.  0.
        5    1    3    3  502    0  0.16825567639E+04  0.73908044553E+03  0.10893937181E+04  0.21363609086E+04  0.46999998093E+01 0.  1.
       -5    1    3    3    0  502 -0.16825567639E+04 -0.73908044553E+03 -0.25880685824E+03  0.18558664414E+04  0.46999998093E+01 0. -1.
</event>
<event>
 5   0  0.3872969E-08  0.3898782E+04  0.7818609E-02  0.8025283E-01
        2   -1    0    0  501    0  0.00000000000E+00  0.00000000000E+00  0.25046025648E+04  0.25046025648E+04  0.25500000920E-02 0. -1.
       -2   -1    0    0    0  501  0.00000000000E+00  0.00000000000E+00 -0.15172564787E+04  0.15172564787E+04  0.25500000920E-02 0.  1.
    10030    2    1    2    0    0  0.00000000000E+00  0.00000000000E+00  0.98734608615E+03  0.40218590435E+04  0.38987815881E+04 0.  0.
        2    1    3    3  502    0  0.16790206272E+04 -0.51804858691E+02  0.15140032081E+04  0.22614154249E+04  0.25500000920E-02 0. -1.
       -2    1    3    3    0  502 -0.16790206272E+04  0.51804858691E+02 -0.52665712194E+03  0.17604436186E+04  0.25500000920E-02 0.  1.
</event>
<event>
 5   0  0.3690572E-08  0.3981870E+04  0.7818609E-02  0.8008214E-01
       -2   -1    0    0    0  501  0.00000000000E+00  0.00000000000E+00  0.20181530626E+04  0.20181530626E+04  0.25500000920E-02 0.  1.
        2   -1    0    0  501    0  0.00000000000E+00  0.00000000000E+00 -0.19640843861E+04  0.19640843861E+04  0.25500000920E-02 0. -1.
    10030    2    1    2    0    0  0.00000000000E+00  0.00000000000E+00  0.54068676511E+02  0.39822374487E+04  0.39818703741E+04 0.  0.
        3    1    3    3  502    0 -0.15442289467E+04 -0.12172187327E+04 -0.28533789773E+03  0.19868775023E+04  0.10100000352E+00 0.  1.
       -3    1    3    3    0  502  0.15442289467E+04  0.12172187327E+04  0.33940657424E+03  0.19953599464E+04  0.10100000352E+00 0. -1.
</event>
<event>
 5   0  0.1164500E-08  0.3894869E+04  0.7818609E-02  0.8026097E-01
       -1   -1    0    0    0  501  0.00000000000E+00  0.00000000000E+00  0.17559061329E+04  0.17559061330E+04  0.50400001928E-02 0. -1.
        1   -1    0    0  501    0  0.00000000000E+00  0.00000000000E+00 -0.21598542593E+04  0.21598542593E+04  0.50400001928E-02 0.  1.
    10030    2    1    2    0    0  0.00000000000E+00  0.00000000000E+00 -0.40394812635E+03  0.39157603922E+04  0.38948691070E+04 0.  0.
        3    1    3    3  502    0  0.13947602669E+04  0.10162763223E+04  0.70526723202E+03  0.18642895816E+04  0.10100000352E+00 0.  1.
       -3    1    3    3    0  502 -0.13947602669E+04 -0.10162763223E+04 -0.11092153584E+04  0.20514708106E+04  0.10100000352E+00 0. -1.
</event>
<event>
 5   0  0.3724293E-08  0.3894306E+04  0.7818609E-02  0.8026214E-01
        2   -1    0    0  501    0  0.00000000000E+00  0.00000000000E+00  0.22030673932E+04  0.22030673932E+04  0.25500000920E-02 0.  1.
       -2   -1    0    0    0  501  0.00000000000E+00  0.00000000000E+00 -0.17209666764E+04  0.17209666764E+04  0.25500000920E-02 0. -1.
    10030    2    1    2    0    0  0.00000000000E+00  0.00000000000E+00  0.48210071684E+03  0.39240340695E+04  0.38943063924E+04 0.  0.
        4    1    3    3  502    0  0.13496264143E+04  0.12340949973E+04  0.91467588510E+03  0.20447776183E+04  0.12699999809E+01 0.  1.
       -4    1    3    3    0  502 -0.13496264143E+04 -0.12340949973E+04 -0.43257516826E+03  0.18792564513E+04  0.12699999809E+01 0. -1.
</event>
<event>
 5   0  0.1164500E-08  0.3919343E+04  0.7818609E-02  0.8021018E-01
       -1   -1    0    0    0  501  0.00000000000E+00  0.00000000000E+00  0.16136953674E+04  0.16136953674E+04  0.50400001928E-02 0.  1.
        1   -1    0    0  501    0  0.00000000000E+00  0.00000000000E+00 -0.23798249023E+04  0.23798249023E+04  0.50400001928E-02 0. -1.
    10030    2    1    2    0    0  0.00000000000E+00  0.00000000000E+00 -0.76612953491E+03  0.39935202698E+04  0.39193430165E+04 0.  0.
        4    1    3    3  502    0 -0.14146187972E+04  0.59494197001E+03 -0.16248209607E+04  0.22349825628E+04  0.12699999809E+01 0. -1.
       -4    1    3    3    0  502  0.14146187972E+04 -0.59494197001E+03  0.85869142580E+03  0.17585377069E+04  0.12699999809E+01 0.  1.
</event>
<event>
 5   0  0.1164500E-08  0.3902532E+04  0.7818609E-02  0.8024503E-01
       -1   -1    0    0    0  501  0.00000000000E+00  0.00000000000E+00  0.25455680392E+04  0.25455680392E+04  0.50400001928E-02 0. -1.
        1   -1    0    0  501    0  0.00000000000E+00  0.00000000000E+00 -0.14957130130E+04  0.14957130130E+04  0.50400001928E-02 0.  1.
    10030    2    1    2    0    0  0.00000000000E+00  0.00000000000E+00  0.10498550263E+04  0.40412810522E+04  0.39025321225E+04 0.  0.
        1    1    3    3  502    0  0.17438002441E+03  0.16375984800E+04  0.16087034940E+04  0.23021868096E+04  0.50400001928E-02 0. -1.
       -1    1    3    3    0  502 -0.17438002441E+03 -0.16375984800E+04 -0.55884846775E+03  0.17390942426E+04  0.50400001928E-02 0.  1.
</event>
<event>
 5   0  0.3669347E-08  0.3900766E+04  0.7818609E-02  0.8024870E-01
        2   -1    0    0  501    0  0.00000000000E+00  0.00000000000E+00  0.20588154072E+04  0.20588154072E+04  0.25500000920E-02 0.  1.
       -2   -1    0    0    0  501  0.00000000000E+00  0.00000000000E+00 -0.18476618481E+04  0.18476618481E+04  0.25500000920E-02 0. -1.
    10030    2    1    2    0    0  0.00000000000E+00  0.00000000000E+00  0.21115355917E+03  0.39064772553E+04  0.39007664274E+04 0.  0.
        5    1    3    3  502    0  0.18743162886E+04  0.41120942586E+03 -0.24395833899E+03  0.19343454972E+04  0.46999998093E+01 0. -1.
       -5    1    3    3    0  502 -0.18743162886E+04 -0.41120942586E+03  0.45511189817E+03  0.19721317581E+04  0.46999998093E+01 0.  1.
</event>
<event>
 5   0  0.1164500E-08  0.3897245E+04  0.7818609E-02  0.8025602E-01
       -1   -1    0    0    0  501  0.00000000000E+00  0.00000000000E+00  0.14245050871E+04  0.14245050872E+04  0.50400001928E-02 0. -1.
        1   -1    0    0  501    0  0.00000000000E+00  0.00000000000E+00 -0.26655779134E+04  0.26655779134E+04  0.50400001928E-02 0.  1.
    10030    2    1    2    0    0  0.00000000000E+00  0.00000000000E+00 -0.12410728262E+04  0.40900830006E+04  0.38972448206E+04 0.  0.
        5    1    3    3  502    0  0.20808180753E+03  0.30053333131E+03 -0.26292678294E+04  0.26545601764E+04  0.46999998093E+01 0.  1.
       -5    1    3    3    0  502 -0.20808180753E+03 -0.30053333131E+03  0.13881950031E+04  0.14355228241E+04  0.46999998093E+01 0. -1.
</event>
<event>
 5   0  0.3690572E-08  0.3903602E+04  0.7818609E-02  0.8024280E-01
       -2   -1    0    0    0  501  0.00000000000E+00  0.00000000000E+00  0.18303037126E+04  0.18303037126E+04  0.25500000920E-02 0. -1.
        2   -1    0    0  501    0  0.00000000000E+00  0.00000000000E+00 -0.20813639006E+04  0.20813639006E+04  0.25500000920E-02 0.  1.
    10030    2    1    2    0    0  0.00000000000E+00  0.00000000000E+00 -0.25106018796E+03  0.39116676131E+04  0.39036024769E+04 0.  0.
        3    1    3    3  502    0  0.12846343785E+04  0.14688080867E+04 -0.16857676242E+03  0.19585966448E+04  0.10100000352E+00 0. -1.
       -3    1    3    3    0  502 -0.12846343785E+04 -0.14688080867E+04 -0.82483425543E+02  0.19530709684E+04  0.10100000352E+00 0.  1.
</event>
<event>
 5   0  0.3769985E-08  0.3894996E+04  0.7818609E-02  0.8026071E-01
        2   -1    0    0  501    0  0.00000000000E+00  0.00000000000E+00  0.27029267631E+04  0.27029267631E+04  0.25500000920E-02 0. -1.
       -2   -1    0    0    0  501  0.00000000000E+00  0.00000000000E+00 -0.14032004013E+04  0.14032004013E+04  0.25500000920E-02 0.  1.
    10030    2    1    2    0    0  0.00000000000E+00  0.00000000000E+00  0.12997263619E+04  0.41061271644E+04  0.38949957220E+04 0.  0.
        1    1    3    3  502    0 -0.10699722943E+04  0.16239966439E+04  0.75810352248E+03  0.20873252647E+04  0.50400001928E-02 0.  1.
       -1    1    3    3    0  502  0.10699722943E+04 -0.16239966439E+04  0.54162283939E+03  0.20188018997E+04  0.50400001928E-02 0. -1.
</event>
<event>
 5   0  0.1164500E-08  0.3909324E+04  0.7818609E-02  0.8023093E-01
       -1   -1    0    0    0  501  0.00000000000E+00  0.00000000000E+00  0.19169585242E+04  0.19169585242E+04  0.50400001928E-02 0. -1.
        1   -1    0    0  501    0  0.00000000000E+00  0.00000000000E+00 -0.19931073376E+04  0.19931073376E+04  0.50400001928E-02 0.  1.
    10030    2    1    2    0    0  0.00000000000E+00  0.00000000000E+00 -0.76148813415E+02  0.39100658619E+04  0.39093242898E+04 0.  0.
        2    1    3    3  502    0  0.15428098110E+04 -0.93736528262E+03 -0.78774197941E+03  0.19696327607E+04  0.25500000920E-02 0. -1.
       -2    1    3    3    0  502 -0.15428098110E+04  0.93736528262E+03  0.71159316600E+03  0.19404331011E+04  0.25500000920E-02 0.  1.
</event>
<event>
 5   0  0.1164500E-08  0.3872590E+04  0.7818609E-02  0.8030754E-01
        1   -1    0    0  501    0  0.00000000000E+00  0.00000000000E+00  0.25818093117E+04  0.25818093117E+04  0.50400001928E-02 0.  1.
       -1   -1    0    0    0  501  0.00000000000E+00  0.00000000000E+00 -0.14521749178E+04  0.14521749178E+04  0.50400001928E-02 0. -1.
    10030    2    1    2    0    0  0.00000000000E+00  0.00000000000E+00  0.11296343939E+04  0.40339842295E+04  0.38725902055E+04 0.  0.
        2    1    3    3  502    0 -0.19070134323E+04  0.24737370286E+02  0.21632005216E+03  0.19194026502E+04  0.25500000920E-02 0.  1.
       -2    1    3    3    0  502  0.19070134323E+04 -0.24737370286E+02  0.91331434178E+03  0.21145815793E+04  0.25500000920E-02 0. -1.
</event>
<event>
 5   0  0.3690572E-08  0.3909647E+04  0.7818609E-02  0.8023026E-01
       -2   -1    0    0    0  501  0.00000000000E+00  0.00000000000E+00  0.13024894106E+04  0.13024894106E+04  0.25500000920E-02 0. -1.
        2   -1    0    0  501    0  0.00000000000E+00  0.00000000000E+00 -0.29338695378E+04  0.29338695378E+04  0.25500000920E-02 0.  1.
    10030    2    1    2    0    0  0.00000000000E+00  0.00000000000E+00 -0.16313801273E+04  0.42363589484E+04  0.39096465339E+04 0.  0.
        3    1    3    3  502    0  0.17272575373E+04  0.71318486976E+03 -0.14374743419E+04  0.23576224787E+04  0.10100000352E+00 0.  1.
       -3    1    3    3    0  502 -0.17272575373E+04 -0.71318486976E+03 -0.19390578544E+03  0.18787364697E+04  0.10100000352E+00 0. -1.
</event>
<event>
 5   0  0.3669347E-08  0.3888982E+04  0.7818609E-02  0.8027325E-01
        2   -1    0    0  501    0  0.00000000000E+00  0.00000000000E+00  0.18699294575E+04  0.18699294575E+04  0.25500000920E-02 0.  1.
       -2   -1    0    0    0  501  0.00000000000E+00  0.00000000000E+00 -0.20220260273E+04  0.20220260273E+04  0.25500000920E-02 0. -1.
    10030    2    1    2    0    0  0.00000000000E+00  0.00000000000E+00 -0.15209656981E+03  0.38919554848E+04  0.38889824027E+04 0.  0.
        5    1    3    3  502    0 -0.11806877097E+04 -0.62166271377E+02 -0.16209693125E+04  0.20063528391E+04  0.46999998093E+01 0. -1.
       -5    1    3    3    0  502  0.11806877097E+04  0.62166271377E+02  0.14688727427E+04  0.18856026456E+04  0.46999998093E+01 0.  1.
</event>
<event>
 5   0  0.1164500E-08  0.3901568E+04  0.7818609E-02  0.8024703E-01
        1   -1    0    0  501    0  0.00000000000E+00  0.00000000000E+00  0.17107013990E+04  0.17107013990E+04  0.50400001928E-02 0. -1.
       -1   -1    0    0    0  501  0.00000000000E+00  0.00000000000E+00 -0.22245596328E+04  0.22245596328E+04  0.50400001928E-02 0.  1.
    10030    2    1    2    0    0  0.00000000000E+00  0.00000000000E+00 -0.51385823376E+03  0.39352610318E+04  0.39015675188E+04 0.  0.
        4    1    3    3  502    0  0.66775704609E+03 -0.16783413554E+04  0.48620112026E+03  0.18705941089E+04  0.12699999809E+01 0.  1.
       -4    1    3    3    0  502 -0.66775704609E+03  0.16783413554E+04 -0.10000593540E+04  0.20646669229E+04  0.12699999809E+01 0. -1.
</event>
<event>
 5   0  0.1164500E-08  0.3888996E+04  0.7818609E-02  0.8027322E-01
       -1   -1    0    0    0  501  0.00000000000E+00  0.00000000000E+00  0.16845595200E+04  0.16845595200E+04  0.50400001928E-02 0. -1.
        1   -1    0    0  501    0  0.00000000000E+00  0.00000000000E+00 -0.22445466654E+04  0.22445466654E+04  0.50400001928E-02 0.  1.
    10030    2    1    2    0    0  0.00000000000E+00  0.00000000000E+00 -0.55998714540E+03  0.39291061854E+04  0.38889959904E+04 0.  0.
        4    1    3    3  502    0 -0.63946062499E+03  0.34695836108E+03  0.15418744147E+04  0.17048953982E+04  0.12699999809E+01 0. -1.
       -4    1    3    3    0  502  0.63946062499E+03 -0.34695836108E+03 -0.21018615601E+04  0.22242107872E+04  0.12699999809E+01 0.  1.
</event>
<event>
 5   0  0.1164500E-08  0.3897954E+04  0.7818609E-02  0.8025455E-01
        1   -1    0    0  501    0  0.00000000000E+00  0.00000000000E+00  0.21132461302E+04  0.21132461302E+04  0.50400001928E-02 0. -1.
       -1   -1    0    0    0  501  0.00000000000E+00  0.00000000000E+00 -0.17974773418E+04  0.17974773418E+04  0.50400001928E-02 0.  1.
    10030    2    1    2    0    0  0.00000000000E+00  0.00000000000E+00  0.31576878838E+03  0.39107234720E+04  0.38979543541E+04 0.  0.
        1    1    3    3  502    0 -0.39672785005E+03 -0.12604465236E+04  0.15951951842E+04  0.20714164481E+04  0.50400001928E-02 0. -1.
       -1    1    3    3    0  502  0.39672785005E+03  0.12604465236E+04 -0.12794263958E+04  0.18393070239E+04  0.50400001928E-02 0.  1.
</event>
<event>
 5   0  0.1164500E-08  0.3908737E+04  0.7818609E-02  0.8023214E-01
        1   -1    0    0  501    0  0.00000000000E+00  0.00000000000E+00  0.19819204919E+04  0.19819204919E+04  0.50400001928E-02 0. -1.
       -1   -1    0    0    0  501  0.00000000000E+00  0.00000000000E+00 -0.19271997745E+04  0.19271997745E+04  0.50400001928E-02 0.  1.
    10030    2    1    2    0    0  0.00000000000E+00  0.00000000000E+00  0.54720717419E+02  0.39091202664E+04  0.39087372513E+04 0.  0.
        1    1    3    3  502    0 -0.50789552490E+03  0.48488365837E+03 -0.17966842273E+04  0.19290267595E+04  0.50400001928E-02 0.  1.
       -1    1    3    3    0  502  0.50789552490E+03 -0.48488365837E+03  0.18514049447E+04  0.19800935068E+04  0.50400001928E-02 0. -1.
</event>
<event>
 5   0  0.1164500E-08  0.3892851E+04  0.7818609E-02  0.8026518E-01
        1   -1    0    0  501    0  0.00000000000E+00  0.00000000000E+00  0.20996370669E+04  0.20996370669E+04  0.50400001928E-02 0.  1.
       -1   -1    0    0    0  501  0.00000000000E+00  0.00000000000E+00 -0.18043940979E+04  0.18043940979E+04  0.50400001928E-02 0. -1.
    10030    2    1    2    0    0  0.00000000000E+00  0.00000000000E+00  0.29524296897E+03  0.39040311649E+04  0.38928512591E+04 0.  0.
        2    1    3    3  502    0 -0.15761778568E+04  0.97563736729E+03 -0.44768907637E+03  0.19069951279E+04  0.25500000920E-02 0. -1.
       -2    1    3    3    0  502  0.15761778568E+04 -0.97563736729E+03  0.74293204535E+03  0.19970360369E+04  0.25500000920E-02 0.  1.
</event>
<event>
 5   0  0.1164500E-08  0.3904888E+04  0.7818609E-02  0.8024013E-01
       -1   -1    0    0    0  501  0.00000000000E+00  0.00000000000E+00  0.17310342619E+04  0.17310342619E+04  0.50400001928E-02 0. -1.
        1   -1    0    0  501    0  0.00000000000E+00  0.00000000000E+00 -0.22021729565E+04  0.22021729565E+04  0.50400001928E-02 0.  1.
    10030    2    1    2    0    0  0.00000000000E+00  0.00000000000E+00 -0.47113869458E+03  0.39332072185E+04  0.39048876237E+04 0.  0.
        5    1    3    3  502    0 -0.19150762367E+04  0.15591810142E+03  0.11362530141E+03  0.19247753755E+04  0.46999998093E+01 0. -1.
       -5    1    3    3    0  502  0.19150762367E+04 -0.15591810142E+03 -0.58476399599E+03  0.20084318430E+04  0.46999998093E+01 0.  1.
</event>
<event>
 5   0  0.1164500E-08  0.3900496E+04  0.7818609E-02  0.8024926E-01
       -1   -1    0    0    0  501  0.00000000000E+00  0.00000000000E+00  0.12994157851E+04  0.12994157851E+04  0.50400001928E-02 0.  1.
        1   -1    0    0  501    0  0.00000000000E+00  0.00000000000E+00 -0.29270594705E+04  0.29270594705E+04  0.50400001928E-02 0. -1.
    10030    2    1    2    0    0  0.00000000000E+00  0.00000000000E+00 -0.16276436854E+04  0.42264752556E+04  0.39004960094E+04 0.  0.
        2    1    3    3  502    0 -0.15697466295E+04  0.11535928029E+04 -0.91422911590E+03  0.21519051354E+04  0.25500000920E-02 0. -1.
       -2    1    3    3    0  502  0.15697466295E+04 -0.11535928029E+04 -0.71341456950E+03  0.20745701202E+04  0.25500000920E-02 0.  1.
</event>
<event>
 5   0  0.3769985E-08  0.3789908E+04  0.7818609E-02  0.8048324E-01
        2   -1    0    0  501    0  0.00000000000E+00  0.00000000000E+00  0.21472944761E+04  0.21472944761E+04  0.25500000920E-02 0.  1.
       -2   -1    0    0    0  501  0.00000000000E+00  0.00000000000E+00 -0.16722678159E+04  0.16722678159E+04  0.25500000920E-02 0. -1.
    10030    2    1    2    0    0  0.00000000000E+00  0.00000000000E+00  0.47502666021E+03  0.38195622921E+04  0.37899084125E+04 0.  0.
        1    1    3    3  502    0 -0.18027611986E+03 -0.18776070312E+04  0.42043776926E+03  0.19325308694E+04  0.50400001928E-02 0. -1.
       -1    1    3    3    0  502  0.18027611986E+03  0.18776070312E+04  0.54588890947E+02  0.18870314227E+04  0.50400001928E-02 0.  1.
</event>
<event>
 5   0  0.3769985E-08  0.3950543E+04  0.7818609E-02  0.8014599E-01
        2   -1    0    0  501    0  0.00000000000E+00  0.00000000000E+00  0.21134432374E+04  0.21134432374E+04  0.25500000920E-02 0.  1.
       -2   -1    0    0    0  501  0.00000000000E+00  0.00000000000E+00 -0.18461332319E+04  0.18461332319E+04  0.25500000920E-02 0. -1.
    10030    2    1    2    0    0  0.00000000000E+00  0.00000000000E+00  0.26731000555E+03  0.39595764693E+04  0.39505431497E+04 0.  0.
        1    1    3    3  502    0  0.58617388117E+03 -0.64209361845E+03  0.19113548245E+04  0.20998002998E+04  0.50400001928E-02 0.  1.
       -1    1    3    3    0  502 -0.58617388117E+03  0.64209361845E+03 -0.16440448190E+04  0.18597761695E+04  0.50400001928E-02 0. -1.
</event>
<event>
 5   0  0.3872969E-08  0.3902462E+04  0.7818609E-02  0.8024517E-01
       -2   -1    0    0    0  501  0.00000000000E+00  0.00000000000E+00  0.24384763622E+04  0.24384763623E+04  0.25500000920E-02 0.  1.
        2   -1    0    0  501    0  0.00000000000E+00  0.00000000000E+00 -0.15613451916E+04  0.15613451917E+04  0.25500000920E-02 0. -1.
    10030    2    1    2    0    0  0.00000000000E+00  0.00000000000E+00  0.87713117060E+03  0.39998215539E+04  0.39024624755E+04 0.  0.
        2    1    3    3  502    0  0.47834353720E+03 -0.17002783811E+04  0.12884350031E+04  0.21862808305E+04  0.25500000920E-02 0.  1.
       -2    1    3    3    0  502 -0.47834353720E+03  0.17002783811E+04 -0.41130383250E+03  0.18135407234E+04  0.25500000920E-02 0. -1.
</event>
<event>
 5   0  0.1164500E-08  0.3904520E+04  0.7818609E-02  0.8024090E-01
       -1   -1    0    0    0  501  0.00000000000E+00  0.00000000000E+00  0.26225834474E+04  0.26225834474E+04  0.50400001928E-02 0. -1.
        1   -1    0    0  501    0  0.00000000000E+00  0.00000000000E+00 -0.14532690993E+04  0.14532690993E+04  0.50400001928E-02 0.  1.
    10030    2    1    2    0    0  0.00000000000E+00  0.00000000000E+00  0.11693143481E+04  0.40758525468E+04  0.39045201931E+04 0.  0.
        4    1    3    3  502    0 -0.25509574792E+03 -0.33732095566E+03  0.25741900850E+04  0.26086999587E+04  0.12699999809E+01 0. -1.
       -4    1    3    3    0  502  0.25509574792E+03  0.33732095566E+03 -0.14048757369E+04  0.14671525881E+04  0.12699999809E+01 0.  1.
</event>
<event>
 5   0  0.1164500E-08  0.3904885E+04  0.7818609E-02  0.8024014E-01
        1   -1    0    0  501    0  0.00000000000E+00  0.00000000000E+00  0.23278186086E+04  0.23278186086E+04  0.50400001928E-02 0.  1.
       -1   -1    0    0    0  501  0.00000000000E+00  0.00000000000E+00 -0.16375982006E+04  0.16375982006E+04  0.50400001928E-02 0. -1.
    10030    2    1    2    0    0  0.00000000000E+00  0.00000000000E+00  0.69022040796E+03  0.39654168092E+04  0.39048849226E+04 0.  0.
        4    1    3    3  502    0  0.78667247435E+03 -0.65381097505E+03  0.20339316424E+04  0.22766646463E+04  0.12699999809E+01 0.  1.
       -4    1    3    3    0  502 -0.78667247435E+03  0.65381097505E+03 -0.13437112344E+04  0.16887521628E+04  0.12699999809E+01 0. -1.
</event>
<event>
 5   0  0.1164500E-08  0.3886407E+04  0.7818609E-02  0.8027862E-01
       -1   -1    0    0    0  501  0.00000000000E+00  0.00000000000E+00  0.17202646455E+04  0.17202646455E+04  0.50400001928E-02 0.  1.
        1   -1    0    0  501    0  0.00000000000E+00  0.00000000000E+00 -0.21950345049E+04  0.21950345049E+04  0.50400001928E-02 0. -1.
    10030    2    1    2    0    0  0.00000000000E+00  0.00000000000E+00 -0.47476985938E+03  0.39152991505E+04  0.38864072121E+04 0.  0.
        1    1    3    3  502    0  0.99538053623E+03  0.55881233984E+03  0.13468789817E+04  0.17655414564E+04  0.50400001928E-02 0.  1.
       -1    1    3    3    0  502 -0.99538053623E+03 -0.55881233984E+03 -0.18216488410E+04  0.21497576941E+04  0.50400001928E-02 0. -1.
</event>
<event>
 5   0  0.1164500E-08  0.3899981E+04  0.7818609E-02  0.8025033E-01
       -1   -1    0    0    0  501  0.00000000000E+00  0.00000000000E+00  0.28089907224E+04  0.28089907224E+04  0.50400001928E-02 0. -1.
        1   -1    0    0  501    0  0.00000000000E+00  0.00000000000E+00 -0.13536759246E+04  0.13536759246E+04  0.50400001928E-02 0.  1.
    10030    2    1    2    0    0  0.00000000000E+00  0.00000000000E+00  0.14553147978E+04  0.41626666470E+04  0.38999810838E+04 0.  0.
        2    1    3    3  502    0 -0.66923872348E+03 -0.11322507898E+04  0.22642753948E+04  0.26185521541E+04  0.25500000920E-02 0. -1.
       -2    1    3    3    0  502  0.66923872348E+03  0.11322507898E+04 -0.80896059701E+03  0.15441144930E+04  0.25500000920E-02 0.  1.
</event>
<event>
 5   0  0.1164500E-08  0.3897808E+04  0.7818609E-02  0.8025485E-01
       -1   -1    0    0    0  501  0.00000000000E+00  0.00000000000E+00  0.25693648630E+04  0.25693648630E+04  0.50400001928E-02 0.  1.
        1   -1    0    0  501    0  0.00000000000E+00  0.00000000000E+00 -0.14782749095E+04  0.14782749095E+04  0.50400001928E-02 0. -1.
    10030    2    1    2    0    0  0.00000000000E+00  0.00000000000E+00  0.10910899535E+04  0.40476397725E+04  0.38978084151E+04 0.  0.
        2    1    3    3  502    0  0.93495360306E+03  0.13849299800E+04 -0.49603577221E+03  0.17430492755E+04  0.25500000920E-02 0. -1.
       -2    1    3    3    0  502 -0.93495360306E+03 -0.13849299800E+04  0.15871257257E+04  0.23045904970E+04  0.25500000920E-02 0.  1.
</event>
<event>
 5   0  0.3690572E-08  0.3899036E+04  0.7818609E-02  0.8025230E-01
       -2   -1    0    0    0  501  0.00000000000E+00  0.00000000000E+00  0.22187535491E+04  0.22187535491E+04  0.25500000920E-02 0.  1.
        2   -1    0    0  501    0  0.00000000000E+00  0.00000000000E+00 -0.17129527650E+04  0.17129527651E+04  0.25500000920E-02 0. -1.
    10030    2    1    2    0    0  0.00000000000E+00  0.00000000000E+00  0.50580078404E+03  0.39317063141E+04  0.38990357920E+04 0.  0.
        3    1    3    3  502    0  0.17841541603E+04  0.44024860311E+03  0.90919573175E+03  0.20502833436E+04  0.10100000352E+00 0.  1.
       -3    1    3    3    0  502 -0.17841541603E+04 -0.44024860311E+03 -0.40339494771E+03  0.18814229706E+04  0.10100000352E+00 0. -1.
</event>
<event>
 5   0  0.3769985E-08  0.3895434E+04  0.7818609E-02  0.8025979E-01
       -2   -1    0    0    0  501  0.00000000000E+00  0.00000000000E+00  0.26293276324E+04  0.26293276324E+04  0.25500000920E-02 0. -1.
        2   -1    0    0  501    0  0.00000000000E+00  0.00000000000E+00 -0.14428031983E+04  0.14428031983E+04  0.25500000920E-02 0.  1.
    10030    2    1    2    0    0  0.00000000000E+00  0.00000000000E+00  0.11865244341E+04  0.40721308306E+04  0.38954344134E+04 0.  0.
        1    1    3    3  502    0  0.41844268121E+03 -0.81784417880E+03 -0.12020924501E+04  0.15129407248E+04  0.50400001928E-02 0.  1.
       -1    1    3    3    0  502 -0.41844268121E+03  0.81784417880E+03  0.23886168842E+04  0.25591901058E+04  0.50400001928E-02 0. -1.
</event>
<event>
 5   0  0.3690572E-08  0.3902611E+04  0.7818609E-02  0.8024486E-01
       -2   -1    0    0    0  501  0.00000000000E+00  0.00000000000E+00  0.17000290580E+04  0.17000290580E+04  0.25500000920E-02 0.  1.
        2   -1    0    0  501    0  0.00000000000E+00  0.00000000000E+00 -0.22397221036E+04  0.22397221036E+04  0.25500000920E-02 0. -1.
    10030    2    1    2    0    0  0.00000000000E+00  0.00000000000E+00 -0.53969304556E+03  0.39397511616E+04  0.39026107457E+04 0.  0.
        3    1    3    3  502    0 -0.13787786832E+04  0.13807104603E+04 -0.25554784572E+03  0.19679168539E+04  0.10100000352E+00 0. -1.
       -3    1    3    3    0  502  0.13787786832E+04 -0.13807104603E+04 -0.28414519984E+03  0.19718343077E+04  0.10100000352E+00 0.  1.
</event>
<event>
 5   0  0.1164500E-08  0.3884986E+04  0.7818609E-02  0.8028159E-01
        1   -1    0    0  501    0  0.00000000000E+00  0.00000000000E+00  0.29973764409E+04  0.29973764409E+04  0.50400001928E-02 0. -1.
       -1   -1    0    0    0  501  0.00000000000E+00  0.00000000000E+00 -0.12588608244E+04  0.12588608244E+04  0.50400001928E-02 0.  1.
    10030    2    1    2    0    0  0.00000000000E+00  0.00000000000E+00  0.17385156166E+04  0.42562372653E+04  0.38849863718E+04 0.  0.
        1    1    3    3  502    0 -0.13577100379E+04  0.13892092346E+04  0.87031598372E+03  0.21285508582E+04  0.50400001928E-02 0.  1.
       -1    1    3    3    0  502  0.13577100379E+04 -0.13892092346E+04  0.86819963286E+03  0.21276864071E+04  0.50400001928E-02 0. -1.
</event>
<event>
 5   0  0.3872969E-08  0.3899621E+04  0.7818609E-02  0.8025108E-01
        2   -1    0    0  501    0  0.00000000000E+00  0.00000000000E+00  0.19605012798E+04  0.19605012798E+04  0.25500000920E-02 0.  1.
       -2   -1    0    0    0  501  0.00000000000E+00  0.00000000000E+00 -0.19391780315E+04  0.19391780315E+04  0.25500000920E-02 0. -1.
    10030    2    1    2    0    0  0.00000000000E+00  0.00000000000E+00  0.21323248288E+02  0.38996793114E+04  0.38996210137E+04 0.  0.
        2    1    3    3  502    0 -0.55084636059E+03  0.15332767484E+04  0.10818413564E+04  0.19556968120E+04  0.25500000920E-02 0.  1.
       -2    1    3    3    0  502  0.55084636059E+03 -0.15332767484E+04 -0.10605181081E+04  0.19439824993E+04  0.25500000920E-02 0. -1.
</event>
<event>
 5   0  0.3872969E-08  0.3928316E+04  0.7818609E-02  0.8019166E-01
        2   -1    0    0  501    0  0.00000000000E+00  0.00000000000E+00  0.20310133553E+04  0.20310133553E+04  0.25500000920E-02 0. -1.
       -2   -1    0    0    0  501  0.00000000000E+00  0.00000000000E+00 -0.18995031239E+04  0.18995031239E+04  0.25500000920E-02 0.  1.
    10030    2    1    2    0    0  0.00000000000E+00  0.00000000000E+00  0.13151023137E+03  0.39305164792E+04  0.39283157781E+04 0.  0.
        2    1    3    3  502    0  0.19039651249E+04  0.47108068510E+02  0.54624684825E+03  0.19813349001E+04  0.25500000920E-02 0. -1.
       -2    1    3    3    0  502 -0.19039651249E+04 -0.47108068510E+02 -0.41473661688E+03  0.19491815791E+04  0.25500000920E-02 0.  1.
</event>
<event>
 5   0  0.1164500E-08  0.3922422E+04  0.7818609E-02  0.8020382E-01
        1   -1    0    0  501    0  0.00000000000E+00  0.00000000000E+00  0.18249415164E+04  0.18249415164E+04  0.50400001928E-02 0. -1.
       -1   -1    0    0    0  501  0.00000000000E+00  0.00000000000E+00 -0.21076556148E+04  0.21076556148E+04  0.50400001928E-02 0.  1.
    10030    2    1    2    0    0  0.00000000000E+00  0.00000000000E+00 -0.28271409837E+03  0.39325971312E+04  0.39224218201E+04 0.  0.
        1    1    3    3  502    0  0.10508778009E+04 -0.16082676496E+04 -0.53668851110E+03  0.19947189133E+04  0.50400001928E-02 0. -1.
       -1    1    3    3    0  502 -0.10508778009E+04  0.16082676496E+04  0.25397441273E+03  0.19378782179E+04  0.50400001928E-02 0.  1.
</event>
<event>
 5   0  0.1164500E-08  0.3902221E+04  0.7818609E-02  0.8024567E-01
       -1   -1    0    0    0  501  0.00000000000E+00  0.00000000000E+00  0.17848757326E+04  0.17848757326E+04  0.50400001928E-02 0.  1.
        1   -1    0    0  501    0  0.00000000000E+00  0.00000000000E+00 -0.21328280366E+04  0.21328280366E+04  0.50400001928E-02 0. -1.
    10030    2    1    2    0    0  0.00000000000E+00  0.00000000000E+00 -0.34795230394E+03  0.39177037692E+04  0.39022214209E+04 0.  0.
        4    1    3    3  502    0  0.13062454955E+04 -0.13762387929E+04  0.28227258068E+03  0.19183299853E+04  0.12699999809E+01 0. -1.
       -4    1    3    3    0  502 -0.13062454955E+04  0.13762387929E+04 -0.63022488462E+03  0.19993737839E+04  0.12699999809E+01 0.  1.
</event>
<event>
 5   0  0.1164500E-08  0.3897084E+04  0.7818609E-02  0.8025636E-01
       -3   -1    0    0    0  501  0.00000000000E+00  0.00000000000E+00  0.12639618984E+04  0.12639619024E+04  0.10100000352E+00 0. -1.
        3   -1    0    0  501    0  0.00000000000E+00  0.00000000000E+00 -0.30039010342E+04  0.30039010359E+04  0.10100000352E+00 0.  1.
    10030    2    1    2    0    0  0.00000000000E+00  0.00000000000E+00 -0.17399391359E+04  0.42678629383E+04  0.38970842772E+04 0.  0.
        4    1    3    3  502    0  0.41613056007E+03  0.88009629029E+03  0.97854570644E+03  0.13803214972E+04  0.12699999809E+01 0. -1.
       -4    1    3    3    0  502 -0.41613056007E+03 -0.88009629029E+03 -0.27184848423E+04  0.28875414411E+04  0.12699999809E+01 0.  1.
</event>
<event>
 5   0  0.3724293E-08  0.3898881E+04  0.7818609E-02  0.8025262E-01
        2   -1    0    0  501    0  0.00000000000E+00  0.00000000000E+00  0.30770262017E+04  0.30770262017E+04  0.25500000920E-02 0.  1.
       -2   -1    0    0    0  501  0.00000000000E+00  0.00000000000E+00 -0.12350617986E+04  0.12350617986E+04  0.25500000920E-02 0. -1.
    10030    2    1    2    0    0  0.00000000000E+00  0.00000000000E+00  0.18419644031E+04  0.43120880003E+04  0.38988806162E+04 0.  0.
        4    1    3    3  502    0  0.40252176129E+03  0.10026477149E+04 -0.87363678244E+03  0.13894491891E+04  0.12699999809E+01 0. -1.
       -4    1    3    3    0  502 -0.40252176129E+03 -0.10026477149E+04  0.27156011856E+04  0.29226388112E+04  0.12699999809E+01 0.  1.
</event>
<event>
 5   0  0.1164500E-08  0.3862658E+04  0.7818609E-02  0.8032841E-01
       -1   -1    0    0    0  501  0.00000000000E+00  0.00000000000E+00  0.22325157291E+04  0.22325157291E+04  0.50400001928E-02 0.  1.
        1   -1    0    0  501    0  0.00000000000E+00  0.00000000000E+00 -0.16707747253E+04  0.16707747254E+04  0.50400001928E-02 0. -1.
    10030    2    1    2    0    0  0.00000000000E+00  0.00000000000E+00  0.56174100373E+03  0.39032904544E+04  0.38626575588E+04 0.  0.
        5    1    3    3  502    0 -0.59999842298E+03  0.18278081482E+04  0.45333520179E+03  0.19764654385E+04  0.46999998093E+01 0. -1.
       -5    1    3    3    0  502  0.59999842298E+03 -0.18278081482E+04  0.10840580194E+03  0.19268250160E+04  0.46999998093E+01 0.  1.
</event>
<event>
 5   0  0.3690572E-08  0.3906301E+04  0.7818609E-02  0.8023720E-01
        2   -1    0    0  501    0  0.00000000000E+00  0.00000000000E+00  0.23419982446E+04  0.23419982446E+04  0.25500000920E-02 0. -1.
       -2   -1    0    0    0  501  0.00000000000E+00  0.00000000000E+00 -0.16288643705E+04  0.16288643705E+04  0.25500000920E-02 0.  1.
    10030    2    1    2    0    0  0.00000000000E+00  0.00000000000E+00  0.71313387412E+03  0.39708626151E+04  0.39063013178E+04 0.  0.
        3    1    3    3  502    0 -0.78855730715E+03 -0.68553043775E+03 -0.13208644557E+04  0.16841785915E+04  0.10100000352E+00 0.  1.
       -3    1    3    3    0  502  0.78855730715E+03  0.68553043775E+03  0.20339983298E+04  0.22866840235E+04  0.10100000352E+00 0. -1.
</event>
<event>
 5   0  0.1164500E-08  0.3902857E+04  0.7818609E-02  0.8024435E-01
        1   -1    0    0  501    0  0.00000000000E+00  0.00000000000E+00  0.20506943839E+04  0.20506943839E+04  0.50400001928E-02 0. -1.
       -1   -1    0    0    0  501  0.00000000000E+00  0.00000000000E+00 -0.18569681300E+04  0.18569681301E+04  0.50400001928E-02 0.  1.
    10030    2    1    2    0    0  0.00000000000E+00  0.00000000000E+00  0.19372625383E+03  0.39076625139E+04  0.39028574739E+04 0.  0.
        5    1    3    3  502    0 -0.14656549796E+04  0.80098989073E+03  0.11072252797E+04  0.20039209651E+04  0.46999998093E+01 0.  1.
       -5    1    3    3    0  502  0.14656549796E+04 -0.80098989073E+03 -0.91349902592E+03  0.19037415488E+04  0.46999998093E+01 0. -1.
</event>
<event>
 5   0  0.1164500E-08  0.3909135E+04  0.7818609E-02  0.8023132E-01
        1   -1    0    0  501    0  0.00000000000E+00  0.00000000000E+00  0.19829144348E+04  0.19829144348E+04  0.50400001928E-02 0.  1.
       -1   -1    0    0    0  501  0.00000000000E+00  0.00000000000E+00 -0.19266257754E+04  0.19266257755E+04  0.50400001928E-02 0. -1.
    10030    2    1    2    0    0  0.00000000000E+00  0.00000000000E+00  0.56288659350E+02  0.39095402103E+04  0.39091349737E+04 0.  0.
        3    1    3    3  502    0 -0.12063779083E+04 -0.60677683034E+03 -0.13850868215E+04  0.19344227286E+04  0.10100000352E+00 0. -1.
       -3    1    3    3    0  502  0.12063779083E+04  0.60677683034E+03  0.14413754808E+04  0.19751174817E+04  0.10100000352E+00 0.  1.
</event>
<event>
 5   0  0.1164500E-08  0.3903429E+04  0.7818609E-02  0.8024316E-01
        1   -1    0    0  501    0  0.00000000000E+00  0.00000000000E+00  0.21834556604E+04  0.21834556604E+04  0.50400001928E-02 0.  1.
       -1   -1    0    0    0  501  0.00000000000E+00  0.00000000000E+00 -0.17445694691E+04  0.17445694691E+04  0.50400001928E-02 0. -1.
    10030    2    1    2    0    0  0.00000000000E+00  0.00000000000E+00  0.43888619128E+03  0.39280251296E+04  0.39034293038E+04 0.  0.
        3    1    3    3  502    0  0.75902051288E+03  0.47226062096E+02 -0.15893386979E+04  0.17619137171E+04  0.10100000352E+00 0. -1.
       -3    1    3    3    0  502 -0.75902051288E+03 -0.47226062096E+02  0.20282248891E+04  0.21661114124E+04  0.10100000352E+00 0.  1.
</event>
<event>
 5   0  0.3724293E-08  0.3894605E+04  0.7818609E-02  0.8026152E-01
        2   -1    0    0  501    0  0.00000000000E+00  0.00000000000E+00  0.23009917321E+04  0.23009917321E+04  0.25500000920E-02 0.  1.
       -2   -1    0    0    0  501  0.00000000000E+00  0.00000000000E+00 -0.16479795731E+04  0.16479795731E+04  0.25500000920E-02 0. -1.
    10030    2    1    2    0    0  0.00000000000E+00  0.00000000000E+00  0.65301215900E+03  0.39489713051E+04  0.38946051775E+04 0.  0.
        4    1    3    3  502    0 -0.78386497823E+03 -0.15482875840E+04  0.12222099011E+04  0.21226015646E+04  0.12699999809E+01 0.  1.
       -4    1    3    3    0  502  0.78386497823E+03  0.15482875840E+04 -0.56919774206E+03  0.18263697406E+04  0.12699999809E+01 0. -1.
</event>
<event>
 5   0  0.3690572E-08  0.3900940E+04  0.7818609E-02  0.8024834E-01
       -2   -1    0    0    0  501  0.00000000000E+00  0.00000000000E+00  0.19972206349E+04  0.19972206349E+04  0.25500000920E-02 0. -1.
        2   -1    0    0  501    0  0.00000000000E+00  0.00000000000E+00 -0.19048135638E+04  0.19048135638E+04  0.25500000920E-02 0.  1.
    10030    2    1    2    0    0  0.00000000000E+00  0.00000000000E+00  0.92407071078E+02  0.39020341987E+04  0.39009398638E+04 0.  0.
        3    1    3    3  502    0  0.71622557088E+03  0.16130682450E+04 -0.78430928452E+03  0.19313490869E+04  0.10100000352E+00 0.  1.
       -3    1    3    3    0  502 -0.71622557088E+03 -0.16130682450E+04  0.87671635559E+03  0.19706851118E+04  0.10100000352E+00 0. -1.
</event>
<event>
 5   0  0.3872969E-08  0.3899444E+04  0.7818609E-02  0.8025145E-01
        2   -1    0    0  501    0  0.00000000000E+00  0.00000000000E+00  0.14191686955E+04  0.14191686955E+04  0.25500000920E-02 0. -1.
       -2   -1    0    0    0  501  0.00000000000E+00  0.00000000000E+00 -0.26786211573E+04  0.26786211573E+04  0.25500000920E-02 0.  1.
    10030    2    1    2    0    0  0.00000000000E+00  0.00000000000E+00 -0.12594524619E+04  0.40977898528E+04  0.38994437006E+04 0.  0.
        2    1    3    3  502    0  0.54402287183E+03  0.87922529243E+03 -0.23668091142E+04  0.25827859731E+04  0.25500000920E-02 0.  1.
       -2    1    3    3    0  502 -0.54402287183E+03 -0.87922529243E+03  0.11073566523E+04  0.15150038797E+04  0.25500000920E-02 0. -1.
</event>
<event>
 5   0  0.3769985E-08  0.3888229E+04  0.7818609E-02  0.8027482E-01
       -2   -1    0    0    0  501  0.00000000000E+00  0.00000000000E+00  0.14059499354E+04  0.14059499354E+04  0.25500000920E-02 0.  1.
        2   -1    0    0  501    0  0.00000000000E+00  0.00000000000E+00 -0.26882763970E+04  0.26882763970E+04  0.25500000920E-02 0. -1.
    10030    2    1    2    0    0  0.00000000000E+00  0.00000000000E+00 -0.12823264616E+04  0.40942263324E+04  0.38882294308E+04 0.  0.
        1    1    3    3  502    0 -0.16001704579E+04 -0.10430522704E+04 -0.25993444618E+03  0.19277109352E+04  0.50400001928E-02 0.  1.
       -1    1    3    3    0  502  0.16001704579E+04  0.10430522704E+04 -0.10223920155E+04  0.21665153972E+04  0.50400001928E-02 0. -1.
</event>
<event>
 5   0  0.3669347E-08  0.3907928E+04  0.7818609E-02  0.8023382E-01
        2   -1    0    0  501    0  0.00000000000E+00  0.00000000000E+00  0.26438760729E+04  0.26438760729E+04  0.25500000920E-02 0. -1.
       -2   -1    0    0    0  501  0.00000000000E+00  0.00000000000E+00 -0.14440824483E+04  0.14440824483E+04  0.25500000920E-02 0.  1.
    10030    2    1    2    0    0  0.00000000000E+00  0.00000000000E+00  0.11997936246E+04  0.40879585212E+04  0.39079278562E+04 0.  0.
        5    1    3    3  502    0  0.11649887669E+04 -0.53126877987E+02 -0.10401069480E+04  0.15626470637E+04  0.46999998093E+01 0.  1.
       -5    1    3    3    0  502 -0.11649887669E+04  0.53126877987E+02  0.22399005726E+04  0.25253114575E+04  0.46999998093E+01 0. -1.
</event>
<event>
 5   0  0.3690572E-08  0.3904115E+04  0.7818609E-02  0.8024174E-01
       -2   -1    0    0    0  501  0.00000000000E+00  0.00000000000E+00  0.13107350129E+04  0.13107350129E+04  0.25500000920E-02 0. -1.
        2   -1    0    0  501    0  0.00000000000E+00  0.00000000000E+00 -0.29071698980E+04  0.29071698980E+04  0.25500000920E-02 0.  1.
    10030    2    1    2    0    0  0.00000000000E+00  0.00000000000E+00 -0.15964348851E+04  0.42179049109E+04  0.39041154562E+04 0.  0.
        3    1    3    3  502    0 -0.14462495882E+04 -0.93141500435E+03  0.19863329873E+03  0.17316544053E+04  0.10100000352E+00 0.  1.
       -3    1    3    3    0  502  0.14462495882E+04  0.93141500435E+03 -0.17950681838E+04  0.24862505056E+04  0.10100000352E+00 0. -1.
</event>
<event>
 5   0  0.1164500E-08  0.3809676E+04  0.7818609E-02  0.8044082E-01
       -1   -1    0    0    0  501  0.00000000000E+00  0.00000000000E+00  0.19657887816E+04  0.19657887816E+04  0.50400001928E-02 0. -1.
        1   -1    0    0  501    0  0.00000000000E+00  0.00000000000E+00 -0.18457771985E+04  0.18457771985E+04  0.50400001928E-02 0.  1.
    10030    2    1    2    0    0  0.00000000000E+00  0.00000000000E+00  0.12001158311E+03  0.38115659801E+04  0.38096761595E+04 0.  0.
        3    1    3    3  502    0  0.10289898351E+04  0.22520423430E+03 -0.15278766677E+04  0.18557866660E+04  0.10100000352E+00 0.  1.
       -3    1    3    3    0  502 -0.10289898351E+04 -0.22520423430E+03  0.16478882508E+04  0.19557793141E+04  0.10100000352E+00 0. -1.
</event>
<event>
 5   0  0.1164500E-08  0.3921083E+04  0.7818609E-02  0.8020658E-01
        1   -1    0    0  501    0  0.00000000000E+00  0.00000000000E+00  0.28306349703E+04  0.28306349703E+04  0.50400001928E-02 0. -1.
       -1   -1    0    0    0  501  0.00000000000E+00  0.00000000000E+00 -0.13579016196E+04  0.13579016196E+04  0.50400001928E-02 0.  1.
    10030    2    1    2    0    0  0.00000000000E+00  0.00000000000E+00  0.14727333508E+04  0.41885365899E+04  0.39210834272E+04 0.  0.
        3    1    3    3  502    0  0.31974512824E+03 -0.14461039884E+04  0.21086182810E+04  0.25767663374E+04  0.10100000352E+00 0. -1.
       -3    1    3    3    0  502 -0.31974512824E+03  0.14461039884E+04 -0.63588493028E+03  0.16117702525E+04  0.10100000352E+00 0.  1.
</event>
<event>
 5   0  0.1164500E-08  0.3899823E+04  0.7818609E-02  0.8025066E-01
        1   -1    0    0  501    0  0.00000000000E+00  0.00000000000E+00  0.27683666522E+04  0.27683666522E+04  0.50400001928E-02 0.  1.
       -1   -1    0    0    0  501  0.00000000000E+00  0.00000000000E+00 -0.13734289190E+04  0.13734289190E+04  0.50400001928E-02 0. -1.
    10030    2    1    2    0    0  0.00000000000E+00  0.00000000000E+00  0.13949377332E+04  0.41417955712E+04  0.38998229799E+04 0.  0.
        5    1    3    3  502    0 -0.13691965691E+04  0.13373552133E+04  0.30163077680E+03  0.19375813343E+04  0.46999998093E+01 0. -1.
       -5    1    3    3    0  502  0.13691965691E+04 -0.13373552133E+04  0.10933069564E+04  0.22042142369E+04  0.46999998093E+01 0.  1.
</event>
<event>
 5   0  0.1164500E-08  0.3901761E+04  0.7818609E-02  0.8024663E-01
        1   -1    0    0  501    0  0.00000000000E+00  0.00000000000E+00  0.19194642031E+04  0.19194642031E+04  0.50400001928E-02 0. -1.
       -1   -1    0    0    0  501  0.00000000000E+00  0.00000000000E+00 -0.19828110260E+04  0.19828110260E+04  0.50400001928E-02 0.  1.
    10030    2    1    2    0    0  0.00000000000E+00  0.00000000000E+00 -0.63346822855E+02  0.39022752291E+04  0.39017610311E+04 0.  0.
        5    1    3    3  502    0 -0.10966275263E+04 -0.12991644279E+01 -0.16453664692E+04  0.19773331857E+04  0.46999998093E+01 0.  1.
       -5    1    3    3    0  502  0.10966275263E+04  0.12991644279E+01  0.15820196463E+04  0.19249420434E+04  0.46999998093E+01 0. -1.
</event>
<event>
 5   0  0.3872969E-08  0.3917067E+04  0.7818609E-02  0.8021489E-01
       -2   -1    0    0    0  501  0.00000000000E+00  0.00000000000E+00  0.26158330067E+04  0.26158330067E+04  0.25500000920E-02 0.  1.
        2   -1    0    0  501    0  0.00000000000E+00  0.00000000000E+00 -0.14663985120E+04  0.14663985120E+04  0.25500000920E-02 0. -1.
    10030    2    1    2    0    0  0.00000000000E+00  0.00000000000E+00  0.11494344947E+04  0.40822315188E+04  0.39170670807E+04 0.  0.
        2    1    3    3  502    0 -0.14389192015E+04  0.29395875766E+03 -0.77566259010E+03  0.16608891213E+04  0.25500000920E-02 0. -1.
       -2    1    3    3    0  502  0.14389192015E+04 -0.29395875766E+03  0.19250970848E+04  0.24213423974E+04  0.25500000920E-02 0.  1.
</event>
<event>
 5   0  0.3690572E-08  0.3893094E+04  0.7818609E-02  0.8026467E-01
       -2   -1    0    0    0  501  0.00000000000E+00  0.00000000000E+00  0.23811283874E+04  0.23811283874E+04  0.25500000920E-02 0.  1.
        2   -1    0    0  501    0  0.00000000000E+00  0.00000000000E+00 -0.15912812753E+04  0.15912812753E+04  0.25500000920E-02 0. -1.
    10030    2    1    2    0    0  0.00000000000E+00  0.00000000000E+00  0.78984711210E+03  0.39724096626E+04  0.38930938940E+04 0.  0.
        3    1    3    3  502    0 -0.44579304582E+03 -0.17400252372E+04 -0.37044206453E+03  0.18340246997E+04  0.10100000352E+00 0. -1.
       -3    1    3    3    0  502  0.44579304582E+03  0.17400252372E+04  0.11602891766E+04  0.21383849629E+04  0.10100000352E+00 0.  1.
</event>
<event>
 5   0  0.1164500E-08  0.3909242E+04  0.7818609E-02  0.8023110E-01
        1   -1    0    0  501    0  0.00000000000E+00  0.00000000000E+00  0.18877844626E+04  0.18877844627E+04  0.50400001928E-02 0. -1.
       -1   -1    0    0    0  501  0.00000000000E+00  0.00000000000E+00 -0.20238239962E+04  0.20238239962E+04  0.50400001928E-02 0.  1.
    10030    2    1    2    0    0  0.00000000000E+00  0.00000000000E+00 -0.13603953356E+03  0.39116084589E+04  0.39092421236E+04 0.  0.
        3    1    3    3  502    0  0.96412956340E+03 -0.11584885438E+04  0.11772824810E+04  0.19124945938E+04  0.10100000352E+00 0. -1.
       -3    1    3    3    0  502 -0.96412956340E+03  0.11584885438E+04 -0.13133220146E+04  0.19991138650E+04  0.10100000352E+00 0.  1.
</event>
<event>
 5   0  0.1164500E-08  0.3892528E+04  0.7818609E-02  0.8026585E-01
       -1   -1    0    0    0  501  0.00000000000E+00  0.00000000000E+00  0.25319681570E+04  0.25319681570E+04  0.50400001928E-02 0.  1.
        1   -1    0    0  501    0  0.00000000000E+00  0.00000000000E+00 -0.14960474339E+04  0.14960474339E+04  0.50400001928E-02 0. -1.
    10030    2    1    2    0    0  0.00000000000E+00  0.00000000000E+00  0.10359207231E+04  0.40280155909E+04  0.38925284657E+04 0.  0.
        2    1    3    3  502    0  0.12251453261E+04 -0.54662847003E+03  0.19770604680E+04  0.23892575936E+04  0.25500000920E-02 0.  1.
       -2    1    3    3    0  502 -0.12251453261E+04  0.54662847003E+03 -0.94113974490E+03  0.16387579973E+04  0.25500000920E-02 0. -1.
</event>
<event>
 5   0  0.3872969E-08  0.3871163E+04  0.7818609E-02  0.8031054E-01
        2   -1    0    0  501    0  0.00000000000E+00  0.00000000000E+00  0.30924874046E+04  0.30924874046E+04  0.25500000920E-02 0.  1.
       -2   -1    0    0    0  501  0.00000000000E+00  0.00000000000E+00 -0.12114766618E+04  0.12114766618E+04  0.25500000920E-02 0. -1.
    10030    2    1    2    0    0  0.00000000000E+00  0.00000000000E+00  0.18810107428E+04  0.43039640665E+04  0.38711632969E+04 0.  0.
        2    1    3    3  502    0  0.17419117960E+04 -0.12348237158E+03  0.18686907495E+04  0.25576375268E+04  0.25500000920E-02 0.  1.
       -2    1    3    3    0  502 -0.17419117960E+04  0.12348237158E+03  0.12319993336E+02  0.17463265397E+04  0.25500000920E-02 0. -1.
</event>
<event>
 5   0  0.1164500E-08  0.3893279E+04  0.7818609E-02  0.8026429E-01
        1   -1    0    0  501    0  0.00000000000E+00  0.00000000000E+00  0.18164583455E+04  0.18164583455E+04  0.50400001928E-02 0.  1.
       -1   -1    0    0    0  501  0.00000000000E+00  0.00000000000E+00 -0.20861500151E+04  0.20861500151E+04  0.50400001928E-02 0. -1.
    10030    2    1    2    0    0  0.00000000000E+00  0.00000000000E+00 -0.26969166965E+03  0.39026083606E+04  0.38932786209E+04 0.  0.
        4    1    3    3  502    0 -0.30806424079E+03 -0.57463727510E+02 -0.20606987598E+04  0.20843911936E+04  0.12699999809E+01 0. -1.
       -4    1    3    3    0  502  0.30806424079E+03  0.57463727510E+02  0.17910070902E+04  0.18182171670E+04  0.12699999809E+01 0.  1.
</event>
<event>
 5   0  0.3769985E-08  0.3890295E+04  0.7818609E-02  0.8027051E-01
       -2   -1    0    0    0  501  0.00000000000E+00  0.00000000000E+00  0.20754364145E+04  0.20754364145E+04  0.25500000920E-02 0. -1.
        2   -1    0    0  501    0  0.00000000000E+00  0.00000000000E+00 -0.18230376029E+04  0.18230376029E+04  0.25500000920E-02 0.  1.
    10030    2    1    2    0    0  0.00000000000E+00  0.00000000000E+00  0.25239881158E+03  0.38984740175E+04  0.38902949123E+04 0.  0.
        1    1    3    3  502    0  0.63221834763E+03  0.85120663838E+03  0.17603780442E+04  0.20550385979E+04  0.50400001928E-02 0. -1.
       -1    1    3    3    0  502 -0.63221834763E+03 -0.85120663838E+03 -0.15079792326E+04  0.18434354196E+04  0.50400001928E-02 0.  1.
</event>
<event>
 5   0  0.1164500E-08  0.3824351E+04  0.7818609E-02  0.8040949E-01
        1   -1    0    0  501    0  0.00000000000E+00  0.00000000000E+00  0.26549082511E+04  0.26549082511E+04  0.50400001928E-02 0. -1.
       -1   -1    0    0    0  501  0.00000000000E+00  0.00000000000E+00 -0.13772283439E+04  0.13772283439E+04  0.50400001928E-02 0.  1.
    10030    2    1    2    0    0  0.00000000000E+00  0.00000000000E+00  0.12776799071E+04  0.40321365950E+04  0.38243508698E+04 0.  0.
        4    1    3    3  502    0  0.53338016958E+03 -0.17724757123E+04  0.11447532839E+04  0.21763791604E+04  0.12699999809E+01 0.  1.
       -4    1    3    3    0  502 -0.53338016958E+03  0.17724757123E+04  0.13292662324E+03  0.18557574346E+04  0.12699999809E+01 0. -1.
</event>
<event>
 5   0  0.1164500E-08  0.3904612E+04  0.7818609E-02  0.8024071E-01
       -1   -1    0    0    0  501  0.00000000000E+00  0.00000000000E+00  0.18347662464E+04  0.18347662464E+04  0.50400001928E-02 0.  1.
        1   -1    0    0  501    0  0.00000000000E+00  0.00000000000E+00 -0.20773754140E+04  0.20773754140E+04  0.50400001928E-02 0. -1.
    10030    2    1    2    0    0  0.00000000000E+00  0.00000000000E+00 -0.24260916758E+03  0.39121416604E+04  0.39046117813E+04 0.  0.
        3    1    3    3  502    0 -0.13848436849E+04 -0.15053607252E+03  0.12491948002E+04  0.18710801158E+04  0.10100000352E+00 0.  1.
       -3    1    3    3    0  502  0.13848436849E+04  0.15053607252E+03 -0.14918039677E+04  0.20410615446E+04  0.10100000352E+00 0. -1.
</event>
<event>
 5   0  0.1164500E-08  0.3904354E+04  0.7818609E-02  0.8024124E-01
        1   -1    0    0  501    0  0.00000000000E+00  0.00000000000E+00  0.21015804950E+04  0.21015804950E+04  0.50400001928E-02 0.  1.
       -1   -1    0    0    0  501  0.00000000000E+00  0.00000000000E+00 -0.18133944763E+04  0.18133944763E+04  0.50400001928E-02 0. -1.
    10030    2    1    2    0    0  0.00000000000E+00  0.00000000000E+00  0.28818601870E+03  0.39149749712E+04  0.39043537037E+04 0.  0.
        2    1    3    3  502    0  0.10453084945E+04 -0.90547469803E+03  0.15256801885E+04  0.20591877804E+04  0.25500000920E-02 0.  1.
       -2    1    3    3    0  502 -0.10453084945E+04  0.90547469803E+03 -0.12374941698E+04  0.18557871908E+04  0.25500000920E-02 0. -1.
</event>
<event>
 5   0  0.3769985E-08  0.3879061E+04  0.7818609E-02  0.8029398E-01
        2   -1    0    0  501    0  0.00000000000E+00  0.00000000000E+00  0.28669746597E+04  0.28669746597E+04  0.25500000920E-02 0. -1.
       -2   -1    0    0    0  501  0.00000000000E+00  0.00000000000E+00 -0.13121076144E+04  0.13121076144E+04  0.25500000920E-02 0.  1.
    10030    2    1    2    0    0  0.00000000000E+00  0.00000000000E+00  0.15548670452E+04  0.41790822741E+04  0.38790613717E+04 0.  0.
        1    1    3    3  502    0 -0.34173874574E+03  0.18755964213E+03 -0.12694671120E+04  0.13279724162E+04  0.50400001928E-02 0.  1.
       -1    1    3    3    0  502  0.34173874574E+03 -0.18755964213E+03  0.28243341573E+04  0.28511098579E+04  0.50400001928E-02 0. -1.
</event>
<event>
 5   0  0.3669347E-08  0.3892746E+04  0.7818609E-02  0.8026540E-01
        2   -1    0    0  501    0  0.00000000000E+00  0.00000000000E+00  0.18185497386E+04  0.18185497386E+04  0.25500000920E-02 0. -1.
       -2   -1    0    0    0  501  0.00000000000E+00  0.00000000000E+00 -0.20831803697E+04  0.20831803697E+04  0.25500000920E-02 0.  1.
    10030    2    1    2    0    0  0.00000000000E+00  0.00000000000E+00 -0.26463063118E+03  0.39017301083E+04  0.38927456207E+04 0.  0.
        5    1    3    3  502    0 -0.20556169528E+02  0.19432826278E+04 -0.24479367240E+02  0.19435511974E+04  0.46999998093E+01 0.  1.
       -5    1    3    3    0  502  0.20556169528E+02 -0.19432826278E+04 -0.24015126394E+03  0.19581789109E+04  0.46999998093E+01 0. -1.
</event>
<event>
 5   0  0.1164500E-08  0.3896265E+04  0.7818609E-02  0.8025807E-01
       -1   -1    0    0    0  501  0.00000000000E+00  0.00000000000E+00  0.16741833295E+04  0.16741833295E+04  0.50400001928E-02 0. -1.
        1   -1    0    0  501    0  0.00000000000E+00  0.00000000000E+00 -0.22669080392E+04  0.22669080392E+04  0.50400001928E-02 0.  1.
    10030    2    1    2    0    0  0.00000000000E+00  0.00000000000E+00 -0.59272470965E+03  0.39410913687E+04  0.38962646978E+04 0.  0.
        5    1    3    3  502    0  0.67032702440E+03  0.13330437108E+04  0.97058705539E+03  0.17800014541E+04  0.46999998093E+01 0.  1.
       -5    1    3    3    0  502 -0.67032702440E+03 -0.13330437108E+04 -0.15633117650E+04  0.21610899146E+04  0.46999998093E+01 0. -1.
</event>
<event>
 5   0  0.3724293E-08  0.3900485E+04  0.7818609E-02  0.8024928E-01
        2   -1    0    0  501    0  0.00000000000E+00  0.00000000000E+00  0.13807860741E+04  0.13807860741E+04  0.25500000920E-02 0.  1.
       -2   -1    0    0    0  501  0.00000000000E+00  0.00000000000E+00 -0.27545512001E+04  0.27545512001E+04  0.25500000920E-02 0. -1.
    10030    2    1    2    0    0  0.00000000000E+00  0.00000000000E+00 -0.13737651260E+04  0.41353372743E+04  0.39004850660E+04 0.  0.
        4    1    3    3  502    0  0.46802891872E+03  0.14097962823E+04  0.65287674985E+03  0.16225986225E+04  0.12699999809E+01 0.  1.
       -4    1    3    3    0  502 -0.46802891872E+03 -0.14097962823E+04 -0.20266418759E+04  0.25127386518E+04  0.12699999809E+01 0. -1.
</event>
<event>
 5   0  0.1164500E-08  0.3857213E+04  0.7818609E-02  0.8033987E-01
        1   -1    0    0  501    0  0.00000000000E+00  0.00000000000E+00  0.25296419046E+04  0.25296419046E+04  0.50400001928E-02 0. -1.
       -1   -1    0    0    0  501  0.00000000000E+00  0.00000000000E+00 -0.14703755544E+04  0.14703755544E+04  0.50400001928E-02 0.  1.
    10030    2    1    2    0    0  0.00000000000E+00  0.00000000000E+00  0.10592663502E+04  0.40000174589E+04  0.38572133038E+04 0.  0.
        1    1    3    3  502    0  0.70123729573E+03  0.50013972816E+03  0.23191058216E+04  0.24738887009E+04  0.50400001928E-02 0. -1.
       -1    1    3    3    0  502 -0.70123729573E+03 -0.50013972816E+03 -0.12598394714E+04  0.15261287581E+04  0.50400001928E-02 0.  1.
</event>
<event>
 5   0  0.1164500E-08  0.3900073E+04  0.7818609E-02  0.8025014E-01
        3   -1    0    0  501    0  0.00000000000E+00  0.00000000000E+00  0.18986033138E+04  0.18986033165E+04  0.10100000352E+00 0. -1.
       -3   -1    0    0    0  501  0.00000000000E+00  0.00000000000E+00 -0.20028624981E+04  0.20028625006E+04  0.10100000352E+00 0.  1.
    10030    2    1    2    0    0  0.00000000000E+00  0.00000000000E+00 -0.10425918424E+03  0.39014658171E+04  0.39000725050E+04 0.  0.
        4    1    3    3  502    0  0.11492227749E+03 -0.17753242230E+04  0.74668968486E+03  0.19293859969E+04  0.12699999809E+01 0. -1.
       -4    1    3    3    0  502 -0.11492227749E+03  0.17753242230E+04 -0.85094886911E+03  0.19720798202E+04  0.12699999809E+01 0.  1.
</event>
<event>
 5   0  0.1164500E-08  0.3901728E+04  0.7818609E-02  0.8024670E-01
       -1   -1    0    0    0  501  0.00000000000E+00  0.00000000000E+00  0.31205116556E+04  0.31205116556E+04  0.50400001928E-02 0.  1.
        1   -1    0    0  501    0  0.00000000000E+00  0.00000000000E+00 -0.12196300260E+04  0.12196300260E+04  0.50400001928E-02 0. -1.
    10030    2    1    2    0    0  0.00000000000E+00  0.00000000000E+00  0.19008816296E+04  0.43401416816E+04  0.39017276746E+04 0.  0.
        2    1    3    3  502    0 -0.16596983804E+04 -0.76011814102E+03  0.18501517664E+03  0.18348321226E+04  0.25500000920E-02 0. -1.
       -2    1    3    3    0  502  0.16596983804E+04  0.76011814102E+03  0.17158664530E+04  0.25053095591E+04  0.25500000920E-02 0.  1.
</event>
<event>
 5   0  0.1164500E-08  0.3896967E+04  0.7818609E-02  0.8025660E-01
       -1   -1    0    0    0  501  0.00000000000E+00  0.00000000000E+00  0.30182504207E+04  0.30182504207E+04  0.50400001928E-02 0.  1.
        1   -1    0    0  501    0  0.00000000000E+00  0.00000000000E+00 -0.12578767358E+04  0.12578767358E+04  0.50400001928E-02 0. -1.
    10030    2    1    2    0    0  0.00000000000E+00  0.00000000000E+00  0.17603736849E+04  0.42761271564E+04  0.38969665058E+04 0.  0.
        2    1    3    3  502    0  0.35486734601E+03  0.91781476534E+03  0.27255614531E+04  0.28977577558E+04  0.25500000920E-02 0.  1.
       -2    1    3    3    0  502 -0.35486734601E+03 -0.91781476534E+03 -0.96518776818E+03  0.13783694006E+04  0.25500000920E-02 0. -1.
</event>
<event>
 5   0  0.1164500E-08  0.3903680E+04  0.7818609E-02  0.8024264E-01
        3   -1    0    0  501    0  0.00000000000E+00  0.00000000000E+00  0.21631844120E+04  0.21631844144E+04  0.10100000352E+00 0. -1.
       -3   -1    0    0    0  501  0.00000000000E+00  0.00000000000E+00 -0.17611437703E+04  0.17611437732E+04  0.10100000352E+00 0.  1.
    10030    2    1    2    0    0  0.00000000000E+00  0.00000000000E+00  0.40204064167E+03  0.39243281876E+04  0.39036796803E+04 0.  0.
        5    1    3    3  502    0 -0.14553832862E+04  0.66345950392E+03 -0.92352872494E+03  0.18469559872E+04  0.46999998093E+01 0.  1.
       -5    1    3    3    0  502  0.14553832862E+04 -0.66345950392E+03  0.13255693666E+04  0.20773722003E+04  0.46999998093E+01 0. -1.
</event>
<event>
 5   0  0.1164500E-08  0.3885661E+04  0.7818609E-02  0.8028018E-01
        1   -1    0    0  501    0  0.00000000000E+00  0.00000000000E+00  0.24397972102E+04  0.24397972102E+04  0.50400001928E-02 0.  1.
       -1   -1    0    0    0  501  0.00000000000E+00  0.00000000000E+00 -0.15470916087E+04  0.15470916087E+04  0.50400001928E-02 0. -1.
    10030    2    1    2    0    0  0.00000000000E+00  0.00000000000E+00  0.89270560156E+03  0.39868888189E+04  0.38856607113E+04 0.  0.
        2    1    3    3  502    0 -0.14619413954E+04 -0.84696997634E+03 -0.53777950033E+03  0.17730870186E+04  0.25500000920E-02 0. -1.
       -2    1    3    3    0  502  0.14619413954E+04  0.84696997634E+03  0.14304851019E+04  0.22138018003E+04  0.25500000920E-02 0.  1.
</event>
<event>
 5   0  0.1164500E-08  0.3904896E+04  0.7818609E-02  0.8024012E-01
       -1   -1    0    0    0  501  0.00000000000E+00  0.00000000000E+00  0.19578527837E+04  0.19578527837E+04  0.50400001928E-02 0. -1.
        1   -1    0    0  501    0  0.00000000000E+00  0.00000000000E+00 -0.19470577870E+04  0.19470577870E+04  0.50400001928E-02 0.  1.
    10030    2    1    2    0    0  0.00000000000E+00  0.00000000000E+00  0.10794996716E+02  0.39049105707E+04  0.39048956495E+04 0.  0.
        2    1    3    3  502    0 -0.16800779663E+04 -0.92101854780E+03 -0.37025719505E+03  0.19514168003E+04  0.25500000920E-02 0. -1.
       -2    1    3    3    0  502  0.16800779663E+04  0.92101854780E+03  0.38105219176E+03  0.19534937704E+04  0.25500000920E-02 0.  1.
</event>
<event>
 5   0  0.1164500E-08  0.3897224E+04  0.7818609E-02  0.8025607E-01
        1   -1    0    0  501    0  0.00000000000E+00  0.00000000000E+00  0.17346682401E+04  0.17346682401E+04  0.50400001928E-02 0.  1.
       -1   -1    0    0    0  501  0.00000000000E+00  0.00000000000E+00 -0.21889418492E+04  0.21889418492E+04  0.50400001928E-02 0. -1.
    10030    2    1    2    0    0  0.00000000000E+00  0.00000000000E+00 -0.45427360917E+03  0.39236100893E+04  0.38972235785E+04 0.  0.
        2    1    3    3  502    0  0.12758996288E+04 -0.14707006955E+04 -0.30645797676E+03  0.19709888102E+04  0.25500000920E-02 0. -1.
       -2    1    3    3    0  502 -0.12758996288E+04  0.14707006955E+04 -0.14781563241E+03  0.19526212791E+04  0.25500000920E-02 0.  1.
</event>
<event>
 5   0  0.3769985E-08  0.3915645E+04  0.7818609E-02  0.8021783E-01
       -2   -1    0    0    0  501  0.00000000000E+00  0.00000000000E+00  0.13758888339E+04  0.13758888339E+04  0.25500000920E-02 0. -1.
        2   -1    0    0  501    0  0.00000000000E+00  0.00000000000E+00 -0.27858857822E+04  0.27858857822E+04  0.25500000920E-02 0.  1.
    10030    2    1    2    0    0  0.00000000000E+00  0.00000000000E+00 -0.14099969484E+04  0.41617746161E+04  0.39156451015E+04 0.  0.
        1    1    3    3  502    0 -0.15175781710E+04  0.87338585235E+03  0.22597215903E+03  0.17654772071E+04  0.50400001928E-02 0. -1.
       -1    1    3    3    0  502  0.15175781710E+04 -0.87338585235E+03 -0.16359691074E+04  0.23962974090E+04  0.50400001928E-02 0.  1.
</event>
<event>
 5   0  0.1164500E-08  0.3905445E+04  0.7818609E-02  0.8023898E-01
        3   -1    0    0  501    0  0.00000000000E+00  0.00000000000E+00  0.16100110133E+04  0.16100110164E+04  0.10100000352E+00 0. -1.
       -3   -1    0    0    0  501  0.00000000000E+00  0.00000000000E+00 -0.23683847880E+04  0.23683847902E+04  0.10100000352E+00 0.  1.
    10030    2    1    2    0    0  0.00000000000E+00  0.00000000000E+00 -0.75837377475E+03  0.39783958066E+04  0.39054452258E+04 0.  0.
        4    1    3    3  502    0  0.20917496800E+03 -0.64267008950E+03 -0.22454408110E+04  0.23449488395E+04  0.12699999809E+01 0.  1.
       -4    1    3    3    0  502 -0.20917496800E+03  0.64267008950E+03  0.14870670363E+04  0.16334469671E+04  0.12699999809E+01 0. -1.
</event>
<event>
 5   0  0.1164500E-08  0.3892736E+04  0.7818609E-02  0.8026542E-01
       -1   -1    0    0    0  501  0.00000000000E+00  0.00000000000E+00  0.14927252257E+04  0.14927252257E+04  0.50400001928E-02 0. -1.
        1   -1    0    0  501    0  0.00000000000E+00  0.00000000000E+00 -0.25378739296E+04  0.25378739297E+04  0.50400001928E-02 0.  1.
    10030    2    1    2    0    0  0.00000000000E+00  0.00000000000E+00 -0.10451487040E+04  0.40305991553E+04  0.38927360221E+04 0.  0.
        2    1    3    3  502    0 -0.44881933455E+03  0.15438198340E+04 -0.16584822218E+04  0.23098445305E+04  0.25500000920E-02 0. -1.
       -2    1    3    3    0  502  0.44881933455E+03 -0.15438198340E+04  0.61333351783E+03  0.17207546249E+04  0.25500000920E-02 0.  1.
</event>
<event>
 5   0  0.1164500E-08  0.3881860E+04  0.7818609E-02  0.8028813E-01
        1   -1    0    0  501    0  0.00000000000E+00  0.00000000000E+00  0.13796222704E+04  0.13796222704E+04  0.50400001928E-02 0. -1.
       -1   -1    0    0    0  501  0.00000000000E+00  0.00000000000E+00 -0.27306096399E+04  0.27306096399E+04  0.50400001928E-02 0.  1.
    10030    2    1    2    0    0  0.00000000000E+00  0.00000000000E+00 -0.13509873695E+04  0.41102319102E+04  0.38818603122E+04 0.  0.
        1    1    3    3  502    0 -0.14117786550E+04 -0.60026347760E+03  0.58347961450E+03  0.16413054785E+04  0.50400001928E-02 0. -1.
       -1    1    3    3    0  502  0.14117786550E+04  0.60026347760E+03 -0.19344669840E+04  0.24689264317E+04  0.50400001928E-02 0.  1.
</event>
<event>
 5   0  0.3669347E-08  0.3902280E+04  0.7818609E-02  0.8024555E-01
        2   -1    0    0  501    0  0.00000000000E+00  0.00000000000E+00  0.22992703401E+04  0.22992703401E+04  0.25500000920E-02 0. -1.
       -2   -1    0    0    0  501  0.00000000000E+00  0.00000000000E+00 -0.16557198746E+04  0.16557198746E+04  0.25500000920E-02 0.  1.
    10030    2    1    2    0    0  0.00000000000E+00  0.00000000000E+00  0.64355046551E+03  0.39549902146E+04  0.39022801535E+04 0.  0.
        5    1    3    3  502    0  0.16902293388E+04 -0.97470466474E+03  0.32284194184E+03  0.19776686807E+04  0.46999998093E+01 0. -1.
       -5    1    3    3    0  502 -0.16902293388E+04  0.97470466474E+03  0.32070852367E+03  0.19773215339E+04  0.46999998093E+01 0.  1.
</event>
<event>
 5   0  0.3669347E-08  0.3898969E+04  0.7818609E-02  0.8025244E-01
       -2   -1    0    0    0  501  0.00000000000E+00  0.00000000000E+00  0.15908444984E+04  0.15908444984E+04  0.25500000920E-02 0. -1.
        2   -1    0    0  501    0  0.00000000000E+00  0.00000000000E+00 -0.23889765350E+04  0.23889765350E+04  0.25500000920E-02 0.  1.
    10030    2    1    2    0    0  0.00000000000E+00  0.00000000000E+00 -0.79813203653E+03  0.39798210334E+04  0.38989691856E+04 0.  0.
        5    1    3    3  502    0  0.12887816845E+04  0.30030043029E+02  0.10936573754E+04  0.16905527435E+04  0.46999998093E+01 0. -1.
       -5    1    3    3    0  502 -0.12887816845E+04 -0.30030043029E+02 -0.18917894120E+04  0.22892682899E+04  0.46999998093E+01 0.  1.
</event>
<event>
 5   0  0.3724293E-08  0.3895465E+04  0.7818609E-02  0.8025973E-01
       -2   -1    0    0    0  501  0.00000000000E+00  0.00000000000E+00  0.21763842680E+04  0.21763842680E+04  0.25500000920E-02 0.  1.
        2   -1    0    0  501    0  0.00000000000E+00  0.00000000000E+00 -0.17431029753E+04  0.17431029753E+04  0.25500000920E-02 0. -1.
    10030    2    1    2    0    0  0.00000000000E+00  0.00000000000E+00  0.43328129272E+03  0.39194872432E+04  0.38954650007E+04 0.  0.
        4    1    3    3  502    0 -0.23868835378E+03  0.16010859385E+04 -0.87318792846E+03  0.18392680838E+04  0.12699999809E+01 0.  1.
       -4    1    3    3    0  502  0.23868835378E+03 -0.16010859385E+04  0.13064692212E+04  0.20802191595E+04  0.12699999809E+01 0. -1.
</event>
<event>
 5   0  0.1164500E-08  0.3903770E+04  0.7818609E-02  0.8024246E-01
        1   -1    0    0  501    0  0.00000000000E+00  0.00000000000E+00  0.12415389136E+04  0.12415389136E+04  0.50400001928E-02 0.  1.
       -1   -1    0    0    0  501  0.00000000000E+00  0.00000000000E+00 -0.30686556320E+04  0.30686556320E+04  0.50400001928E-02 0. -1.
    10030    2    1    2    0    0  0.00000000000E+00  0.00000000000E+00 -0.18271167184E+04  0.43101945456E+04  0.39037701672E+04 0.  0.
        5    1    3    3  502    0 -0.19492863275E+04 -0.88137985120E+02 -0.96705703774E+03  0.21777756761E+04  0.46999998093E+01 0. -1.
       -5    1    3    3    0  502  0.19492863275E+04  0.88137985120E+02 -0.86005968066E+03  0.21324188696E+04  0.46999998093E+01 0.  1.
</event>
<event>
 5   0  0.3872969E-08  0.3932261E+04  0.7818609E-02  0.8018353E-01
       -2   -1    0    0    0  501  0.00000000000E+00  0.00000000000E+00  0.16274867689E+04  0.16274867689E+04  0.25500000920E-02 0. -1.
        2   -1    0    0  501    0  0.00000000000E+00  0.00000000000E+00 -0.23752390177E+04  0.23752390177E+04  0.25500000920E-02 0.  1.
    10030    2    1    2    0    0  0.00000000000E+00  0.00000000000E+00 -0.74775224880E+03  0.40027257866E+04  0.39322614737E+04 0.  0.
        2    1    3    3  502    0  0.54141030857E+03  0.16177530541E+04 -0.13688475688E+04  0.21872342656E+04  0.25500000920E-02 0.  1.
       -2    1    3    3    0  502 -0.54141030857E+03 -0.16177530541E+04  0.62109532002E+03  0.18154915210E+04  0.25500000920E-02 0. -1.
</event>
<event>
 5   0  0.1164500E-08  0.3910437E+04  0.7818609E-02  0.8022862E-01
        1   -1    0    0  501    0  0.00000000000E+00  0.00000000000E+00  0.27709187658E+04  0.27709187658E+04  0.50400001928E-02 0.  1.
       -1   -1    0    0    0  501  0.00000000000E+00  0.00000000000E+00 -0.13796435450E+04  0.13796435450E+04  0.50400001928E-02 0. -1.
    10030    2    1    2    0    0  0.00000000000E+00  0.00000000000E+00  0.13912752208E+04  0.41505623108E+04  0.39104374123E+04 0.  0.
        2    1    3    3  502    0 -0.13542989879E+04  0.13611631122E+04  0.30422558576E+03  0.19440792097E+04  0.25500000920E-02 0. -1.
       -2    1    3    3    0  502  0.13542989879E+04 -0.13611631122E+04  0.10870496350E+04  0.22064831011E+04  0.25500000920E-02 0.  1.
</event>
<event>
 5   0  0.3872969E-08  0.3901717E+04  0.7818609E-02  0.8024672E-01
        2   -1    0    0  501    0  0.00000000000E+00  0.00000000000E+00  0.27468967877E+04  0.27468967877E+04  0.25500000920E-02 0.  1.
       -2   -1    0    0    0  501  0.00000000000E+00  0.00000000000E+00 -0.13855084076E+04  0.13855084076E+04  0.25500000920E-02 0. -1.
    10030    2    1    2    0    0  0.00000000000E+00  0.00000000000E+00  0.13613883801E+04  0.41324051954E+04  0.39017168500E+04 0.  0.
        2    1    3    3  502    0  0.14074274893E+03  0.19429371777E+04  0.79195371092E+03  0.21028561715E+04  0.25500000920E-02 0.  1.
       -2    1    3    3    0  502 -0.14074274893E+03 -0.19429371777E+04  0.56943466916E+03  0.20295490239E+04  0.25500000920E-02 0. -1.
</event>
<event>
 5   0  0.1164500E-08  0.3901534E+04  0.7818609E-02  0.8024710E-01
       -1   -1    0    0    0  501  0.00000000000E+00  0.00000000000E+00  0.14355384018E+04  0.14355384018E+04  0.50400001928E-02 0.  1.
        1   -1    0    0  501    0  0.00000000000E+00  0.00000000000E+00 -0.26509158181E+04  0.26509158181E+04  0.50400001928E-02 0. -1.
    10030    2    1    2    0    0  0.00000000000E+00  0.00000000000E+00 -0.12153774163E+04  0.40864542198E+04  0.39015337787E+04 0.  0.
        5    1    3    3  502    0  0.14997185193E+04  0.10727735022E+04  0.59257837761E+02  0.18448664466E+04  0.46999998093E+01 0.  1.
       -5    1    3    3    0  502 -0.14997185193E+04 -0.10727735022E+04 -0.12746352541E+04  0.22415877733E+04  0.46999998093E+01 0. -1.
</event>
<event>
 5   0  0.3724293E-08  0.3851110E+04  0.7818609E-02  0.8035275E-01
        2   -1    0    0  501    0  0.00000000000E+00  0.00000000000E+00  0.21723940405E+04  0.21723940405E+04  0.25500000920E-02 0.  1.
       -2   -1    0    0    0  501  0.00000000000E+00  0.00000000000E+00 -0.17067627190E+04  0.17067627190E+04  0.25500000920E-02 0. -1.
    10030    2    1    2    0    0  0.00000000000E+00  0.00000000000E+00  0.46563132147E+03  0.38791567595E+04  0.38511095332E+04 0.  0.
        4    1    3    3  502    0  0.12435048109E+04 -0.11720407432E+03 -0.12433671429E+04  0.17623860175E+04  0.12699999809E+01 0. -1.
       -4    1    3    3    0  502 -0.12435048109E+04  0.11720407432E+03  0.17089984644E+04  0.21167707419E+04  0.12699999809E+01 0.  1.
</event>
<event>
 5   0  0.1164500E-08  0.3904900E+04  0.7818609E-02  0.8024011E-01
       -1   -1    0    0    0  501  0.00000000000E+00  0.00000000000E+00  0.28727228966E+04  0.28727228967E+04  0.50400001928E-02 0. -1.
        1   -1    0    0  501    0  0.00000000000E+00  0.00000000000E+00 -0.13269851796E+04  0.13269851796E+04  0.50400001928E-02 0.  1.
    10030    2    1    2    0    0  0.00000000000E+00  0.00000000000E+00  0.15457377170E+04  0.41997080763E+04  0.39048998497E+04 0.  0.
        1    1    3    3  502    0  0.15918003014E+04 -0.97266367620E+03  0.13927115506E+04  0.23279923302E+04  0.50400001928E-02 0. -1.
       -1    1    3    3    0  502 -0.15918003014E+04  0.97266367620E+03  0.15302616645E+03  0.18717157461E+04  0.50400001928E-02 0.  1.
</event>
<event>
 5   0  0.1164500E-08  0.3903841E+04  0.7818609E-02  0.8024231E-01
        1   -1    0    0  501    0  0.00000000000E+00  0.00000000000E+00  0.29841958342E+04  0.29841958342E+04  0.50400001928E-02 0. -1.
       -1   -1    0    0    0  501  0.00000000000E+00  0.00000000000E+00 -0.12767237878E+04  0.12767237878E+04  0.50400001928E-02 0.  1.
    10030    2    1    2    0    0  0.00000000000E+00  0.00000000000E+00  0.17074720464E+04  0.42609196220E+04  0.39038410874E+04 0.  0.
        5    1    3    3  502    0 -0.16302818790E+04 -0.96119100113E+03  0.33226465515E+03  0.19214913575E+04  0.46999998093E+01 0. -1.
       -5    1    3    3    0  502  0.16302818790E+04  0.96119100113E+03  0.13752073913E+04  0.23394282645E+04  0.46999998093E+01 0.  1.
</event>
<event>
 5   0  0.1164500E-08  0.3882474E+04  0.7818609E-02  0.8028684E-01
        1   -1    0    0  501    0  0.00000000000E+00  0.00000000000E+00  0.15427903714E+04  0.15427903714E+04  0.50400001928E-02 0. -1.
       -1   -1    0    0    0  501  0.00000000000E+00  0.00000000000E+00 -0.24425880051E+04  0.24425880051E+04  0.50400001928E-02 0.  1.
    10030    2    1    2    0    0  0.00000000000E+00  0.00000000000E+00 -0.89979763365E+03  0.39853783765E+04  0.38824740852E+04 0.  0.
        1    1    3    3  502    0  0.28425019956E+03  0.17444235719E+04 -0.12740418689E+04  0.21787598440E+04  0.50400001928E-02 0.  1.
       -1    1    3    3    0  502 -0.28425019956E+03 -0.17444235719E+04  0.37424423522E+03  0.18066185325E+04  0.50400001928E-02 0. -1.
</event>
<event>
 5   0  0.3872969E-08  0.3894902E+04  0.7818609E-02  0.8026090E-01
       -2   -1    0    0    0  501  0.00000000000E+00  0.00000000000E+00  0.13874016622E+04  0.13874016622E+04  0.25500000920E-02 0.  1.
        2   -1    0    0  501    0  0.00000000000E+00  0.00000000000E+00 -0.27335745846E+04  0.27335745846E+04  0.25500000920E-02 0. -1.
    10030    2    1    2    0    0  0.00000000000E+00  0.00000000000E+00 -0.13461729224E+04  0.41209762468E+04  0.38949022695E+04 0.  0.
        2    1    3    3  502    0 -0.59671154910E+03 -0.12558143526E+04 -0.21158449741E+04  0.25317848083E+04  0.25500000920E-02 0. -1.
       -2    1    3    3    0  502  0.59671154910E+03  0.12558143526E+04  0.76967205170E+03  0.15891914385E+04  0.25500000920E-02 0.  1.
</event>
<event>
 5   0  0.3690572E-08  0.3899101E+04  0.7818609E-02  0.8025216E-01
       -2   -1    0    0    0  501  0.00000000000E+00  0.00000000000E+00  0.19752564282E+04  0.19752564282E+04  0.25500000920E-02 0.  1.
        2   -1    0    0  501    0  0.00000000000E+00  0.00000000000E+00 -0.19241790571E+04  0.19241790571E+04  0.25500000920E-02 0. -1.
    10030    2    1    2    0    0  0.00000000000E+00  0.00000000000E+00  0.51077371082E+02  0.38994354853E+04  0.38991009484E+04 0.  0.
        3    1    3    3  502    0 -0.14766097380E+04  0.11690620070E+04 -0.47815594083E+03  0.19431200191E+04  0.10100000352E+00 0. -1.
       -3    1    3    3    0  502  0.14766097380E+04 -0.11690620070E+04  0.52923331191E+03  0.19563154662E+04  0.10100000352E+00 0.  1.
</event>
<event>
 5   0  0.1164500E-08  0.3829261E+04  0.7818609E-02  0.8039905E-01
       -1   -1    0    0    0  501  0.00000000000E+00  0.00000000000E+00  0.14639827075E+04  0.14639827075E+04  0.50400001928E-02 0.  1.
        1   -1    0    0  501    0  0.00000000000E+00  0.00000000000E+00 -0.25039983068E+04  0.25039983068E+04  0.50400001928E-02 0. -1.
    10030    2    1    2    0    0  0.00000000000E+00  0.00000000000E+00 -0.10400155993E+04  0.39679810144E+04  0.38292611407E+04 0.  0.
        5    1    3    3  502    0  0.11477698992E+04  0.54323273350E+03 -0.20048555460E+04  0.23731720111E+04  0.46999998093E+01 0. -1.
       -5    1    3    3    0  502 -0.11477698992E+04 -0.54323273350E+03  0.96483994669E+03  0.15948090033E+04  0.46999998093E+01 0.  1.
</event>
<event>
 5   0  0.3669347E-08  0.3903466E+04  0.7818609E-02  0.8024309E-01
        2   -1    0    0  501    0  0.00000000000E+00  0.00000000000E+00  0.14891821127E+04  0.14891821127E+04  0.25500000920E-02 0.  1.
       -2   -1    0    0    0  501  0.00000000000E+00  0.00000000000E+00 -0.25579550630E+04  0.25579550630E+04  0.25500000920E-02 0. -1.
    10030    2    1    2    0    0  0.00000000000E+00  0.00000000000E+00 -0.10687729502E+04  0.40471371757E+04  0.39034656012E+04 0.  0.
        5    1    3    3  502    0  0.97011245112E+03 -0.84950213863E+03  0.98462010224E+03  0.16224274674E+04  0.46999998093E+01 0.  1.
       -5    1    3    3    0  502 -0.97011245112E+03  0.84950213863E+03 -0.20533930525E+04  0.24247097083E+04  0.46999998093E+01 0. -1.
</event>
<event>
 5   0  0.3669347E-08  0.3893159E+04  0.7818609E-02  0.8026454E-01
       -2   -1    0    0    0  501  0.00000000000E+00  0.00000000000E+00  0.17880657834E+04  0.17880657834E+04  0.25500000920E-02 0.  1.
        2   -1    0    0  501    0  0.00000000000E+00  0.00000000000E+00 -0.21191453146E+04  0.21191453146E+04  0.25500000920E-02 0. -1.
    10030    2    1    2    0    0  0.00000000000E+00  0.00000000000E+00 -0.33107953120E+03  0.39072110981E+04  0.38931587316E+04 0.  0.
        5    1    3    3  502    0 -0.49937475725E+03 -0.18661553571E+04 -0.40564832540E+03  0.19739512707E+04  0.46999998093E+01 0. -1.
       -5    1    3    3    0  502  0.49937475725E+03  0.18661553571E+04  0.74568794197E+02  0.19332598274E+04  0.46999998093E+01 0.  1.
</event>
<event>
 5   0  0.3669347E-08  0.3898363E+04  0.7818609E-02  0.8025370E-01
       -2   -1    0    0    0  501  0.00000000000E+00  0.00000000000E+00  0.32720241699E+04  0.32720241699E+04  0.25500000920E-02 0. -1.
        2   -1    0    0  501    0  0.00000000000E+00  0.00000000000E+00 -0.11611494314E+04  0.11611494314E+04  0.25500000920E-02 0.  1.
    10030    2    1    2    0    0  0.00000000000E+00  0.00000000000E+00  0.21108747385E+04  0.44331736013E+04  0.38983632486E+04 0.  0.
        5    1    3    3  502    0 -0.10457493951E+04 -0.16448582584E+04  0.10687199592E+04  0.22229113632E+04  0.46999998093E+01 0.  1.
       -5    1    3    3    0  502  0.10457493951E+04  0.16448582584E+04  0.10421547793E+04  0.22102622382E+04  0.46999998093E+01 0. -1.
</event>
<event>
 5   0  0.1164500E-08  0.3910387E+04  0.7818609E-02  0.8022872E-01
        1   -1    0    0  501    0  0.00000000000E+00  0.00000000000E+00  0.33322145145E+04  0.33322145145E+04  0.50400001928E-02 0.  1.
       -1   -1    0    0    0  501  0.00000000000E+00  0.00000000000E+00 -0.11472198050E+04  0.11472198050E+04  0.50400001928E-02 0. -1.
    10030    2    1    2    0    0  0.00000000000E+00  0.00000000000E+00  0.21849947095E+04  0.44794343195E+04  0.39103874414E+04 0.  0.
        1    1    3    3  502    0 -0.10934556871E+04  0.14206045233E+04  0.19864595178E+04  0.26757772640E+04  0.50400001928E-02 0.  1.
       -1    1    3    3    0  502  0.10934556871E+04 -0.14206045233E+04  0.19853519176E+03  0.18036570554E+04  0.50400001928E-02 0. -1.
</event>
<event>
 5   0  0.3724293E-08  0.3865738E+04  0.7818609E-02  0.8032193E-01
        2   -1    0    0  501    0  0.00000000000E+00  0.00000000000E+00  0.13908478254E+04  0.13908478254E+04  0.25500000920E-02 0.  1.
       -2   -1    0    0    0  501  0.00000000000E+00  0.00000000000E+00 -0.26861192803E+04  0.26861192803E+04  0.25500000920E-02 0. -1.
    10030    2    1    2    0    0  0.00000000000E+00  0.00000000000E+00 -0.12952714549E+04  0.40769671057E+04  0.38657383045E+04 0.  0.
        4    1    3    3  502    0 -0.97688203700E+03  0.15851069854E+04 -0.11947484803E+04  0.22123038249E+04  0.12699999809E+01 0. -1.
       -4    1    3    3    0  502  0.97688203700E+03 -0.15851069854E+04 -0.10052297460E+03  0.18646632808E+04  0.12699999809E+01 0.  1.
</event>
<event>
 5   0  0.1164500E-08  0.3912146E+04  0.7818609E-02  0.8022508E-01
        1   -1    0    0  501    0  0.00000000000E+00  0.00000000000E+00  0.22523352452E+04  0.22523352452E+04  0.50400001928E-02 0.  1.
       -1   -1    0    0    0  501  0.00000000000E+00  0.00000000000E+00 -0.16987798731E+04  0.16987798731E+04  0.50400001928E-02 0. -1.
    10030    2    1    2    0    0  0.00000000000E+00  0.00000000000E+00  0.55355537212E+03  0.39511151183E+04  0.39121461026E+04 0.  0.
        1    1    3    3  502    0 -0.81566734333E+02 -0.11643254132E+04 -0.13085442790E+04  0.17534522891E+04  0.50400001928E-02 0. -1.
       -1    1    3    3    0  502  0.81566734333E+02  0.11643254132E+04  0.18620996512E+04  0.21976628292E+04  0.50400001928E-02 0.  1.
</event>
<event>
 5   0  0.1164500E-08  0.3913998E+04  0.7818609E-02  0.8022124E-01
       -1   -1    0    0    0  501  0.00000000000E+00  0.00000000000E+00  0.30163812747E+04  0.30163812747E+04  0.50400001928E-02 0.  1.
        1   -1    0    0  501    0  0.00000000000E+00  0.00000000000E+00 -0.12696817914E+04  0.12696817914E+04  0.50400001928E-02 0. -1.
    10030    2    1    2    0    0  0.00000000000E+00  0.00000000000E+00  0.17466994833E+04  0.42860630661E+04  0.39139976394E+04 0.  0.
        3    1    3    3  502    0  0.89273124923E+03 -0.10736613219E+03 -0.10300866070E+04  0.13673240281E+04  0.10100000352E+00 0. -1.
       -3    1    3    3    0  502 -0.89273124923E+03  0.10736613219E+03  0.27767860904E+04  0.29187390379E+04  0.10100000352E+00 0.  1.
</event>
<event>
 5   0  0.1164500E-08  0.3912388E+04  0.7818609E-02  0.8022458E-01
       -1   -1    0    0    0  501  0.00000000000E+00  0.00000000000E+00  0.27281068640E+04  0.27281068640E+04  0.50400001928E-02 0. -1.
        1   -1    0    0  501    0  0.00000000000E+00  0.00000000000E+00 -0.14026926111E+04  0.14026926111E+04  0.50400001928E-02 0.  1.
    10030    2    1    2    0    0  0.00000000000E+00  0.00000000000E+00  0.13254142529E+04  0.41307994752E+04  0.39123881916E+04 0.  0.
        4    1    3    3  502    0  0.12992232872E+04  0.12520249765E+04  0.14606388966E+04  0.23214252715E+04  0.12699999809E+01 0.  1.
       -4    1    3    3    0  502 -0.12992232872E+04 -0.12520249765E+04 -0.13522464368E+03  0.18093742037E+04  0.12699999809E+01 0. -1.
</event>
<event>
 5   0  0.3724293E-08  0.3896680E+04  0.7818609E-02  0.8025720E-01
        2   -1    0    0  501    0  0.00000000000E+00  0.00000000000E+00  0.21578416108E+04  0.21578416108E+04  0.25500000920E-02 0. -1.
       -2   -1    0    0    0  501  0.00000000000E+00  0.00000000000E+00 -0.17591783807E+04  0.17591783807E+04  0.25500000920E-02 0.  1.
    10030    2    1    2    0    0  0.00000000000E+00  0.00000000000E+00  0.39866323008E+03  0.39170199916E+04  0.38966797717E+04 0.  0.
        4    1    3    3  502    0 -0.91889943253E+03 -0.16497646816E+04 -0.28267842241E+03  0.19094523757E+04  0.12699999809E+01 0.  1.
       -4    1    3    3    0  502  0.91889943253E+03  0.16497646816E+04  0.68134165249E+03  0.20075676158E+04  0.12699999809E+01 0. -1.
</event>
<event>
 5   0  0.1164500E-08  0.3903202E+04  0.7818609E-02  0.8024364E-01
       -1   -1    0    0    0  501  0.00000000000E+00  0.00000000000E+00  0.14588348761E+04  0.14588348761E+04  0.50400001928E-02 0. -1.
        1   -1    0    0  501    0  0.00000000000E+00  0.00000000000E+00 -0.26108140877E+04  0.26108140877E+04  0.50400001928E-02 0.  1.
    10030    2    1    2    0    0  0.00000000000E+00  0.00000000000E+00 -0.11519792116E+04  0.40696489638E+04  0.39032020937E+04 0.  0.
        4    1    3    3  502    0 -0.13518299017E+03  0.16087005013E+04 -0.17193629867E+04  0.23584745996E+04  0.12699999809E+01 0.  1.
       -4    1    3    3    0  502  0.13518299017E+03 -0.16087005013E+04  0.56738377509E+03  0.17111743642E+04  0.12699999809E+01 0. -1.
</event>
<event>
 5   0  0.1164500E-08  0.3899036E+04  0.7818609E-02  0.8025230E-01
        1   -1    0    0  501    0  0.00000000000E+00  0.00000000000E+00  0.22486445355E+04  0.22486445355E+04  0.50400001928E-02 0.  1.
       -1   -1    0    0    0  501  0.00000000000E+00  0.00000000000E+00 -0.16901825379E+04  0.16901825379E+04  0.50400001928E-02 0. -1.
    10030    2    1    2    0    0  0.00000000000E+00  0.00000000000E+00  0.55846199762E+03  0.39388270734E+04  0.38990356386E+04 0.  0.
        3    1    3    3  502    0  0.15116138589E+04 -0.73474197238E+03  0.12771368258E+04  0.21109004492E+04  0.10100000352E+00 0.  1.
       -3    1    3    3    0  502 -0.15116138589E+04  0.73474197238E+03 -0.71867482821E+03  0.18279266242E+04  0.10100000352E+00 0. -1.
</event>
<event>
 5   0  0.3769985E-08  0.3902056E+04  0.7818609E-02  0.8024602E-01
       -2   -1    0    0    0  501  0.00000000000E+00  0.00000000000E+00  0.17653808488E+04  0.17653808488E+04  0.25500000920E-02 0. -1.
        2   -1    0    0  501    0  0.00000000000E+00  0.00000000000E+00 -0.21561982607E+04  0.21561982607E+04  0.25500000920E-02 0.  1.
    10030    2    1    2    0    0  0.00000000000E+00  0.00000000000E+00 -0.39081741193E+03  0.39215791095E+04  0.39020564402E+04 0.  0.
        1    1    3    3  502    0 -0.13800267192E+04 -0.13608231485E+04 -0.42057815502E+03  0.19832295308E+04  0.50400001928E-02 0.  1.
       -1    1    3    3    0  502  0.13800267192E+04  0.13608231485E+04  0.29760743088E+02  0.19383495787E+04  0.50400001928E-02 0. -1.
</event>
<event>
 5   0  0.3669347E-08  0.3906404E+04  0.7818609E-02  0.8023699E-01
       -2   -1    0    0    0  501  0.00000000000E+00  0.00000000000E+00  0.14230949346E+04  0.14230949346E+04  0.25500000920E-02 0. -1.
        2   -1    0    0  501    0  0.00000000000E+00  0.00000000000E+00 -0.26807760584E+04  0.26807760584E+04  0.25500000920E-02 0.  1.
    10030    2    1    2    0    0  0.00000000000E+00  0.00000000000E+00 -0.12576811239E+04  0.41038709930E+04  0.39064043976E+04 0.  0.
        5    1    3    3  502    0  0.45599141750E+03  0.73260234200E+03  0.12119734149E+04  0.14877956892E+04  0.46999998093E+01 0. -1.
       -5    1    3    3    0  502 -0.45599141750E+03 -0.73260234200E+03 -0.24696545388E+04  0.26160753038E+04  0.46999998093E+01 0.  1.
</event>
<event>
 5   0  0.1164500E-08  0.3876043E+04  0.7818609E-02  0.8030030E-01
       -1   -1    0    0    0  501  0.00000000000E+00  0.00000000000E+00  0.30409838244E+04  0.30409838244E+04  0.50400001928E-02 0. -1.
        1   -1    0    0  501    0  0.00000000000E+00  0.00000000000E+00 -0.12351024493E+04  0.12351024493E+04  0.50400001928E-02 0.  1.
    10030    2    1    2    0    0  0.00000000000E+00  0.00000000000E+00  0.18058813752E+04  0.42760862737E+04  0.38760426055E+04 0.  0.
        4    1    3    3  502    0 -0.33973070874E+03 -0.12552683064E+04  0.24881912269E+04  0.28075278574E+04  0.12699999809E+01 0. -1.
       -4    1    3    3    0  502  0.33973070874E+03  0.12552683064E+04 -0.68230985172E+03  0.14685584164E+04  0.12699999809E+01 0.  1.
</event>
<event>
 5   0  0.3724293E-08  0.3896352E+04  0.7818609E-02  0.8025788E-01
        2   -1    0    0  501    0  0.00000000000E+00  0.00000000000E+00  0.18821833233E+04  0.18821833233E+04  0.25500000920E-02 0. -1.
       -2   -1    0    0    0  501  0.00000000000E+00  0.00000000000E+00 -0.20164827632E+04  0.20164827632E+04  0.25500000920E-02 0.  1.
    10030    2    1    2    0    0  0.00000000000E+00  0.00000000000E+00 -0.13429943988E+03  0.38986660865E+04  0.38963522575E+04 0.  0.
        4    1    3    3  502    0 -0.16349890025E+04  0.10059842677E+04  0.26500408053E+03  0.19378911633E+04  0.12699999809E+01 0. -1.
       -4    1    3    3    0  502  0.16349890025E+04 -0.10059842677E+04 -0.39930352040E+03  0.19607749232E+04  0.12699999809E+01 0.  1.
</event>
<event>
 5   0  0.3872969E-08  0.3882085E+04  0.7818609E-02  0.8028766E-01
        2   -1    0    0  501    0  0.00000000000E+00  0.00000000000E+00  0.12707740898E+04  0.12707740898E+04  0.25500000920E-02 0. -1.
       -2   -1    0    0    0  501  0.00000000000E+00  0.00000000000E+00 -0.29648428609E+04  0.29648428609E+04  0.25500000920E-02 0.  1.
    10030    2    1    2    0    0  0.00000000000E+00  0.00000000000E+00 -0.16940687712E+04  0.42356169507E+04  0.38820847429E+04 0.  0.
        2    1    3    3  502    0  0.48543536695E+03  0.12565417619E+04 -0.23718382865E+04  0.27276659532E+04  0.25500000920E-02 0.  1.
       -2    1    3    3    0  502 -0.48543536695E+03 -0.12565417619E+04  0.67776951535E+03  0.15079509975E+04  0.25500000920E-02 0. -1.
</event>
<event>
 5   0  0.1164500E-08  0.3901588E+04  0.7818609E-02  0.8024699E-01
        1   -1    0    0  501    0  0.00000000000E+00  0.00000000000E+00  0.22417650426E+04  0.22417650426E+04  0.50400001928E-02 0.  1.
       -1   -1    0    0    0  501  0.00000000000E+00  0.00000000000E+00 -0.16975897875E+04  0.16975897875E+04  0.50400001928E-02 0. -1.
    10030    2    1    2    0    0  0.00000000000E+00  0.00000000000E+00  0.54417525503E+03  0.39393548301E+04  0.39015881086E+04 0.  0.
        3    1    3    3  502    0  0.12298246082E+04 -0.18834475882E+03 -0.12450063401E+04  0.17601088353E+04  0.10100000352E+00 0. -1.
       -3    1    3    3    0  502 -0.12298246082E+04  0.18834475882E+03  0.17891815951E+04  0.21792459948E+04  0.10100000352E+00 0.  1.
</event>
<event>
 5   0  0.3872969E-08  0.3924345E+04  0.7818609E-02  0.8019985E-01
       -2   -1    0    0    0  501  0.00000000000E+00  0.00000000000E+00  0.16786512917E+04  0.16786512917E+04  0.25500000920E-02 0.  1.
        2   -1    0    0  501    0  0.00000000000E+00  0.00000000000E+00 -0.22935800834E+04  0.22935800834E+04  0.25500000920E-02 0. -1.
    10030    2    1    2    0    0  0.00000000000E+00  0.00000000000E+00 -0.61492879172E+03  0.39722313751E+04  0.39243451274E+04 0.  0.
        2    1    3    3  502    0 -0.50999597708E+03 -0.77256447745E+03  0.14437244862E+04  0.17150195802E+04  0.25500000920E-02 0.  1.
       -2    1    3    3    0  502  0.50999597708E+03  0.77256447745E+03 -0.20586532779E+04  0.22572117949E+04  0.25500000920E-02 0. -1.
</event>
<event>
 5   0  0.1164500E-08  0.3905015E+04  0.7818609E-02  0.8023987E-01
        1   -1    0    0  501    0  0.00000000000E+00  0.00000000000E+00  0.26835759113E+04  0.26835759113E+04  0.50400001928E-02 0.  1.
       -1   -1    0    0    0  501  0.00000000000E+00  0.00000000000E+00 -0.14205991054E+04  0.14205991054E+04  0.50400001928E-02 0. -1.
    10030    2    1    2    0    0  0.00000000000E+00  0.00000000000E+00  0.12629768058E+04  0.41041750167E+04  0.39050150007E+04 0.  0.
        4    1    3    3  502    0 -0.15797321720E+04 -0.35297805211E+03 -0.51604726217E+03  0.16989566299E+04  0.12699999809E+01 0. -1.
       -4    1    3    3    0  502  0.15797321720E+04  0.35297805211E+03  0.17790240680E+04  0.24052183868E+04  0.12699999809E+01 0.  1.
</event>
<event>
 5   0  0.1164500E-08  0.3899836E+04  0.7818609E-02  0.8025063E-01
        1   -1    0    0  501    0  0.00000000000E+00  0.00000000000E+00  0.17239890566E+04  0.17239890566E+04  0.50400001928E-02 0. -1.
       -1   -1    0    0    0  501  0.00000000000E+00  0.00000000000E+00 -0.22054550580E+04  0.22054550580E+04  0.50400001928E-02 0.  1.
    10030    2    1    2    0    0  0.00000000000E+00  0.00000000000E+00 -0.48146600138E+03  0.39294441147E+04  0.38998360914E+04 0.  0.
        1    1    3    3  502    0  0.34653979385E+03  0.82364633430E+03 -0.19870088283E+04  0.21786893299E+04  0.50400001928E-02 0.  1.
       -1    1    3    3    0  502 -0.34653979385E+03 -0.82364633430E+03  0.15055428269E+04  0.17507547847E+04  0.50400001928E-02 0. -1.
</event>
<event>
 5   0  0.3769985E-08  0.3906695E+04  0.7818609E-02  0.8023638E-01
       -2   -1    0    0    0  501  0.00000000000E+00  0.00000000000E+00  0.23418169980E+04  0.23418169980E+04  0.25500000920E-02 0.  1.
        2   -1    0    0  501    0  0.00000000000E+00  0.00000000000E+00 -0.16293184736E+04  0.16293184736E+04  0.25500000920E-02 0. -1.
    10030    2    1    2    0    0  0.00000000000E+00  0.00000000000E+00  0.71249852443E+03  0.39711354717E+04  0.39066946114E+04 0.  0.
        1    1    3    3  502    0  0.14021879635E+04  0.62105837649E+03  0.15860490302E+04  0.22062176044E+04  0.50400001928E-02 0.  1.
       -1    1    3    3    0  502 -0.14021879635E+04 -0.62105837649E+03 -0.87355050575E+03  0.17649178672E+04  0.50400001928E-02 0. -1.
</event>
<event>
 5   0  0.3872969E-08  0.3885267E+04  0.7818609E-02  0.8028100E-01
        2   -1    0    0  501    0  0.00000000000E+00  0.00000000000E+00  0.15537066188E+04  0.15537066188E+04  0.25500000920E-02 0.  1.
       -2   -1    0    0    0  501  0.00000000000E+00  0.00000000000E+00 -0.24289170759E+04  0.24289170759E+04  0.25500000920E-02 0. -1.
    10030    2    1    2    0    0  0.00000000000E+00  0.00000000000E+00 -0.87521045714E+03  0.39826236947E+04  0.38852668055E+04 0.  0.
        2    1    3    3  502    0 -0.66174092302E+03  0.29199369867E+03 -0.22857432886E+04  0.23974535972E+04  0.25500000920E-02 0. -1.
       -2    1    3    3    0  502  0.66174092302E+03 -0.29199369867E+03  0.14105328315E+04  0.15851700975E+04  0.25500000920E-02 0.  1.
</event>
<event>
 5   0  0.1164500E-08  0.3901689E+04  0.7818609E-02  0.8024678E-01
        1   -1    0    0  501    0  0.00000000000E+00  0.00000000000E+00  0.20173166043E+04  0.20173166043E+04  0.50400001928E-02 0. -1.
       -1   -1    0    0    0  501  0.00000000000E+00  0.00000000000E+00 -0.18865626003E+04  0.18865626003E+04  0.50400001928E-02 0.  1.
    10030    2    1    2    0    0  0.00000000000E+00  0.00000000000E+00  0.13075400395E+03  0.39038792046E+04  0.39016888951E+04 0.  0.
        1    1    3    3  502    0 -0.79457618602E+03 -0.16898298941E+04 -0.49966798506E+03  0.19330143511E+04  0.50400001928E-02 0.  1.
       -1    1    3    3    0  502  0.79457618602E+03  0.16898298941E+04  0.63042198902E+03  0.19708648535E+04  0.50400001928E-02 0. -1.
</event>
<event>
 5   0  0.1164500E-08  0.3905852E+04  0.7818609E-02  0.8023813E-01
       -1   -1    0    0    0  501  0.00000000000E+00  0.00000000000E+00  0.18174098380E+04  0.18174098380E+04  0.50400001928E-02 0. -1.
        1   -1    0    0  501    0  0.00000000000E+00  0.00000000000E+00 -0.20985467145E+04  0.20985467145E+04  0.50400001928E-02 0.  1.
    10030    2    1    2    0    0  0.00000000000E+00  0.00000000000E+00 -0.28113687653E+03  0.39159565525E+04  0.39058517352E+04 0.  0.
        2    1    3    3  502    0  0.40109648521E+03  0.20682429204E+03 -0.20455537768E+04  0.20947422114E+04  0.25500000920E-02 0.  1.
       -2    1    3    3    0  502 -0.40109648521E+03 -0.20682429204E+03  0.17644169003E+04  0.18212143411E+04  0.25500000920E-02 0. -1.
</event>
<event>
 5   0  0.3769985E-08  0.3905448E+04  0.7818609E-02  0.8023897E-01
       -2   -1    0    0    0  501  0.00000000000E+00  0.00000000000E+00  0.21264338480E+04  0.21264338480E+04  0.25500000920E-02 0.  1.
        2   -1    0    0  501    0  0.00000000000E+00  0.00000000000E+00 -0.17932042094E+04  0.17932042094E+04  0.25500000920E-02 0. -1.
    10030    2    1    2    0    0  0.00000000000E+00  0.00000000000E+00  0.33322963859E+03  0.39196380574E+04  0.39054475427E+04 0.  0.
        1    1    3    3  502    0 -0.76308347961E+03 -0.56562759188E+03 -0.15457201943E+04  0.18142441645E+04  0.50400001928E-02 0. -1.
       -1    1    3    3    0  502  0.76308347961E+03  0.56562759188E+03  0.18789498329E+04  0.21053938929E+04  0.50400001928E-02 0.  1.
</event>
<event>
 5   0  0.1164500E-08  0.3900082E+04  0.7818609E-02  0.8025012E-01
       -1   -1    0    0    0  501  0.00000000000E+00  0.00000000000E+00  0.23015612303E+04  0.23015612303E+04  0.50400001928E-02 0. -1.
        1   -1    0    0  501    0  0.00000000000E+00  0.00000000000E+00 -0.16522085064E+04  0.16522085064E+04  0.50400001928E-02 0.  1.
    10030    2    1    2    0    0  0.00000000000E+00  0.00000000000E+00  0.64935272396E+03  0.39537697367E+04  0.39000815595E+04 0.  0.
        2    1    3    3  502    0 -0.21108327207E+03 -0.32006170721E+03 -0.16136226926E+04  0.16585456997E+04  0.25500000920E-02 0.  1.
       -2    1    3    3    0  502  0.21108327207E+03  0.32006170721E+03  0.22629754165E+04  0.22952240370E+04  0.25500000920E-02 0. -1.
</event>
<event>
 5   0  0.1164500E-08  0.3913419E+04  0.7818609E-02  0.8022244E-01
       -1   -1    0    0    0  501  0.00000000000E+00  0.00000000000E+00  0.19150957451E+04  0.19150957451E+04  0.50400001928E-02 0.  1.
        1   -1    0    0  501    0  0.00000000000E+00  0.00000000000E+00 -0.19992279653E+04  0.19992279653E+04  0.50400001928E-02 0. -1.
    10030    2    1    2    0    0  0.00000000000E+00  0.00000000000E+00 -0.84132220188E+02  0.39143237103E+04  0.39134194611E+04 0.  0.
        3    1    3    3  502    0 -0.24903240763E+03  0.15150508633E+04  0.11711926073E+04  0.19310847708E+04  0.10100000352E+00 0.  1.
       -3    1    3    3    0  502  0.24903240763E+03 -0.15150508633E+04 -0.12553248275E+04  0.19832389395E+04  0.10100000352E+00 0. -1.
</event>
<event>
 5   0  0.3769985E-08  0.3905834E+04  0.7818609E-02  0.8023817E-01
        2   -1    0    0  501    0  0.00000000000E+00  0.00000000000E+00  0.23411125300E+04  0.23411125300E+04  0.25500000920E-02 0. -1.
       -2   -1    0    0    0  501  0.00000000000E+00  0.00000000000E+00 -0.16290911407E+04  0.16290911407E+04  0.25500000920E-02 0.  1.
    10030    2    1    2    0    0  0.00000000000E+00  0.00000000000E+00  0.71202138924E+03  0.39702036707E+04  0.39058344471E+04 0.  0.
        1    1    3    3  502    0 -0.12118647413E+04  0.14732221612E+04 -0.69074981297E+02  0.19088664281E+04  0.50400001928E-02 0.  1.
       -1    1    3    3    0  502  0.12118647413E+04 -0.14732221612E+04  0.78109637054E+03  0.20613372425E+04  0.50400001928E-02 0. -1.
</event>
<event>
 5   0  0.3724293E-08  0.3899558E+04  0.7818609E-02  0.8025121E-01
        2   -1    0    0  501    0  0.00000000000E+00  0.00000000000E+00  0.26420201288E+04  0.26420201288E+04  0.25500000920E-02 0.  1.
       -2   -1    0    0    0  501  0.00000000000E+00  0.00000000000E+00 -0.14389137063E+04  0.14389137063E+04  0.25500000920E-02 0. -1.
    10030    2    1    2    0    0  0.00000000000E+00  0.00000000000E+00  0.12031064225E+04  0.40809338351E+04  0.38995584240E+04 0.  0.
        4    1    3    3  502    0  0.40808092199E+03  0.13698530127E+04  0.19893596470E+04  0.24496082816E+04  0.12699999809E+01 0.  1.
       -4    1    3    3    0  502 -0.40808092199E+03 -0.13698530127E+04 -0.78625322458E+03  0.16313255534E+04  0.12699999809E+01 0. -1.
</event>
<event>
 5   0  0.3724293E-08  0.3909233E+04  0.7818609E-02  0.8023112E-01
       -2   -1    0    0    0  501  0.00000000000E+00  0.00000000000E+00  0.18730903006E+04  0.18730903006E+04  0.25500000920E-02 0.  1.
        2   -1    0    0  501    0  0.00000000000E+00  0.00000000000E+00 -0.20396915088E+04  0.20396915088E+04  0.25500000920E-02 0. -1.
    10030    2    1    2    0    0  0.00000000000E+00  0.00000000000E+00 -0.16660120820E+03  0.39127818093E+04  0.39092333679E+04 0.  0.
        4    1    3    3  502    0  0.18534542573E+03 -0.19348537520E+04 -0.28967408443E+03  0.19651780216E+04  0.12699999809E+01 0. -1.
       -4    1    3    3    0  502 -0.18534542573E+03  0.19348537520E+04  0.12307287624E+03  0.19476037878E+04  0.12699999809E+01 0.  1.
</event>
<event>
 5   0  0.3690572E-08  0.3879539E+04  0.7818609E-02  0.8029298E-01
        2   -1    0    0  501    0  0.00000000000E+00  0.00000000000E+00  0.12682257336E+04  0.12682257336E+04  0.25500000920E-02 0.  1.
       -2   -1    0    0    0  501  0.00000000000E+00  0.00000000000E+00 -0.29669048455E+04  0.29669048455E+04  0.25500000920E-02 0. -1.
    10030    2    1    2    0    0  0.00000000000E+00  0.00000000000E+00 -0.16986791119E+04  0.42351305790E+04  0.38795386705E+04 0.  0.
        3    1    3    3  502    0 -0.34093946827E+03 -0.11260431834E+04  0.83425524483E+03  0.14422880418E+04  0.10100000352E+00 0.  1.
       -3    1    3    3    0  502  0.34093946827E+03  0.11260431834E+04 -0.25329343567E+04  0.27928425372E+04  0.10100000352E+00 0. -1.
</event>
<event>
 5   0  0.1164500E-08  0.3903498E+04  0.7818609E-02  0.8024302E-01
       -1   -1    0    0    0  501  0.00000000000E+00  0.00000000000E+00  0.26272116044E+04  0.26272116044E+04  0.50400001928E-02 0.  1.
        1   -1    0    0  501    0  0.00000000000E+00  0.00000000000E+00 -0.14499492547E+04  0.14499492547E+04  0.50400001928E-02 0. -1.
    10030    2    1    2    0    0  0.00000000000E+00  0.00000000000E+00  0.11772623497E+04  0.40771608592E+04  0.39034976664E+04 0.  0.
        1    1    3    3  502    0  0.87192091185E+03 -0.17355058793E+04  0.38745710741E+03  0.19804922983E+04  0.50400001928E-02 0. -1.
       -1    1    3    3    0  502 -0.87192091185E+03  0.17355058793E+04  0.78980524229E+03  0.20966685609E+04  0.50400001928E-02 0.  1.
</event>
<event>
 5   0  0.3872969E-08  0.3901750E+04  0.7818609E-02  0.8024665E-01
       -2   -1    0    0    0  501  0.00000000000E+00  0.00000000000E+00  0.24797494025E+04  0.24797494025E+04  0.25500000920E-02 0. -1.
        2   -1    0    0  501    0  0.00000000000E+00  0.00000000000E+00 -0.15347977087E+04  0.15347977087E+04  0.25500000920E-02 0.  1.
    10030    2    1    2    0    0  0.00000000000E+00  0.00000000000E+00  0.94495169389E+03  0.40145471112E+04  0.39017502232E+04 0.  0.
        2    1    3    3  502    0  0.15172100209E+04 -0.62534520951E+03 -0.61297754478E+03  0.17517774828E+04  0.25500000920E-02 0.  1.
       -2    1    3    3    0  502 -0.15172100209E+04  0.62534520951E+03  0.15579292387E+04  0.22627696284E+04  0.25500000920E-02 0. -1.
</event>
<event>
 5   0  0.3769985E-08  0.3898131E+04  0.7818609E-02  0.8025418E-01
        2   -1    0    0  501    0  0.00000000000E+00  0.00000000000E+00  0.27370631171E+04  0.27370631171E+04  0.25500000920E-02 0. -1.
       -2   -1    0    0    0  501  0.00000000000E+00  0.00000000000E+00 -0.13879317216E+04  0.13879317216E+04  0.25500000920E-02 0.  1.
    10030    2    1    2    0    0  0.00000000000E+00  0.00000000000E+00  0.13491313955E+04  0.41249948387E+04  0.38981312057E+04 0.  0.
        1    1    3    3  502    0  0.14155709091E+04 -0.13245769684E+04  0.88755439135E+03  0.21321580480E+04  0.50400001928E-02 0. -1.
       -1    1    3    3    0  502 -0.14155709091E+04  0.13245769684E+04  0.46157700418E+03  0.19928367908E+04  0.50400001928E-02 0.  1.
</event>
<event>
 5   0  0.1164500E-08  0.3912058E+04  0.7818609E-02  0.8022526E-01
        1   -1    0    0  501    0  0.00000000000E+00  0.00000000000E+00  0.17430958597E+04  0.17430958597E+04  0.50400001928E-02 0. -1.
       -1   -1    0    0    0  501  0.00000000000E+00  0.00000000000E+00 -0.21949731325E+04  0.21949731325E+04  0.50400001928E-02 0.  1.
    10030    2    1    2    0    0  0.00000000000E+00  0.00000000000E+00 -0.45187727282E+03  0.39380689922E+04  0.39120575556E+04 0.  0.
        2    1    3    3  502    0 -0.47895115953E+03  0.18478800645E+04  0.20350501083E+03  0.19197575981E+04  0.25500000920E-02 0. -1.
       -2    1    3    3    0  502  0.47895115953E+03 -0.18478800645E+04 -0.65538228364E+03  0.20183113941E+04  0.25500000920E-02 0.  1.
</event>
<event>
 5   0  0.1164500E-08  0.3903419E+04  0.7818609E-02  0.8024318E-01
       -1   -1    0    0    0  501  0.00000000000E+00  0.00000000000E+00  0.17271787204E+04  0.17271787205E+04  0.50400001928E-02 0. -1.
        1   -1    0    0  501    0  0.00000000000E+00  0.00000000000E+00 -0.22054289557E+04  0.22054289557E+04  0.50400001928E-02 0.  1.
    10030    2    1    2    0    0  0.00000000000E+00  0.00000000000E+00 -0.47825023520E+03  0.39326076761E+04  0.39034189945E+04 0.  0.
        2    1    3    3  502    0  0.42748595533E+03  0.64160744360E+03 -0.20455092440E+04  0.21859808830E+04  0.25500000920E-02 0.  1.
       -2    1    3    3    0  502 -0.42748595533E+03 -0.64160744360E+03  0.15672590088E+04  0.17466267931E+04  0.25500000920E-02 0. -1.
</event>
<event>
 5   0  0.3769985E-08  0.3895857E+04  0.7818609E-02  0.8025891E-01
       -2   -1    0    0    0  501  0.00000000000E+00  0.00000000000E+00  0.20287125182E+04  0.20287125182E+04  0.25500000920E-02 0.  1.
        2   -1    0    0  501    0  0.00000000000E+00  0.00000000000E+00 -0.18703611402E+04  0.18703611402E+04  0.25500000920E-02 0. -1.
    10030    2    1    2    0    0  0.00000000000E+00  0.00000000000E+00  0.15835137798E+03  0.38990736584E+04  0.38958568036E+04 0.  0.
        1    1    3    3  502    0  0.12053339442E+03  0.14186821074E+04 -0.12512969716E+04  0.18955029233E+04  0.50400001928E-02 0. -1.
       -1    1    3    3    0  502 -0.12053339442E+03 -0.14186821074E+04  0.14096483495E+04  0.20035707351E+04  0.50400001928E-02 0.  1.
</event>
<event>
 5   0  0.3724293E-08  0.3890605E+04  0.7818609E-02  0.8026986E-01
       -2   -1    0    0    0  501  0.00000000000E+00  0.00000000000E+00  0.18446350699E+04  0.18446350699E+04  0.25500000920E-02 0. -1.
        2   -1    0    0  501    0  0.00000000000E+00  0.00000000000E+00 -0.20514641597E+04  0.20514641597E+04  0.25500000920E-02 0.  1.
    10030    2    1    2    0    0  0.00000000000E+00  0.00000000000E+00 -0.20682908985E+03  0.38960992296E+04  0.38906054715E+04 0.  0.
        4    1    3    3  502    0  0.10579105211E+04 -0.14594828186E+04 -0.83584074639E+03  0.19869313362E+04  0.12699999809E+01 0.  1.
       -4    1    3    3    0  502 -0.10579105211E+04  0.14594828186E+04  0.62901165655E+03  0.19091678934E+04  0.12699999809E+01 0. -1.
</event>
<event>
 5   0  0.3724293E-08  0.3901840E+04  0.7818609E-02  0.8024647E-01
        2   -1    0    0  501    0  0.00000000000E+00  0.00000000000E+00  0.21812487669E+04  0.21812487669E+04  0.25500000920E-02 0. -1.
       -2   -1    0    0    0  501  0.00000000000E+00  0.00000000000E+00 -0.17449129176E+04  0.17449129176E+04  0.25500000920E-02 0.  1.
    10030    2    1    2    0    0  0.00000000000E+00  0.00000000000E+00  0.43633584935E+03  0.39261616845E+04  0.39018401555E+04 0.  0.
        4    1    3    3  502    0  0.66208143561E+03  0.18107561307E+04 -0.81848178839E+02  0.19297384096E+04  0.12699999809E+01 0.  1.
       -4    1    3    3    0  502 -0.66208143561E+03 -0.18107561307E+04  0.51818402819E+03  0.19964232748E+04  0.12699999809E+01 0. -1.
</event>
<event>
 5   0  0.1164500E-08  0.3898562E+04  0.7818609E-02  0.8025328E-01
        1   -1    0    0  501    0  0.00000000000E+00  0.00000000000E+00  0.22503532657E+04  0.22503532657E+04  0.50400001928E-02 0.  1.
       -1   -1    0    0    0  501  0.00000000000E+00  0.00000000000E+00 -0.16884891151E+04  0.16884891151E+04  0.50400001928E-02 0. -1.
    10030    2    1    2    0    0  0.00000000000E+00  0.00000000000E+00  0.56186415064E+03  0.39388423808E+04  0.38985622962E+04 0.  0.
        5    1    3    3  502    0  0.17508489141E+03 -0.18932588913E+04  0.71501163217E+03  0.20313413481E+04  0.46999998093E+01 0.  1.
       -5    1    3    3    0  502 -0.17508489141E+03  0.18932588913E+04 -0.15314748153E+03  0.19075010327E+04  0.46999998093E+01 0. -1.
</event>
<event>
 5   0  0.1164500E-08  0.3898717E+04  0.7818609E-02  0.8025296E-01
        1   -1    0    0  501    0  0.00000000000E+00  0.00000000000E+00  0.25350765472E+04  0.25350765472E+04  0.50400001928E-02 0.  1.
       -1   -1    0    0    0  501  0.00000000000E+00  0.00000000000E+00 -0.14989682293E+04  0.14989682293E+04  0.50400001928E-02 0. -1.
    10030    2    1    2    0    0  0.00000000000E+00  0.00000000000E+00  0.10361083180E+04  0.40340447765E+04  0.38987173291E+04 0.  0.
        5    1    3    3  502    0  0.25112836359E+02 -0.42966296508E+03  0.24852938126E+04  0.25222902971E+04  0.46999998093E+01 0.  1.
       -5    1    3    3    0  502 -0.25112836359E+02  0.42966296508E+03 -0.14491854946E+04  0.15117544794E+04  0.46999998093E+01 0. -1.
</event>
<event>
 5   0  0.3872969E-08  0.3903731E+04  0.7818609E-02  0.8024254E-01
        2   -1    0    0  501    0  0.00000000000E+00  0.00000000000E+00  0.29300276254E+04  0.29300276254E+04  0.25500000920E-02 0. -1.
       -2   -1    0    0    0  501  0.00000000000E+00  0.00000000000E+00 -0.13002537720E+04  0.13002537720E+04  0.25500000920E-02 0.  1.
    10030    2    1    2    0    0  0.00000000000E+00  0.00000000000E+00  0.16297738533E+04  0.42302813974E+04  0.39037312777E+04 0.  0.
        2    1    3    3  502    0 -0.18362965676E+04 -0.47924085625E+03  0.13092533356E+04  0.23056021294E+04  0.25500000920E-02 0. -1.
       -2    1    3    3    0  502  0.18362965676E+04  0.47924085625E+03  0.32052051774E+03  0.19246792680E+04  0.25500000920E-02 0.  1.
</event>
<event>
 5   0  0.1164500E-08  0.3892025E+04  0.7818609E-02  0.8026690E-01
       -1   -1    0    0    0  501  0.00000000000E+00  0.00000000000E+00  0.17936234538E+04  0.17936234538E+04  0.50400001928E-02 0.  1.
        1   -1    0    0  501    0  0.00000000000E+00  0.00000000000E+00 -0.21113485384E+04  0.21113485384E+04  0.50400001928E-02 0. -1.
    10030    2    1    2    0    0  0.00000000000E+00  0.00000000000E+00 -0.31772508461E+03  0.39049719922E+04  0.38920247983E+04 0.  0.
        2    1    3    3  502    0  0.70536637464E+03  0.71813999053E+03  0.15121198409E+04  0.18165277818E+04  0.25500000920E-02 0.  1.
       -2    1    3    3    0  502 -0.70536637464E+03 -0.71813999053E+03 -0.18298449256E+04  0.20884442104E+04  0.25500000920E-02 0. -1.
</event>
<event>
 5   0  0.1164500E-08  0.3893216E+04  0.7818609E-02  0.8026442E-01
       -1   -1    0    0    0  501  0.00000000000E+00  0.00000000000E+00  0.11766299162E+04  0.11766299162E+04  0.50400001928E-02 0. -1.
        1   -1    0    0  501    0  0.00000000000E+00  0.00000000000E+00 -0.32204545279E+04  0.32204545279E+04  0.50400001928E-02 0.  1.
    10030    2    1    2    0    0  0.00000000000E+00  0.00000000000E+00 -0.20438246117E+04  0.43970844441E+04  0.38932162238E+04 0.  0.
        2    1    3    3  502    0  0.66014046565E+03  0.57691912191E+03 -0.29848537755E+04  0.31109440961E+04  0.25500000920E-02 0.  1.
       -2    1    3    3    0  502 -0.66014046565E+03 -0.57691912191E+03  0.94102916386E+03  0.12861403480E+04  0.25500000920E-02 0. -1.
</event>
<event>
 5   0  0.1164500E-08  0.3888244E+04  0.7818609E-02  0.8027479E-01
       -1   -1    0    0    0  501  0.00000000000E+00  0.00000000000E+00  0.15656408328E+04  0.15656408328E+04  0.50400001928E-02 0. -1.
        1   -1    0    0  501    0  0.00000000000E+00  0.00000000000E+00 -0.24140980225E+04  0.24140980225E+04  0.50400001928E-02 0.  1.
    10030    2    1    2    0    0  0.00000000000E+00  0.00000000000E+00 -0.84845718971E+03  0.39797388553E+04  0.38882440450E+04 0.  0.
        1    1    3    3  502    0  0.44572110598E+03 -0.91061689469E+03 -0.21220936905E+04  0.23518443963E+04  0.50400001928E-02 0.  1.
       -1    1    3    3    0  502 -0.44572110598E+03  0.91061689469E+03  0.12736365008E+04  0.16278944589E+04  0.50400001928E-02 0. -1.
</event>
<event>
 5   0  0.3872969E-08  0.3895657E+04  0.7818609E-02  0.8025933E-01
        2   -1    0    0  501    0  0.00000000000E+00  0.00000000000E+00  0.23832992265E+04  0.23832992265E+04  0.25500000920E-02 0.  1.
       -2   -1    0    0    0  501  0.00000000000E+00  0.00000000000E+00 -0.15919258541E+04  0.15919258541E+04  0.25500000920E-02 0. -1.
    10030    2    1    2    0    0  0.00000000000E+00  0.00000000000E+00  0.79137337236E+03  0.39752250805E+04  0.38956568928E+04 0.  0.
        2    1    3    3  502    0 -0.89752846782E+03  0.14441953233E+04  0.13652396751E+04  0.21806276282E+04  0.25500000920E-02 0.  1.
       -2    1    3    3    0  502  0.89752846782E+03 -0.14441953233E+04 -0.57386630271E+03  0.17945974523E+04  0.25500000920E-02 0. -1.
</event>
<event>
 5   0  0.3724293E-08  0.3901670E+04  0.7818609E-02  0.8024682E-01
        2   -1    0    0  501    0  0.00000000000E+00  0.00000000000E+00  0.27279807682E+04  0.27279807682E+04  0.25500000920E-02 0.  1.
       -2   -1    0    0    0  501  0.00000000000E+00  0.00000000000E+00 -0.13950818621E+04  0.13950818621E+04  0.25500000920E-02 0. -1.
    10030    2    1    2    0    0  0.00000000000E+00  0.00000000000E+00  0.13328989062E+04  0.41230626303E+04  0.39016696374E+04 0.  0.
        4    1    3    3  502    0  0.90683589905E+03  0.88227131346E+03 -0.90273435941E+03  0.15542473918E+04  0.12699999809E+01 0. -1.
       -4    1    3    3    0  502 -0.90683589905E+03 -0.88227131346E+03  0.22356332656E+04  0.25688152385E+04  0.12699999809E+01 0.  1.
</event>
<event>
 5   0  0.1164500E-08  0.3893997E+04  0.7818609E-02  0.8026279E-01
       -1   -1    0    0    0  501  0.00000000000E+00  0.00000000000E+00  0.16759224608E+04  0.16759224608E+04  0.50400001928E-02 0. -1.
        1   -1    0    0  501    0  0.00000000000E+00  0.00000000000E+00 -0.22619208825E+04  0.22619208825E+04  0.50400001928E-02 0.  1.
    10030    2    1    2    0    0  0.00000000000E+00  0.00000000000E+00 -0.58599842173E+03  0.39378433433E+04  0.38939974379E+04 0.  0.
        3    1    3    3  502    0 -0.33446328145E+03 -0.18939845801E+04  0.13331960562E+02  0.19233359113E+04  0.10100000352E+00 0.  1.
       -3    1    3    3    0  502  0.33446328145E+03  0.18939845801E+04 -0.59933038230E+03  0.20145074320E+04  0.10100000352E+00 0. -1.
</event>
<event>
 5   0  0.3769985E-08  0.3901174E+04  0.7818609E-02  0.8024785E-01
        2   -1    0    0  501    0  0.00000000000E+00  0.00000000000E+00  0.13950418197E+04  0.13950418197E+04  0.25500000920E-02 0. -1.
       -2   -1    0    0    0  501  0.00000000000E+00  0.00000000000E+00 -0.27273661392E+04  0.27273661392E+04  0.25500000920E-02 0.  1.
    10030    2    1    2    0    0  0.00000000000E+00  0.00000000000E+00 -0.13323243195E+04  0.41224079589E+04  0.39011740908E+04 0.  0.
        1    1    3    3  502    0 -0.31137421960E+02  0.80861227149E+03  0.12093012809E+04  0.14550714527E+04  0.50400001928E-02 0. -1.
       -1    1    3    3    0  502  0.31137421960E+02 -0.80861227149E+03 -0.25416256003E+04  0.26673365061E+04  0.50400001928E-02 0.  1.
</event>
<event>
 5   0  0.1164500E-08  0.3907427E+04  0.7818609E-02  0.8023486E-01
        1   -1    0    0  501    0  0.00000000000E+00  0.00000000000E+00  0.21736273727E+04  0.21736273727E+04  0.50400001928E-02 0. -1.
       -1   -1    0    0    0  501  0.00000000000E+00  0.00000000000E+00 -0.17560493461E+04  0.17560493461E+04  0.50400001928E-02 0.  1.
    10030    2    1    2    0    0  0.00000000000E+00  0.00000000000E+00  0.41757802667E+03  0.39296767188E+04  0.39074272490E+04 0.  0.
        2    1    3    3  502    0 -0.92651696356E+03  0.16430466911E+04 -0.30299056060E+03  0.19104552842E+04  0.25500000920E-02 0.  1.
       -2    1    3    3    0  502  0.92651696356E+03 -0.16430466911E+04  0.72056858728E+03  0.20192214346E+04  0.25500000920E-02 0. -1.
</event>
<event>
 5   0  0.1164500E-08  0.3899529E+04  0.7818609E-02  0.8025127E-01
       -1   -1    0    0    0  501  0.00000000000E+00  0.00000000000E+00  0.14240366687E+04  0.14240366687E+04  0.50400001928E-02 0.  1.
        1   -1    0    0  501    0  0.00000000000E+00  0.00000000000E+00 -0.26695817499E+04  0.26695817499E+04  0.50400001928E-02 0. -1.
    10030    2    1    2    0    0  0.00000000000E+00  0.00000000000E+00 -0.12455450812E+04  0.40936184186E+04  0.38995293572E+04 0.  0.
        1    1    3    3  502    0 -0.12546567801E+04 -0.38982487431E+03  0.88957585152E+03  0.15866544249E+04  0.50400001928E-02 0.  1.
       -1    1    3    3    0  502  0.12546567801E+04  0.38982487431E+03 -0.21351209327E+04  0.25069639937E+04  0.50400001928E-02 0. -1.
</event>
<event>
 5   0  0.1164500E-08  0.3899906E+04  0.7818609E-02  0.8025049E-01
       -1   -1    0    0    0  501  0.00000000000E+00  0.00000000000E+00  0.13953484552E+04  0.13953484552E+04  0.50400001928E-02 0. -1.
        1   -1    0    0  501    0  0.00000000000E+00  0.00000000000E+00 -0.27249937870E+04  0.27249937870E+04  0.50400001928E-02 0.  1.
    10030    2    1    2    0    0  0.00000000000E+00  0.00000000000E+00 -0.13296453317E+04  0.41203422422E+04  0.38999055739E+04 0.  0.
        3    1    3    3  502    0  0.93061978825E+02 -0.82710488591E+03  0.11982430294E+04  0.14589548971E+04  0.10100000352E+00 0. -1.
       -3    1    3    3    0  502 -0.93061978825E+02  0.82710488591E+03 -0.25278883611E+04  0.26613873451E+04  0.10100000352E+00 0.  1.
</event>
<event>
 5   0  0.1164500E-08  0.3902194E+04  0.7818609E-02  0.8024573E-01
        1   -1    0    0  501    0  0.00000000000E+00  0.00000000000E+00  0.12815238287E+04  0.12815238287E+04  0.50400001928E-02 0. -1.
       -1   -1    0    0    0  501  0.00000000000E+00  0.00000000000E+00 -0.29705105406E+04  0.29705105406E+04  0.50400001928E-02 0.  1.
    10030    2    1    2    0    0  0.00000000000E+00  0.00000000000E+00 -0.16889867119E+04  0.42520343693E+04  0.39021942757E+04 0.  0.
        1    1    3    3  502    0  0.18673035839E+04  0.66367091010E+02 -0.23239123929E+03  0.18828789004E+04  0.50400001928E-02 0. -1.
       -1    1    3    3    0  502 -0.18673035839E+04 -0.66367091010E+02 -0.14565954726E+04  0.23691554690E+04  0.50400001928E-02 0.  1.
</event>
<event>
 5   0  0.1164500E-08  0.3951063E+04  0.7818609E-02  0.8014492E-01
       -1   -1    0    0    0  501  0.00000000000E+00  0.00000000000E+00  0.19298062177E+04  0.19298062177E+04  0.50400001928E-02 0.  1.
        1   -1    0    0  501    0  0.00000000000E+00  0.00000000000E+00 -0.20223405718E+04  0.20223405718E+04  0.50400001928E-02 0. -1.
    10030    2    1    2    0    0  0.00000000000E+00  0.00000000000E+00 -0.92534354055E+02  0.39521467895E+04  0.39510633555E+04 0.  0.
        1    1    3    3  502    0 -0.60496597042E+03 -0.92337885582E+03 -0.16850427302E+04  0.20144431834E+04  0.50400001928E-02 0. -1.
       -1    1    3    3    0  502  0.60496597042E+03  0.92337885582E+03  0.15925083761E+04  0.19377036060E+04  0.50400001928E-02 0.  1.
</event>
<event>
 5   0  0.1164500E-08  0.3887498E+04  0.7818609E-02  0.8027634E-01
       -1   -1    0    0    0  501  0.00000000000E+00  0.00000000000E+00  0.25445436215E+04  0.25445436215E+04  0.50400001928E-02 0.  1.
        1   -1    0    0  501    0  0.00000000000E+00  0.00000000000E+00 -0.14848088617E+04  0.14848088617E+04  0.50400001928E-02 0. -1.
    10030    2    1    2    0    0  0.00000000000E+00  0.00000000000E+00  0.10597347598E+04  0.40293524832E+04  0.38874983823E+04 0.  0.
        2    1    3    3  502    0 -0.17652608924E+03  0.19354227385E+04  0.49489784924E+03  0.20054791244E+04  0.25500000920E-02 0.  1.
       -2    1    3    3    0  502  0.17652608924E+03 -0.19354227385E+04  0.56483691053E+03  0.20238733588E+04  0.25500000920E-02 0. -1.
</event>
<event>
 5   0  0.1164500E-08  0.3895679E+04  0.7818609E-02  0.8025929E-01
        1   -1    0    0  501    0  0.00000000000E+00  0.00000000000E+00  0.14695560025E+04  0.14695560025E+04  0.50400001928E-02 0.  1.
       -1   -1    0    0    0  501  0.00000000000E+00  0.00000000000E+00 -0.25817852452E+04  0.25817852452E+04  0.50400001928E-02 0. -1.
    10030    2    1    2    0    0  0.00000000000E+00  0.00000000000E+00 -0.11122292426E+04  0.40513412477E+04  0.38956786337E+04 0.  0.
        1    1    3    3  502    0 -0.86454250140E+03  0.55675167182E+03  0.11642759916E+04  0.15533656188E+04  0.50400001928E-02 0.  1.
       -1    1    3    3    0  502  0.86454250140E+03 -0.55675167182E+03 -0.22765052343E+04  0.24979756289E+04  0.50400001928E-02 0. -1.
</event>
<event>
 5   0  0.3872969E-08  0.3901440E+04  0.7818609E-02  0.8024730E-01
        2   -1    0    0  501    0  0.00000000000E+00  0.00000000000E+00  0.14357377888E+04  0.14357377888E+04  0.25500000920E-02 0. -1.
       -2   -1    0    0    0  501  0.00000000000E+00  0.00000000000E+00 -0.26504209233E+04  0.26504209233E+04  0.25500000920E-02 0.  1.
    10030    2    1    2    0    0  0.00000000000E+00  0.00000000000E+00 -0.12146831345E+04  0.40861587121E+04  0.39014404908E+04 0.  0.
        2    1    3    3  502    0  0.17298698140E+04  0.63760427325E+03 -0.12749544594E+04  0.22415391266E+04  0.25500000920E-02 0.  1.
       -2    1    3    3    0  502 -0.17298698140E+04 -0.63760427325E+03  0.60271324915E+02  0.18446195855E+04  0.25500000920E-02 0. -1.
</event>
<event>
 5   0  0.1164500E-08  0.3972644E+04  0.7818609E-02  0.8010088E-01
        1   -1    0    0  501    0  0.00000000000E+00  0.00000000000E+00  0.16791382234E+04  0.16791382234E+04  0.50400001928E-02 0.  1.
       -1   -1    0    0    0  501  0.00000000000E+00  0.00000000000E+00 -0.23497018574E+04  0.23497018574E+04  0.50400001928E-02 0. -1.
    10030    2    1    2    0    0  0.00000000000E+00  0.00000000000E+00 -0.67056363399E+03  0.40288400808E+04  0.39726435543E+04 0.  0.
        2    1    3    3  502    0  0.14215781168E+02 -0.17099654691E+04  0.68960289138E+03  0.18438373415E+04  0.25500000920E-02 0.  1.
       -2    1    3    3    0  502 -0.14215781168E+02  0.17099654691E+04 -0.13601665254E+04  0.21850027393E+04  0.25500000920E-02 0. -1.
</event>
<event>
 5   0  0.1164500E-08  0.3900330E+04  0.7818609E-02  0.8024961E-01
        1   -1    0    0  501    0  0.00000000000E+00  0.00000000000E+00  0.24014763205E+04  0.24014763205E+04  0.50400001928E-02 0. -1.
       -1   -1    0    0    0  501  0.00000000000E+00  0.00000000000E+00 -0.15836690978E+04  0.15836690978E+04  0.50400001928E-02 0.  1.
    10030    2    1    2    0    0  0.00000000000E+00  0.00000000000E+00  0.81780722268E+03  0.39851454184E+04  0.39003301594E+04 0.  0.
        5    1    3    3  502    0 -0.18063748335E+04 -0.44120880450E+03 -0.19164168827E+03  0.18693324677E+04  0.46999998093E+01 0. -1.
       -5    1    3    3    0  502  0.18063748335E+04  0.44120880450E+03  0.10094489109E+04  0.21158129506E+04  0.46999998093E+01 0.  1.
</event>
<event>
 5   0  0.3769985E-08  0.3902322E+04  0.7818609E-02  0.8024547E-01
       -2   -1    0    0    0  501  0.00000000000E+00  0.00000000000E+00  0.16399354835E+04  0.16399354835E+04  0.25500000920E-02 0. -1.
        2   -1    0    0  501    0  0.00000000000E+00  0.00000000000E+00 -0.23214501908E+04  0.23214501908E+04  0.25500000920E-02 0.  1.
    10030    2    1    2    0    0  0.00000000000E+00  0.00000000000E+00 -0.68151470732E+03  0.39613856743E+04  0.39023216378E+04 0.  0.
        1    1    3    3  502    0  0.14013693877E+04  0.87635236987E+02 -0.17160741009E+04  0.22173016068E+04  0.50400001928E-02 0.  1.
       -1    1    3    3    0  502 -0.14013693877E+04 -0.87635236987E+02  0.10345593936E+04  0.17440840675E+04  0.50400001928E-02 0. -1.
</event>
<event>
 5   0  0.3769985E-08  0.3897992E+04  0.7818609E-02  0.8025447E-01
        2   -1    0    0  501    0  0.00000000000E+00  0.00000000000E+00  0.24808188654E+04  0.24808188654E+04  0.25500000920E-02 0. -1.
       -2   -1    0    0    0  501  0.00000000000E+00  0.00000000000E+00 -0.15311824156E+04  0.15311824156E+04  0.25500000920E-02 0.  1.
    10030    2    1    2    0    0  0.00000000000E+00  0.00000000000E+00  0.94963644985E+03  0.40120012810E+04  0.38979924182E+04 0.  0.
        1    1    3    3  502    0 -0.98269984647E+02 -0.19436776295E+04  0.36664182265E+03  0.19803954008E+04  0.50400001928E-02 0.  1.
       -1    1    3    3    0  502  0.98269984647E+02  0.19436776295E+04  0.58299462719E+03  0.20316058802E+04  0.50400001928E-02 0. -1.
</event>
<event>
 5   0  0.3872969E-08  0.3899380E+04  0.7818609E-02  0.8025158E-01
        2   -1    0    0  501    0  0.00000000000E+00  0.00000000000E+00  0.22284413172E+04  0.22284413172E+04  0.25500000920E-02 0.  1.
       -2   -1    0    0    0  501  0.00000000000E+00  0.00000000000E+00 -0.17058068202E+04  0.17058068203E+04  0.25500000920E-02 0. -1.
    10030    2    1    2    0    0  0.00000000000E+00  0.00000000000E+00  0.52263449693E+03  0.39342481374E+04  0.38993796416E+04 0.  0.
        2    1    3    3  502    0 -0.63210741496E+03 -0.17628402988E+04 -0.28586496562E+03  0.18944351352E+04  0.25500000920E-02 0.  1.
       -2    1    3    3    0  502  0.63210741496E+03  0.17628402988E+04  0.80849946254E+03  0.20398130022E+04  0.25500000920E-02 0. -1.
</event>
<event>
 5   0  0.3669347E-08  0.3839214E+04  0.7818609E-02  0.8037792E-01
        2   -1    0    0  501    0  0.00000000000E+00  0.00000000000E+00  0.23509459055E+04  0.23509459055E+04  0.25500000920E-02 0. -1.
       -2   -1    0    0    0  501  0.00000000000E+00  0.00000000000E+00 -0.15674074454E+04  0.15674074454E+04  0.25500000920E-02 0.  1.
    10030    2    1    2    0    0  0.00000000000E+00  0.00000000000E+00  0.78353846006E+03  0.39183533509E+04  0.38392135216E+04 0.  0.
        5    1    3    3  502    0  0.15418239889E+04 -0.70175627504E+03  0.13132566397E+04  0.21434430653E+04  0.46999998093E+01 0. -1.
       -5    1    3    3    0  502 -0.15418239889E+04  0.70175627504E+03 -0.52971817969E+03  0.17749102856E+04  0.46999998093E+01 0.  1.
</event>
<event>
 5   0  0.1164500E-08  0.3910575E+04  0.7818609E-02  0.8022833E-01
       -1   -1    0    0    0  501  0.00000000000E+00  0.00000000000E+00  0.33999541886E+04  0.33999541886E+04  0.50400001928E-02 0. -1.
        1   -1    0    0  501    0  0.00000000000E+00  0.00000000000E+00 -0.11244706213E+04  0.11244706213E+04  0.50400001928E-02 0.  1.
    10030    2    1    2    0    0  0.00000000000E+00  0.00000000000E+00  0.22754835672E+04  0.45244248099E+04  0.39105746887E+04 0.  0.
        4    1    3    3  502    0  0.56379303308E+03  0.17449761547E+04  0.35275312252E+03  0.18674155249E+04  0.12699999809E+01 0.  1.
       -4    1    3    3    0  502 -0.56379303308E+03 -0.17449761547E+04  0.19227304447E+04  0.26570092850E+04  0.12699999809E+01 0. -1.
</event>
<event>
 5   0  0.3769985E-08  0.3864122E+04  0.7818609E-02  0.8032533E-01
        2   -1    0    0  501    0  0.00000000000E+00  0.00000000000E+00  0.13580492805E+04  0.13580492805E+04  0.25500000920E-02 0. -1.
       -2   -1    0    0    0  501  0.00000000000E+00  0.00000000000E+00 -0.27486920579E+04  0.27486920579E+04  0.25500000920E-02 0.  1.
    10030    2    1    2    0    0  0.00000000000E+00  0.00000000000E+00 -0.13906427774E+04  0.41067413383E+04  0.38641217742E+04 0.  0.
        1    1    3    3  502    0  0.14022667989E+04 -0.12939335885E+04 -0.37253651746E+03  0.19440678393E+04  0.50400001928E-02 0. -1.
       -1    1    3    3    0  502 -0.14022667989E+04  0.12939335885E+04 -0.10181062599E+04  0.21626734990E+04  0.50400001928E-02 0.  1.
</event>
<event>
 5   0  0.1164500E-08  0.3901083E+04  0.7818609E-02  0.8024804E-01
       -1   -1    0    0    0  501  0.00000000000E+00  0.00000000000E+00  0.15758027418E+04  0.15758027418E+04  0.50400001928E-02 0.  1.
        1   -1    0    0  501    0  0.00000000000E+00  0.00000000000E+00 -0.24143968038E+04  0.24143968038E+04  0.50400001928E-02 0. -1.
    10030    2    1    2    0    0  0.00000000000E+00  0.00000000000E+00 -0.83859406194E+03  0.39901995456E+04  0.39010834922E+04 0.  0.
        1    1    3    3  502    0 -0.98434147619E+03  0.82835155090E+03  0.10803186750E+04  0.16799353777E+04  0.50400001928E-02 0.  1.
       -1    1    3    3    0  502  0.98434147619E+03 -0.82835155090E+03 -0.19189127369E+04  0.23102641679E+04  0.50400001928E-02 0. -1.
</event>
<event>
 5   0  0.1164500E-08  0.3896900E+04  0.7818609E-02  0.8025674E-01
        1   -1    0    0  501    0  0.00000000000E+00  0.00000000000E+00  0.15288434561E+04  0.15288434561E+04  0.50400001928E-02 0.  1.
       -1   -1    0    0    0  501  0.00000000000E+00  0.00000000000E+00 -0.24832213578E+04  0.24832213578E+04  0.50400001928E-02 0. -1.
    10030    2    1    2    0    0  0.00000000000E+00  0.00000000000E+00 -0.95437790173E+03  0.40120648139E+04  0.38968996512E+04 0.  0.
        2    1    3    3  502    0 -0.81427923507E+03  0.13822724369E+04  0.66126067101E+03  0.17352214376E+04  0.25500000920E-02 0.  1.
       -2    1    3    3    0  502  0.81427923507E+03 -0.13822724369E+04 -0.16156385727E+04  0.22768433763E+04  0.25500000920E-02 0. -1.
</event>
<event>
 5   0  0.1164500E-08  0.3898398E+04  0.7818609E-02  0.8025362E-01
       -1   -1    0    0    0  501  0.00000000000E+00  0.00000000000E+00  0.21170022291E+04  0.21170022291E+04  0.50400001928E-02 0.  1.
        1   -1    0    0  501    0  0.00000000000E+00  0.00000000000E+00 -0.17946970636E+04  0.17946970636E+04  0.50400001928E-02 0. -1.
    10030    2    1    2    0    0  0.00000000000E+00  0.00000000000E+00  0.32230516551E+03  0.39116992927E+04  0.38983984836E+04 0.  0.
        3    1    3    3  502    0  0.18203500488E+04 -0.67744276875E+03 -0.30353702264E+01  0.19423213505E+04  0.10100000352E+00 0. -1.
       -3    1    3    3    0  502 -0.18203500488E+04  0.67744276875E+03  0.32534053574E+03  0.19693779422E+04  0.10100000352E+00 0.  1.
</event>
<event>
 5   0  0.1164500E-08  0.3901592E+04  0.7818609E-02  0.8024698E-01
       -1   -1    0    0    0  501  0.00000000000E+00  0.00000000000E+00  0.21432668876E+04  0.21432668876E+04  0.50400001928E-02 0.  1.
        1   -1    0    0  501    0  0.00000000000E+00  0.00000000000E+00 -0.17756090899E+04  0.17756090899E+04  0.50400001928E-02 0. -1.
    10030    2    1    2    0    0  0.00000000000E+00  0.00000000000E+00  0.36765779770E+03  0.39188759775E+04  0.39015915561E+04 0.  0.
        5    1    3    3  502    0  0.93356138262E+03 -0.12288310778E+04  0.13824382743E+04  0.20718881111E+04  0.46999998093E+01 0.  1.
       -5    1    3    3    0  502 -0.93356138262E+03  0.12288310778E+04 -0.10147804766E+04  0.18469878663E+04  0.46999998093E+01 0. -1.
</event>
<event>
 5   0  0.1164500E-08  0.3884986E+04  0.7818609E-02  0.8028159E-01
       -1   -1    0    0    0  501  0.00000000000E+00  0.00000000000E+00  0.30128634198E+04  0.30128634198E+04  0.50400001928E-02 0.  1.
        1   -1    0    0  501    0  0.00000000000E+00  0.00000000000E+00 -0.12523899573E+04  0.12523899574E+04  0.50400001928E-02 0. -1.
    10030    2    1    2    0    0  0.00000000000E+00  0.00000000000E+00  0.17604734625E+04  0.42652533772E+04  0.38849864297E+04 0.  0.
        2    1    3    3  502    0 -0.69240583460E+03 -0.45783343871E+02 -0.11116712647E+04  0.13104712721E+04  0.25500000920E-02 0. -1.
       -2    1    3    3    0  502  0.69240583460E+03  0.45783343871E+02  0.28721447272E+04  0.29547821050E+04  0.25500000920E-02 0.  1.
</event>
<event>
 5   0  0.3769985E-08  0.3896866E+04  0.7818609E-02  0.8025681E-01
        2   -1    0    0  501    0  0.00000000000E+00  0.00000000000E+00  0.21206346719E+04  0.21206346719E+04  0.25500000920E-02 0. -1.
       -2   -1    0    0    0  501  0.00000000000E+00  0.00000000000E+00 -0.17902144441E+04  0.17902144441E+04  0.25500000920E-02 0.  1.
    10030    2    1    2    0    0  0.00000000000E+00  0.00000000000E+00  0.33042022785E+03  0.39108491160E+04  0.38968658279E+04 0.  0.
        1    1    3    3  502    0 -0.14030501749E+04 -0.10640070261E+04 -0.67188729314E+03  0.18846997850E+04  0.50400001928E-02 0.  1.
       -1    1    3    3    0  502  0.14030501749E+04  0.10640070261E+04  0.10023075210E+04  0.20261493310E+04  0.50400001928E-02 0. -1.
</event>
<event>
 5   0  0.3690572E-08  0.3909252E+04  0.7818609E-02  0.8023108E-01
       -2   -1    0    0    0  501  0.00000000000E+00  0.00000000000E+00  0.15241973596E+04  0.15241973596E+04  0.25500000920E-02 0.  1.
        2   -1    0    0  501    0  0.00000000000E+00  0.00000000000E+00 -0.25066069238E+04  0.25066069238E+04  0.25500000920E-02 0. -1.
    10030    2    1    2    0    0  0.00000000000E+00  0.00000000000E+00 -0.98240956421E+03  0.40308042835E+04  0.39092524375E+04 0.  0.
        3    1    3    3  502    0  0.88284794441E+03 -0.11950782372E+04  0.81829645079E+03  0.16962433721E+04  0.10100000352E+00 0.  1.
       -3    1    3    3    0  502 -0.88284794441E+03  0.11950782372E+04 -0.18007060150E+04  0.23345609113E+04  0.10100000352E+00 0. -1.
</event>
<event>
 5   0  0.1164500E-08  0.3901181E+04  0.7818609E-02  0.8024784E-01
       -1   -1    0    0    0  501  0.00000000000E+00  0.00000000000E+00  0.19841745968E+04  0.19841745969E+04  0.50400001928E-02 0. -1.
        1   -1    0    0  501    0  0.00000000000E+00  0.00000000000E+00 -0.19175753050E+04  0.19175753050E+04  0.50400001928E-02 0.  1.
    10030    2    1    2    0    0  0.00000000000E+00  0.00000000000E+00  0.66599291895E+02  0.39017499018E+04  0.39011814660E+04 0.  0.
        1    1    3    3  502    0  0.18059721487E+04  0.57032695929E+03 -0.43366876588E+03  0.19429042284E+04  0.50400001928E-02 0. -1.
       -1    1    3    3    0  502 -0.18059721487E+04 -0.57032695929E+03  0.50026805777E+03  0.19588456734E+04  0.50400001928E-02 0.  1.
</event>
<event>
 5   0  0.1164500E-08  0.3878575E+04  0.7818609E-02  0.8029500E-01
       -1   -1    0    0    0  501  0.00000000000E+00  0.00000000000E+00  0.16191442951E+04  0.16191442951E+04  0.50400001928E-02 0. -1.
        1   -1    0    0  501    0  0.00000000000E+00  0.00000000000E+00 -0.23227303437E+04  0.23227303437E+04  0.50400001928E-02 0.  1.
    10030    2    1    2    0    0  0.00000000000E+00  0.00000000000E+00 -0.70358604860E+03  0.39418746388E+04  0.38785747821E+04 0.  0.
        2    1    3    3  502    0 -0.80441250599E+03  0.43037932466E+03  0.13874307312E+04  0.16605028988E+04  0.25500000920E-02 0. -1.
       -2    1    3    3    0  502  0.80441250599E+03 -0.43037932466E+03 -0.20910167798E+04  0.22813717401E+04  0.25500000920E-02 0.  1.
</event>
<event>
 5   0  0.1164500E-08  0.3901042E+04  0.7818609E-02  0.8024812E-01
        1   -1    0    0  501    0  0.00000000000E+00  0.00000000000E+00  0.18350906022E+04  0.18350906022E+04  0.50400001928E-02 0.  1.
       -1   -1    0    0    0  501  0.00000000000E+00  0.00000000000E+00 -0.20732126222E+04  0.20732126222E+04  0.50400001928E-02 0. -1.
    10030    2    1    2    0    0  0.00000000000E+00  0.00000000000E+00 -0.23812202006E+03  0.39083032244E+04  0.39010424245E+04 0.  0.
        1    1    3    3  502    0  0.11192382198E+04  0.62381393687E+02 -0.17182610942E+04  0.20515864152E+04  0.50400001928E-02 0. -1.
       -1    1    3    3    0  502 -0.11192382198E+04 -0.62381393687E+02  0.14801390742E+04  0.18567168093E+04  0.50400001928E-02 0.  1.
</event>
<event>
 5   0  0.1164500E-08  0.3897937E+04  0.7818609E-02  0.8025459E-01
       -1   -1    0    0    0  501  0.00000000000E+00  0.00000000000E+00  0.19652162183E+04  0.19652162183E+04  0.50400001928E-02 0. -1.
        1   -1    0    0  501    0  0.00000000000E+00  0.00000000000E+00 -0.19328546589E+04  0.19328546589E+04  0.50400001928E-02 0.  1.
    10030    2    1    2    0    0  0.00000000000E+00  0.00000000000E+00  0.32361559351E+02  0.38980708772E+04  0.38979365430E+04 0.  0.
        4    1    3    3  502    0  0.15761652373E+04 -0.48977597964E+03  0.10527001441E+04  0.19576405625E+04  0.12699999809E+01 0. -1.
       -4    1    3    3    0  502 -0.15761652373E+04  0.48977597964E+03 -0.10203385848E+04  0.19404303147E+04  0.12699999809E+01 0.  1.
</event>
<event>
 5   0  0.1164500E-08  0.3907564E+04  0.7818609E-02  0.8023458E-01
       -1   -1    0    0    0  501  0.00000000000E+00  0.00000000000E+00  0.14264206321E+04  0.14264206321E+04  0.50400001928E-02 0.  1.
        1   -1    0    0  501    0  0.00000000000E+00  0.00000000000E+00 -0.26761141712E+04  0.26761141712E+04  0.50400001928E-02 0. -1.
    10030    2    1    2    0    0  0.00000000000E+00  0.00000000000E+00 -0.12496935391E+04  0.41025348033E+04  0.39075641864E+04 0.  0.
        5    1    3    3  502    0  0.21797365359E+02  0.16095521748E+04  0.53770071904E+03  0.16971380268E+04  0.46999998093E+01 0.  1.
       -5    1    3    3    0  502 -0.21797365359E+02 -0.16095521748E+04 -0.17873942582E+04  0.24053967766E+04  0.46999998093E+01 0. -1.
</event>
<event>
 5   0  0.3769985E-08  0.3908946E+04  0.7818609E-02  0.8023171E-01
        2   -1    0    0  501    0  0.00000000000E+00  0.00000000000E+00  0.26981441273E+04  0.26981441273E+04  0.25500000920E-02 0. -1.
       -2   -1    0    0    0  501  0.00000000000E+00  0.00000000000E+00 -0.14157747618E+04  0.14157747618E+04  0.25500000920E-02 0.  1.
    10030    2    1    2    0    0  0.00000000000E+00  0.00000000000E+00  0.12823693655E+04  0.41139188891E+04  0.39089458216E+04 0.  0.
        1    1    3    3  502    0  0.72673251236E+02 -0.77055875714E+03  0.25299856146E+04  0.26457266317E+04  0.50400001928E-02 0. -1.
       -1    1    3    3    0  502 -0.72673251236E+02  0.77055875714E+03 -0.12476162491E+04  0.14681922574E+04  0.50400001928E-02 0.  1.
</event>
<event>
 5   0  0.1164500E-08  0.3863492E+04  0.7818609E-02  0.8032665E-01
       -1   -1    0    0    0  501  0.00000000000E+00  0.00000000000E+00  0.17426629318E+04  0.17426629318E+04  0.50400001928E-02 0. -1.
        1   -1    0    0  501    0  0.00000000000E+00  0.00000000000E+00 -0.21413450472E+04  0.21413450472E+04  0.50400001928E-02 0.  1.
    10030    2    1    2    0    0  0.00000000000E+00  0.00000000000E+00 -0.39868211536E+03  0.38840079790E+04  0.38634920152E+04 0.  0.
        5    1    3    3  502    0  0.66776417291E+03  0.55146876680E+03 -0.19352395644E+04  0.21201889192E+04  0.46999998093E+01 0.  1.
       -5    1    3    3    0  502 -0.66776417291E+03 -0.55146876680E+03  0.15365574491E+04  0.17638190598E+04  0.46999998093E+01 0. -1.
</event>
<event>
 5   0  0.3872969E-08  0.3795558E+04  0.7818609E-02  0.8047109E-01
       -2   -1    0    0    0  501  0.00000000000E+00  0.00000000000E+00  0.21888856869E+04  0.21888856869E+04  0.25500000920E-02 0.  1.
        2   -1    0    0  501    0  0.00000000000E+00  0.00000000000E+00 -0.16453870766E+04  0.16453870766E+04  0.25500000920E-02 0. -1.
    10030    2    1    2    0    0  0.00000000000E+00  0.00000000000E+00  0.54349861032E+03  0.38342727635E+04  0.37955575197E+04 0.  0.
        2    1    3    3  502    0  0.79323072787E+02  0.29602142966E+03 -0.16202246072E+04  0.16489537939E+04  0.25500000920E-02 0. -1.
       -2    1    3    3    0  502 -0.79323072787E+02 -0.29602142966E+03  0.21637232175E+04  0.21853189696E+04  0.25500000920E-02 0.  1.
</event>
<event>
 5   0  0.1164500E-08  0.3908576E+04  0.7818609E-02  0.8023248E-01
       -1   -1    0    0    0  501  0.00000000000E+00  0.00000000000E+00  0.16308991411E+04  0.16308991411E+04  0.50400001928E-02 0. -1.
        1   -1    0    0  501    0  0.00000000000E+00  0.00000000000E+00 -0.23418007427E+04  0.23418007427E+04  0.50400001928E-02 0.  1.
    10030    2    1    2    0    0  0.00000000000E+00  0.00000000000E+00 -0.71090160155E+03  0.39726998838E+04  0.39085756075E+04 0.  0.
        4    1    3    3  502    0 -0.28197214863E+03 -0.80576099588E+03 -0.21422683872E+04  0.23060950827E+04  0.12699999809E+01 0.  1.
       -4    1    3    3    0  502  0.28197214863E+03  0.80576099588E+03  0.14313667856E+04  0.16666048011E+04  0.12699999809E+01 0. -1.
</event>
<event>
 5   0  0.3690572E-08  0.3905510E+04  0.7818609E-02  0.8023884E-01
       -2   -1    0    0    0  501  0.00000000000E+00  0.00000000000E+00  0.16792103899E+04  0.16792103899E+04  0.25500000920E-02 0. -1.
        2   -1    0    0  501    0  0.00000000000E+00  0.00000000000E+00 -0.22708600327E+04  0.22708600327E+04  0.25500000920E-02 0.  1.
    10030    2    1    2    0    0  0.00000000000E+00  0.00000000000E+00 -0.59164964280E+03  0.39500704226E+04  0.39055098314E+04 0.  0.
        3    1    3    3  502    0  0.93341420170E+03 -0.14083882641E+04  0.69434069074E+03  0.18267261917E+04  0.10100000352E+00 0. -1.
       -3    1    3    3    0  502 -0.93341420170E+03  0.14083882641E+04 -0.12859903335E+04  0.21233442308E+04  0.10100000352E+00 0.  1.
</event>
<event>
 5   0  0.1164500E-08  0.3937908E+04  0.7818609E-02  0.8017191E-01
       -1   -1    0    0    0  501  0.00000000000E+00  0.00000000000E+00  0.33416105179E+04  0.33416105179E+04  0.50400001928E-02 0. -1.
        1   -1    0    0  501    0  0.00000000000E+00  0.00000000000E+00 -0.11601532311E+04  0.11601532311E+04  0.50400001928E-02 0.  1.
    10030    2    1    2    0    0  0.00000000000E+00  0.00000000000E+00  0.21814572868E+04  0.45017637490E+04  0.39379081957E+04 0.  0.
        1    1    3    3  502    0 -0.11093005089E+04 -0.15609572292E+04  0.16141597413E+04  0.25045252566E+04  0.50400001928E-02 0. -1.
       -1    1    3    3    0  502  0.11093005089E+04  0.15609572292E+04  0.56729754558E+03  0.19972384924E+04  0.50400001928E-02 0.  1.
</event>
<event>
 5   0  0.3690572E-08  0.3895165E+04  0.7818609E-02  0.8026036E-01
       -2   -1    0    0    0  501  0.00000000000E+00  0.00000000000E+00  0.23671369385E+04  0.23671369385E+04  0.25500000920E-02 0. -1.
        2   -1    0    0  501    0  0.00000000000E+00  0.00000000000E+00 -0.16023903010E+04  0.16023903010E+04  0.25500000920E-02 0.  1.
    10030    2    1    2    0    0  0.00000000000E+00  0.00000000000E+00  0.76474663755E+03  0.39695272395E+04  0.38951648342E+04 0.  0.
        3    1    3    3  502    0  0.76564939272E+03 -0.25115578579E+03 -0.14245467973E+04  0.16366526232E+04  0.10100000352E+00 0.  1.
       -3    1    3    3    0  502 -0.76564939272E+03  0.25115578579E+03  0.21892934348E+04  0.23328746163E+04  0.10100000352E+00 0. -1.
</event>
<event>
 5   0  0.1164500E-08  0.3907006E+04  0.7818609E-02  0.8023574E-01
       -1   -1    0    0    0  501  0.00000000000E+00  0.00000000000E+00  0.13529531024E+04  0.13529531024E+04  0.50400001928E-02 0.  1.
        1   -1    0    0  501    0  0.00000000000E+00  0.00000000000E+00 -0.28206248071E+04  0.28206248071E+04  0.50400001928E-02 0. -1.
    10030    2    1    2    0    0  0.00000000000E+00  0.00000000000E+00 -0.14676717047E+04  0.41735779095E+04  0.39070055457E+04 0.  0.
        5    1    3    3  502    0  0.13567599157E+04 -0.10784445339E+04  0.22894100179E+03  0.17482208539E+04  0.46999998093E+01 0.  1.
       -5    1    3    3    0  502 -0.13567599157E+04  0.10784445339E+04 -0.16966127065E+04  0.24253570556E+04  0.46999998093E+01 0. -1.
</event>
<event>
 5   0  0.1164500E-08  0.3824199E+04  0.7818609E-02  0.8040982E-01
        1   -1    0    0  501    0  0.00000000000E+00  0.00000000000E+00  0.19884469655E+04  0.19884469655E+04  0.50400001928E-02 0. -1.
       -1   -1    0    0    0  501  0.00000000000E+00  0.00000000000E+00 -0.18386830698E+04  0.18386830698E+04  0.50400001928E-02 0.  1.
    10030    2    1    2    0    0  0.00000000000E+00  0.00000000000E+00  0.14976389571E+03  0.38271300353E+04  0.38241986197E+04 0.  0.
        5    1    3    3  502    0  0.15932731378E+03 -0.14443800895E+04  0.13186067484E+04  0.19622346656E+04  0.46999998093E+01 0. -1.
       -5    1    3    3    0  502 -0.15932731378E+03  0.14443800895E+04 -0.11688428527E+04  0.18648953698E+04  0.46999998093E+01 0.  1.
</event>
<event>
 5   0  0.1164500E-08  0.3903227E+04  0.7818609E-02  0.8024358E-01
        1   -1    0    0  501    0  0.00000000000E+00  0.00000000000E+00  0.19706862734E+04  0.19706862734E+04  0.50400001928E-02 0.  1.
       -1   -1    0    0    0  501  0.00000000000E+00  0.00000000000E+00 -0.19327253996E+04  0.19327253996E+04  0.50400001928E-02 0. -1.
    10030    2    1    2    0    0  0.00000000000E+00  0.00000000000E+00  0.37960873876E+02  0.39034116730E+04  0.39032270830E+04 0.  0.
        3    1    3    3  502    0  0.78059474520E+03 -0.17462083134E+04 -0.36862501216E+03  0.19479363541E+04  0.10100000352E+00 0. -1.
       -3    1    3    3    0  502 -0.78059474520E+03  0.17462083134E+04  0.40658588604E+03  0.19554753189E+04  0.10100000352E+00 0.  1.
</event>
<event>
 5   0  0.3669347E-08  0.3908121E+04  0.7818609E-02  0.8023342E-01
        2   -1    0    0  501    0  0.00000000000E+00  0.00000000000E+00  0.25234157784E+04  0.25234157784E+04  0.25500000920E-02 0. -1.
       -2   -1    0    0    0  501  0.00000000000E+00  0.00000000000E+00 -0.15131678359E+04  0.15131678359E+04  0.25500000920E-02 0.  1.
    10030    2    1    2    0    0  0.00000000000E+00  0.00000000000E+00  0.10102479425E+04  0.40365836144E+04  0.39081205675E+04 0.  0.
        5    1    3    3  502    0 -0.10952099391E+03 -0.19001208012E+04  0.47997717736E+02  0.19038854425E+04  0.46999998093E+01 0.  1.
       -5    1    3    3    0  502  0.10952099391E+03  0.19001208012E+04  0.96225022480E+03  0.21326981719E+04  0.46999998093E+01 0. -1.
</event>
<event>
 5   0  0.3769985E-08  0.3894113E+04  0.7818609E-02  0.8026255E-01
       -2   -1    0    0    0  501  0.00000000000E+00  0.00000000000E+00  0.15249021440E+04  0.15249021440E+04  0.25500000920E-02 0.  1.
        2   -1    0    0  501    0  0.00000000000E+00  0.00000000000E+00 -0.24860797829E+04  0.24860797829E+04  0.25500000920E-02 0. -1.
    10030    2    1    2    0    0  0.00000000000E+00  0.00000000000E+00 -0.96117763885E+03  0.40109819269E+04  0.38941126800E+04 0.  0.
        1    1    3    3  502    0 -0.10511820481E+04  0.39671664047E+03 -0.21184891171E+04  0.23979916452E+04  0.50400001928E-02 0. -1.
       -1    1    3    3    0  502  0.10511820481E+04 -0.39671664047E+03  0.11573114783E+04  0.16129902817E+04  0.50400001928E-02 0.  1.
</event>
<event>
 5   0  0.3769985E-08  0.3898424E+04  0.7818609E-02  0.8025357E-01
       -2   -1    0    0    0  501  0.00000000000E+00  0.00000000000E+00  0.14791126279E+04  0.14791126279E+04  0.25500000920E-02 0.  1.
        2   -1    0    0  501    0  0.00000000000E+00  0.00000000000E+00 -0.25687206375E+04  0.25687206375E+04  0.25500000920E-02 0. -1.
    10030    2    1    2    0    0  0.00000000000E+00  0.00000000000E+00 -0.10896080095E+04  0.40478332654E+04  0.38984238520E+04 0.  0.
        1    1    3    3  502    0  0.55757772243E+03 -0.17288556573E+04 -0.12787117004E+04  0.22214721274E+04  0.50400001928E-02 0. -1.
       -1    1    3    3    0  502 -0.55757772243E+03  0.17288556573E+04  0.18910369083E+03  0.18263611379E+04  0.50400001928E-02 0.  1.
</event>
<event>
 5   0  0.1164500E-08  0.3896475E+04  0.7818609E-02  0.8025763E-01
       -1   -1    0    0    0  501  0.00000000000E+00  0.00000000000E+00  0.17139725447E+04  0.17139725447E+04  0.50400001928E-02 0.  1.
        1   -1    0    0  501    0  0.00000000000E+00  0.00000000000E+00 -0.22145217194E+04  0.22145217194E+04  0.50400001928E-02 0. -1.
    10030    2    1    2    0    0  0.00000000000E+00  0.00000000000E+00 -0.50054917472E+03  0.39284942642E+04  0.38964750362E+04 0.  0.
        2    1    3    3  502    0  0.70362847931E+03 -0.17215062953E+04  0.33497153408E+03  0.18896779859E+04  0.25500000920E-02 0.  1.
       -2    1    3    3    0  502 -0.70362847931E+03  0.17215062953E+04 -0.83552070880E+03  0.20388162783E+04  0.25500000920E-02 0. -1.
</event>
<event>
 5   0  0.1164500E-08  0.3903399E+04  0.7818609E-02  0.8024323E-01
        1   -1    0    0  501    0  0.00000000000E+00  0.00000000000E+00  0.18527893378E+04  0.18527893378E+04  0.50400001928E-02 0. -1.
       -1   -1    0    0    0  501  0.00000000000E+00  0.00000000000E+00 -0.20558894337E+04  0.20558894337E+04  0.50400001928E-02 0.  1.
    10030    2    1    2    0    0  0.00000000000E+00  0.00000000000E+00 -0.20310009586E+03  0.39086787715E+04  0.39033985308E+04 0.  0.
        2    1    3    3  502    0 -0.66488333958E+03  0.63907694539E+03 -0.18239468426E+04  0.20438373912E+04  0.25500000920E-02 0.  1.
       -2    1    3    3    0  502  0.66488333958E+03 -0.63907694539E+03  0.16208467467E+04  0.18648413803E+04  0.25500000920E-02 0. -1.
</event>
<event>
 5   0  0.3872969E-08  0.3899952E+04  0.7818609E-02  0.8025039E-01
        2   -1    0    0  501    0  0.00000000000E+00  0.00000000000E+00  0.22230615226E+04  0.22230615226E+04  0.25500000920E-02 0.  1.
       -2   -1    0    0    0  501  0.00000000000E+00  0.00000000000E+00 -0.17104366625E+04  0.17104366625E+04  0.25500000920E-02 0. -1.
    10030    2    1    2    0    0  0.00000000000E+00  0.00000000000E+00  0.51262486017E+03  0.39334981851E+04  0.38999517593E+04 0.  0.
        2    1    3    3  502    0  0.15850701273E+04  0.37130556816E+03  0.13389000914E+04  0.21078350477E+04  0.25500000920E-02 0.  1.
       -2    1    3    3    0  502 -0.15850701273E+04 -0.37130556816E+03 -0.82627523128E+03  0.18256631374E+04  0.25500000920E-02 0. -1.
</event>
<event>
 5   0  0.1164500E-08  0.3850728E+04  0.7818609E-02  0.8035356E-01
       -1   -1    0    0    0  501  0.00000000000E+00  0.00000000000E+00  0.26549917809E+04  0.26549917809E+04  0.50400001928E-02 0. -1.
        1   -1    0    0  501    0  0.00000000000E+00  0.00000000000E+00 -0.13962477574E+04  0.13962477574E+04  0.50400001928E-02 0.  1.
    10030    2    1    2    0    0  0.00000000000E+00  0.00000000000E+00  0.12587440235E+04  0.40512395384E+04  0.38507278897E+04 0.  0.
        5    1    3    3  502    0  0.15851892130E+03  0.27264416203E+03  0.26276262303E+04  0.26464891429E+04  0.46999998093E+01 0. -1.
       -5    1    3    3    0  502 -0.15851892130E+03 -0.27264416203E+03 -0.13688822068E+04  0.14047503955E+04  0.46999998093E+01 0.  1.
</event>
<event>
 5   0  0.1164500E-08  0.3905435E+04  0.7818609E-02  0.8023900E-01
        1   -1    0    0  501    0  0.00000000000E+00  0.00000000000E+00  0.11944502515E+04  0.11944502515E+04  0.50400001928E-02 0. -1.
       -1   -1    0    0    0  501  0.00000000000E+00  0.00000000000E+00 -0.31923526709E+04  0.31923526709E+04  0.50400001928E-02 0.  1.
    10030    2    1    2    0    0  0.00000000000E+00  0.00000000000E+00 -0.19979024193E+04  0.43868029224E+04  0.39054354178E+04 0.  0.
        4    1    3    3  502    0 -0.12544271518E+04 -0.14898958006E+04 -0.11567191201E+04  0.22652544474E+04  0.12699999809E+01 0. -1.
       -4    1    3    3    0  502  0.12544271518E+04  0.14898958006E+04 -0.84118329924E+03  0.21215484750E+04  0.12699999809E+01 0.  1.
</event>
<event>
 5   0  0.1164500E-08  0.3897918E+04  0.7818609E-02  0.8025462E-01
        1   -1    0    0  501    0  0.00000000000E+00  0.00000000000E+00  0.17722117160E+04  0.17722117160E+04  0.50400001928E-02 0.  1.
       -1   -1    0    0    0  501  0.00000000000E+00  0.00000000000E+00 -0.21433339957E+04  0.21433339957E+04  0.50400001928E-02 0. -1.
    10030    2    1    2    0    0  0.00000000000E+00  0.00000000000E+00 -0.37112227965E+03  0.39155457117E+04  0.38979182231E+04 0.  0.
        3    1    3    3  502    0  0.15859358663E+04 -0.22308389877E+03 -0.13012063123E+04  0.20635156591E+04  0.10100000352E+00 0. -1.
       -3    1    3    3    0  502 -0.15859358663E+04  0.22308389877E+03  0.93008403260E+03  0.18520300526E+04  0.10100000352E+00 0.  1.
</event>
<event>
 5   0  0.1164500E-08  0.3890431E+04  0.7818609E-02  0.8027022E-01
        1   -1    0    0  501    0  0.00000000000E+00  0.00000000000E+00  0.18391803778E+04  0.18391803778E+04  0.50400001928E-02 0. -1.
       -1   -1    0    0    0  501  0.00000000000E+00  0.00000000000E+00 -0.20573639495E+04  0.20573639495E+04  0.50400001928E-02 0.  1.
    10030    2    1    2    0    0  0.00000000000E+00  0.00000000000E+00 -0.21818357169E+03  0.38965443274E+04  0.38904310332E+04 0.  0.
        5    1    3    3  502    0 -0.12582549997E+04  0.11384942495E+04  0.84343708312E+03  0.18949361476E+04  0.46999998093E+01 0. -1.
       -5    1    3    3    0  502  0.12582549997E+04 -0.11384942495E+04 -0.10616206548E+04  0.20016081797E+04  0.46999998093E+01 0.  1.
</event>
<event>
 5   0  0.3872969E-08  0.3891073E+04  0.7818609E-02  0.8026889E-01
       -2   -1    0    0    0  501  0.00000000000E+00  0.00000000000E+00  0.13968715343E+04  0.13968715343E+04  0.25500000920E-02 0.  1.
        2   -1    0    0  501    0  0.00000000000E+00  0.00000000000E+00 -0.27097060909E+04  0.27097060909E+04  0.25500000920E-02 0. -1.
    10030    2    1    2    0    0  0.00000000000E+00  0.00000000000E+00 -0.13128345566E+04  0.41065776252E+04  0.38910725024E+04 0.  0.
        2    1    3    3  502    0 -0.14565329564E+04 -0.76294671707E+03  0.44114980720E+03  0.17024068546E+04  0.25500000920E-02 0.  1.
       -2    1    3    3    0  502  0.14565329564E+04  0.76294671707E+03 -0.17539843638E+04  0.24041707706E+04  0.25500000920E-02 0. -1.
</event>
<event>
 5   0  0.3872969E-08  0.3914550E+04  0.7818609E-02  0.8022010E-01
        2   -1    0    0  501    0  0.00000000000E+00  0.00000000000E+00  0.22392333646E+04  0.22392333646E+04  0.25500000920E-02 0. -1.
       -2   -1    0    0    0  501  0.00000000000E+00  0.00000000000E+00 -0.17108204498E+04  0.17108204498E+04  0.25500000920E-02 0.  1.
    10030    2    1    2    0    0  0.00000000000E+00  0.00000000000E+00  0.52841291472E+03  0.39500538144E+04  0.39145504120E+04 0.  0.
        2    1    3    3  502    0 -0.60816085842E+03  0.65172726583E+02 -0.16119085162E+04  0.17240522552E+04  0.25500000920E-02 0.  1.
       -2    1    3    3    0  502  0.60816085842E+03 -0.65172726583E+02  0.21403214309E+04  0.22260015592E+04  0.25500000920E-02 0. -1.
</event>
<event>
 5   0  0.1164500E-08  0.3907064E+04  0.7818609E-02  0.8023562E-01
       -1   -1    0    0    0  501  0.00000000000E+00  0.00000000000E+00  0.17270089972E+04  0.17270089972E+04  0.50400001928E-02 0.  1.
        1   -1    0    0  501    0  0.00000000000E+00  0.00000000000E+00 -0.22097667313E+04  0.22097667313E+04  0.50400001928E-02 0. -1.
    10030    2    1    2    0    0  0.00000000000E+00  0.00000000000E+00 -0.48275773414E+03  0.39367757285E+04  0.39070638728E+04 0.  0.
        4    1    3    3  502    0 -0.44671088189E+02  0.26294894980E+03 -0.21913341030E+04  0.22075063806E+04  0.12699999809E+01 0. -1.
       -4    1    3    3    0  502  0.44671088189E+02 -0.26294894980E+03  0.17085763689E+04  0.17292693479E+04  0.12699999809E+01 0.  1.
</event>
<event>
 5   0  0.1164500E-08  0.3900351E+04  0.7818609E-02  0.8024956E-01
       -1   -1    0    0    0  501  0.00000000000E+00  0.00000000000E+00  0.23140712817E+04  0.23140712817E+04  0.50400001928E-02 0.  1.
        1   -1    0    0  501    0  0.00000000000E+00  0.00000000000E+00 -0.16435036366E+04  0.16435036366E+04  0.50400001928E-02 0. -1.
    10030    2    1    2    0    0  0.00000000000E+00  0.00000000000E+00  0.67056764508E+03  0.39575749184E+04  0.39003510442E+04 0.  0.
        3    1    3    3  502    0  0.91283549003E+03  0.53338821290E+03 -0.13274816082E+04  0.16970501018E+04  0.10100000352E+00 0. -1.
       -3    1    3    3    0  502 -0.91283549003E+03 -0.53338821290E+03  0.19980492533E+04  0.22605248166E+04  0.10100000352E+00 0.  1.
</event>
<event>
 5   0  0.1164500E-08  0.3909775E+04  0.7818609E-02  0.8022999E-01
        1   -1    0    0  501    0  0.00000000000E+00  0.00000000000E+00  0.11064928529E+04  0.11064928529E+04  0.50400001928E-02 0.  1.
       -1   -1    0    0    0  501  0.00000000000E+00  0.00000000000E+00 -0.34537816243E+04  0.34537816243E+04  0.50400001928E-02 0. -1.
    10030    2    1    2    0    0  0.00000000000E+00  0.00000000000E+00 -0.23472887715E+04  0.45602744772E+04  0.39097747673E+04 0.  0.
        1    1    3    3  502    0 -0.18886092916E+03  0.42831082306E+03 -0.33874485153E+04  0.34196382931E+04  0.50400001928E-02 0. -1.
       -1    1    3    3    0  502  0.18886092916E+03 -0.42831082306E+03  0.10401597438E+04  0.11406361841E+04  0.50400001928E-02 0.  1.
</event>
<event>
 5   0  0.1164500E-08  0.3893796E+04  0.7818609E-02  0.8026321E-01
        1   -1    0    0  501    0  0.00000000000E+00  0.00000000000E+00  0.21073295150E+04  0.21073295150E+04  0.50400001928E-02 0. -1.
       -1   -1    0    0    0  501  0.00000000000E+00  0.00000000000E+00 -0.17986799392E+04  0.17986799392E+04  0.50400001928E-02 0.  1.
    10030    2    1    2    0    0  0.00000000000E+00  0.00000000000E+00  0.30864957579E+03  0.39060094542E+04  0.38937957440E+04 0.  0.
        5    1    3    3  502    0 -0.14711074601E+04  0.58414378299E+03  0.12914624910E+04  0.20428603902E+04  0.46999998093E+01 0. -1.
       -5    1    3    3    0  502  0.14711074601E+04 -0.58414378299E+03 -0.98281291518E+03  0.18631490640E+04  0.46999998093E+01 0.  1.
</event>
<event>
 5   0  0.3769985E-08  0.3901333E+04  0.7818609E-02  0.8024752E-01
       -2   -1    0    0    0  501  0.00000000000E+00  0.00000000000E+00  0.31297746275E+04  0.31297746275E+04  0.25500000920E-02 0. -1.
        2   -1    0    0  501    0  0.00000000000E+00  0.00000000000E+00 -0.12157742995E+04  0.12157742995E+04  0.25500000920E-02 0.  1.
    10030    2    1    2    0    0  0.00000000000E+00  0.00000000000E+00  0.19140003279E+04  0.43455489270E+04  0.39013328775E+04 0.  0.
        1    1    3    3  502    0 -0.84640183791E+03 -0.15298571637E+04 -0.65010242064E+01  0.17483996328E+04  0.50400001928E-02 0. -1.
       -1    1    3    3    0  502  0.84640183791E+03  0.15298571637E+04  0.19205013522E+04  0.25971492942E+04  0.50400001928E-02 0.  1.
</event>
<event>
 5   0  0.3690572E-08  0.3900607E+04  0.7818609E-02  0.8024903E-01
        2   -1    0    0  501    0  0.00000000000E+00  0.00000000000E+00  0.12744918846E+04  0.12744918846E+04  0.25500000920E-02 0.  1.
       -2   -1    0    0    0  501  0.00000000000E+00  0.00000000000E+00 -0.29844704111E+04  0.29844704111E+04  0.25500000920E-02 0. -1.
    10030    2    1    2    0    0  0.00000000000E+00  0.00000000000E+00 -0.17099785265E+04  0.42589622957E+04  0.39006067830E+04 0.  0.
        3    1    3    3  502    0 -0.13947685047E+03 -0.13307575960E+04  0.69428159580E+03  0.15074470192E+04  0.10100000352E+00 0.  1.
       -3    1    3    3    0  502  0.13947685047E+03  0.13307575960E+04 -0.24042601223E+04  0.27515152765E+04  0.10100000352E+00 0. -1.
</event>
<event>
 5   0  0.3769985E-08  0.3884778E+04  0.7818609E-02  0.8028203E-01
        2   -1    0    0  501    0  0.00000000000E+00  0.00000000000E+00  0.13631668075E+04  0.13631668075E+04  0.25500000920E-02 0.  1.
       -2   -1    0    0    0  501  0.00000000000E+00  0.00000000000E+00 -0.27677276044E+04  0.27677276044E+04  0.25500000920E-02 0. -1.
    10030    2    1    2    0    0  0.00000000000E+00  0.00000000000E+00 -0.14045607969E+04  0.41308944119E+04  0.38847776783E+04 0.  0.
        1    1    3    3  502    0  0.15640590589E+04  0.97160111087E+03 -0.13600016314E+04  0.22890814524E+04  0.50400001928E-02 0. -1.
       -1    1    3    3    0  502 -0.15640590589E+04 -0.97160111087E+03 -0.44559165486E+02  0.18418129595E+04  0.50400001928E-02 0.  1.
</event>
<event>
 5   0  0.3690572E-08  0.3901297E+04  0.7818609E-02  0.8024760E-01
        2   -1    0    0  501    0  0.00000000000E+00  0.00000000000E+00  0.29768920767E+04  0.29768920767E+04  0.25500000920E-02 0.  1.
       -2   -1    0    0    0  501  0.00000000000E+00  0.00000000000E+00 -0.12781885705E+04  0.12781885705E+04  0.25500000920E-02 0. -1.
    10030    2    1    2    0    0  0.00000000000E+00  0.00000000000E+00  0.16987035062E+04  0.42550806472E+04  0.39012969270E+04 0.  0.
        3    1    3    3  502    0  0.18592786276E+04 -0.27986958266E+03  0.28284116985E+03  0.19013792719E+04  0.10100000352E+00 0.  1.
       -3    1    3    3    0  502 -0.18592786276E+04  0.27986958266E+03  0.14158623364E+04  0.23537013753E+04  0.10100000352E+00 0. -1.
</event>
<event>
 5   0  0.3669347E-08  0.3906252E+04  0.7818609E-02  0.8023730E-01
        2   -1    0    0  501    0  0.00000000000E+00  0.00000000000E+00  0.20778471415E+04  0.20778471415E+04  0.25500000920E-02 0. -1.
       -2   -1    0    0    0  501  0.00000000000E+00  0.00000000000E+00 -0.18358911026E+04  0.18358911026E+04  0.25500000920E-02 0.  1.
    10030    2    1    2    0    0  0.00000000000E+00  0.00000000000E+00  0.24195603894E+03  0.39137382442E+04  0.39062519528E+04 0.  0.
        5    1    3    3  502    0 -0.32790842707E+02  0.85970296249E+03  0.18777678218E+04  0.20654777912E+04  0.46999998093E+01 0. -1.
       -5    1    3    3    0  502  0.32790842707E+02 -0.85970296249E+03 -0.16358117829E+04  0.18482604530E+04  0.46999998093E+01 0.  1.
</event>
<event>
 5   0  0.1164500E-08  0.3899187E+04  0.7818609E-02  0.8025198E-01
       -1   -1    0    0    0  501  0.00000000000E+00  0.00000000000E+00  0.14758107387E+04  0.14758107387E+04  0.50400001928E-02 0.  1.
        1   -1    0    0  501    0  0.00000000000E+00  0.00000000000E+00 -0.25754754535E+04  0.25754754535E+04  0.50400001928E-02 0. -1.
    10030    2    1    2    0    0  0.00000000000E+00  0.00000000000E+00 -0.10996647148E+04  0.40512861921E+04  0.38991867518E+04 0.  0.
        2    1    3    3  502    0  0.11318149453E+04 -0.15107262270E+04 -0.43359359311E+02  0.18881681169E+04  0.25500000920E-02 0.  1.
       -2    1    3    3    0  502 -0.11318149453E+04  0.15107262270E+04 -0.10563053555E+04  0.21631180753E+04  0.25500000920E-02 0. -1.
</event>
<event>
 5   0  0.1164500E-08  0.3894554E+04  0.7818609E-02  0.8026163E-01
       -1   -1    0    0    0  501  0.00000000000E+00  0.00000000000E+00  0.15335482360E+04  0.15335482360E+04  0.50400001928E-02 0. -1.
        1   -1    0    0  501    0  0.00000000000E+00  0.00000000000E+00 -0.24726242756E+04  0.24726242756E+04  0.50400001928E-02 0.  1.
    10030    2    1    2    0    0  0.00000000000E+00  0.00000000000E+00 -0.93907603956E+03  0.40061725116E+04  0.38945544527E+04 0.  0.
        3    1    3    3  502    0 -0.16716619383E+04  0.23637246259E+03  0.52861370229E+03  0.17691122162E+04  0.10100000352E+00 0. -1.
       -3    1    3    3    0  502  0.16716619383E+04 -0.23637246259E+03 -0.14676897419E+04  0.22370602955E+04  0.10100000352E+00 0.  1.
</event>
<event>
 5   0  0.3769985E-08  0.3898487E+04  0.7818609E-02  0.8025344E-01
        2   -1    0    0  501    0  0.00000000000E+00  0.00000000000E+00  0.12534424305E+04  0.12534424305E+04  0.25500000920E-02 0. -1.
       -2   -1    0    0    0  501  0.00000000000E+00  0.00000000000E+00 -0.30312928952E+04  0.30312928952E+04  0.25500000920E-02 0.  1.
    10030    2    1    2    0    0  0.00000000000E+00  0.00000000000E+00 -0.17778504647E+04  0.42847353257E+04  0.38984874678E+04 0.  0.
        1    1    3    3  502    0 -0.18831597013E+04 -0.47055225577E+03 -0.10850456902E+04  0.22237432486E+04  0.50400001928E-02 0. -1.
       -1    1    3    3    0  502  0.18831597013E+04  0.47055225577E+03 -0.69280477458E+03  0.20609920771E+04  0.50400001928E-02 0.  1.
</event>
<event>
 5   0  0.1164500E-08  0.3914538E+04  0.7818609E-02  0.8022012E-01
        1   -1    0    0  501    0  0.00000000000E+00  0.00000000000E+00  0.18323603046E+04  0.18323603046E+04  0.50400001928E-02 0.  1.
       -1   -1    0    0    0  501  0.00000000000E+00  0.00000000000E+00 -0.20906929446E+04  0.20906929446E+04  0.50400001928E-02 0. -1.
    10030    2    1    2    0    0  0.00000000000E+00  0.00000000000E+00 -0.25833263999E+03  0.39230532492E+04  0.39145384201E+04 0.  0.
        5    1    3    3  502    0  0.47995626670E+03  0.18726206801E+04  0.17779135110E+03  0.19413134945E+04  0.46999998093E+01 0. -1.
       -5    1    3    3    0  502 -0.47995626670E+03 -0.18726206801E+04 -0.43612399109E+03  0.19817397546E+04  0.46999998093E+01 0.  1.
</event>
<event>
 5   0  0.1164500E-08  0.3900377E+04  0.7818609E-02  0.8024951E-01
        1   -1    0    0  501    0  0.00000000000E+00  0.00000000000E+00  0.19818991622E+04  0.19818991622E+04  0.50400001928E-02 0.  1.
       -1   -1    0    0    0  501  0.00000000000E+00  0.00000000000E+00 -0.19189850398E+04  0.19189850398E+04  0.50400001928E-02 0. -1.
    10030    2    1    2    0    0  0.00000000000E+00  0.00000000000E+00  0.62914122403E+02  0.39008842020E+04  0.39003768242E+04 0.  0.
        2    1    3    3  502    0  0.11268520942E+04  0.10464912988E+04 -0.11679883879E+04  0.19310972412E+04  0.25500000920E-02 0. -1.
       -2    1    3    3    0  502 -0.11268520942E+04 -0.10464912988E+04  0.12309025103E+04  0.19697869607E+04  0.25500000920E-02 0.  1.
</event>
<event>
 5   0  0.1164500E-08  0.3900784E+04  0.7818609E-02  0.8024866E-01
       -1   -1    0    0    0  501  0.00000000000E+00  0.00000000000E+00  0.26491602417E+04  0.26491602417E+04  0.50400001928E-02 0. -1.
        1   -1    0    0  501    0  0.00000000000E+00  0.00000000000E+00 -0.14359380156E+04  0.14359380156E+04  0.50400001928E-02 0.  1.
    10030    2    1    2    0    0  0.00000000000E+00  0.00000000000E+00  0.12132222261E+04  0.40850982573E+04  0.39007844854E+04 0.  0.
        4    1    3    3  502    0 -0.30315295025E+03 -0.77041632375E+03 -0.12427825344E+04  0.14933027368E+04  0.12699999809E+01 0.  1.
       -4    1    3    3    0  502  0.30315295025E+03  0.77041632375E+03  0.24560047605E+04  0.25917955204E+04  0.12699999809E+01 0. -1.
</event>
<event>
 5   0  0.3724293E-08  0.3918694E+04  0.7818609E-02  0.8021152E-01
       -2   -1    0    0    0  501  0.00000000000E+00  0.00000000000E+00  0.25652320575E+04  0.25652320575E+04  0.25500000920E-02 0. -1.
        2   -1    0    0  501    0  0.00000000000E+00  0.00000000000E+00 -0.14965669641E+04  0.14965669641E+04  0.25500000920E-02 0.  1.
    10030    2    1    2    0    0  0.00000000000E+00  0.00000000000E+00  0.10686650934E+04  0.40617990216E+04  0.39186944522E+04 0.  0.
        4    1    3    3  502    0  0.12915128110E+04  0.14912047007E+03 -0.98507679489E+03  0.16311407543E+04  0.12699999809E+01 0.  1.
       -4    1    3    3    0  502 -0.12915128110E+04 -0.14912047007E+03  0.20537418883E+04  0.24306582673E+04  0.12699999809E+01 0. -1.
</event>
<event>
 5   0  0.1164500E-08  0.3911538E+04  0.7818609E-02  0.8022634E-01
        1   -1    0    0  501    0  0.00000000000E+00  0.00000000000E+00  0.28722159068E+04  0.28722159068E+04  0.50400001928E-02 0. -1.
       -1   -1    0    0    0  501  0.00000000000E+00  0.00000000000E+00 -0.13317356297E+04  0.13317356297E+04  0.50400001928E-02 0.  1.
    10030    2    1    2    0    0  0.00000000000E+00  0.00000000000E+00  0.15404802771E+04  0.42039515364E+04  0.39115379375E+04 0.  0.
        5    1    3    3  502    0 -0.12624099010E+04  0.80391266619E+03 -0.58286778382E+03  0.16061479622E+04  0.46999998093E+01 0. -1.
       -5    1    3    3    0  502  0.12624099010E+04 -0.80391266619E+03  0.21233480609E+04  0.25978035743E+04  0.46999998093E+01 0.  1.
</event>
<event>
 5   0  0.1164500E-08  0.3897076E+04  0.7818609E-02  0.8025638E-01
        3   -1    0    0  501    0  0.00000000000E+00  0.00000000000E+00  0.23623098840E+04  0.23623098862E+04  0.10100000352E+00 0. -1.
       -3   -1    0    0    0  501  0.00000000000E+00  0.00000000000E+00 -0.16072405682E+04  0.16072405714E+04  0.10100000352E+00 0.  1.
    10030    2    1    2    0    0  0.00000000000E+00  0.00000000000E+00  0.75506931583E+03  0.39695504576E+04  0.38970759761E+04 0.  0.
        2    1    3    3  502    0  0.46146673442E+03  0.12870173071E+04 -0.10366051456E+04  0.17157841717E+04  0.25500000920E-02 0.  1.
       -2    1    3    3    0  502 -0.46146673442E+03 -0.12870173071E+04  0.17916744614E+04  0.22537662859E+04  0.25500000920E-02 0. -1.
</event>
<event>
 5   0  0.3669347E-08  0.3900498E+04  0.7818609E-02  0.8024926E-01
       -2   -1    0    0    0  501  0.00000000000E+00  0.00000000000E+00  0.17950154123E+04  0.17950154123E+04  0.25500000920E-02 0. -1.
        2   -1    0    0  501    0  0.00000000000E+00  0.00000000000E+00 -0.21189067667E+04  0.21189067667E+04  0.25500000920E-02 0.  1.
    10030    2    1    2    0    0  0.00000000000E+00  0.00000000000E+00 -0.32389135435E+03  0.39139221790E+04  0.39004975598E+04 0.  0.
        5    1    3    3  502    0  0.26569483158E+03  0.13367446376E+04  0.12378351804E+04  0.18411241114E+04  0.46999998093E+01 0. -1.
       -5    1    3    3    0  502 -0.26569483158E+03 -0.13367446376E+04 -0.15617265348E+04  0.20727980676E+04  0.46999998093E+01 0.  1.
</event>
<event>
 5   0  0.3769985E-08  0.3897867E+04  0.7818609E-02  0.8025473E-01
       -2   -1    0    0    0  501  0.00000000000E+00  0.00000000000E+00  0.15012346676E+04  0.15012346676E+04  0.25500000920E-02 0. -1.
        2   -1    0    0  501    0  0.00000000000E+00  0.00000000000E+00 -0.25301452395E+04  0.25301452395E+04  0.25500000920E-02 0.  1.
    10030    2    1    2    0    0  0.00000000000E+00  0.00000000000E+00 -0.10289105719E+04  0.40313799072E+04  0.38978669796E+04 0.  0.
        1    1    3    3  502    0  0.85219121309E+03  0.10097392692E+04  0.96728595277E+03  0.16375119449E+04  0.50400001928E-02 0. -1.
       -1    1    3    3    0  502 -0.85219121309E+03 -0.10097392692E+04 -0.19961965247E+04  0.23938679622E+04  0.50400001928E-02 0.  1.
</event>
<event>
 5   0  0.1164500E-08  0.3898328E+04  0.7818609E-02  0.8025377E-01
       -1   -1    0    0    0  501  0.00000000000E+00  0.00000000000E+00  0.27728482213E+04  0.27728482213E+04  0.50400001928E-02 0.  1.
        1   -1    0    0  501    0  0.00000000000E+00  0.00000000000E+00 -0.13701581838E+04  0.13701581838E+04  0.50400001928E-02 0. -1.
    10030    2    1    2    0    0  0.00000000000E+00  0.00000000000E+00  0.14026900375E+04  0.41430064051E+04  0.38983281969E+04 0.  0.
        2    1    3    3  502    0 -0.10476513903E+04 -0.12923326995E+04  0.17807414218E+04  0.24369524520E+04  0.25500000920E-02 0.  1.
       -2    1    3    3    0  502  0.10476513903E+04  0.12923326995E+04 -0.37805138433E+03  0.17060539531E+04  0.25500000920E-02 0. -1.
</event>
<event>
 5   0  0.1164500E-08  0.3896808E+04  0.7818609E-02  0.8025693E-01
        1   -1    0    0  501    0  0.00000000000E+00  0.00000000000E+00  0.28744116797E+04  0.28744116797E+04  0.50400001928E-02 0. -1.
       -1   -1    0    0    0  501  0.00000000000E+00  0.00000000000E+00 -0.13207148502E+04  0.13207148502E+04  0.50400001928E-02 0.  1.
    10030    2    1    2    0    0  0.00000000000E+00  0.00000000000E+00  0.15536968295E+04  0.41951265299E+04  0.38968080224E+04 0.  0.
        2    1    3    3  502    0 -0.76757103481E+03 -0.91082848967E+03  0.24368049425E+04  0.27123407158E+04  0.25500000920E-02 0. -1.
       -2    1    3    3    0  502  0.76757103481E+03  0.91082848967E+03 -0.88310811300E+03  0.14827858140E+04  0.25500000920E-02 0.  1.
</event>
<event>
 5   0  0.3769985E-08  0.3907275E+04  0.7818609E-02  0.8023518E-01
       -2   -1    0    0    0  501  0.00000000000E+00  0.00000000000E+00  0.13344382163E+04  0.13344382163E+04  0.25500000920E-02 0. -1.
        2   -1    0    0  501    0  0.00000000000E+00  0.00000000000E+00 -0.28601543410E+04  0.28601543410E+04  0.25500000920E-02 0.  1.
    10030    2    1    2    0    0  0.00000000000E+00  0.00000000000E+00 -0.15257161247E+04  0.41945925572E+04  0.39072748851E+04 0.  0.
        1    1    3    3  502    0 -0.13916829066E+03 -0.13600467084E+03 -0.28497248780E+04  0.28563607902E+04  0.50400001928E-02 0.  1.
       -1    1    3    3    0  502  0.13916829066E+03  0.13600467084E+03  0.13240087532E+04  0.13382317670E+04  0.50400001928E-02 0. -1.
</event>
<event>
 5   0  0.3769985E-08  0.3948311E+04  0.7818609E-02  0.8015056E-01
        2   -1    0    0  501    0  0.00000000000E+00  0.00000000000E+00  0.25681801345E+04  0.25681801345E+04  0.25500000920E-02 0.  1.
       -2   -1    0    0    0  501  0.00000000000E+00  0.00000000000E+00 -0.15175297157E+04  0.15175297157E+04  0.25500000920E-02 0. -1.
    10030    2    1    2    0    0  0.00000000000E+00  0.00000000000E+00  0.10506504188E+04  0.40857098502E+04  0.39483108638E+04 0.  0.
        1    1    3    3  502    0  0.35263411534E+03  0.14734393751E+04 -0.78438722826E+03  0.17060591242E+04  0.50400001928E-02 0. -1.
       -1    1    3    3    0  502 -0.35263411534E+03 -0.14734393751E+04  0.18350376471E+04  0.23796507260E+04  0.50400001928E-02 0.  1.
</event>
<event>
 5   0  0.3690572E-08  0.3890932E+04  0.7818609E-02  0.8026918E-01
        2   -1    0    0  501    0  0.00000000000E+00  0.00000000000E+00  0.18887770849E+04  0.18887770849E+04  0.25500000920E-02 0. -1.
       -2   -1    0    0    0  501  0.00000000000E+00  0.00000000000E+00 -0.20038560897E+04  0.20038560897E+04  0.25500000920E-02 0.  1.
    10030    2    1    2    0    0  0.00000000000E+00  0.00000000000E+00 -0.11507900483E+03  0.38926331746E+04  0.38909317464E+04 0.  0.
        3    1    3    3  502    0  0.97071016445E+03 -0.55780576279E+03 -0.16492763899E+04  0.19933735507E+04  0.10100000352E+00 0.  1.
       -3    1    3    3    0  502 -0.97071016445E+03  0.55780576279E+03  0.15341973851E+04  0.18992596239E+04  0.10100000352E+00 0. -1.
</event>
<event>
 5   0  0.1164500E-08  0.3892347E+04  0.7818609E-02  0.8026623E-01
       -1   -1    0    0    0  501  0.00000000000E+00  0.00000000000E+00  0.20493815951E+04  0.20493815951E+04  0.50400001928E-02 0.  1.
        1   -1    0    0  501    0  0.00000000000E+00  0.00000000000E+00 -0.18481628471E+04  0.18481628471E+04  0.50400001928E-02 0. -1.
    10030    2    1    2    0    0  0.00000000000E+00  0.00000000000E+00  0.20121874805E+03  0.38975444422E+04  0.38923468106E+04 0.  0.
        4    1    3    3  502    0 -0.17814967620E+04  0.77261864533E+03 -0.29637477280E+02  0.19420479595E+04  0.12699999809E+01 0. -1.
       -4    1    3    3    0  502  0.17814967620E+04 -0.77261864533E+03  0.23085622533E+03  0.19554964827E+04  0.12699999809E+01 0.  1.
</event>
<event>
 5   0  0.1164500E-08  0.3858865E+04  0.7818609E-02  0.8033639E-01
       -1   -1    0    0    0  501  0.00000000000E+00  0.00000000000E+00  0.15777951500E+04  0.15777951500E+04  0.50400001928E-02 0.  1.
        1   -1    0    0  501    0  0.00000000000E+00  0.00000000000E+00 -0.23594377713E+04  0.23594377713E+04  0.50400001928E-02 0. -1.
    10030    2    1    2    0    0  0.00000000000E+00  0.00000000000E+00 -0.78164262130E+03  0.39372329213E+04  0.38588648446E+04 0.  0.
        4    1    3    3  502    0  0.73251434785E+03  0.16999029004E+04  0.16471841301E+03  0.18583274494E+04  0.12699999809E+01 0. -1.
       -4    1    3    3    0  502 -0.73251434785E+03 -0.16999029004E+04 -0.94636103431E+03  0.20789054718E+04  0.12699999809E+01 0.  1.
</event>
<event>
 5   0  0.1164500E-08  0.3892840E+04  0.7818609E-02  0.8026520E-01
        1   -1    0    0  501    0  0.00000000000E+00  0.00000000000E+00  0.28328342632E+04  0.28328342632E+04  0.50400001928E-02 0. -1.
       -1   -1    0    0    0  501  0.00000000000E+00  0.00000000000E+00 -0.13373712809E+04  0.13373712809E+04  0.50400001928E-02 0.  1.
    10030    2    1    2    0    0  0.00000000000E+00  0.00000000000E+00  0.14954629823E+04  0.41702055441E+04  0.38928401905E+04 0.  0.
        3    1    3    3  502    0 -0.18605419898E+04 -0.14589378056E+03  0.15548450029E+03  0.18727191277E+04  0.10100000352E+00 0.  1.
       -3    1    3    3    0  502  0.18605419898E+04  0.14589378056E+03  0.13399784820E+04  0.22974864164E+04  0.10100000352E+00 0. -1.
</event>
<event>
 5   0  0.3669347E-08  0.3899885E+04  0.7818609E-02  0.8025053E-01
       -2   -1    0    0    0  501  0.00000000000E+00  0.00000000000E+00  0.13097914607E+04  0.13097914607E+04  0.25500000920E-02 0. -1.
        2   -1    0    0  501    0  0.00000000000E+00  0.00000000000E+00 -0.29029625472E+04  0.29029625472E+04  0.25500000920E-02 0.  1.
    10030    2    1    2    0    0  0.00000000000E+00  0.00000000000E+00 -0.15931710866E+04  0.42127540079E+04  0.38998848983E+04 0.  0.
        5    1    3    3  502    0  0.14301582701E+04 -0.89091447874E+03  0.26356191352E+03  0.17054525084E+04  0.46999998093E+01 0. -1.
       -5    1    3    3    0  502 -0.14301582701E+04  0.89091447874E+03 -0.18567330001E+04  0.25073014995E+04  0.46999998093E+01 0.  1.
</event>
<event>
 5   0  0.1164500E-08  0.3900044E+04  0.7818609E-02  0.8025020E-01
       -1   -1    0    0    0  501  0.00000000000E+00  0.00000000000E+00  0.19750767469E+04  0.19750767469E+04  0.50400001928E-02 0.  1.
        1   -1    0    0  501    0  0.00000000000E+00  0.00000000000E+00 -0.19252854016E+04  0.19252854016E+04  0.50400001928E-02 0. -1.
    10030    2    1    2    0    0  0.00000000000E+00  0.00000000000E+00  0.49791345339E+02  0.39003621485E+04  0.39000443218E+04 0.  0.
        3    1    3    3  502    0  0.72931490304E+03  0.46154487023E+03 -0.17238641450E+04  0.19278567104E+04  0.10100000352E+00 0. -1.
       -3    1    3    3    0  502 -0.72931490304E+03 -0.46154487023E+03  0.17736554903E+04  0.19725054382E+04  0.10100000352E+00 0.  1.
</event>
<event>
 5   0  0.3669347E-08  0.3896889E+04  0.7818609E-02  0.8025677E-01
       -2   -1    0    0    0  501  0.00000000000E+00  0.00000000000E+00  0.12164192635E+04  0.12164192635E+04  0.25500000920E-02 0.  1.
        2   -1    0    0  501    0  0.00000000000E+00  0.00000000000E+00 -0.31209922052E+04  0.31209922052E+04  0.25500000920E-02 0. -1.
    10030    2    1    2    0    0  0.00000000000E+00  0.00000000000E+00 -0.19045729416E+04  0.43374114687E+04  0.38968885228E+04 0.  0.
        5    1    3    3  502    0 -0.92088058866E+03  0.16670509634E+04 -0.49426755703E+03  0.19675879856E+04  0.46999998093E+01 0.  1.
       -5    1    3    3    0  502  0.92088058866E+03 -0.16670509634E+04 -0.14103053846E+04  0.23698234831E+04  0.46999998093E+01 0. -1.
</event>
<event>
 5   0  0.3769985E-08  0.3902557E+04  0.7818609E-02  0.8024498E-01
        2   -1    0    0  501    0  0.00000000000E+00  0.00000000000E+00  0.18222163246E+04  0.18222163246E+04  0.25500000920E-02 0. -1.
       -2   -1    0    0    0  501  0.00000000000E+00  0.00000000000E+00 -0.20894812671E+04  0.20894812671E+04  0.25500000920E-02 0.  1.
    10030    2    1    2    0    0  0.00000000000E+00  0.00000000000E+00 -0.26726494251E+03  0.39116975918E+04  0.39025565339E+04 0.  0.
        1    1    3    3  502    0  0.92560101051E+03  0.16985393336E+02  0.15880815612E+04  0.18382134749E+04  0.50400001928E-02 0. -1.
       -1    1    3    3    0  502 -0.92560101051E+03 -0.16985393336E+02 -0.18553465037E+04  0.20734841169E+04  0.50400001928E-02 0.  1.
</event>
<event>
 5   0  0.3724293E-08  0.3889808E+04  0.7818609E-02  0.8027152E-01
       -2   -1    0    0    0  501  0.00000000000E+00  0.00000000000E+00  0.19666844389E+04  0.19666844389E+04  0.25500000920E-02 0.  1.
        2   -1    0    0  501    0  0.00000000000E+00  0.00000000000E+00 -0.19233644252E+04  0.19233644252E+04  0.25500000920E-02 0. -1.
    10030    2    1    2    0    0  0.00000000000E+00  0.00000000000E+00  0.43320013668E+02  0.38900488641E+04  0.38898076484E+04 0.  0.
        4    1    3    3  502    0  0.58464156039E+03  0.35384600424E+03 -0.17993418483E+04  0.19247455543E+04  0.12699999809E+01 0. -1.
       -4    1    3    3    0  502 -0.58464156039E+03 -0.35384600424E+03  0.18426618620E+04  0.19653033098E+04  0.12699999809E+01 0.  1.
</event>
<event>
 5   0  0.3669347E-08  0.3869342E+04  0.7818609E-02  0.8031436E-01
        2   -1    0    0  501    0  0.00000000000E+00  0.00000000000E+00  0.20973098075E+04  0.20973098075E+04  0.25500000920E-02 0. -1.
       -2   -1    0    0    0  501  0.00000000000E+00  0.00000000000E+00 -0.17846443824E+04  0.17846443824E+04  0.25500000920E-02 0.  1.
    10030    2    1    2    0    0  0.00000000000E+00  0.00000000000E+00  0.31266542509E+03  0.38819541898E+04  0.38693421487E+04 0.  0.
        5    1    3    3  502    0  0.17227215844E+04  0.12058135527E+03 -0.71864562458E+03  0.18705034468E+04  0.46999998093E+01 0.  1.
       -5    1    3    3    0  502 -0.17227215844E+04 -0.12058135527E+03  0.10313110497E+04  0.20114507431E+04  0.46999998093E+01 0. -1.
</event>
<event>
 5   0  0.1164500E-08  0.3893303E+04  0.7818609E-02  0.8026423E-01
       -1   -1    0    0    0  501  0.00000000000E+00  0.00000000000E+00  0.16153950230E+04  0.16153950230E+04  0.50400001928E-02 0.  1.
        1   -1    0    0  501    0  0.00000000000E+00  0.00000000000E+00 -0.23458366399E+04  0.23458366399E+04  0.50400001928E-02 0. -1.
    10030    2    1    2    0    0  0.00000000000E+00  0.00000000000E+00 -0.73044161690E+03  0.39612316629E+04  0.38933033958E+04 0.  0.
        4    1    3    3  502    0 -0.18217699676E+04  0.17244391469E+03  0.31034323867E+03  0.18560434416E+04  0.12699999809E+01 0.  1.
       -4    1    3    3    0  502  0.18217699676E+04 -0.17244391469E+03 -0.10407848556E+04  0.21051882213E+04  0.12699999809E+01 0. -1.
</event>
<event>
 5   0  0.3769985E-08  0.3905979E+04  0.7818609E-02  0.8023787E-01
       -2   -1    0    0    0  501  0.00000000000E+00  0.00000000000E+00  0.17214747015E+04  0.17214747015E+04  0.25500000920E-02 0. -1.
        2   -1    0    0  501    0  0.00000000000E+00  0.00000000000E+00 -0.22156393420E+04  0.22156393420E+04  0.25500000920E-02 0.  1.
    10030    2    1    2    0    0  0.00000000000E+00  0.00000000000E+00 -0.49416464052E+03  0.39371140435E+04  0.39059785329E+04 0.  0.
        1    1    3    3  502    0 -0.76437182408E+03 -0.86241658613E+03 -0.18364009352E+04  0.21680394480E+04  0.50400001928E-02 0.  1.
       -1    1    3    3    0  502  0.76437182408E+03  0.86241658613E+03  0.13422362947E+04  0.17690745954E+04  0.50400001928E-02 0. -1.
</event>
<event>
 5   0  0.1164500E-08  0.3875874E+04  0.7818609E-02  0.8030066E-01
        1   -1    0    0  501    0  0.00000000000E+00  0.00000000000E+00  0.25945579025E+04  0.25945579025E+04  0.50400001928E-02 0.  1.
       -1   -1    0    0    0  501  0.00000000000E+00  0.00000000000E+00 -0.14474915847E+04  0.14474915848E+04  0.50400001928E-02 0. -1.
    10030    2    1    2    0    0  0.00000000000E+00  0.00000000000E+00  0.11470663178E+04  0.40420494873E+04  0.38758744717E+04 0.  0.
        1    1    3    3  502    0  0.30878203808E+03  0.15767214561E+04  0.17035987985E+04  0.23417185491E+04  0.50400001928E-02 0.  1.
       -1    1    3    3    0  502 -0.30878203808E+03 -0.15767214561E+04 -0.55653248068E+03  0.17003309382E+04  0.50400001928E-02 0. -1.
</event>
<event>
 5   0  0.1164500E-08  0.3913032E+04  0.7818609E-02  0.8022324E-01
       -1   -1    0    0    0  501  0.00000000000E+00  0.00000000000E+00  0.24816402501E+04  0.24816402501E+04  0.50400001928E-02 0. -1.
        1   -1    0    0  501    0  0.00000000000E+00  0.00000000000E+00 -0.15425097582E+04  0.15425097582E+04  0.50400001928E-02 0.  1.
    10030    2    1    2    0    0  0.00000000000E+00  0.00000000000E+00  0.93913049191E+03  0.40241500083E+04  0.39130317158E+04 0.  0.
        2    1    3    3  502    0 -0.43790560122E+02  0.10764073319E+04 -0.12100258359E+04  0.16201027378E+04  0.25500000920E-02 0.  1.
       -2    1    3    3    0  502  0.43790560122E+02 -0.10764073319E+04  0.21491563279E+04  0.24040472705E+04  0.25500000920E-02 0. -1.
</event>
<event>
 5   0  0.1164500E-08  0.3895166E+04  0.7818609E-02  0.8026035E-01
       -1   -1    0    0    0  501  0.00000000000E+00  0.00000000000E+00  0.19065724278E+04  0.19065724278E+04  0.50400001928E-02 0. -1.
        1   -1    0    0  501    0  0.00000000000E+00  0.00000000000E+00 -0.19894761456E+04  0.19894761456E+04  0.50400001928E-02 0.  1.
    10030    2    1    2    0    0  0.00000000000E+00  0.00000000000E+00 -0.82903717815E+02  0.38960485735E+04  0.38951664227E+04 0.  0.
        2    1    3    3  502    0  0.27919300773E+03 -0.18639970967E+04 -0.53212024532E+03  0.19584651816E+04  0.25500000920E-02 0.  1.
       -2    1    3    3    0  502 -0.27919300773E+03  0.18639970967E+04  0.44921652750E+03  0.19375833919E+04  0.25500000920E-02 0. -1.
</event>
<event>
 5   0  0.1164500E-08  0.3894955E+04  0.7818609E-02  0.8026079E-01
       -1   -1    0    0    0  501  0.00000000000E+00  0.00000000000E+00  0.21530687162E+04  0.21530687162E+04  0.50400001928E-02 0. -1.
        1   -1    0    0  501    0  0.00000000000E+00  0.00000000000E+00 -0.17615174474E+04  0.17615174474E+04  0.50400001928E-02 0.  1.
    10030    2    1    2    0    0  0.00000000000E+00  0.00000000000E+00  0.39155126881E+03  0.39145861636E+04  0.38949547412E+04 0.  0.
        1    1    3    3  502    0 -0.76586828423E+02 -0.18526683861E+04  0.79411011816E+03  0.20171406919E+04  0.50400001928E-02 0. -1.
       -1    1    3    3    0  502  0.76586828423E+02  0.18526683861E+04 -0.40255884935E+03  0.18974454717E+04  0.50400001928E-02 0.  1.
</event>
<event>
 5   0  0.1164500E-08  0.3922311E+04  0.7818609E-02  0.8020405E-01
        1   -1    0    0  501    0  0.00000000000E+00  0.00000000000E+00  0.25509283625E+04  0.25509283625E+04  0.50400001928E-02 0. -1.
       -1   -1    0    0    0  501  0.00000000000E+00  0.00000000000E+00 -0.15077378181E+04  0.15077378181E+04  0.50400001928E-02 0.  1.
    10030    2    1    2    0    0  0.00000000000E+00  0.00000000000E+00  0.10431905445E+04  0.40586661806E+04  0.39223111368E+04 0.  0.
        4    1    3    3  502    0 -0.58834773211E+03  0.14905815727E+04 -0.64825701036E+03  0.17286483862E+04  0.12699999809E+01 0.  1.
       -4    1    3    3    0  502  0.58834773211E+03 -0.14905815727E+04  0.16914475548E+04  0.23300177944E+04  0.12699999809E+01 0. -1.
</event>
<event>
 5   0  0.3724293E-08  0.3897813E+04  0.7818609E-02  0.8025484E-01
       -2   -1    0    0    0  501  0.00000000000E+00  0.00000000000E+00  0.20104649198E+04  0.20104649198E+04  0.25500000920E-02 0. -1.
        2   -1    0    0  501    0  0.00000000000E+00  0.00000000000E+00 -0.18892328373E+04  0.18892328373E+04  0.25500000920E-02 0.  1.
    10030    2    1    2    0    0  0.00000000000E+00  0.00000000000E+00  0.12123208257E+03  0.38996977571E+04  0.38978128969E+04 0.  0.
        4    1    3    3  502    0 -0.12214436900E+04  0.97519906435E+03  0.12253511631E+04  0.19860576499E+04  0.12699999809E+01 0. -1.
       -4    1    3    3    0  502  0.12214436900E+04 -0.97519906435E+03 -0.11041190806E+04  0.19136401072E+04  0.12699999809E+01 0.  1.
</event>
<event>
 5   0  0.3724293E-08  0.3900203E+04  0.7818609E-02  0.8024987E-01
        2   -1    0    0  501    0  0.00000000000E+00  0.00000000000E+00  0.21802439969E+04  0.21802439969E+04  0.25500000920E-02 0. -1.
       -2   -1    0    0    0  501  0.00000000000E+00  0.00000000000E+00 -0.17442526145E+04  0.17442526145E+04  0.25500000920E-02 0.  1.
    10030    2    1    2    0    0  0.00000000000E+00  0.00000000000E+00  0.43599138243E+03  0.39244966114E+04  0.39002032213E+04 0.  0.
        4    1    3    3  502    0 -0.56302092772E+03 -0.36125338105E+03  0.20611799359E+04  0.21670165923E+04  0.12699999809E+01 0. -1.
       -4    1    3    3    0  502  0.56302092772E+03  0.36125338105E+03 -0.16251885534E+04  0.17574800191E+04  0.12699999809E+01 0.  1.
</event>
<event>
 5   0  0.1164500E-08  0.3896779E+04  0.7818609E-02  0.8025699E-01
        1   -1    0    0  501    0  0.00000000000E+00  0.00000000000E+00  0.22738552058E+04  0.22738552058E+04  0.50400001928E-02 0. -1.
       -1   -1    0    0    0  501  0.00000000000E+00  0.00000000000E+00 -0.16695089998E+04  0.16695089998E+04  0.50400001928E-02 0.  1.
    10030    2    1    2    0    0  0.00000000000E+00  0.00000000000E+00  0.60434620601E+03  0.39433642056E+04  0.38967790445E+04 0.  0.
        5    1    3    3  502    0 -0.18097139916E+03 -0.13668784860E+03  0.22604469237E+04  0.22718002994E+04  0.46999998093E+01 0. -1.
       -5    1    3    3    0  502  0.18097139916E+03  0.13668784860E+03 -0.16561007177E+04  0.16715639062E+04  0.46999998093E+01 0.  1.
</event>
<event>
 5   0  0.3872969E-08  0.3896726E+04  0.7818609E-02  0.8025710E-01
        2   -1    0    0  501    0  0.00000000000E+00  0.00000000000E+00  0.13500095348E+04  0.13500095348E+04  0.25500000920E-02 0.  1.
       -2   -1    0    0    0  501  0.00000000000E+00  0.00000000000E+00 -0.28119195623E+04  0.28119195623E+04  0.25500000920E-02 0. -1.
    10030    2    1    2    0    0  0.00000000000E+00  0.00000000000E+00 -0.14619100275E+04  0.41619290971E+04  0.38967259182E+04 0.  0.
        2    1    3    3  502    0 -0.12402539007E+04 -0.77813660901E+03 -0.21038943424E+04  0.25632201865E+04  0.25500000920E-02 0. -1.
       -2    1    3    3    0  502  0.12402539007E+04  0.77813660901E+03  0.64198431493E+03  0.15987089107E+04  0.25500000920E-02 0.  1.
</event>
<event>
 5   0  0.1164500E-08  0.3887307E+04  0.7818609E-02  0.8027674E-01
       -3   -1    0    0    0  501  0.00000000000E+00  0.00000000000E+00  0.15181914142E+04  0.15181914176E+04  0.10100000352E+00 0.  1.
        3   -1    0    0  501    0  0.00000000000E+00  0.00000000000E+00 -0.24883482803E+04  0.24883482824E+04  0.10100000352E+00 0. -1.
    10030    2    1    2    0    0  0.00000000000E+00  0.00000000000E+00 -0.97015686613E+03  0.40065397000E+04  0.38873070399E+04 0.  0.
        5    1    3    3  502    0 -0.14321241106E+04  0.11060923592E+03 -0.18346504618E+04  0.23300597156E+04  0.46999998093E+01 0. -1.
       -5    1    3    3    0  502  0.14321241106E+04 -0.11060923592E+03  0.86449359567E+03  0.16764799844E+04  0.46999998093E+01 0.  1.
</event>
<event>
 5   0  0.3769985E-08  0.3881926E+04  0.7818609E-02  0.8028799E-01
       -2   -1    0    0    0  501  0.00000000000E+00  0.00000000000E+00  0.22131866179E+04  0.22131866179E+04  0.25500000920E-02 0. -1.
        2   -1    0    0  501    0  0.00000000000E+00  0.00000000000E+00 -0.17022226947E+04  0.17022226947E+04  0.25500000920E-02 0.  1.
    10030    2    1    2    0    0  0.00000000000E+00  0.00000000000E+00  0.51096392320E+03  0.39154093126E+04  0.38819255473E+04 0.  0.
        1    1    3    3  502    0  0.13934911410E+04  0.76944846485E+03 -0.86471375906E+03  0.18115182542E+04  0.50400001928E-02 0.  1.
       -1    1    3    3    0  502 -0.13934911410E+04 -0.76944846485E+03  0.13756776823E+04  0.21038910584E+04  0.50400001928E-02 0. -1.
</event>
<event>
 5   0  0.3724293E-08  0.3899696E+04  0.7818609E-02  0.8025092E-01
        2   -1    0    0  501    0  0.00000000000E+00  0.00000000000E+00  0.14938140142E+04  0.14938140142E+04  0.25500000920E-02 0.  1.
       -2   -1    0    0    0  501  0.00000000000E+00  0.00000000000E+00 -0.25451008236E+04  0.25451008236E+04  0.25500000920E-02 0. -1.
    10030    2    1    2    0    0  0.00000000000E+00  0.00000000000E+00 -0.10512868095E+04  0.40389148378E+04  0.38996960281E+04 0.  0.
        4    1    3    3  502    0 -0.65588176039E+03 -0.17709488515E+04 -0.10282139962E+04  0.21502712278E+04  0.12699999809E+01 0. -1.
       -4    1    3    3    0  502  0.65588176039E+03  0.17709488515E+04 -0.23072813223E+02  0.18886436100E+04  0.12699999809E+01 0.  1.
</event>
<event>
 5   0  0.1164500E-08  0.3897100E+04  0.7818609E-02  0.8025633E-01
       -1   -1    0    0    0  501  0.00000000000E+00  0.00000000000E+00  0.18684254866E+04  0.18684254866E+04  0.50400001928E-02 0. -1.
        1   -1    0    0  501    0  0.00000000000E+00  0.00000000000E+00 -0.20321101717E+04  0.20321101717E+04  0.50400001928E-02 0.  1.
    10030    2    1    2    0    0  0.00000000000E+00  0.00000000000E+00 -0.16368468513E+03  0.39005356583E+04  0.38970996581E+04 0.  0.
        5    1    3    3  502    0  0.12639863864E+04 -0.14465314084E+04  0.24511009503E+03  0.19365473785E+04  0.46999998093E+01 0. -1.
       -5    1    3    3    0  502 -0.12639863864E+04  0.14465314084E+04 -0.40879478016E+03  0.19639882797E+04  0.46999998093E+01 0.  1.
</event>
<event>
 5   0  0.3724293E-08  0.3930129E+04  0.7818609E-02  0.8018792E-01
       -2   -1    0    0    0  501  0.00000000000E+00  0.00000000000E+00  0.21642526992E+04  0.21642526992E+04  0.25500000920E-02 0. -1.
        2   -1    0    0  501    0  0.00000000000E+00  0.00000000000E+00 -0.17842083570E+04  0.17842083570E+04  0.25500000920E-02 0.  1.
    10030    2    1    2    0    0  0.00000000000E+00  0.00000000000E+00  0.38004434218E+03  0.39484610562E+04  0.39301286251E+04 0.  0.
        4    1    3    3  502    0 -0.18138601149E+04 -0.32557954343E+03  0.87539606485E+03  0.20401986273E+04  0.12699999809E+01 0. -1.
       -4    1    3    3    0  502  0.18138601149E+04  0.32557954343E+03 -0.49535172267E+03  0.19082624289E+04  0.12699999809E+01 0.  1.
</event>
<event>
 5   0  0.3669347E-08  0.3907051E+04  0.7818609E-02  0.8023564E-01
       -2   -1    0    0    0  501  0.00000000000E+00  0.00000000000E+00  0.16907661194E+04  0.16907661194E+04  0.25500000920E-02 0.  1.
        2   -1    0    0  501    0  0.00000000000E+00  0.00000000000E+00 -0.22571196965E+04  0.22571196965E+04  0.25500000920E-02 0. -1.
    10030    2    1    2    0    0  0.00000000000E+00  0.00000000000E+00 -0.56635357714E+03  0.39478858159E+04  0.39070508112E+04 0.  0.
        5    1    3    3  502    0  0.19413729145E+04  0.95160411015E+02 -0.48081018206E+03  0.20022948879E+04  0.46999998093E+01 0.  1.
       -5    1    3    3    0  502 -0.19413729145E+04 -0.95160411015E+02 -0.85543395072E+02  0.19455909280E+04  0.46999998093E+01 0. -1.
</event>
<event>
 5   0  0.3769985E-08  0.3898803E+04  0.7818609E-02  0.8025278E-01
       -2   -1    0    0    0  501  0.00000000000E+00  0.00000000000E+00  0.13275002080E+04  0.13275002080E+04  0.25500000920E-02 0. -1.
        2   -1    0    0  501    0  0.00000000000E+00  0.00000000000E+00 -0.28626485988E+04  0.28626485988E+04  0.25500000920E-02 0.  1.
    10030    2    1    2    0    0  0.00000000000E+00  0.00000000000E+00 -0.15351483908E+04  0.41901488068E+04  0.38988032062E+04 0.  0.
        1    1    3    3  502    0 -0.97181112315E+03 -0.10964099153E+04 -0.21496057733E+04  0.26014104909E+04  0.50400001928E-02 0.  1.
       -1    1    3    3    0  502  0.97181112315E+03  0.10964099153E+04  0.61445738246E+03  0.15887383159E+04  0.50400001928E-02 0. -1.
</event>
<event>
 5   0  0.1164500E-08  0.3909213E+04  0.7818609E-02  0.8023116E-01
        1   -1    0    0  501    0  0.00000000000E+00  0.00000000000E+00  0.16657090172E+04  0.16657090172E+04  0.50400001928E-02 0.  1.
       -1   -1    0    0    0  501  0.00000000000E+00  0.00000000000E+00 -0.22936093760E+04  0.22936093760E+04  0.50400001928E-02 0. -1.
    10030    2    1    2    0    0  0.00000000000E+00  0.00000000000E+00 -0.62790035877E+03  0.39593183931E+04  0.39092126161E+04 0.  0.
        4    1    3    3  502    0  0.65629309024E+03 -0.12392743657E+04 -0.16930052963E+04  0.21983607802E+04  0.12699999809E+01 0.  1.
       -4    1    3    3    0  502 -0.65629309024E+03  0.12392743657E+04  0.10651049375E+04  0.17609576129E+04  0.12699999809E+01 0. -1.
</event>
<event>
 5   0  0.3769985E-08  0.3891532E+04  0.7818609E-02  0.8026793E-01
       -2   -1    0    0    0  501  0.00000000000E+00  0.00000000000E+00  0.18775208869E+04  0.18775208869E+04  0.25500000920E-02 0.  1.
        2   -1    0    0  501    0  0.00000000000E+00  0.00000000000E+00 -0.20164916220E+04  0.20164916220E+04  0.25500000920E-02 0. -1.
    10030    2    1    2    0    0  0.00000000000E+00  0.00000000000E+00 -0.13897073506E+03  0.38940125089E+04  0.38915319033E+04 0.  0.
        1    1    3    3  502    0 -0.79831533927E+03 -0.13041366328E+04  0.11345793778E+04  0.19040352156E+04  0.50400001928E-02 0.  1.
       -1    1    3    3    0  502  0.79831533927E+03  0.13041366328E+04 -0.12735501129E+04  0.19899772933E+04  0.50400001928E-02 0. -1.
</event>
<event>
 5   0  0.1164500E-08  0.3904492E+04  0.7818609E-02  0.8024096E-01
       -1   -1    0    0    0  501  0.00000000000E+00  0.00000000000E+00  0.23945824449E+04  0.23945824449E+04  0.50400001928E-02 0. -1.
        1   -1    0    0  501    0  0.00000000000E+00  0.00000000000E+00 -0.15916193953E+04  0.15916193953E+04  0.50400001928E-02 0.  1.
    10030    2    1    2    0    0  0.00000000000E+00  0.00000000000E+00  0.80296304967E+03  0.39862018402E+04  0.39044917021E+04 0.  0.
        4    1    3    3  502    0 -0.59119022141E+03 -0.33380221627E+02  0.23006921295E+04  0.23756695908E+04  0.12699999809E+01 0. -1.
       -4    1    3    3    0  502  0.59119022141E+03  0.33380221627E+02 -0.14977290798E+04  0.16105322494E+04  0.12699999809E+01 0.  1.
</event>
<event>
 5   0  0.3690572E-08  0.3905258E+04  0.7818609E-02  0.8023937E-01
       -2   -1    0    0    0  501  0.00000000000E+00  0.00000000000E+00  0.16998843886E+04  0.16998843886E+04  0.25500000920E-02 0.  1.
        2   -1    0    0  501    0  0.00000000000E+00  0.00000000000E+00 -0.22429523474E+04  0.22429523474E+04  0.25500000920E-02 0. -1.
    10030    2    1    2    0    0  0.00000000000E+00  0.00000000000E+00 -0.54306795879E+03  0.39428367360E+04  0.39052578300E+04 0.  0.
        3    1    3    3  502    0  0.36515797342E+03 -0.46358853546E+02 -0.22076075324E+04  0.22380841173E+04  0.10100000352E+00 0. -1.
       -3    1    3    3    0  502 -0.36515797342E+03  0.46358853546E+02  0.16645395736E+04  0.17047526187E+04  0.10100000352E+00 0.  1.
</event>
<event>
 5   0  0.1164500E-08  0.3894020E+04  0.7818609E-02  0.8026274E-01
        1   -1    0    0  501    0  0.00000000000E+00  0.00000000000E+00  0.18267795758E+04  0.18267795759E+04  0.50400001928E-02 0. -1.
       -1   -1    0    0    0  501  0.00000000000E+00  0.00000000000E+00 -0.20751536853E+04  0.20751536853E+04  0.50400001928E-02 0.  1.
    10030    2    1    2    0    0  0.00000000000E+00  0.00000000000E+00 -0.24837410942E+03  0.39019332611E+04  0.38940202203E+04 0.  0.
        4    1    3    3  502    0 -0.21933535390E+03 -0.67079630651E+03 -0.19424739285E+04  0.20667080727E+04  0.12699999809E+01 0.  1.
       -4    1    3    3    0  502  0.21933535390E+03  0.67079630651E+03  0.16940998190E+04  0.18352251884E+04  0.12699999809E+01 0. -1.
</event>
<event>
 5   0  0.1164500E-08  0.3896291E+04  0.7818609E-02  0.8025801E-01
        1   -1    0    0  501    0  0.00000000000E+00  0.00000000000E+00  0.18231949961E+04  0.18231949961E+04  0.50400001928E-02 0.  1.
       -1   -1    0    0    0  501  0.00000000000E+00  0.00000000000E+00 -0.20816591013E+04  0.20816591014E+04  0.50400001928E-02 0. -1.
    10030    2    1    2    0    0  0.00000000000E+00  0.00000000000E+00 -0.25846410526E+03  0.39048540975E+04  0.38962907783E+04 0.  0.
        1    1    3    3  502    0  0.26901557981E+03  0.17343271162E+04  0.71820933282E+03  0.18963345101E+04  0.50400001928E-02 0.  1.
       -1    1    3    3    0  502 -0.26901557981E+03 -0.17343271162E+04 -0.97667343808E+03  0.20085195874E+04  0.50400001928E-02 0. -1.
</event>
<event>
 5   0  0.3769985E-08  0.3899081E+04  0.7818609E-02  0.8025220E-01
        2   -1    0    0  501    0  0.00000000000E+00  0.00000000000E+00  0.29396482934E+04  0.29396482934E+04  0.25500000920E-02 0. -1.
       -2   -1    0    0    0  501  0.00000000000E+00  0.00000000000E+00 -0.12929128492E+04  0.12929128492E+04  0.25500000920E-02 0.  1.
    10030    2    1    2    0    0  0.00000000000E+00  0.00000000000E+00  0.16467354442E+04  0.42325611425E+04  0.38990814562E+04 0.  0.
        1    1    3    3  502    0  0.78884692499E+03  0.30847362639E+03  0.27294733543E+04  0.28578768765E+04  0.50400001928E-02 0. -1.
       -1    1    3    3    0  502 -0.78884692499E+03 -0.30847362639E+03 -0.10827379101E+04  0.13746842661E+04  0.50400001928E-02 0.  1.
</event>
<event>
 5   0  0.3724293E-08  0.3956674E+04  0.7818609E-02  0.8013344E-01
       -2   -1    0    0    0  501  0.00000000000E+00  0.00000000000E+00  0.27324844921E+04  0.27324844921E+04  0.25500000920E-02 0.  1.
        2   -1    0    0  501    0  0.00000000000E+00  0.00000000000E+00 -0.14323290908E+04  0.14323290908E+04  0.25500000920E-02 0. -1.
    10030    2    1    2    0    0  0.00000000000E+00  0.00000000000E+00  0.13001554014E+04  0.41648135829E+04  0.39566738699E+04 0.  0.
        4    1    3    3  502    0 -0.17057466895E+03 -0.15646342533E+04 -0.61157316868E+03  0.16885495011E+04  0.12699999809E+01 0. -1.
       -4    1    3    3    0  502  0.17057466895E+03  0.15646342533E+04  0.19117285701E+04  0.24762640818E+04  0.12699999809E+01 0.  1.
</event>
<event>
 5   0  0.3769985E-08  0.3901540E+04  0.7818609E-02  0.8024709E-01
        2   -1    0    0  501    0  0.00000000000E+00  0.00000000000E+00  0.26608849983E+04  0.26608849983E+04  0.25500000920E-02 0. -1.
       -2   -1    0    0    0  501  0.00000000000E+00  0.00000000000E+00 -0.14301648310E+04  0.14301648310E+04  0.25500000920E-02 0.  1.
    10030    2    1    2    0    0  0.00000000000E+00  0.00000000000E+00  0.12307201673E+04  0.40910498293E+04  0.39015402824E+04 0.  0.
        1    1    3    3  502    0 -0.14738948506E+04  0.48540247145E+03 -0.62422998118E+03  0.16726161123E+04  0.50400001928E-02 0.  1.
       -1    1    3    3    0  502  0.14738948506E+04 -0.48540247145E+03  0.18549501485E+04  0.24184337170E+04  0.50400001928E-02 0. -1.
</event>
<event>
 5   0  0.3690572E-08  0.3894675E+04  0.7818609E-02  0.8026138E-01
       -2   -1    0    0    0  501  0.00000000000E+00  0.00000000000E+00  0.14076046815E+04  0.14076046815E+04  0.25500000920E-02 0. -1.
        2   -1    0    0  501    0  0.00000000000E+00  0.00000000000E+00 -0.26940253576E+04  0.26940253576E+04  0.25500000920E-02 0.  1.
    10030    2    1    2    0    0  0.00000000000E+00  0.00000000000E+00 -0.12864206761E+04  0.41016300390E+04  0.38946746746E+04 0.  0.
        3    1    3    3  502    0  0.18688824151E+04  0.29139812845E+03 -0.15547171585E+03  0.18978424105E+04  0.10100000352E+00 0. -1.
       -3    1    3    3    0  502 -0.18688824151E+04 -0.29139812845E+03 -0.11309489603E+04  0.22037876285E+04  0.10100000352E+00 0.  1.
</event>
<event>
 5   0  0.1164500E-08  0.3896638E+04  0.7818609E-02  0.8025729E-01
       -1   -1    0    0    0  501  0.00000000000E+00  0.00000000000E+00  0.25916122771E+04  0.25916122771E+04  0.50400001928E-02 0. -1.
        1   -1    0    0  501    0  0.00000000000E+00  0.00000000000E+00 -0.14647048250E+04  0.14647048250E+04  0.50400001928E-02 0.  1.
    10030    2    1    2    0    0  0.00000000000E+00  0.00000000000E+00  0.11269074522E+04  0.40563171021E+04  0.38966380416E+04 0.  0.
        1    1    3    3  502    0 -0.15860875280E+04  0.80795153891E+03 -0.26114836374E+03  0.17990713725E+04  0.50400001928E-02 0.  1.
       -1    1    3    3    0  502  0.15860875280E+04 -0.80795153891E+03  0.13880558159E+04  0.22572457296E+04  0.50400001928E-02 0. -1.
</event>
<event>
 5   0  0.1164500E-08  0.3904047E+04  0.7818609E-02  0.8024188E-01
       -1   -1    0    0    0  501  0.00000000000E+00  0.00000000000E+00  0.19063772037E+04  0.19063772037E+04  0.50400001928E-02 0.  1.
        1   -1    0    0  501    0  0.00000000000E+00  0.00000000000E+00 -0.19987622577E+04  0.19987622577E+04  0.50400001928E-02 0. -1.
    10030    2    1    2    0    0  0.00000000000E+00  0.00000000000E+00 -0.92385054046E+02  0.39051394614E+04  0.39040465180E+04 0.  0.
        1    1    3    3  502    0 -0.42602385794E+03  0.17999648705E+04  0.57770072325E+03  0.19378101012E+04  0.50400001928E-02 0.  1.
       -1    1    3    3    0  502  0.42602385794E+03 -0.17999648705E+04 -0.67008577729E+03  0.19673293602E+04  0.50400001928E-02 0. -1.
</event>
<event>
 5   0  0.1164500E-08  0.3903171E+04  0.7818609E-02  0.8024370E-01
       -1   -1    0    0    0  501  0.00000000000E+00  0.00000000000E+00  0.20389678694E+04  0.20389678694E+04  0.50400001928E-02 0.  1.
        1   -1    0    0  501    0  0.00000000000E+00  0.00000000000E+00 -0.18679480532E+04  0.18679480532E+04  0.50400001928E-02 0. -1.
    10030    2    1    2    0    0  0.00000000000E+00  0.00000000000E+00  0.17101981619E+03  0.39069159226E+04  0.39031710505E+04 0.  0.
        3    1    3    3  502    0  0.98573420876E+03 -0.37489724917E+03  0.17291774142E+04  0.20254072227E+04  0.10100000352E+00 0.  1.
       -3    1    3    3    0  502 -0.98573420876E+03  0.37489724917E+03 -0.15581575980E+04  0.18815087000E+04  0.10100000352E+00 0. -1.
</event>
<event>
 5   0  0.1164500E-08  0.3869456E+04  0.7818609E-02  0.8031412E-01
       -1   -1    0    0    0  501  0.00000000000E+00  0.00000000000E+00  0.33062149651E+04  0.33062149651E+04  0.50400001928E-02 0.  1.
        1   -1    0    0  501    0  0.00000000000E+00  0.00000000000E+00 -0.11321626466E+04  0.11321626466E+04  0.50400001928E-02 0. -1.
    10030    2    1    2    0    0  0.00000000000E+00  0.00000000000E+00  0.21740523185E+04  0.44383776117E+04  0.38694563366E+04 0.  0.
        5    1    3    3  502    0 -0.11163678206E+02 -0.21008070199E+03 -0.11189974254E+04  0.11386113723E+04  0.46999998093E+01 0. -1.
       -5    1    3    3    0  502  0.11163678206E+02  0.21008070199E+03  0.32930497439E+04  0.32997662394E+04  0.46999998093E+01 0.  1.
</event>
<event>
 5   0  0.1164500E-08  0.3898142E+04  0.7818609E-02  0.8025416E-01
       -1   -1    0    0    0  501  0.00000000000E+00  0.00000000000E+00  0.14888007299E+04  0.14888007299E+04  0.50400001928E-02 0.  1.
        1   -1    0    0  501    0  0.00000000000E+00  0.00000000000E+00 -0.25516356154E+04  0.25516356154E+04  0.50400001928E-02 0. -1.
    10030    2    1    2    0    0  0.00000000000E+00  0.00000000000E+00 -0.10628348855E+04  0.40404363452E+04  0.38981415913E+04 0.  0.
        5    1    3    3  502    0  0.17410527069E+04  0.75742247976E+03 -0.98783388732E+03  0.21402783043E+04  0.46999998093E+01 0. -1.
       -5    1    3    3    0  502 -0.17410527069E+04 -0.75742247976E+03 -0.75000998183E+02  0.19001580410E+04  0.46999998093E+01 0.  1.
</event>
<event>
 5   0  0.3724293E-08  0.3911949E+04  0.7818609E-02  0.8022549E-01
        2   -1    0    0  501    0  0.00000000000E+00  0.00000000000E+00  0.22453885373E+04  0.22453885373E+04  0.25500000920E-02 0. -1.
       -2   -1    0    0    0  501  0.00000000000E+00  0.00000000000E+00 -0.17038638272E+04  0.17038638272E+04  0.25500000920E-02 0.  1.
    10030    2    1    2    0    0  0.00000000000E+00  0.00000000000E+00  0.54152471010E+03  0.39492523644E+04  0.39119490317E+04 0.  0.
        4    1    3    3  502    0  0.53110035025E+03 -0.92154475393E+03 -0.13863906032E+04  0.17473960150E+04  0.12699999809E+01 0.  1.
       -4    1    3    3    0  502 -0.53110035025E+03  0.92154475393E+03  0.19279153133E+04  0.22018563495E+04  0.12699999809E+01 0. -1.
</event>
<event>
 5   0  0.3769985E-08  0.3896232E+04  0.7818609E-02  0.8025813E-01
       -2   -1    0    0    0  501  0.00000000000E+00  0.00000000000E+00  0.28844367186E+04  0.28844367186E+04  0.25500000920E-02 0. -1.
        2   -1    0    0  501    0  0.00000000000E+00  0.00000000000E+00 -0.13157355593E+04  0.13157355593E+04  0.25500000920E-02 0.  1.
    10030    2    1    2    0    0  0.00000000000E+00  0.00000000000E+00  0.15687011594E+04  0.42001722779E+04  0.38962320050E+04 0.  0.
        1    1    3    3  502    0 -0.14683099232E+04 -0.12802506127E+04  0.79882552013E+03  0.21054923114E+04  0.50400001928E-02 0.  1.
       -1    1    3    3    0  502  0.14683099232E+04  0.12802506127E+04  0.76987563925E+03  0.20946799665E+04  0.50400001928E-02 0. -1.
</event>
<event>
 5   0  0.1164500E-08  0.3904032E+04  0.7818609E-02  0.8024191E-01
       -1   -1    0    0    0  501  0.00000000000E+00  0.00000000000E+00  0.32576903457E+04  0.32576903457E+04  0.50400001928E-02 0.  1.
        1   -1    0    0  501    0  0.00000000000E+00  0.00000000000E+00 -0.11696529735E+04  0.11696529735E+04  0.50400001928E-02 0. -1.
    10030    2    1    2    0    0  0.00000000000E+00  0.00000000000E+00  0.20880373722E+04  0.44273433192E+04  0.39040323767E+04 0.  0.
        4    1    3    3  502    0 -0.11350756017E+04 -0.61848440799E+03  0.27027668491E+04  0.29959756070E+04  0.12699999809E+01 0.  1.
       -4    1    3    3    0  502  0.11350756017E+04  0.61848440799E+03 -0.61472947694E+03  0.14313677121E+04  0.12699999809E+01 0. -1.
</event>
<event>
 5   0  0.3669347E-08  0.3902273E+04  0.7818609E-02  0.8024557E-01
       -2   -1    0    0    0  501  0.00000000000E+00  0.00000000000E+00  0.15545957367E+04  0.15545957367E+04  0.25500000920E-02 0.  1.
        2   -1    0    0  501    0  0.00000000000E+00  0.00000000000E+00 -0.24488254451E+04  0.24488254451E+04  0.25500000920E-02 0. -1.
    10030    2    1    2    0    0  0.00000000000E+00  0.00000000000E+00 -0.89422970832E+03  0.40034211818E+04  0.39022729771E+04 0.  0.
        5    1    3    3  502    0 -0.85952547859E+03  0.10259263706E+03 -0.22410392170E+04  0.24024129869E+04  0.46999998093E+01 0. -1.
       -5    1    3    3    0  502  0.85952547859E+03 -0.10259263706E+03  0.13468095087E+04  0.16010081949E+04  0.46999998093E+01 0.  1.
</event>
<event>
 5   0  0.1164500E-08  0.3895402E+04  0.7818609E-02  0.8025986E-01
       -1   -1    0    0    0  501  0.00000000000E+00  0.00000000000E+00  0.22923688660E+04  0.22923688660E+04  0.50400001928E-02 0.  1.
        1   -1    0    0  501    0  0.00000000000E+00  0.00000000000E+00 -0.16548553902E+04  0.16548553902E+04  0.50400001928E-02 0. -1.
    10030    2    1    2    0    0  0.00000000000E+00  0.00000000000E+00  0.63751347582E+03  0.39472242562E+04  0.38954018916E+04 0.  0.
        2    1    3    3  502    0  0.10869160496E+04  0.15756010075E+04 -0.46080274988E+02  0.19146875530E+04  0.25500000920E-02 0. -1.
       -2    1    3    3    0  502 -0.10869160496E+04 -0.15756010075E+04  0.68359375081E+03  0.20325367032E+04  0.25500000920E-02 0.  1.
</event>
<event>
 5   0  0.3872969E-08  0.3909093E+04  0.7818609E-02  0.8023141E-01
       -2   -1    0    0    0  501  0.00000000000E+00  0.00000000000E+00  0.18994737493E+04  0.18994737493E+04  0.25500000920E-02 0.  1.
        2   -1    0    0  501    0  0.00000000000E+00  0.00000000000E+00 -0.20112157789E+04  0.20112157789E+04  0.25500000920E-02 0. -1.
    10030    2    1    2    0    0  0.00000000000E+00  0.00000000000E+00 -0.11174202967E+03  0.39106895282E+04  0.39090927726E+04 0.  0.
        2    1    3    3  502    0 -0.14727062612E+04 -0.73801475218E+02 -0.13393374553E+04  0.19920178735E+04  0.25500000920E-02 0. -1.
       -2    1    3    3    0  502  0.14727062612E+04  0.73801475218E+02  0.12275954256E+04  0.19186716547E+04  0.25500000920E-02 0.  1.
</event>
<event>
 5   0  0.3690572E-08  0.3899006E+04  0.7818609E-02  0.8025236E-01
        2   -1    0    0  501    0  0.00000000000E+00  0.00000000000E+00  0.30314773296E+04  0.30314773296E+04  0.25500000920E-02 0.  1.
       -2   -1    0    0    0  501  0.00000000000E+00  0.00000000000E+00 -0.12536994384E+04  0.12536994384E+04  0.25500000920E-02 0. -1.
    10030    2    1    2    0    0  0.00000000000E+00  0.00000000000E+00  0.17777778912E+04  0.42851767680E+04  0.38990057325E+04 0.  0.
        3    1    3    3  502    0  0.18141640145E+04 -0.26146102492E+03  0.16187468848E+04  0.24453822658E+04  0.10100000352E+00 0.  1.
       -3    1    3    3    0  502 -0.18141640145E+04  0.26146102492E+03  0.15903100643E+03  0.18397945021E+04  0.10100000352E+00 0. -1.
</event>
<event>
 5   0  0.3769985E-08  0.3888006E+04  0.7818609E-02  0.8027528E-01
       -2   -1    0    0    0  501  0.00000000000E+00  0.00000000000E+00  0.21886568595E+04  0.21886568595E+04  0.25500000920E-02 0. -1.
        2   -1    0    0  501    0  0.00000000000E+00  0.00000000000E+00 -0.17266975268E+04  0.17266975268E+04  0.25500000920E-02 0.  1.
    10030    2    1    2    0    0  0.00000000000E+00  0.00000000000E+00  0.46195933273E+03  0.39153543863E+04  0.38880063716E+04 0.  0.
        1    1    3    3  502    0 -0.10821519876E+04  0.15450003805E+04  0.70446694342E+03  0.20135423448E+04  0.50400001928E-02 0.  1.
       -1    1    3    3    0  502  0.10821519876E+04 -0.15450003805E+04 -0.24250761068E+03  0.19018120415E+04  0.50400001928E-02 0. -1.
</event>
<event>
 5   0  0.3724293E-08  0.3856128E+04  0.7818609E-02  0.8034216E-01
        2   -1    0    0  501    0  0.00000000000E+00  0.00000000000E+00  0.26037819917E+04  0.26037819917E+04  0.25500000920E-02 0. -1.
       -2   -1    0    0    0  501  0.00000000000E+00  0.00000000000E+00 -0.14277043444E+04  0.14277043444E+04  0.25500000920E-02 0.  1.
    10030    2    1    2    0    0  0.00000000000E+00  0.00000000000E+00  0.11760776473E+04  0.40314863361E+04  0.38561280381E+04 0.  0.
        4    1    3    3  502    0 -0.72782930622E+03 -0.16377696119E+04  0.13312860144E+04  0.22325655345E+04  0.12699999809E+01 0. -1.
       -4    1    3    3    0  502  0.72782930622E+03  0.16377696119E+04 -0.15520836712E+03  0.17989208017E+04  0.12699999809E+01 0.  1.
</event>
<event>
 5   0  0.1164500E-08  0.3932434E+04  0.7818609E-02  0.8018317E-01
       -1   -1    0    0    0  501  0.00000000000E+00  0.00000000000E+00  0.18108342701E+04  0.18108342702E+04  0.50400001928E-02 0.  1.
        1   -1    0    0  501    0  0.00000000000E+00  0.00000000000E+00 -0.21349325408E+04  0.21349325408E+04  0.50400001928E-02 0. -1.
    10030    2    1    2    0    0  0.00000000000E+00  0.00000000000E+00 -0.32409827067E+03  0.39457668110E+04  0.39324338567E+04 0.  0.
        5    1    3    3  502    0 -0.11558119369E+04  0.22295257564E+03 -0.17423104547E+04  0.21026832607E+04  0.46999998093E+01 0. -1.
       -5    1    3    3    0  502  0.11558119369E+04 -0.22295257564E+03  0.14182121840E+04  0.18430835503E+04  0.46999998093E+01 0.  1.
</event>
<event>
 5   0  0.1164500E-08  0.3898658E+04  0.7818609E-02  0.8025308E-01
       -1   -1    0    0    0  501  0.00000000000E+00  0.00000000000E+00  0.20993407063E+04  0.20993407063E+04  0.50400001928E-02 0.  1.
        1   -1    0    0  501    0  0.00000000000E+00  0.00000000000E+00 -0.18100368216E+04  0.18100368216E+04  0.50400001928E-02 0. -1.
    10030    2    1    2    0    0  0.00000000000E+00  0.00000000000E+00  0.28930388467E+03  0.39093775279E+04  0.38986582202E+04 0.  0.
        4    1    3    3  502    0  0.17773978270E+03  0.12227007956E+04 -0.13672381549E+04  0.18428050497E+04  0.12699999809E+01 0. -1.
       -4    1    3    3    0  502 -0.17773978270E+03 -0.12227007956E+04  0.16565420396E+04  0.20665724782E+04  0.12699999809E+01 0.  1.
</event>
<event>
 5   0  0.3690572E-08  0.3905090E+04  0.7818609E-02  0.8023971E-01
        2   -1    0    0  501    0  0.00000000000E+00  0.00000000000E+00  0.19606717158E+04  0.19606717158E+04  0.25500000920E-02 0.  1.
       -2   -1    0    0    0  501  0.00000000000E+00  0.00000000000E+00 -0.19444516144E+04  0.19444516144E+04  0.25500000920E-02 0. -1.
    10030    2    1    2    0    0  0.00000000000E+00  0.00000000000E+00  0.16220101387E+02  0.39051233302E+04  0.39050896446E+04 0.  0.
        3    1    3    3  502    0 -0.69423660847E+03  0.11951445086E+04 -0.13710669588E+04  0.19468331928E+04  0.10100000352E+00 0. -1.
       -3    1    3    3    0  502  0.69423660847E+03 -0.11951445086E+04  0.13872870602E+04  0.19582901374E+04  0.10100000352E+00 0.  1.
</event>
<event>
 5   0  0.3872969E-08  0.3869751E+04  0.7818609E-02  0.8031350E-01
        2   -1    0    0  501    0  0.00000000000E+00  0.00000000000E+00  0.22672868589E+04  0.22672868589E+04  0.25500000920E-02 0.  1.
       -2   -1    0    0    0  501  0.00000000000E+00  0.00000000000E+00 -0.16511995384E+04  0.16511995384E+04  0.25500000920E-02 0. -1.
    10030    2    1    2    0    0  0.00000000000E+00  0.00000000000E+00  0.61608732053E+03  0.39184863974E+04  0.38697509041E+04 0.  0.
        2    1    3    3  502    0  0.70435315272E+03 -0.15754175687E+04 -0.57801316553E+03  0.18199321688E+04  0.25500000920E-02 0. -1.
       -2    1    3    3    0  502 -0.70435315272E+03  0.15754175687E+04  0.11941004861E+04  0.20985542286E+04  0.25500000920E-02 0.  1.
</event>
<event>
 5   0  0.3669347E-08  0.3905388E+04  0.7818609E-02  0.8023909E-01
       -2   -1    0    0    0  501  0.00000000000E+00  0.00000000000E+00  0.14340401283E+04  0.14340401283E+04  0.25500000920E-02 0. -1.
        2   -1    0    0  501    0  0.00000000000E+00  0.00000000000E+00 -0.26589317381E+04  0.26589317381E+04  0.25500000920E-02 0.  1.
    10030    2    1    2    0    0  0.00000000000E+00  0.00000000000E+00 -0.12248916099E+04  0.40929718664E+04  0.39053884881E+04 0.  0.
        5    1    3    3  502    0  0.46762577686E+03 -0.11714345567E+04 -0.21747025268E+04  0.25140178913E+04  0.46999998093E+01 0.  1.
       -5    1    3    3    0  502 -0.46762577686E+03  0.11714345567E+04  0.94981091689E+03  0.15789539751E+04  0.46999998093E+01 0. -1.
</event>
<event>
 5   0  0.1164500E-08  0.3896485E+04  0.7818609E-02  0.8025761E-01
        1   -1    0    0  501    0  0.00000000000E+00  0.00000000000E+00  0.16266142492E+04  0.16266142492E+04  0.50400001928E-02 0. -1.
       -1   -1    0    0    0  501  0.00000000000E+00  0.00000000000E+00 -0.23334661452E+04  0.23334661452E+04  0.50400001928E-02 0.  1.
    10030    2    1    2    0    0  0.00000000000E+00  0.00000000000E+00 -0.70685189596E+03  0.39600803944E+04  0.38964852274E+04 0.  0.
        4    1    3    3  502    0 -0.40340968984E+01 -0.46024978197E+03  0.15705646443E+04  0.16366187859E+04  0.12699999809E+01 0. -1.
       -4    1    3    3    0  502  0.40340968984E+01  0.46024978197E+03 -0.22774165402E+04  0.23234616085E+04  0.12699999809E+01 0.  1.
</event>
<event>
 5   0  0.1164500E-08  0.3901965E+04  0.7818609E-02  0.8024621E-01
        1   -1    0    0  501    0  0.00000000000E+00  0.00000000000E+00  0.26905635335E+04  0.26905635335E+04  0.50400001928E-02 0. -1.
       -1   -1    0    0    0  501  0.00000000000E+00  0.00000000000E+00 -0.14146969530E+04  0.14146969530E+04  0.50400001928E-02 0.  1.
    10030    2    1    2    0    0  0.00000000000E+00  0.00000000000E+00  0.12758665805E+04  0.41052604865E+04  0.39019646501E+04 0.  0.
        3    1    3    3  502    0  0.47114523301E+03  0.45107772526E+03 -0.12965833260E+04  0.14514052763E+04  0.10100000352E+00 0.  1.
       -3    1    3    3    0  502 -0.47114523301E+03 -0.45107772526E+03  0.25724499065E+04  0.26538552101E+04  0.10100000352E+00 0. -1.
</event>
<event>
 5   0  0.3872969E-08  0.3916459E+04  0.7818609E-02  0.8021615E-01
       -2   -1    0    0    0  501  0.00000000000E+00  0.00000000000E+00  0.11986888932E+04  0.11986888932E+04  0.25500000920E-02 0.  1.
        2   -1    0    0  501    0  0.00000000000E+00  0.00000000000E+00 -0.31990481541E+04  0.31990481541E+04  0.25500000920E-02 0. -1.
    10030    2    1    2    0    0  0.00000000000E+00  0.00000000000E+00 -0.20003592608E+04  0.43977370473E+04  0.39164593659E+04 0.  0.
        2    1    3    3  502    0  0.32167200807E+03 -0.18820820257E+04 -0.51206917206E+03  0.19768460914E+04  0.25500000920E-02 0.  1.
       -2    1    3    3    0  502 -0.32167200807E+03  0.18820820257E+04 -0.14882900888E+04  0.24208909559E+04  0.25500000920E-02 0. -1.
</event>
<event>
 5   0  0.1164500E-08  0.3900431E+04  0.7818609E-02  0.8024940E-01
        1   -1    0    0  501    0  0.00000000000E+00  0.00000000000E+00  0.21334409294E+04  0.21334409294E+04  0.50400001928E-02 0. -1.
       -1   -1    0    0    0  501  0.00000000000E+00  0.00000000000E+00 -0.17827261314E+04  0.17827261314E+04  0.50400001928E-02 0.  1.
    10030    2    1    2    0    0  0.00000000000E+00  0.00000000000E+00  0.35071479795E+03  0.39161670608E+04  0.39004312042E+04 0.  0.
        1    1    3    3  502    0 -0.13518691094E+04 -0.58618625307E+03 -0.11073634271E+04  0.18432086621E+04  0.50400001928E-02 0.  1.
       -1    1    3    3    0  502  0.13518691094E+04  0.58618625307E+03  0.14580782251E+04  0.20729583987E+04  0.50400001928E-02 0. -1.
</event>
<event>
 5   0  0.3724293E-08  0.3905409E+04  0.7818609E-02  0.8023905E-01
        2   -1    0    0  501    0  0.00000000000E+00  0.00000000000E+00  0.17453797991E+04  0.17453797991E+04  0.25500000920E-02 0.  1.
       -2   -1    0    0    0  501  0.00000000000E+00  0.00000000000E+00 -0.21846558187E+04  0.21846558187E+04  0.25500000920E-02 0. -1.
    10030    2    1    2    0    0  0.00000000000E+00  0.00000000000E+00 -0.43927601960E+03  0.39300356177E+04  0.39054086259E+04 0.  0.
        4    1    3    3  502    0  0.11460051072E+04  0.72099461926E+03  0.11963210902E+04  0.18067503177E+04  0.12699999809E+01 0.  1.
       -4    1    3    3    0  502 -0.11460051072E+04 -0.72099461926E+03 -0.16355971099E+04  0.21232853000E+04  0.12699999809E+01 0. -1.
</event>
<event>
 5   0  0.1164500E-08  0.3897026E+04  0.7818609E-02  0.8025648E-01
       -1   -1    0    0    0  501  0.00000000000E+00  0.00000000000E+00  0.14543164489E+04  0.14543164489E+04  0.50400001928E-02 0. -1.
        1   -1    0    0  501    0  0.00000000000E+00  0.00000000000E+00 -0.26106447285E+04  0.26106447285E+04  0.50400001928E-02 0.  1.
    10030    2    1    2    0    0  0.00000000000E+00  0.00000000000E+00 -0.11563282796E+04  0.40649611774E+04  0.38970263385E+04 0.  0.
        5    1    3    3  502    0  0.90917559980E+03 -0.15913564312E+04  0.11190789131E+03  0.18361810990E+04  0.46999998093E+01 0. -1.
       -5    1    3    3    0  502 -0.90917559980E+03  0.15913564312E+04 -0.12682361709E+04  0.22287800783E+04  0.46999998093E+01 0.  1.
</event>
<event>
 5   0  0.3669347E-08  0.3892830E+04  0.7818609E-02  0.8026522E-01
        2   -1    0    0  501    0  0.00000000000E+00  0.00000000000E+00  0.18041458080E+04  0.18041458080E+04  0.25500000920E-02 0. -1.
       -2   -1    0    0    0  501  0.00000000000E+00  0.00000000000E+00 -0.20999025796E+04  0.20999025796E+04  0.25500000920E-02 0.  1.
    10030    2    1    2    0    0  0.00000000000E+00  0.00000000000E+00 -0.29575677159E+03  0.39040483876E+04  0.38928295294E+04 0.  0.
        5    1    3    3  502    0  0.11209460431E+04  0.90929252421E+03  0.11617085611E+04  0.18528145609E+04  0.46999998093E+01 0. -1.
       -5    1    3    3    0  502 -0.11209460431E+04 -0.90929252421E+03 -0.14574653327E+04  0.20512338268E+04  0.46999998093E+01 0.  1.
</event>
<event>
 5   0  0.3769985E-08  0.3904662E+04  0.7818609E-02  0.8024060E-01
        2   -1    0    0  501    0  0.00000000000E+00  0.00000000000E+00  0.19481271832E+04  0.19481271832E+04  0.25500000920E-02 0.  1.
       -2   -1    0    0    0  501  0.00000000000E+00  0.00000000000E+00 -0.19565440366E+04  0.19565440366E+04  0.25500000920E-02 0. -1.
    10030    2    1    2    0    0  0.00000000000E+00  0.00000000000E+00 -0.84168533661E+01  0.39046712199E+04  0.39046621482E+04 0.  0.
        1    1    3    3  502    0 -0.14237224603E+04  0.13155302392E+04 -0.23656896450E+03  0.19528364830E+04  0.50400001928E-02 0.  1.
       -1    1    3    3    0  502  0.14237224603E+04 -0.13155302392E+04  0.22815211113E+03  0.19518347369E+04  0.50400001928E-02 0. -1.
</event>
<event>
 5   0  0.1164500E-08  0.3905804E+04  0.7818609E-02  0.8023823E-01
        1   -1    0    0  501    0  0.00000000000E+00  0.00000000000E+00  0.21658164508E+04  0.21658164508E+04  0.50400001928E-02 0.  1.
       -1   -1    0    0    0  501  0.00000000000E+00  0.00000000000E+00 -0.17609188065E+04  0.17609188065E+04  0.50400001928E-02 0. -1.
    10030    2    1    2    0    0  0.00000000000E+00  0.00000000000E+00  0.40489764425E+03  0.39267352573E+04  0.39058043574E+04 0.  0.
        3    1    3    3  502    0  0.10318790315E+04  0.14143256150E+04 -0.66748333734E+03  0.18736662714E+04  0.10100000352E+00 0. -1.
       -3    1    3    3    0  502 -0.10318790315E+04 -0.14143256150E+04  0.10723809816E+04  0.20530689859E+04  0.10100000352E+00 0.  1.
</event>
<event>
 5   0  0.1164500E-08  0.3929109E+04  0.7818609E-02  0.8019002E-01
        1   -1    0    0  501    0  0.00000000000E+00  0.00000000000E+00  0.24265319272E+04  0.24265319272E+04  0.50400001928E-02 0.  1.
       -1   -1    0    0    0  501  0.00000000000E+00  0.00000000000E+00 -0.15905308194E+04  0.15905308194E+04  0.50400001928E-02 0. -1.
    10030    2    1    2    0    0  0.00000000000E+00  0.00000000000E+00  0.83600110781E+03  0.40170627466E+04  0.39291087104E+04 0.  0.
        4    1    3    3  502    0 -0.18635385176E+04  0.28342872468E+03  0.98389291056E+03  0.21263006657E+04  0.12699999809E+01 0. -1.
       -4    1    3    3    0  502  0.18635385176E+04 -0.28342872468E+03 -0.14789180276E+03  0.18907620809E+04  0.12699999809E+01 0.  1.
</event>
<event>
 5   0  0.1164500E-08  0.3896016E+04  0.7818609E-02  0.8025858E-01
       -1   -1    0    0    0  501  0.00000000000E+00  0.00000000000E+00  0.19883142370E+04  0.19883142370E+04  0.50400001928E-02 0. -1.
        1   -1    0    0  501    0  0.00000000000E+00  0.00000000000E+00 -0.19085190886E+04  0.19085190886E+04  0.50400001928E-02 0.  1.
    10030    2    1    2    0    0  0.00000000000E+00  0.00000000000E+00  0.79795148418E+02  0.38968333256E+04  0.38960162604E+04 0.  0.
        4    1    3    3  502    0  0.12875210481E+03  0.39212980723E+03  0.19440802158E+04  0.19874084604E+04  0.12699999809E+01 0. -1.
       -4    1    3    3    0  502 -0.12875210481E+03 -0.39212980723E+03 -0.18642850674E+04  0.19094248651E+04  0.12699999809E+01 0.  1.
</event>
<event>
 5   0  0.1164500E-08  0.3943095E+04  0.7818609E-02  0.8016125E-01
        1   -1    0    0  501    0  0.00000000000E+00  0.00000000000E+00  0.16299108554E+04  0.16299108554E+04  0.50400001928E-02 0.  1.
       -1   -1    0    0    0  501  0.00000000000E+00  0.00000000000E+00 -0.23847929572E+04  0.23847929572E+04  0.50400001928E-02 0. -1.
    10030    2    1    2    0    0  0.00000000000E+00  0.00000000000E+00 -0.75488210181E+03  0.40147038126E+04  0.39430951948E+04 0.  0.
        4    1    3    3  502    0  0.96951210393E+03 -0.13639313570E+04 -0.14388390031E+04  0.22069258610E+04  0.12699999809E+01 0. -1.
       -4    1    3    3    0  502 -0.96951210393E+03  0.13639313570E+04  0.68395690130E+03  0.18077779515E+04  0.12699999809E+01 0.  1.
</event>
<event>
 5   0  0.1164500E-08  0.3899080E+04  0.7818609E-02  0.8025221E-01
        1   -1    0    0  501    0  0.00000000000E+00  0.00000000000E+00  0.20822872607E+04  0.20822872607E+04  0.50400001928E-02 0.  1.
       -1   -1    0    0    0  501  0.00000000000E+00  0.00000000000E+00 -0.18252551208E+04  0.18252551208E+04  0.50400001928E-02 0. -1.
    10030    2    1    2    0    0  0.00000000000E+00  0.00000000000E+00  0.25703213993E+03  0.39075423816E+04  0.38990796277E+04 0.  0.
        3    1    3    3  502    0  0.63451332158E+03 -0.14129009125E+04  0.13150661308E+04  0.20318206325E+04  0.10100000352E+00 0.  1.
       -3    1    3    3    0  502 -0.63451332158E+03  0.14129009125E+04 -0.10580339909E+04  0.18757217491E+04  0.10100000352E+00 0. -1.
</event>
<event>
 5   0  0.3669347E-08  0.3895615E+04  0.7818609E-02  0.8025942E-01
       -2   -1    0    0    0  501  0.00000000000E+00  0.00000000000E+00  0.14595883978E+04  0.14595883978E+04  0.25500000920E-02 0. -1.
        2   -1    0    0  501    0  0.00000000000E+00  0.00000000000E+00 -0.25993309846E+04  0.25993309846E+04  0.25500000920E-02 0.  1.
    10030    2    1    2    0    0  0.00000000000E+00  0.00000000000E+00 -0.11397425868E+04  0.40589193824E+04  0.38956146355E+04 0.  0.
        5    1    3    3  502    0  0.47645800670E+03  0.14126978542E+04 -0.18758939072E+04  0.23961902054E+04  0.46999998093E+01 0.  1.
       -5    1    3    3    0  502 -0.47645800670E+03 -0.14126978542E+04  0.73615132043E+03  0.16627291769E+04  0.46999998093E+01 0. -1.
</event>
<event>
 5   0  0.3872969E-08  0.3906624E+04  0.7818609E-02  0.8023653E-01
       -2   -1    0    0    0  501  0.00000000000E+00  0.00000000000E+00  0.21395232957E+04  0.21395232957E+04  0.25500000920E-02 0.  1.
        2   -1    0    0  501    0  0.00000000000E+00  0.00000000000E+00 -0.17833072227E+04  0.17833072227E+04  0.25500000920E-02 0. -1.
    10030    2    1    2    0    0  0.00000000000E+00  0.00000000000E+00  0.35621607298E+03  0.39228305184E+04  0.39066237834E+04 0.  0.
        2    1    3    3  502    0  0.53074365295E+02  0.13670699092E+04 -0.12218530379E+04  0.18342905634E+04  0.25500000920E-02 0. -1.
       -2    1    3    3    0  502 -0.53074365295E+02 -0.13670699092E+04  0.15780691108E+04  0.20885399550E+04  0.25500000920E-02 0.  1.
</event>
<event>
 5   0  0.1164500E-08  0.3925803E+04  0.7818609E-02  0.8019684E-01
       -1   -1    0    0    0  501  0.00000000000E+00  0.00000000000E+00  0.25667367385E+04  0.25667367385E+04  0.50400001928E-02 0. -1.
        1   -1    0    0  501    0  0.00000000000E+00  0.00000000000E+00 -0.15011212824E+04  0.15011212824E+04  0.50400001928E-02 0.  1.
    10030    2    1    2    0    0  0.00000000000E+00  0.00000000000E+00  0.10656154561E+04  0.40678580209E+04  0.39258034309E+04 0.  0.
        2    1    3    3  502    0  0.35240062261E+02 -0.10398918046E+04  0.22574770386E+04  0.24857231155E+04  0.25500000920E-02 0. -1.
       -2    1    3    3    0  502 -0.35240062261E+02  0.10398918046E+04 -0.11918615825E+04  0.15821349054E+04  0.25500000920E-02 0.  1.
</event>
<event>
 5   0  0.1164500E-08  0.3900814E+04  0.7818609E-02  0.8024860E-01
        1   -1    0    0  501    0  0.00000000000E+00  0.00000000000E+00  0.19385410568E+04  0.19385410569E+04  0.50400001928E-02 0.  1.
       -1   -1    0    0    0  501  0.00000000000E+00  0.00000000000E+00 -0.19623454888E+04  0.19623454888E+04  0.50400001928E-02 0. -1.
    10030    2    1    2    0    0  0.00000000000E+00  0.00000000000E+00 -0.23804431952E+02  0.39008865457E+04  0.39008139139E+04 0.  0.
        1    1    3    3  502    0 -0.14010133111E+04 -0.27409851343E+03 -0.13408810625E+04  0.19585531182E+04  0.50400001928E-02 0. -1.
       -1    1    3    3    0  502  0.14010133111E+04  0.27409851343E+03  0.13170766305E+04  0.19423334275E+04  0.50400001928E-02 0.  1.
</event>
<event>
 5   0  0.1164500E-08  0.3900979E+04  0.7818609E-02  0.8024826E-01
       -1   -1    0    0    0  501  0.00000000000E+00  0.00000000000E+00  0.12090694342E+04  0.12090694342E+04  0.50400001928E-02 0.  1.
        1   -1    0    0  501    0  0.00000000000E+00  0.00000000000E+00 -0.31465599487E+04  0.31465599487E+04  0.50400001928E-02 0. -1.
    10030    2    1    2    0    0  0.00000000000E+00  0.00000000000E+00 -0.19374905145E+04  0.43556293829E+04  0.39009790857E+04 0.  0.
        3    1    3    3  502    0 -0.10049183541E+04  0.11363233398E+04 -0.23377428960E+04  0.27867783351E+04  0.10100000352E+00 0. -1.
       -3    1    3    3    0  502  0.10049183541E+04 -0.11363233398E+04  0.40025238146E+03  0.15688510478E+04  0.10100000352E+00 0.  1.
</event>
<event>
 5   0  0.1164500E-08  0.3899799E+04  0.7818609E-02  0.8025071E-01
        1   -1    0    0  501    0  0.00000000000E+00  0.00000000000E+00  0.22094955783E+04  0.22094955783E+04  0.50400001928E-02 0. -1.
       -1   -1    0    0    0  501  0.00000000000E+00  0.00000000000E+00 -0.17208039297E+04  0.17208039298E+04  0.50400001928E-02 0.  1.
    10030    2    1    2    0    0  0.00000000000E+00  0.00000000000E+00  0.48869164851E+03  0.39302995080E+04  0.38997993148E+04 0.  0.
        1    1    3    3  502    0 -0.13955602799E+04  0.79473057316E+01  0.16167807910E+04  0.21357976919E+04  0.50400001928E-02 0. -1.
       -1    1    3    3    0  502  0.13955602799E+04 -0.79473057316E+01 -0.11280891425E+04  0.17945018161E+04  0.50400001928E-02 0.  1.
</event>
<event>
 5   0  0.1164500E-08  0.3909127E+04  0.7818609E-02  0.8023134E-01
       -1   -1    0    0    0  501  0.00000000000E+00  0.00000000000E+00  0.27435462560E+04  0.27435462560E+04  0.50400001928E-02 0. -1.
        1   -1    0    0  501    0  0.00000000000E+00  0.00000000000E+00 -0.13924744418E+04  0.13924744418E+04  0.50400001928E-02 0.  1.
    10030    2    1    2    0    0  0.00000000000E+00  0.00000000000E+00  0.13510718142E+04  0.41360206978E+04  0.39091267778E+04 0.  0.
        4    1    3    3  502    0 -0.56892831433E+03  0.15506359594E+04  0.17812608332E+04  0.24292062643E+04  0.12699999809E+01 0. -1.
       -4    1    3    3    0  502  0.56892831433E+03 -0.15506359594E+04 -0.43018901893E+03  0.17068144335E+04  0.12699999809E+01 0.  1.
</event>
<event>
 5   0  0.1164500E-08  0.3899876E+04  0.7818609E-02  0.8025055E-01
       -1   -1    0    0    0  501  0.00000000000E+00  0.00000000000E+00  0.14929050995E+04  0.14929050995E+04  0.50400001928E-02 0.  1.
        1   -1    0    0  501    0  0.00000000000E+00  0.00000000000E+00 -0.25468850022E+04  0.25468850022E+04  0.50400001928E-02 0. -1.
    10030    2    1    2    0    0  0.00000000000E+00  0.00000000000E+00 -0.10539799027E+04  0.40397901017E+04  0.38998756942E+04 0.  0.
        4    1    3    3  502    0  0.76889453508E+03  0.93954377281E+03 -0.21076150552E+04  0.24322796182E+04  0.12699999809E+01 0. -1.
       -4    1    3    3    0  502 -0.76889453508E+03 -0.93954377281E+03  0.10536351525E+04  0.16075104835E+04  0.12699999809E+01 0.  1.
</event>
<event>
 5   0  0.1164500E-08  0.3884163E+04  0.7818609E-02  0.8028331E-01
       -1   -1    0    0    0  501  0.00000000000E+00  0.00000000000E+00  0.18998359482E+04  0.18998359482E+04  0.50400001928E-02 0. -1.
        1   -1    0    0  501    0  0.00000000000E+00  0.00000000000E+00 -0.19852662320E+04  0.19852662320E+04  0.50400001928E-02 0.  1.
    10030    2    1    2    0    0  0.00000000000E+00  0.00000000000E+00 -0.85430283802E+02  0.38851021803E+04  0.38841627950E+04 0.  0.
        3    1    3    3  502    0  0.12816922184E+04  0.64012930593E+03 -0.13542071707E+04  0.19713897490E+04  0.10100000352E+00 0.  1.
       -3    1    3    3    0  502 -0.12816922184E+04 -0.64012930593E+03  0.12687768869E+04  0.19137124313E+04  0.10100000352E+00 0. -1.
</event>
<event>
 5   0  0.3872969E-08  0.3892385E+04  0.7818609E-02  0.8026615E-01
       -2   -1    0    0    0  501  0.00000000000E+00  0.00000000000E+00  0.13294522384E+04  0.13294522384E+04  0.25500000920E-02 0. -1.
        2   -1    0    0  501    0  0.00000000000E+00  0.00000000000E+00 -0.28490418994E+04  0.28490418994E+04  0.25500000920E-02 0.  1.
    10030    2    1    2    0    0  0.00000000000E+00  0.00000000000E+00 -0.15195896611E+04  0.41784941378E+04  0.38923849401E+04 0.  0.
        2    1    3    3  502    0 -0.55456880355E+03  0.14704390063E+04 -0.19921894878E+04  0.25374310600E+04  0.25500000920E-02 0.  1.
       -2    1    3    3    0  502  0.55456880355E+03 -0.14704390063E+04  0.47259982679E+03  0.16410630778E+04  0.25500000920E-02 0. -1.
</event>
<event>
 5   0  0.3769985E-08  0.3903896E+04  0.7818609E-02  0.8024219E-01
        2   -1    0    0  501    0  0.00000000000E+00  0.00000000000E+00  0.21266175421E+04  0.21266175421E+04  0.25500000920E-02 0.  1.
       -2   -1    0    0    0  501  0.00000000000E+00  0.00000000000E+00 -0.17916247574E+04  0.17916247574E+04  0.25500000920E-02 0. -1.
    10030    2    1    2    0    0  0.00000000000E+00  0.00000000000E+00  0.33499278467E+03  0.39182422995E+04  0.39038958172E+04 0.  0.
        1    1    3    3  502    0 -0.15179054547E+04  0.86888924611E+02 -0.10611402674E+04  0.18540780247E+04  0.50400001928E-02 0. -1.
       -1    1    3    3    0  502  0.15179054547E+04 -0.86888924611E+02  0.13961330520E+04  0.20641642748E+04  0.50400001928E-02 0.  1.
</event>
<event>
 5   0  0.1164500E-08  0.3790776E+04  0.7818609E-02  0.8048137E-01
       -1   -1    0    0    0  501  0.00000000000E+00  0.00000000000E+00  0.14770458018E+04  0.14770458018E+04  0.50400001928E-02 0.  1.
        1   -1    0    0  501    0  0.00000000000E+00  0.00000000000E+00 -0.24322166681E+04  0.24322166681E+04  0.50400001928E-02 0. -1.
    10030    2    1    2    0    0  0.00000000000E+00  0.00000000000E+00 -0.95517086634E+03  0.39092624699E+04  0.37907758671E+04 0.  0.
        3    1    3    3  502    0 -0.82256898872E+03  0.12931782718E+04  0.67242313813E+03  0.16736435316E+04  0.10100000352E+00 0.  1.
       -3    1    3    3    0  502  0.82256898872E+03 -0.12931782718E+04 -0.16275940045E+04  0.22356189383E+04  0.10100000352E+00 0. -1.
</event>
<event>
 5   0  0.3769985E-08  0.3906674E+04  0.7818609E-02  0.8023642E-01
        2   -1    0    0  501    0  0.00000000000E+00  0.00000000000E+00  0.12649119591E+04  0.12649119591E+04  0.25500000920E-02 0. -1.
       -2   -1    0    0    0  501  0.00000000000E+00  0.00000000000E+00 -0.30164362526E+04  0.30164362526E+04  0.25500000920E-02 0.  1.
    10030    2    1    2    0    0  0.00000000000E+00  0.00000000000E+00 -0.17515242935E+04  0.42813482117E+04  0.39066744373E+04 0.  0.
        1    1    3    3  502    0  0.64520218398E+03  0.11249671964E+04  0.72504462957E+03  0.14857748033E+04  0.50400001928E-02 0. -1.
       -1    1    3    3    0  502 -0.64520218398E+03 -0.11249671964E+04 -0.24765689231E+04  0.27955734084E+04  0.50400001928E-02 0.  1.
</event>
<event>
 5   0  0.1164500E-08  0.3895691E+04  0.7818609E-02  0.8025926E-01
       -1   -1    0    0    0  501  0.00000000000E+00  0.00000000000E+00  0.26170527090E+04  0.26170527090E+04  0.50400001928E-02 0. -1.
        1   -1    0    0  501    0  0.00000000000E+00  0.00000000000E+00 -0.14497612843E+04  0.14497612843E+04  0.50400001928E-02 0.  1.
    10030    2    1    2    0    0  0.00000000000E+00  0.00000000000E+00  0.11672914247E+04  0.40668139933E+04  0.38956907970E+04 0.  0.
        1    1    3    3  502    0  0.55140804710E+03  0.78970219604E+03  0.23510660222E+04  0.25407069555E+04  0.50400001928E-02 0. -1.
       -1    1    3    3    0  502 -0.55140804710E+03 -0.78970219604E+03 -0.11837745976E+04  0.15261070378E+04  0.50400001928E-02 0.  1.
</event>
<event>
 5   0  0.3669347E-08  0.3903039E+04  0.7818609E-02  0.8024397E-01
       -2   -1    0    0    0  501  0.00000000000E+00  0.00000000000E+00  0.30642844109E+04  0.30642844109E+04  0.25500000920E-02 0.  1.
        2   -1    0    0  501    0  0.00000000000E+00  0.00000000000E+00 -0.12428443683E+04  0.12428443683E+04  0.25500000920E-02 0. -1.
    10030    2    1    2    0    0  0.00000000000E+00  0.00000000000E+00  0.18214400427E+04  0.43071287792E+04  0.39030391353E+04 0.  0.
        5    1    3    3  502    0 -0.15114402343E+04 -0.10122012394E+04  0.13087054258E+03  0.18237741417E+04  0.46999998093E+01 0. -1.
       -5    1    3    3    0  502  0.15114402343E+04  0.10122012394E+04  0.16905695001E+04  0.24833546375E+04  0.46999998093E+01 0.  1.
</event>
<event>
 5   0  0.1164500E-08  0.3892852E+04  0.7818609E-02  0.8026517E-01
       -1   -1    0    0    0  501  0.00000000000E+00  0.00000000000E+00  0.35849998989E+04  0.35849998989E+04  0.50400001928E-02 0. -1.
        1   -1    0    0  501    0  0.00000000000E+00  0.00000000000E+00 -0.10567852719E+04  0.10567852720E+04  0.50400001928E-02 0.  1.
    10030    2    1    2    0    0  0.00000000000E+00  0.00000000000E+00  0.25282146270E+04  0.46417851709E+04  0.38928524725E+04 0.  0.
        2    1    3    3  502    0  0.17350099396E+04  0.87089036846E+03  0.10960460623E+04  0.22293556233E+04  0.25500000920E-02 0.  1.
       -2    1    3    3    0  502 -0.17350099396E+04 -0.87089036846E+03  0.14321685646E+04  0.24124295475E+04  0.25500000920E-02 0. -1.
</event>
<event>
 5   0  0.3690572E-08  0.3901254E+04  0.7818609E-02  0.8024769E-01
       -2   -1    0    0    0  501  0.00000000000E+00  0.00000000000E+00  0.24134630235E+04  0.24134630235E+04  0.25500000920E-02 0.  1.
        2   -1    0    0  501    0  0.00000000000E+00  0.00000000000E+00 -0.15765499995E+04  0.15765499995E+04  0.25500000920E-02 0. -1.
    10030    2    1    2    0    0  0.00000000000E+00  0.00000000000E+00  0.83691302402E+03  0.39900130230E+04  0.39012537105E+04 0.  0.
        3    1    3    3  502    0  0.20763731940E+03 -0.17116358995E+04 -0.51451172597E+03  0.17993146015E+04  0.10100000352E+00 0. -1.
       -3    1    3    3    0  502 -0.20763731940E+03  0.17116358995E+04  0.13514247500E+04  0.21906984215E+04  0.10100000352E+00 0.  1.
</event>
<event>
 5   0  0.3872969E-08  0.3897879E+04  0.7818609E-02  0.8025470E-01
        2   -1    0    0  501    0  0.00000000000E+00  0.00000000000E+00  0.14147794480E+04  0.14147794480E+04  0.25500000920E-02 0.  1.
       -2   -1    0    0    0  501  0.00000000000E+00  0.00000000000E+00 -0.26847753461E+04  0.26847753461E+04  0.25500000920E-02 0. -1.
    10030    2    1    2    0    0  0.00000000000E+00  0.00000000000E+00 -0.12699958981E+04  0.40995547942E+04  0.38978789013E+04 0.  0.
        2    1    3    3  502    0  0.22006245109E+03  0.11756166432E+04 -0.22534008176E+04  0.25511403762E+04  0.25500000920E-02 0. -1.
       -2    1    3    3    0  502 -0.22006245109E+03 -0.11756166432E+04  0.98340491951E+03  0.15484144180E+04  0.25500000920E-02 0.  1.
</event>
<event>
 5   0  0.1164500E-08  0.3899341E+04  0.7818609E-02  0.8025166E-01
        1   -1    0    0  501    0  0.00000000000E+00  0.00000000000E+00  0.23776328275E+04  0.23776328275E+04  0.50400001928E-02 0. -1.
       -1   -1    0    0    0  501  0.00000000000E+00  0.00000000000E+00 -0.15987390597E+04  0.15987390597E+04  0.50400001928E-02 0.  1.
    10030    2    1    2    0    0  0.00000000000E+00  0.00000000000E+00  0.77889376775E+03  0.39763718872E+04  0.38993406986E+04 0.  0.
        2    1    3    3  502    0  0.11845921990E+04  0.15483975153E+04  0.41036870998E+03  0.19922841217E+04  0.25500000920E-02 0.  1.
       -2    1    3    3    0  502 -0.11845921990E+04 -0.15483975153E+04  0.36852505776E+03  0.19840877656E+04  0.25500000920E-02 0. -1.
</event>
<event>
 5   0  0.3669347E-08  0.3899686E+04  0.7818609E-02  0.8025095E-01
       -2   -1    0    0    0  501  0.00000000000E+00  0.00000000000E+00  0.25063852349E+04  0.25063852349E+04  0.25500000920E-02 0. -1.
        2   -1    0    0  501    0  0.00000000000E+00  0.00000000000E+00 -0.15168805647E+04  0.15168805647E+04  0.25500000920E-02 0.  1.
    10030    2    1    2    0    0  0.00000000000E+00  0.00000000000E+00  0.98950467020E+03  0.40232657995E+04  0.38996856542E+04 0.  0.
        5    1    3    3  502    0  0.18776232981E+04 -0.27581740734E+03  0.95650752808E+03  0.21251995749E+04  0.46999998093E+01 0.  1.
       -5    1    3    3    0  502 -0.18776232981E+04  0.27581740734E+03  0.32997142115E+02  0.18980662247E+04  0.46999998093E+01 0. -1.
</event>
<event>
 5   0  0.3669347E-08  0.3899861E+04  0.7818609E-02  0.8025058E-01
        2   -1    0    0  501    0  0.00000000000E+00  0.00000000000E+00  0.20704998121E+04  0.20704998121E+04  0.25500000920E-02 0. -1.
       -2   -1    0    0    0  501  0.00000000000E+00  0.00000000000E+00 -0.18363823070E+04  0.18363823070E+04  0.25500000920E-02 0.  1.
    10030    2    1    2    0    0  0.00000000000E+00  0.00000000000E+00  0.23411750518E+03  0.39068821191E+04  0.38998611368E+04 0.  0.
        5    1    3    3  502    0  0.16385849015E+02  0.14344124804E+03 -0.18310148592E+04  0.18367039480E+04  0.46999998093E+01 0.  1.
       -5    1    3    3    0  502 -0.16385849015E+02 -0.14344124804E+03  0.20651323644E+04  0.20701781711E+04  0.46999998093E+01 0. -1.
</event>
<event>
 5   0  0.3690572E-08  0.3903944E+04  0.7818609E-02  0.8024209E-01
        2   -1    0    0  501    0  0.00000000000E+00  0.00000000000E+00  0.12438648402E+04  0.12438648402E+04  0.25500000920E-02 0. -1.
       -2   -1    0    0    0  501  0.00000000000E+00  0.00000000000E+00 -0.30631899013E+04  0.30631899013E+04  0.25500000920E-02 0.  1.
    10030    2    1    2    0    0  0.00000000000E+00  0.00000000000E+00 -0.18193250610E+04  0.43070547415E+04  0.39039437584E+04 0.  0.
        3    1    3    3  502    0 -0.11899686388E+04  0.15394071448E+04 -0.73734768506E+03  0.20807405743E+04  0.10100000352E+00 0. -1.
       -3    1    3    3    0  502  0.11899686388E+04 -0.15394071448E+04 -0.10819773760E+04  0.22263141672E+04  0.10100000352E+00 0.  1.
</event>
<event>
 5   0  0.3769985E-08  0.3935481E+04  0.7818609E-02  0.8017690E-01
       -2   -1    0    0    0  501  0.00000000000E+00  0.00000000000E+00  0.21087946152E+04  0.21087946152E+04  0.25500000920E-02 0. -1.
        2   -1    0    0  501    0  0.00000000000E+00  0.00000000000E+00 -0.18361216600E+04  0.18361216600E+04  0.25500000920E-02 0.  1.
    10030    2    1    2    0    0  0.00000000000E+00  0.00000000000E+00  0.27267295517E+03  0.39449162752E+04  0.39354814036E+04 0.  0.
        1    1    3    3  502    0  0.11992526594E+04  0.10009355190E+04 -0.10631628345E+04  0.18895486411E+04  0.50400001928E-02 0.  1.
       -1    1    3    3    0  502 -0.11992526594E+04 -0.10009355190E+04  0.13358357897E+04  0.20553676341E+04  0.50400001928E-02 0. -1.
</event>
<event>
 5   0  0.1164500E-08  0.3899381E+04  0.7818609E-02  0.8025158E-01
        1   -1    0    0  501    0  0.00000000000E+00  0.00000000000E+00  0.28996214714E+04  0.28996214714E+04  0.50400001928E-02 0. -1.
       -1   -1    0    0    0  501  0.00000000000E+00  0.00000000000E+00 -0.13109620277E+04  0.13109620278E+04  0.50400001928E-02 0.  1.
    10030    2    1    2    0    0  0.00000000000E+00  0.00000000000E+00  0.15886594437E+04  0.42105834992E+04  0.38993813068E+04 0.  0.
        5    1    3    3  502    0 -0.28804650171E+03  0.19240901254E+04  0.65698612923E+03  0.20534718069E+04  0.46999998093E+01 0.  1.
       -5    1    3    3    0  502  0.28804650171E+03 -0.19240901254E+04  0.93167331443E+03  0.21571116922E+04  0.46999998093E+01 0. -1.
</event>
<event>
 5   0  0.1164500E-08  0.3909231E+04  0.7818609E-02  0.8023112E-01
        1   -1    0    0  501    0  0.00000000000E+00  0.00000000000E+00  0.18693721424E+04  0.18693721424E+04  0.50400001928E-02 0.  1.
       -1   -1    0    0    0  501  0.00000000000E+00  0.00000000000E+00 -0.20437461609E+04  0.20437461609E+04  0.50400001928E-02 0. -1.
    10030    2    1    2    0    0  0.00000000000E+00  0.00000000000E+00 -0.17437401852E+03  0.39131183033E+04  0.39092311977E+04 0.  0.
        3    1    3    3  502    0  0.16721578297E+04  0.10904523065E+02 -0.11002661838E+04  0.20017033750E+04  0.10100000352E+00 0. -1.
       -3    1    3    3    0  502 -0.16721578297E+04 -0.10904523065E+02  0.92589216530E+03  0.19114149283E+04  0.10100000352E+00 0.  1.
</event>
<event>
 5   0  0.3872969E-08  0.3902297E+04  0.7818609E-02  0.8024552E-01
        2   -1    0    0  501    0  0.00000000000E+00  0.00000000000E+00  0.13009028912E+04  0.13009028912E+04  0.25500000920E-02 0. -1.
       -2   -1    0    0    0  501  0.00000000000E+00  0.00000000000E+00 -0.29264142610E+04  0.29264142610E+04  0.25500000920E-02 0.  1.
    10030    2    1    2    0    0  0.00000000000E+00  0.00000000000E+00 -0.16255113698E+04  0.42273171522E+04  0.39022971558E+04 0.  0.
        2    1    3    3  502    0  0.78221445648E+03  0.32729044561E+03  0.10908776475E+04  0.13816629595E+04  0.25500000920E-02 0. -1.
       -2    1    3    3    0  502 -0.78221445648E+03 -0.32729044561E+03 -0.27163890173E+04  0.28456541928E+04  0.25500000920E-02 0.  1.
</event>
<event>
 5   0  0.1164500E-08  0.3894180E+04  0.7818609E-02  0.8026241E-01
        1   -1    0    0  501    0  0.00000000000E+00  0.00000000000E+00  0.23539765054E+04  0.23539765054E+04  0.50400001928E-02 0. -1.
       -1   -1    0    0    0  501  0.00000000000E+00  0.00000000000E+00 -0.16105340227E+04  0.16105340227E+04  0.50400001928E-02 0.  1.
    10030    2    1    2    0    0  0.00000000000E+00  0.00000000000E+00  0.74344248267E+03  0.39645105281E+04  0.38941798883E+04 0.  0.
        2    1    3    3  502    0 -0.41880454424E+03 -0.16810496478E+04 -0.53305565463E+03  0.18125875139E+04  0.25500000920E-02 0.  1.
       -2    1    3    3    0  502  0.41880454424E+03  0.16810496478E+04  0.12764981373E+04  0.21519230142E+04  0.25500000920E-02 0. -1.
</event>
<event>
 5   0  0.3690572E-08  0.3898410E+04  0.7818609E-02  0.8025360E-01
       -2   -1    0    0    0  501  0.00000000000E+00  0.00000000000E+00  0.18182742751E+04  0.18182742751E+04  0.25500000920E-02 0. -1.
        2   -1    0    0  501    0  0.00000000000E+00  0.00000000000E+00 -0.20895643195E+04  0.20895643195E+04  0.25500000920E-02 0.  1.
    10030    2    1    2    0    0  0.00000000000E+00  0.00000000000E+00 -0.27129004445E+03  0.39078385946E+04  0.38984104700E+04 0.  0.
        3    1    3    3  502    0 -0.42267519051E+03  0.13835788321E+04 -0.14451183088E+04  0.20448255764E+04  0.10100000352E+00 0.  1.
       -3    1    3    3    0  502  0.42267519051E+03 -0.13835788321E+04  0.11738282644E+04  0.18630130181E+04  0.10100000352E+00 0. -1.
</event>
<event>
 5   0  0.3669347E-08  0.3904125E+04  0.7818609E-02  0.8024172E-01
        2   -1    0    0  501    0  0.00000000000E+00  0.00000000000E+00  0.18345433912E+04  0.18345433912E+04  0.25500000920E-02 0.  1.
       -2   -1    0    0    0  501  0.00000000000E+00  0.00000000000E+00 -0.20771098001E+04  0.20771098001E+04  0.25500000920E-02 0. -1.
    10030    2    1    2    0    0  0.00000000000E+00  0.00000000000E+00 -0.24256640894E+03  0.39116531913E+04  0.39041250270E+04 0.  0.
        5    1    3    3  502    0  0.10003467630E+04 -0.70341208228E+03 -0.16457438890E+04  0.20503602713E+04  0.46999998093E+01 0. -1.
       -5    1    3    3    0  502 -0.10003467630E+04  0.70341208228E+03  0.14031774800E+04  0.18612929201E+04  0.46999998093E+01 0.  1.
</event>
<event>
 5   0  0.1164500E-08  0.3887167E+04  0.7818609E-02  0.8027703E-01
        1   -1    0    0  501    0  0.00000000000E+00  0.00000000000E+00  0.26142137252E+04  0.26142137252E+04  0.50400001928E-02 0.  1.
       -1   -1    0    0    0  501  0.00000000000E+00  0.00000000000E+00 -0.14449917622E+04  0.14449917622E+04  0.50400001928E-02 0. -1.
    10030    2    1    2    0    0  0.00000000000E+00  0.00000000000E+00  0.11692219630E+04  0.40592054874E+04  0.38871672450E+04 0.  0.
        5    1    3    3  502    0 -0.12301922049E+04  0.14994137616E+04  0.71620703971E+03  0.20675079451E+04  0.46999998093E+01 0. -1.
       -5    1    3    3    0  502  0.12301922049E+04 -0.14994137616E+04  0.45301492330E+03  0.19916975423E+04  0.46999998093E+01 0.  1.
</event>
<event>
 5   0  0.1164500E-08  0.3903681E+04  0.7818609E-02  0.8024264E-01
        1   -1    0    0  501    0  0.00000000000E+00  0.00000000000E+00  0.13318548618E+04  0.13318548618E+04  0.50400001928E-02 0.  1.
       -1   -1    0    0    0  501  0.00000000000E+00  0.00000000000E+00 -0.28604323937E+04  0.28604323937E+04  0.50400001928E-02 0. -1.
    10030    2    1    2    0    0  0.00000000000E+00  0.00000000000E+00 -0.15285775320E+04  0.41922872555E+04  0.39036807197E+04 0.  0.
        5    1    3    3  502    0 -0.85962153902E+03  0.16694521886E+04 -0.13362408403E+04  0.23046868494E+04  0.46999998093E+01 0. -1.
       -5    1    3    3    0  502  0.85962153902E+03 -0.16694521886E+04 -0.19233669165E+03  0.18876004061E+04  0.46999998093E+01 0.  1.
</event>
<event>
 5   0  0.3769985E-08  0.3898063E+04  0.7818609E-02  0.8025432E-01
       -2   -1    0    0    0  501  0.00000000000E+00  0.00000000000E+00  0.26422330230E+04  0.26422330230E+04  0.25500000920E-02 0. -1.
        2   -1    0    0  501    0  0.00000000000E+00  0.00000000000E+00 -0.14376944364E+04  0.14376944364E+04  0.25500000920E-02 0.  1.
    10030    2    1    2    0    0  0.00000000000E+00  0.00000000000E+00  0.12045385866E+04  0.40799274595E+04  0.38980629635E+04 0.  0.
        1    1    3    3  502    0 -0.14863387377E+03  0.85274824085E+03 -0.12254710647E+04  0.15003502662E+04  0.50400001928E-02 0.  1.
       -1    1    3    3    0  502  0.14863387377E+03 -0.85274824085E+03  0.24300096513E+04  0.25795771933E+04  0.50400001928E-02 0. -1.
</event>
<event>
 5   0  0.3724293E-08  0.3871185E+04  0.7818609E-02  0.8031049E-01
       -2   -1    0    0    0  501  0.00000000000E+00  0.00000000000E+00  0.31303697412E+04  0.31303697412E+04  0.25500000920E-02 0.  1.
        2   -1    0    0  501    0  0.00000000000E+00  0.00000000000E+00 -0.11968295886E+04  0.11968295886E+04  0.25500000920E-02 0. -1.
    10030    2    1    2    0    0  0.00000000000E+00  0.00000000000E+00  0.19335401526E+04  0.43271993299E+04  0.38711854152E+04 0.  0.
        4    1    3    3  502    0 -0.19805642088E+03  0.11004802286E+04 -0.79929057136E+03  0.13744635716E+04  0.12699999809E+01 0. -1.
       -4    1    3    3    0  502  0.19805642088E+03 -0.11004802286E+04  0.27328307239E+04  0.29527357582E+04  0.12699999809E+01 0.  1.
</event>
<event>
 5   0  0.1164500E-08  0.3904872E+04  0.7818609E-02  0.8024017E-01
        1   -1    0    0  501    0  0.00000000000E+00  0.00000000000E+00  0.19964743254E+04  0.19964743254E+04  0.50400001928E-02 0.  1.
       -1   -1    0    0    0  501  0.00000000000E+00  0.00000000000E+00 -0.19093687714E+04  0.19093687714E+04  0.50400001928E-02 0. -1.
    10030    2    1    2    0    0  0.00000000000E+00  0.00000000000E+00  0.87105553986E+02  0.39058430968E+04  0.39048716905E+04 0.  0.
        2    1    3    3  502    0  0.40214710181E+03 -0.10613911956E+04 -0.15454682962E+04  0.19174842414E+04  0.25500000920E-02 0. -1.
       -2    1    3    3    0  502 -0.40214710181E+03  0.10613911956E+04  0.16325738502E+04  0.19883588554E+04  0.25500000920E-02 0.  1.
</event>
<event>
 5   0  0.1164500E-08  0.3873823E+04  0.7818609E-02  0.8030496E-01
        1   -1    0    0  501    0  0.00000000000E+00  0.00000000000E+00  0.28434861146E+04  0.28434861147E+04  0.50400001928E-02 0. -1.
       -1   -1    0    0    0  501  0.00000000000E+00  0.00000000000E+00 -0.13193758327E+04  0.13193758327E+04  0.50400001928E-02 0.  1.
    10030    2    1    2    0    0  0.00000000000E+00  0.00000000000E+00  0.15241102820E+04  0.41628619473E+04  0.38738233621E+04 0.  0.
        4    1    3    3  502    0 -0.15926069964E+04  0.10733346031E+04  0.10321681824E+04  0.21803249723E+04  0.12699999809E+01 0. -1.
       -4    1    3    3    0  502  0.15926069964E+04 -0.10733346031E+04  0.49194209958E+03  0.19825369750E+04  0.12699999809E+01 0.  1.
</event>
<event>
 5   0  0.3690572E-08  0.3908042E+04  0.7818609E-02  0.8023359E-01
       -2   -1    0    0    0  501  0.00000000000E+00  0.00000000000E+00  0.21592393308E+04  0.21592393308E+04  0.25500000920E-02 0.  1.
        2   -1    0    0  501    0  0.00000000000E+00  0.00000000000E+00 -0.17683072742E+04  0.17683072742E+04  0.25500000920E-02 0. -1.
    10030    2    1    2    0    0  0.00000000000E+00  0.00000000000E+00  0.39093205669E+03  0.39275466050E+04  0.39080422799E+04 0.  0.
        3    1    3    3  502    0 -0.96889845004E+03 -0.12801494145E+04  0.13148705627E+04  0.20751942889E+04  0.10100000352E+00 0.  1.
       -3    1    3    3    0  502  0.96889845004E+03  0.12801494145E+04 -0.92393850599E+03  0.18523523161E+04  0.10100000352E+00 0. -1.
</event>
<event>
 5   0  0.1164500E-08  0.3900909E+04  0.7818609E-02  0.8024840E-01
        1   -1    0    0  501    0  0.00000000000E+00  0.00000000000E+00  0.20183449523E+04  0.20183449523E+04  0.50400001928E-02 0. -1.
       -1   -1    0    0    0  501  0.00000000000E+00  0.00000000000E+00 -0.18848473064E+04  0.18848473064E+04  0.50400001928E-02 0.  1.
    10030    2    1    2    0    0  0.00000000000E+00  0.00000000000E+00  0.13349764592E+03  0.39031922587E+04  0.39009086360E+04 0.  0.
        1    1    3    3  502    0  0.30370210300E+03 -0.14815902088E+04  0.12991059526E+04  0.19937454176E+04  0.50400001928E-02 0.  1.
       -1    1    3    3    0  502 -0.30370210300E+03  0.14815902088E+04 -0.11656083066E+04  0.19094468411E+04  0.50400001928E-02 0. -1.
</event>
<event>
 5   0  0.3669347E-08  0.3902427E+04  0.7818609E-02  0.8024525E-01
       -2   -1    0    0    0  501  0.00000000000E+00  0.00000000000E+00  0.21523781056E+04  0.21523781056E+04  0.25500000920E-02 0.  1.
        2   -1    0    0  501    0  0.00000000000E+00  0.00000000000E+00 -0.17688499492E+04  0.17688499492E+04  0.25500000920E-02 0. -1.
    10030    2    1    2    0    0  0.00000000000E+00  0.00000000000E+00  0.38352815640E+03  0.39212280548E+04  0.39024268874E+04 0.  0.
        5    1    3    3  502    0  0.25255678186E+03  0.40747417741E+03 -0.17087477297E+04  0.17747284376E+04  0.46999998093E+01 0. -1.
       -5    1    3    3    0  502 -0.25255678186E+03 -0.40747417741E+03  0.20922758861E+04  0.21464996173E+04  0.46999998093E+01 0.  1.
</event>
<event>
 5   0  0.1164500E-08  0.3901566E+04  0.7818609E-02  0.8024704E-01
        1   -1    0    0  501    0  0.00000000000E+00  0.00000000000E+00  0.15991506184E+04  0.15991506184E+04  0.50400001928E-02 0. -1.
       -1   -1    0    0    0  501  0.00000000000E+00  0.00000000000E+00 -0.23797343671E+04  0.23797343671E+04  0.50400001928E-02 0.  1.
    10030    2    1    2    0    0  0.00000000000E+00  0.00000000000E+00 -0.78058374867E+03  0.39788849855E+04  0.39015656779E+04 0.  0.
        2    1    3    3  502    0  0.25579879604E+03 -0.19302723802E+04 -0.51168528395E+03  0.20132576377E+04  0.25500000920E-02 0. -1.
       -2    1    3    3    0  502 -0.25579879604E+03  0.19302723802E+04 -0.26889846471E+03  0.19656273478E+04  0.25500000920E-02 0.  1.
</event>
<event>
 5   0  0.3769985E-08  0.3899474E+04  0.7818609E-02  0.8025139E-01
       -2   -1    0    0    0  501  0.00000000000E+00  0.00000000000E+00  0.18869306278E+04  0.18869306278E+04  0.25500000920E-02 0.  1.
        2   -1    0    0  501    0  0.00000000000E+00  0.00000000000E+00 -0.20146338840E+04  0.20146338840E+04  0.25500000920E-02 0. -1.
    10030    2    1    2    0    0  0.00000000000E+00  0.00000000000E+00 -0.12770325614E+03  0.39015645118E+04  0.38994740053E+04 0.  0.
        1    1    3    3  502    0  0.10810175150E+04  0.11907801318E+04  0.10389725523E+04  0.19146853931E+04  0.50400001928E-02 0.  1.
       -1    1    3    3    0  502 -0.10810175150E+04 -0.11907801318E+04 -0.11666758085E+04  0.19868791187E+04  0.50400001928E-02 0. -1.
</event>
<event>
 5   0  0.3872969E-08  0.3895712E+04  0.7818609E-02  0.8025922E-01
        2   -1    0    0  501    0  0.00000000000E+00  0.00000000000E+00  0.25526096489E+04  0.25526096489E+04  0.25500000920E-02 0. -1.
       -2   -1    0    0    0  501  0.00000000000E+00  0.00000000000E+00 -0.14863779248E+04  0.14863779248E+04  0.25500000920E-02 0.  1.
    10030    2    1    2    0    0  0.00000000000E+00  0.00000000000E+00  0.10662317242E+04  0.40389875737E+04  0.38957118131E+04 0.  0.
        2    1    3    3  502    0 -0.58700195368E+03 -0.69854106276E+03  0.23173414154E+04  0.24905023882E+04  0.25500000920E-02 0. -1.
       -2    1    3    3    0  502  0.58700195368E+03  0.69854106276E+03 -0.12511096913E+04  0.15484851855E+04  0.25500000920E-02 0.  1.
</event>
<event>
 5   0  0.1164500E-08  0.3902788E+04  0.7818609E-02  0.8024450E-01
       -1   -1    0    0    0  501  0.00000000000E+00  0.00000000000E+00  0.26237076008E+04  0.26237076008E+04  0.50400001928E-02 0.  1.
        1   -1    0    0  501    0  0.00000000000E+00  0.00000000000E+00 -0.14513576459E+04  0.14513576459E+04  0.50400001928E-02 0. -1.
    10030    2    1    2    0    0  0.00000000000E+00  0.00000000000E+00  0.11723499550E+04  0.40750652467E+04  0.39027877662E+04 0.  0.
        4    1    3    3  502    0 -0.98622138457E+03  0.52185258766E+03  0.22577724633E+04  0.25184322209E+04  0.12699999809E+01 0.  1.
       -4    1    3    3    0  502  0.98622138457E+03 -0.52185258766E+03 -0.10854225083E+04  0.15566330258E+04  0.12699999809E+01 0. -1.
</event>
<event>
 5   0  0.3724293E-08  0.3894009E+04  0.7818609E-02  0.8026276E-01
        2   -1    0    0  501    0  0.00000000000E+00  0.00000000000E+00  0.23591824899E+04  0.23591824899E+04  0.25500000920E-02 0.  1.
       -2   -1    0    0    0  501  0.00000000000E+00  0.00000000000E+00 -0.16068388077E+04  0.16068388077E+04  0.25500000920E-02 0. -1.
    10030    2    1    2    0    0  0.00000000000E+00  0.00000000000E+00  0.75234368213E+03  0.39660212976E+04  0.38940087207E+04 0.  0.
        4    1    3    3  502    0  0.17483098759E+04  0.11035432798E+03 -0.48928302642E+03  0.18188361644E+04  0.12699999809E+01 0. -1.
       -4    1    3    3    0  502 -0.17483098759E+04 -0.11035432798E+03  0.12416267086E+04  0.21471851332E+04  0.12699999809E+01 0.  1.
</event>
<event>
 5   0  0.3669347E-08  0.3892867E+04  0.7818609E-02  0.8026514E-01
       -2   -1    0    0    0  501  0.00000000000E+00  0.00000000000E+00  0.22556022460E+04  0.22556022460E+04  0.25500000920E-02 0. -1.
        2   -1    0    0  501    0  0.00000000000E+00  0.00000000000E+00 -0.16796413840E+04  0.16796413840E+04  0.25500000920E-02 0.  1.
    10030    2    1    2    0    0  0.00000000000E+00  0.00000000000E+00  0.57596086197E+03  0.39352436300E+04  0.38928667474E+04 0.  0.
        5    1    3    3  502    0 -0.12721636366E+04  0.10647791508E+04  0.13171127108E+04  0.21182452505E+04  0.46999998093E+01 0. -1.
       -5    1    3    3    0  502  0.12721636366E+04 -0.10647791508E+04 -0.74115184879E+03  0.18169983796E+04  0.46999998093E+01 0.  1.
</event>
<event>
 5   0  0.1164500E-08  0.3907511E+04  0.7818609E-02  0.8023469E-01
       -1   -1    0    0    0  501  0.00000000000E+00  0.00000000000E+00  0.18227084936E+04  0.18227084936E+04  0.50400001928E-02 0. -1.
        1   -1    0    0  501    0  0.00000000000E+00  0.00000000000E+00 -0.20942247135E+04  0.20942247135E+04  0.50400001928E-02 0.  1.
    10030    2    1    2    0    0  0.00000000000E+00  0.00000000000E+00 -0.27151621984E+03  0.39169332071E+04  0.39075113169E+04 0.  0.
        1    1    3    3  502    0  0.72532794445E+03  0.31919257300E+03  0.16543745209E+04  0.18343771644E+04  0.50400001928E-02 0. -1.
       -1    1    3    3    0  502 -0.72532794445E+03 -0.31919257300E+03 -0.19258907408E+04  0.20825560427E+04  0.50400001928E-02 0.  1.
</event>
<event>
 5   0  0.3724293E-08  0.3907634E+04  0.7818609E-02  0.8023443E-01
        2   -1    0    0  501    0  0.00000000000E+00  0.00000000000E+00  0.24247091217E+04  0.24247091217E+04  0.25500000920E-02 0.  1.
       -2   -1    0    0    0  501  0.00000000000E+00  0.00000000000E+00 -0.15743750270E+04  0.15743750270E+04  0.25500000920E-02 0. -1.
    10030    2    1    2    0    0  0.00000000000E+00  0.00000000000E+00  0.85033409465E+03  0.39990841487E+04  0.39076343171E+04 0.  0.
        4    1    3    3  502    0  0.68278685620E+03  0.94155978581E+03 -0.11814995563E+04  0.16579130061E+04  0.12699999809E+01 0. -1.
       -4    1    3    3    0  502 -0.68278685620E+03 -0.94155978581E+03  0.20318336509E+04  0.23411711427E+04  0.12699999809E+01 0.  1.
</event>
<event>
 5   0  0.1164500E-08  0.3837663E+04  0.7818609E-02  0.8038120E-01
        1   -1    0    0  501    0  0.00000000000E+00  0.00000000000E+00  0.17528842841E+04  0.17528842841E+04  0.50400001928E-02 0.  1.
       -1   -1    0    0    0  501  0.00000000000E+00  0.00000000000E+00 -0.21004892586E+04  0.21004892586E+04  0.50400001928E-02 0. -1.
    10030    2    1    2    0    0  0.00000000000E+00  0.00000000000E+00 -0.34760497447E+03  0.38533735427E+04  0.38376631485E+04 0.  0.
        5    1    3    3  502    0  0.18963399139E+04 -0.43696299888E+02 -0.46460523901E+03  0.19529194949E+04  0.46999998093E+01 0. -1.
       -5    1    3    3    0  502 -0.18963399139E+04  0.43696299888E+02  0.11700026454E+03  0.19004540477E+04  0.46999998093E+01 0.  1.
</event>
<event>
 5   0  0.1164500E-08  0.3895109E+04  0.7818609E-02  0.8026047E-01
        1   -1    0    0  501    0  0.00000000000E+00  0.00000000000E+00  0.21524923780E+04  0.21524923780E+04  0.50400001928E-02 0. -1.
       -1   -1    0    0    0  501  0.00000000000E+00  0.00000000000E+00 -0.17621286036E+04  0.17621286036E+04  0.50400001928E-02 0.  1.
    10030    2    1    2    0    0  0.00000000000E+00  0.00000000000E+00  0.39036377441E+03  0.39146209817E+04  0.38951089271E+04 0.  0.
        2    1    3    3  502    0 -0.68811207810E+03  0.16037236553E+04 -0.67375353754E+03  0.18706607453E+04  0.25500000920E-02 0. -1.
       -2    1    3    3    0  502  0.68811207810E+03 -0.16037236553E+04  0.10641173119E+04  0.20439602364E+04  0.25500000920E-02 0.  1.
</event>
<event>
 5   0  0.1164500E-08  0.3898984E+04  0.7818609E-02  0.8025241E-01
       -1   -1    0    0    0  501  0.00000000000E+00  0.00000000000E+00  0.19656212473E+04  0.19656212473E+04  0.50400001928E-02 0. -1.
        1   -1    0    0  501    0  0.00000000000E+00  0.00000000000E+00 -0.19334952982E+04  0.19334952982E+04  0.50400001928E-02 0.  1.
    10030    2    1    2    0    0  0.00000000000E+00  0.00000000000E+00  0.32125949165E+02  0.38991165455E+04  0.38989841957E+04 0.  0.
        2    1    3    3  502    0 -0.14850939529E+04  0.85805886307E+03  0.94278228444E+03  0.19571937812E+04  0.25500000920E-02 0. -1.
       -2    1    3    3    0  502  0.14850939529E+04 -0.85805886307E+03 -0.91065633528E+03  0.19419227643E+04  0.25500000920E-02 0.  1.
</event>
<event>
 5   0  0.1164500E-08  0.3895741E+04  0.7818609E-02  0.8025916E-01
       -1   -1    0    0    0  501  0.00000000000E+00  0.00000000000E+00  0.29183416363E+04  0.29183416363E+04  0.50400001928E-02 0.  1.
        1   -1    0    0  501    0  0.00000000000E+00  0.00000000000E+00 -0.13001215645E+04  0.13001215645E+04  0.50400001928E-02 0. -1.
    10030    2    1    2    0    0  0.00000000000E+00  0.00000000000E+00  0.16182200718E+04  0.42184632009E+04  0.38957406967E+04 0.  0.
        3    1    3    3  502    0  0.10418277073E+04 -0.26093647967E+03  0.25687517720E+04  0.27842375068E+04  0.10100000352E+00 0.  1.
       -3    1    3    3    0  502 -0.10418277073E+04  0.26093647967E+03 -0.95053170014E+03  0.14342256940E+04  0.10100000352E+00 0. -1.
</event>
<event>
 5   0  0.1164500E-08  0.3898933E+04  0.7818609E-02  0.8025251E-01
        3   -1    0    0  501    0  0.00000000000E+00  0.00000000000E+00  0.17124195681E+04  0.17124195711E+04  0.10100000352E+00 0. -1.
       -3   -1    0    0    0  501  0.00000000000E+00  0.00000000000E+00 -0.22193279367E+04  0.22193279390E+04  0.10100000352E+00 0.  1.
    10030    2    1    2    0    0  0.00000000000E+00  0.00000000000E+00 -0.50690836857E+03  0.39317475101E+04  0.38989334938E+04 0.  0.
        4    1    3    3  502    0 -0.14772321844E+04 -0.20525150449E+03 -0.15194385844E+04  0.21290933121E+04  0.12699999809E+01 0.  1.
       -4    1    3    3    0  502  0.14772321844E+04  0.20525150449E+03  0.10125302159E+04  0.18026541980E+04  0.12699999809E+01 0. -1.
</event>
<event>
 5   0  0.1164500E-08  0.3900700E+04  0.7818609E-02  0.8024884E-01
       -1   -1    0    0    0  501  0.00000000000E+00  0.00000000000E+00  0.15222562515E+04  0.15222562516E+04  0.50400001928E-02 0. -1.
        1   -1    0    0  501    0  0.00000000000E+00  0.00000000000E+00 -0.24988335161E+04  0.24988335161E+04  0.50400001928E-02 0.  1.
    10030    2    1    2    0    0  0.00000000000E+00  0.00000000000E+00 -0.97657726459E+03  0.40210897677E+04  0.39006999072E+04 0.  0.
        2    1    3    3  502    0 -0.54230970885E+03  0.14091991705E+04  0.78428439687E+03  0.17014829231E+04  0.25500000920E-02 0. -1.
       -2    1    3    3    0  502  0.54230970885E+03 -0.14091991705E+04 -0.17608616615E+04  0.23196068446E+04  0.25500000920E-02 0.  1.
</event>
<event>
 5   0  0.3724293E-08  0.3898134E+04  0.7818609E-02  0.8025417E-01
        2   -1    0    0  501    0  0.00000000000E+00  0.00000000000E+00  0.19892516027E+04  0.19892516027E+04  0.25500000920E-02 0.  1.
       -2   -1    0    0    0  501  0.00000000000E+00  0.00000000000E+00 -0.19096940561E+04  0.19096940561E+04  0.25500000920E-02 0. -1.
    10030    2    1    2    0    0  0.00000000000E+00  0.00000000000E+00  0.79557546691E+02  0.38989456588E+04  0.38981338929E+04 0.  0.
        4    1    3    3  502    0 -0.12907846698E+03 -0.15631937112E+04 -0.11174515843E+04  0.19258596744E+04  0.12699999809E+01 0. -1.
       -4    1    3    3    0  502  0.12907846698E+03  0.15631937112E+04  0.11970091310E+04  0.19730859844E+04  0.12699999809E+01 0.  1.
</event>
<event>
 5   0  0.3724293E-08  0.3895309E+04  0.7818609E-02  0.8026006E-01
       -2   -1    0    0    0  501  0.00000000000E+00  0.00000000000E+00  0.13550227944E+04  0.13550227944E+04  0.25500000920E-02 0. -1.
        2   -1    0    0  501    0  0.00000000000E+00  0.00000000000E+00 -0.27994786878E+04  0.27994786878E+04  0.25500000920E-02 0.  1.
    10030    2    1    2    0    0  0.00000000000E+00  0.00000000000E+00 -0.14444558934E+04  0.41545014822E+04  0.38953086832E+04 0.  0.
        4    1    3    3  502    0  0.36468754426E+03 -0.78752763766E+02 -0.27610091921E+04  0.27861034393E+04  0.12699999809E+01 0.  1.
       -4    1    3    3    0  502 -0.36468754426E+03  0.78752763766E+02  0.13165532986E+04  0.13683980429E+04  0.12699999809E+01 0. -1.
</event>
<event>
 5   0  0.3769985E-08  0.3916552E+04  0.7818609E-02  0.8021595E-01
        2   -1    0    0  501    0  0.00000000000E+00  0.00000000000E+00  0.23270392582E+04  0.23270392582E+04  0.25500000920E-02 0.  1.
       -2   -1    0    0    0  501  0.00000000000E+00  0.00000000000E+00 -0.16479505840E+04  0.16479505840E+04  0.25500000920E-02 0. -1.
    10030    2    1    2    0    0  0.00000000000E+00  0.00000000000E+00  0.67908867417E+03  0.39749898423E+04  0.39165524149E+04 0.  0.
        1    1    3    3  502    0  0.43393832710E+03 -0.46851285045E+03 -0.15393034597E+04  0.16665118973E+04  0.50400001928E-02 0. -1.
       -1    1    3    3    0  502 -0.43393832710E+03  0.46851285045E+03  0.22183921339E+04  0.23084779450E+04  0.50400001928E-02 0.  1.
</event>
<event>
 5   0  0.1164500E-08  0.3914579E+04  0.7818609E-02  0.8022004E-01
       -1   -1    0    0    0  501  0.00000000000E+00  0.00000000000E+00  0.13863634177E+04  0.13863634177E+04  0.50400001928E-02 0. -1.
        1   -1    0    0  501    0  0.00000000000E+00  0.00000000000E+00 -0.27633319754E+04  0.27633319754E+04  0.50400001928E-02 0.  1.
    10030    2    1    2    0    0  0.00000000000E+00  0.00000000000E+00 -0.13769685577E+04  0.41496953931E+04  0.39145790893E+04 0.  0.
        4    1    3    3  502    0  0.16768978895E+04  0.72928721824E+03 -0.14283544748E+04  0.23203543904E+04  0.12699999809E+01 0. -1.
       -4    1    3    3    0  502 -0.16768978895E+04 -0.72928721824E+03  0.51385917069E+02  0.18293410027E+04  0.12699999809E+01 0.  1.
</event>
<event>
 5   0  0.1164500E-08  0.3905792E+04  0.7818609E-02  0.8023826E-01
       -1   -1    0    0    0  501  0.00000000000E+00  0.00000000000E+00  0.24062074939E+04  0.24062074939E+04  0.50400001928E-02 0. -1.
        1   -1    0    0  501    0  0.00000000000E+00  0.00000000000E+00 -0.15849853316E+04  0.15849853316E+04  0.50400001928E-02 0.  1.
    10030    2    1    2    0    0  0.00000000000E+00  0.00000000000E+00  0.82122216224E+03  0.39911928255E+04  0.39057924075E+04 0.  0.
        4    1    3    3  502    0  0.12099397631E+04  0.32594578419E+03  0.19412295692E+04  0.23105342971E+04  0.12699999809E+01 0. -1.
       -4    1    3    3    0  502 -0.12099397631E+04 -0.32594578419E+03 -0.11200074070E+04  0.16806585284E+04  0.12699999809E+01 0.  1.
</event>
<event>
 5   0  0.3669347E-08  0.3900371E+04  0.7818609E-02  0.8024952E-01
       -2   -1    0    0    0  501  0.00000000000E+00  0.00000000000E+00  0.31053243992E+04  0.31053243992E+04  0.25500000920E-02 0. -1.
        2   -1    0    0  501    0  0.00000000000E+00  0.00000000000E+00 -0.12247428968E+04  0.12247428968E+04  0.25500000920E-02 0.  1.
    10030    2    1    2    0    0  0.00000000000E+00  0.00000000000E+00  0.18805815025E+04  0.43300672960E+04  0.39003712644E+04 0.  0.
        5    1    3    3  502    0 -0.18877934189E+04  0.48918792906E+03  0.95309804809E+03  0.21705959554E+04  0.46999998093E+01 0.  1.
       -5    1    3    3    0  502  0.18877934189E+04 -0.48918792906E+03  0.92748345440E+03  0.21594713406E+04  0.46999998093E+01 0. -1.
</event>
<event>
 5   0  0.1164500E-08  0.3900805E+04  0.7818609E-02  0.8024862E-01
       -3   -1    0    0    0  501  0.00000000000E+00  0.00000000000E+00  0.13518404782E+04  0.13518404819E+04  0.10100000352E+00 0. -1.
        3   -1    0    0  501    0  0.00000000000E+00  0.00000000000E+00 -0.28139928031E+04  0.28139928049E+04  0.10100000352E+00 0.  1.
    10030    2    1    2    0    0  0.00000000000E+00  0.00000000000E+00 -0.14621523250E+04  0.41658332868E+04  0.39008047314E+04 0.  0.
        2    1    3    3  502    0 -0.51057368910E+03  0.13484479085E+04 -0.21337325866E+04  0.25752304761E+04  0.25500000920E-02 0.  1.
       -2    1    3    3    0  502  0.51057368910E+03 -0.13484479085E+04  0.67158026163E+03  0.15906028108E+04  0.25500000920E-02 0. -1.
</event>
<event>
 5   0  0.3872969E-08  0.3900144E+04  0.7818609E-02  0.8024999E-01
       -2   -1    0    0    0  501  0.00000000000E+00  0.00000000000E+00  0.20230686150E+04  0.20230686150E+04  0.25500000920E-02 0. -1.
        2   -1    0    0  501    0  0.00000000000E+00  0.00000000000E+00 -0.18797095082E+04  0.18797095082E+04  0.25500000920E-02 0.  1.
    10030    2    1    2    0    0  0.00000000000E+00  0.00000000000E+00  0.14335910687E+03  0.39027781232E+04  0.39001442596E+04 0.  0.
        2    1    3    3  502    0  0.98630559392E+03  0.15806446559E+04 -0.50450879336E+03  0.19302241775E+04  0.25500000920E-02 0.  1.
       -2    1    3    3    0  502 -0.98630559392E+03 -0.15806446559E+04  0.64786790024E+03  0.19725539457E+04  0.25500000920E-02 0. -1.
</event>
<event>
 5   0  0.1164500E-08  0.3896277E+04  0.7818609E-02  0.8025804E-01
        1   -1    0    0  501    0  0.00000000000E+00  0.00000000000E+00  0.19055540031E+04  0.19055540031E+04  0.50400001928E-02 0. -1.
       -1   -1    0    0    0  501  0.00000000000E+00  0.00000000000E+00 -0.19916742801E+04  0.19916742801E+04  0.50400001928E-02 0.  1.
    10030    2    1    2    0    0  0.00000000000E+00  0.00000000000E+00 -0.86120276992E+02  0.38972282832E+04  0.38962766315E+04 0.  0.
        3    1    3    3  502    0  0.10581424220E+04  0.15828366634E+04  0.36960044017E+03  0.19394952395E+04  0.10100000352E+00 0. -1.
       -3    1    3    3    0  502 -0.10581424220E+04 -0.15828366634E+04 -0.45572071716E+03  0.19577330437E+04  0.10100000352E+00 0.  1.
</event>
<event>
 5   0  0.3690572E-08  0.3899436E+04  0.7818609E-02  0.8025146E-01
        2   -1    0    0  501    0  0.00000000000E+00  0.00000000000E+00  0.17845559443E+04  0.17845559443E+04  0.25500000920E-02 0.  1.
       -2   -1    0    0    0  501  0.00000000000E+00  0.00000000000E+00 -0.21301661238E+04  0.21301661238E+04  0.25500000920E-02 0. -1.
    10030    2    1    2    0    0  0.00000000000E+00  0.00000000000E+00 -0.34561017949E+03  0.39147220682E+04  0.38994361740E+04 0.  0.
        3    1    3    3  502    0 -0.69040475732E+02  0.71235134733E+03  0.16479166203E+04  0.17966191101E+04  0.10100000352E+00 0.  1.
       -3    1    3    3    0  502  0.69040475732E+02 -0.71235134733E+03 -0.19935267998E+04  0.21181029581E+04  0.10100000352E+00 0. -1.
</event>
<event>
 5   0  0.3724293E-08  0.3910942E+04  0.7818609E-02  0.8022757E-01
        2   -1    0    0  501    0  0.00000000000E+00  0.00000000000E+00  0.16380424554E+04  0.16380424554E+04  0.25500000920E-02 0. -1.
       -2   -1    0    0    0  501  0.00000000000E+00  0.00000000000E+00 -0.23344121266E+04  0.23344121266E+04  0.25500000920E-02 0.  1.
    10030    2    1    2    0    0  0.00000000000E+00  0.00000000000E+00 -0.69636967120E+03  0.39724545820E+04  0.39109416625E+04 0.  0.
        4    1    3    3  502    0  0.19033904408E+03  0.14519669800E+04  0.96812532114E+03  0.17554786563E+04  0.12699999809E+01 0. -1.
       -4    1    3    3    0  502 -0.19033904408E+03 -0.14519669800E+04 -0.16644949923E+04  0.22169759257E+04  0.12699999809E+01 0.  1.
</event>
<event>
 5   0  0.3724293E-08  0.3892869E+04  0.7818609E-02  0.8026514E-01
       -2   -1    0    0    0  501  0.00000000000E+00  0.00000000000E+00  0.28486393588E+04  0.28486393588E+04  0.25500000920E-02 0. -1.
        2   -1    0    0  501    0  0.00000000000E+00  0.00000000000E+00 -0.13299705367E+04  0.13299705367E+04  0.25500000920E-02 0.  1.
    10030    2    1    2    0    0  0.00000000000E+00  0.00000000000E+00  0.15186688221E+04  0.41786098955E+04  0.38928685654E+04 0.  0.
        4    1    3    3  502    0  0.11180071215E+04  0.12410571090E+04 -0.31323038185E+03  0.16994933235E+04  0.12699999809E+01 0.  1.
       -4    1    3    3    0  502 -0.11180071215E+04 -0.12410571090E+04  0.18318992040E+04  0.24791165721E+04  0.12699999809E+01 0. -1.
</event>
<event>
 5   0  0.1164500E-08  0.3902482E+04  0.7818609E-02  0.8024513E-01
        1   -1    0    0  501    0  0.00000000000E+00  0.00000000000E+00  0.15591013883E+04  0.15591013883E+04  0.50400001928E-02 0.  1.
       -1   -1    0    0    0  501  0.00000000000E+00  0.00000000000E+00 -0.24420097277E+04  0.24420097277E+04  0.50400001928E-02 0. -1.
    10030    2    1    2    0    0  0.00000000000E+00  0.00000000000E+00 -0.88290833933E+03  0.40011111160E+04  0.39024816498E+04 0.  0.
        4    1    3    3  502    0  0.14381623697E+04 -0.28451359301E+03  0.87875426750E+03  0.17092307222E+04  0.12699999809E+01 0.  1.
       -4    1    3    3    0  502 -0.14381623697E+04  0.28451359301E+03 -0.17616626068E+04  0.22918803938E+04  0.12699999809E+01 0. -1.
</event>
<event>
 5   0  0.3769985E-08  0.3901620E+04  0.7818609E-02  0.8024692E-01
        2   -1    0    0  501    0  0.00000000000E+00  0.00000000000E+00  0.19563251092E+04  0.19563251092E+04  0.25500000920E-02 0. -1.
       -2   -1    0    0    0  501  0.00000000000E+00  0.00000000000E+00 -0.19453105411E+04  0.19453105411E+04  0.25500000920E-02 0.  1.
    10030    2    1    2    0    0  0.00000000000E+00  0.00000000000E+00  0.11014568021E+02  0.39016356503E+04  0.39016201029E+04 0.  0.
        1    1    3    3  502    0  0.14668274304E+04  0.57682898412E+03 -0.11439952171E+04  0.19475727058E+04  0.50400001928E-02 0.  1.
       -1    1    3    3    0  502 -0.14668274304E+04 -0.57682898412E+03  0.11550097851E+04  0.19540629445E+04  0.50400001928E-02 0. -1.
</event>
<event>
 5   0  0.1164500E-08  0.3901687E+04  0.7818609E-02  0.8024678E-01
        1   -1    0    0  501    0  0.00000000000E+00  0.00000000000E+00  0.15063739896E+04  0.15063739896E+04  0.50400001928E-02 0.  1.
       -1   -1    0    0    0  501  0.00000000000E+00  0.00000000000E+00 -0.25264581418E+04  0.25264581418E+04  0.50400001928E-02 0. -1.
    10030    2    1    2    0    0  0.00000000000E+00  0.00000000000E+00 -0.10200841522E+04  0.40328321314E+04  0.39016872405E+04 0.  0.
        3    1    3    3  502    0  0.69827689056E+03  0.17658575223E+04 -0.47857350407E+02  0.18995088157E+04  0.10100000352E+00 0.  1.
       -3    1    3    3    0  502 -0.69827689056E+03 -0.17658575223E+04 -0.97222680181E+03  0.21333233157E+04  0.10100000352E+00 0. -1.
</event>
<event>
 5   0  0.1164500E-08  0.3903111E+04  0.7818609E-02  0.8024383E-01
       -3   -1    0    0    0  501  0.00000000000E+00  0.00000000000E+00  0.20238728657E+04  0.20238728682E+04  0.10100000352E+00 0. -1.
        3   -1    0    0  501    0  0.00000000000E+00  0.00000000000E+00 -0.18818219687E+04  0.18818219714E+04  0.10100000352E+00 0.  1.
    10030    2    1    2    0    0  0.00000000000E+00  0.00000000000E+00  0.14205089702E+03  0.39056948396E+04  0.39031107751E+04 0.  0.
        3    1    3    3  502    0  0.25567708263E+03 -0.18600005320E+04 -0.46186413260E+03  0.19334661199E+04  0.10100000352E+00 0. -1.
       -3    1    3    3    0  502 -0.25567708263E+03  0.18600005320E+04  0.60391502961E+03  0.19722287197E+04  0.10100000352E+00 0.  1.
</event>
<event>
 5   0  0.3769985E-08  0.3896937E+04  0.7818609E-02  0.8025667E-01
       -2   -1    0    0    0  501  0.00000000000E+00  0.00000000000E+00  0.24582196716E+04  0.24582196716E+04  0.25500000920E-02 0.  1.
        2   -1    0    0  501    0  0.00000000000E+00  0.00000000000E+00 -0.15444224353E+04  0.15444224353E+04  0.25500000920E-02 0. -1.
    10030    2    1    2    0    0  0.00000000000E+00  0.00000000000E+00  0.91379723633E+03  0.40026421069E+04  0.38969370597E+04 0.  0.
        1    1    3    3  502    0  0.14604161196E+04  0.11164774871E+04 -0.20652596054E+03  0.18498622094E+04  0.50400001928E-02 0. -1.
       -1    1    3    3    0  502 -0.14604161196E+04 -0.11164774871E+04  0.11203231969E+04  0.21527798975E+04  0.50400001928E-02 0.  1.
</event>
<event>
 5   0  0.1164500E-08  0.3898652E+04  0.7818609E-02  0.8025310E-01
       -1   -1    0    0    0  501  0.00000000000E+00  0.00000000000E+00  0.24435441758E+04  0.24435441758E+04  0.50400001928E-02 0. -1.
        1   -1    0    0  501    0  0.00000000000E+00  0.00000000000E+00 -0.15550656111E+04  0.15550656111E+04  0.50400001928E-02 0.  1.
    10030    2    1    2    0    0  0.00000000000E+00  0.00000000000E+00  0.88847856470E+03  0.39986097868E+04  0.38986518269E+04 0.  0.
        5    1    3    3  502    0  0.15438445533E+04  0.66079316212E+03  0.14594385183E+04  0.22248789824E+04  0.46999998093E+01 0. -1.
       -5    1    3    3    0  502 -0.15438445533E+04 -0.66079316212E+03 -0.57095995358E+03  0.17737308044E+04  0.46999998093E+01 0.  1.
</event>
<event>
 5   0  0.1164500E-08  0.3899951E+04  0.7818609E-02  0.8025039E-01
        1   -1    0    0  501    0  0.00000000000E+00  0.00000000000E+00  0.27720402912E+04  0.27720402912E+04  0.50400001928E-02 0. -1.
       -1   -1    0    0    0  501  0.00000000000E+00  0.00000000000E+00 -0.13716991277E+04  0.13716991277E+04  0.50400001928E-02 0.  1.
    10030    2    1    2    0    0  0.00000000000E+00  0.00000000000E+00  0.14003411635E+04  0.41437394189E+04  0.38999514097E+04 0.  0.
        5    1    3    3  502    0  0.35467146054E+03 -0.40924616499E+03 -0.12901895468E+04  0.13992445909E+04  0.46999998093E+01 0.  1.
       -5    1    3    3    0  502 -0.35467146054E+03  0.40924616499E+03  0.26905307102E+04  0.27444948280E+04  0.46999998093E+01 0. -1.
</event>
<event>
 5   0  0.1164500E-08  0.3892230E+04  0.7818609E-02  0.8026647E-01
        1   -1    0    0  501    0  0.00000000000E+00  0.00000000000E+00  0.20579902515E+04  0.20579902515E+04  0.50400001928E-02 0. -1.
       -1   -1    0    0    0  501  0.00000000000E+00  0.00000000000E+00 -0.18403210599E+04  0.18403210599E+04  0.50400001928E-02 0.  1.
    10030    2    1    2    0    0  0.00000000000E+00  0.00000000000E+00  0.21766919154E+03  0.38983113114E+04  0.38922295929E+04 0.  0.
        1    1    3    3  502    0  0.10713419725E+04  0.16231972296E+04  0.39300379690E+02  0.19452730883E+04  0.50400001928E-02 0.  1.
       -1    1    3    3    0  502 -0.10713419725E+04 -0.16231972296E+04  0.17836881185E+03  0.19530382232E+04  0.50400001928E-02 0. -1.
</event>
<event>
 5   0  0.3669347E-08  0.3900724E+04  0.7818609E-02  0.8024879E-01
        2   -1    0    0  501    0  0.00000000000E+00  0.00000000000E+00  0.17082490183E+04  0.17082490183E+04  0.25500000920E-02 0.  1.
       -2   -1    0    0    0  501  0.00000000000E+00  0.00000000000E+00 -0.22267897795E+04  0.22267897795E+04  0.25500000920E-02 0. -1.
    10030    2    1    2    0    0  0.00000000000E+00  0.00000000000E+00 -0.51854076119E+03  0.39350387978E+04  0.39007237558E+04 0.  0.
        5    1    3    3  502    0  0.19134206089E+04 -0.36019905267E+03 -0.14439332239E+03  0.19523814447E+04  0.46999998093E+01 0.  1.
       -5    1    3    3    0  502 -0.19134206089E+04  0.36019905267E+03 -0.37414743880E+03  0.19826573531E+04  0.46999998093E+01 0. -1.
</event>
<event>
 5   0  0.3769985E-08  0.3869674E+04  0.7818609E-02  0.8031366E-01
       -2   -1    0    0    0  501  0.00000000000E+00  0.00000000000E+00  0.11681736404E+04  0.11681736404E+04  0.25500000920E-02 0. -1.
        2   -1    0    0  501    0  0.00000000000E+00  0.00000000000E+00 -0.32046560186E+04  0.32046560186E+04  0.25500000920E-02 0.  1.
    10030    2    1    2    0    0  0.00000000000E+00  0.00000000000E+00 -0.20364823782E+04  0.43728296589E+04  0.38696742433E+04 0.  0.
        1    1    3    3  502    0  0.59263466517E+03  0.99673882345E+03 -0.27684641250E+04  0.30015159070E+04  0.50400001928E-02 0.  1.
       -1    1    3    3    0  502 -0.59263466517E+03 -0.99673882345E+03  0.73198174684E+03  0.13713137519E+04  0.50400001928E-02 0. -1.
</event>
<event>
 5   0  0.1164500E-08  0.3892940E+04  0.7818609E-02  0.8026499E-01
       -1   -1    0    0    0  501  0.00000000000E+00  0.00000000000E+00  0.22308165456E+04  0.22308165456E+04  0.50400001928E-02 0. -1.
        1   -1    0    0  501    0  0.00000000000E+00  0.00000000000E+00 -0.16983669148E+04  0.16983669148E+04  0.50400001928E-02 0.  1.
    10030    2    1    2    0    0  0.00000000000E+00  0.00000000000E+00  0.53244963084E+03  0.39291834604E+04  0.38929397704E+04 0.  0.
        2    1    3    3  502    0 -0.39585603618E+03  0.15761641390E+04 -0.81508016021E+03  0.18180624472E+04  0.25500000920E-02 0.  1.
       -2    1    3    3    0  502  0.39585603618E+03 -0.15761641390E+04  0.13475297910E+04  0.21111210132E+04  0.25500000920E-02 0. -1.
</event>
<event>
 5   0  0.1164500E-08  0.3904703E+04  0.7818609E-02  0.8024052E-01
       -1   -1    0    0    0  501  0.00000000000E+00  0.00000000000E+00  0.31125136157E+04  0.31125136157E+04  0.50400001928E-02 0.  1.
        1   -1    0    0  501    0  0.00000000000E+00  0.00000000000E+00 -0.12246298813E+04  0.12246298814E+04  0.50400001928E-02 0. -1.
    10030    2    1    2    0    0  0.00000000000E+00  0.00000000000E+00  0.18878837343E+04  0.43371434970E+04  0.39047034099E+04 0.  0.
        5    1    3    3  502    0  0.30343474593E+03 -0.85265869704E+03 -0.97754248902E+03  0.13321827602E+04  0.46999998093E+01 0. -1.
       -5    1    3    3    0  502 -0.30343474593E+03  0.85265869704E+03  0.28654262233E+04  0.30049607368E+04  0.46999998093E+01 0.  1.
</event>
<event>
 5   0  0.3690572E-08  0.3903502E+04  0.7818609E-02  0.8024301E-01
        2   -1    0    0  501    0  0.00000000000E+00  0.00000000000E+00  0.21551093981E+04  0.21551093981E+04  0.25500000920E-02 0.  1.
       -2   -1    0    0    0  501  0.00000000000E+00  0.00000000000E+00 -0.17675817465E+04  0.17675817465E+04  0.25500000920E-02 0. -1.
    10030    2    1    2    0    0  0.00000000000E+00  0.00000000000E+00  0.38752765161E+03  0.39226911445E+04  0.39035020347E+04 0.  0.
        3    1    3    3  502    0 -0.15108024155E+04 -0.12174150411E+04  0.40624758302E+03  0.19823371131E+04  0.10100000352E+00 0.  1.
       -3    1    3    3    0  502  0.15108024155E+04  0.12174150411E+04 -0.18719931413E+02  0.19403540314E+04  0.10100000352E+00 0. -1.
</event>
<event>
 5   0  0.3769985E-08  0.3885922E+04  0.7818609E-02  0.8027963E-01
        2   -1    0    0  501    0  0.00000000000E+00  0.00000000000E+00  0.11819918867E+04  0.11819918867E+04  0.25500000920E-02 0. -1.
       -2   -1    0    0    0  501  0.00000000000E+00  0.00000000000E+00 -0.31938441889E+04  0.31938441889E+04  0.25500000920E-02 0.  1.
    10030    2    1    2    0    0  0.00000000000E+00  0.00000000000E+00 -0.20118523023E+04  0.43758360756E+04  0.38859222424E+04 0.  0.
        1    1    3    3  502    0  0.28050561812E+03  0.80278509901E+03 -0.29731586405E+04  0.30923808980E+04  0.50400001928E-02 0.  1.
       -1    1    3    3    0  502 -0.28050561812E+03 -0.80278509901E+03  0.96130633818E+03  0.12834551776E+04  0.50400001928E-02 0. -1.
</event>
<event>
 5   0  0.1164500E-08  0.3901546E+04  0.7818609E-02  0.8024708E-01
       -1   -1    0    0    0  501  0.00000000000E+00  0.00000000000E+00  0.18031449378E+04  0.18031449378E+04  0.50400001928E-02 0. -1.
        1   -1    0    0  501    0  0.00000000000E+00  0.00000000000E+00 -0.21104876123E+04  0.21104876123E+04  0.50400001928E-02 0.  1.
    10030    2    1    2    0    0  0.00000000000E+00  0.00000000000E+00 -0.30734267450E+03  0.39136325500E+04  0.39015458753E+04 0.  0.
        2    1    3    3  502    0 -0.16111346347E+03  0.65019380290E+03 -0.19915059235E+04  0.21011438249E+04  0.25500000920E-02 0.  1.
       -2    1    3    3    0  502  0.16111346347E+03 -0.65019380290E+03  0.16841632490E+04  0.18124887251E+04  0.25500000920E-02 0. -1.
</event>
<event>
 5   0  0.1164500E-08  0.3885078E+04  0.7818609E-02  0.8028140E-01
        1   -1    0    0  501    0  0.00000000000E+00  0.00000000000E+00  0.23329624085E+04  0.23329624085E+04  0.50400001928E-02 0. -1.
       -1   -1    0    0    0  501  0.00000000000E+00  0.00000000000E+00 -0.16174536188E+04  0.16174536188E+04  0.50400001928E-02 0.  1.
    10030    2    1    2    0    0  0.00000000000E+00  0.00000000000E+00  0.71550878970E+03  0.39504160272E+04  0.38850783725E+04 0.  0.
        5    1    3    3  502    0  0.29670872817E+03 -0.19150848634E+04  0.22190247798E+03  0.19506021898E+04  0.46999998093E+01 0.  1.
       -5    1    3    3    0  502 -0.29670872817E+03  0.19150848634E+04  0.49360631171E+03  0.19998138374E+04  0.46999998093E+01 0. -1.
</event>
<event>
 5   0  0.1164500E-08  0.3904214E+04  0.7818609E-02  0.8024153E-01
        1   -1    0    0  501    0  0.00000000000E+00  0.00000000000E+00  0.28233182532E+04  0.28233182532E+04  0.50400001928E-02 0.  1.
       -1   -1    0    0    0  501  0.00000000000E+00  0.00000000000E+00 -0.13497316952E+04  0.13497316952E+04  0.50400001928E-02 0. -1.
    10030    2    1    2    0    0  0.00000000000E+00  0.00000000000E+00  0.14735865581E+04  0.41730499484E+04  0.39042142011E+04 0.  0.
        2    1    3    3  502    0 -0.10386651727E+04 -0.79652332923E+03 -0.81118721162E+03  0.15399024148E+04  0.25500000920E-02 0. -1.
       -2    1    3    3    0  502  0.10386651727E+04  0.79652332923E+03  0.22847737697E+04  0.26331475336E+04  0.25500000920E-02 0.  1.
</event>
<event>
 5   0  0.1164500E-08  0.3899753E+04  0.7818609E-02  0.8025081E-01
        3   -1    0    0  501    0  0.00000000000E+00  0.00000000000E+00  0.19481726476E+04  0.19481726502E+04  0.10100000352E+00 0.  1.
       -3   -1    0    0    0  501  0.00000000000E+00  0.00000000000E+00 -0.19515813510E+04  0.19515813536E+04  0.10100000352E+00 0. -1.
    10030    2    1    2    0    0  0.00000000000E+00  0.00000000000E+00 -0.34087034533E+01  0.38997540038E+04  0.38997525141E+04 0.  0.
        1    1    3    3  502    0  0.16723629147E+04  0.10020855861E+04 -0.34018097882E+02  0.19499052468E+04  0.50400001928E-02 0. -1.
       -1    1    3    3    0  502 -0.16723629147E+04 -0.10020855861E+04  0.30609394429E+02  0.19498487571E+04  0.50400001928E-02 0.  1.
</event>
<event>
 5   0  0.1164500E-08  0.3903142E+04  0.7818609E-02  0.8024376E-01
        1   -1    0    0  501    0  0.00000000000E+00  0.00000000000E+00  0.19988568032E+04  0.19988568032E+04  0.50400001928E-02 0. -1.
       -1   -1    0    0    0  501  0.00000000000E+00  0.00000000000E+00 -0.19054041090E+04  0.19054041090E+04  0.50400001928E-02 0.  1.
    10030    2    1    2    0    0  0.00000000000E+00  0.00000000000E+00  0.93452694141E+02  0.39042609122E+04  0.39031423064E+04 0.  0.
        2    1    3    3  502    0  0.57872014876E+03  0.17648079020E+03  0.19026738105E+04  0.19965545595E+04  0.25500000920E-02 0. -1.
       -2    1    3    3    0  502 -0.57872014876E+03 -0.17648079020E+03 -0.18092211164E+04  0.19077063526E+04  0.25500000920E-02 0.  1.
</event>
<event>
 5   0  0.3690572E-08  0.3841743E+04  0.7818609E-02  0.8037256E-01
       -2   -1    0    0    0  501  0.00000000000E+00  0.00000000000E+00  0.18984828962E+04  0.18984828962E+04  0.25500000920E-02 0. -1.
        2   -1    0    0  501    0  0.00000000000E+00  0.00000000000E+00 -0.19435237960E+04  0.19435237960E+04  0.25500000920E-02 0.  1.
    10030    2    1    2    0    0  0.00000000000E+00  0.00000000000E+00 -0.45040899833E+02  0.38420066922E+04  0.38417426697E+04 0.  0.
        3    1    3    3  502    0  0.67862000210E+03  0.17558594086E+04  0.35983984859E+03  0.19165208313E+04  0.10100000352E+00 0.  1.
       -3    1    3    3    0  502 -0.67862000210E+03 -0.17558594086E+04 -0.40488074843E+03  0.19254858609E+04  0.10100000352E+00 0. -1.
</event>
<event>
 5   0  0.3872969E-08  0.3899428E+04  0.7818609E-02  0.8025148E-01
        2   -1    0    0  501    0  0.00000000000E+00  0.00000000000E+00  0.28445402499E+04  0.28445402499E+04  0.25500000920E-02 0.  1.
       -2   -1    0    0    0  501  0.00000000000E+00  0.00000000000E+00 -0.13363793195E+04  0.13363793195E+04  0.25500000920E-02 0. -1.
    10030    2    1    2    0    0  0.00000000000E+00  0.00000000000E+00  0.15081609304E+04  0.41809195693E+04  0.38994280418E+04 0.  0.
        2    1    3    3  502    0  0.87621847326E+03  0.14664738552E+04  0.17616407046E+04  0.24539116433E+04  0.25500000920E-02 0. -1.
       -2    1    3    3    0  502 -0.87621847326E+03 -0.14664738552E+04 -0.25347977422E+03  0.17270079261E+04  0.25500000920E-02 0.  1.
</event>
<event>
 5   0  0.3769985E-08  0.3897645E+04  0.7818609E-02  0.8025519E-01
        2   -1    0    0  501    0  0.00000000000E+00  0.00000000000E+00  0.26819813480E+04  0.26819813480E+04  0.25500000920E-02 0.  1.
       -2   -1    0    0    0  501  0.00000000000E+00  0.00000000000E+00 -0.14160831117E+04  0.14160831117E+04  0.25500000920E-02 0. -1.
    10030    2    1    2    0    0  0.00000000000E+00  0.00000000000E+00  0.12658982363E+04  0.40980644597E+04  0.38976446697E+04 0.  0.
        1    1    3    3  502    0  0.91679131667E+02  0.90124760600E+03  0.24471469525E+04  0.26094406523E+04  0.50400001928E-02 0.  1.
       -1    1    3    3    0  502 -0.91679131667E+02 -0.90124760600E+03 -0.11812487162E+04  0.14886238074E+04  0.50400001928E-02 0. -1.
</event>
<event>
 5   0  0.1164500E-08  0.3908443E+04  0.7818609E-02  0.8023276E-01
        1   -1    0    0  501    0  0.00000000000E+00  0.00000000000E+00  0.15610027335E+04  0.15610027335E+04  0.50400001928E-02 0. -1.
       -1   -1    0    0    0  501  0.00000000000E+00  0.00000000000E+00 -0.24464922012E+04  0.24464922012E+04  0.50400001928E-02 0.  1.
    10030    2    1    2    0    0  0.00000000000E+00  0.00000000000E+00 -0.88548946769E+03  0.40074949347E+04  0.39084426635E+04 0.  0.
        2    1    3    3  502    0 -0.20440374060E+03 -0.31788869255E+03 -0.24086639412E+04  0.24381337313E+04  0.25500000920E-02 0.  1.
       -2    1    3    3    0  502  0.20440374060E+03  0.31788869255E+03  0.15231744735E+04  0.15693612034E+04  0.25500000920E-02 0. -1.
</event>
<event>
 5   0  0.3724293E-08  0.3896354E+04  0.7818609E-02  0.8025788E-01
        2   -1    0    0  501    0  0.00000000000E+00  0.00000000000E+00  0.16803449536E+04  0.16803449536E+04  0.25500000920E-02 0.  1.
       -2   -1    0    0    0  501  0.00000000000E+00  0.00000000000E+00 -0.22586991801E+04  0.22586991801E+04  0.25500000920E-02 0. -1.
    10030    2    1    2    0    0  0.00000000000E+00  0.00000000000E+00 -0.57835422651E+03  0.39390441336E+04  0.38963540747E+04 0.  0.
        4    1    3    3  502    0 -0.10914351804E+03  0.64978154040E+03 -0.21426392989E+04  0.22416585680E+04  0.12699999809E+01 0. -1.
       -4    1    3    3    0  502  0.10914351804E+03 -0.64978154040E+03  0.15642850723E+04  0.16973855656E+04  0.12699999809E+01 0.  1.
</event>
<event>
 5   0  0.1164500E-08  0.3943626E+04  0.7818609E-02  0.8016016E-01
        1   -1    0    0  501    0  0.00000000000E+00  0.00000000000E+00  0.12796148262E+04  0.12796148262E+04  0.50400001928E-02 0. -1.
       -1   -1    0    0    0  501  0.00000000000E+00  0.00000000000E+00 -0.30384507822E+04  0.30384507822E+04  0.50400001928E-02 0.  1.
    10030    2    1    2    0    0  0.00000000000E+00  0.00000000000E+00 -0.17588359560E+04  0.43180656084E+04  0.39436260825E+04 0.  0.
        1    1    3    3  502    0 -0.12908363665E+04 -0.27285370135E+03 -0.24839330926E+04  0.28125844478E+04  0.50400001928E-02 0.  1.
       -1    1    3    3    0  502  0.12908363665E+04  0.27285370135E+03  0.72509713663E+03  0.15054811606E+04  0.50400001928E-02 0. -1.
</event>
<event>
 5   0  0.1164500E-08  0.3897529E+04  0.7818609E-02  0.8025543E-01
        1   -1    0    0  501    0  0.00000000000E+00  0.00000000000E+00  0.23247382745E+04  0.23247382745E+04  0.50400001928E-02 0. -1.
       -1   -1    0    0    0  501  0.00000000000E+00  0.00000000000E+00 -0.16335961046E+04  0.16335961046E+04  0.50400001928E-02 0.  1.
    10030    2    1    2    0    0  0.00000000000E+00  0.00000000000E+00  0.69114216988E+03  0.39583343791E+04  0.38975291606E+04 0.  0.
        4    1    3    3  502    0 -0.17046076450E+03  0.20736911191E+03 -0.16147289857E+04  0.16368903845E+04  0.12699999809E+01 0.  1.
       -4    1    3    3    0  502  0.17046076450E+03 -0.20736911191E+03  0.23058711556E+04  0.23214439945E+04  0.12699999809E+01 0. -1.
</event>
<event>
 5   0  0.3690572E-08  0.3893725E+04  0.7818609E-02  0.8026336E-01
        2   -1    0    0  501    0  0.00000000000E+00  0.00000000000E+00  0.23508852413E+04  0.23508852413E+04  0.25500000920E-02 0. -1.
       -2   -1    0    0    0  501  0.00000000000E+00  0.00000000000E+00 -0.16122748417E+04  0.16122748418E+04  0.25500000920E-02 0.  1.
    10030    2    1    2    0    0  0.00000000000E+00  0.00000000000E+00  0.73861039959E+03  0.39631600831E+04  0.38937247620E+04 0.  0.
        3    1    3    3  502    0  0.45794197862E+03  0.72667969359E+03 -0.14089910933E+04  0.16501606419E+04  0.10100000352E+00 0.  1.
       -3    1    3    3    0  502 -0.45794197862E+03 -0.72667969359E+03  0.21476014929E+04  0.23129994412E+04  0.10100000352E+00 0. -1.
</event>
<event>
 5   0  0.1164500E-08  0.3901012E+04  0.7818609E-02  0.8024819E-01
       -1   -1    0    0    0  501  0.00000000000E+00  0.00000000000E+00  0.19637634302E+04  0.19637634302E+04  0.50400001928E-02 0.  1.
        1   -1    0    0  501    0  0.00000000000E+00  0.00000000000E+00 -0.19373377915E+04  0.19373377915E+04  0.50400001928E-02 0. -1.
    10030    2    1    2    0    0  0.00000000000E+00  0.00000000000E+00  0.26425638752E+02  0.39011012217E+04  0.39010117185E+04 0.  0.
        5    1    3    3  502    0 -0.93746107779E+03 -0.16053742658E+04  0.60347309942E+03  0.19545489703E+04  0.46999998093E+01 0.  1.
       -5    1    3    3    0  502  0.93746107779E+03  0.16053742658E+04 -0.57704746067E+03  0.19465522514E+04  0.46999998093E+01 0. -1.
</event>
<event>
 5   0  0.3690572E-08  0.3882815E+04  0.7818609E-02  0.8028613E-01
       -2   -1    0    0    0  501  0.00000000000E+00  0.00000000000E+00  0.16318974200E+04  0.16318974200E+04  0.25500000920E-02 0. -1.
        2   -1    0    0  501    0  0.00000000000E+00  0.00000000000E+00 -0.23096195931E+04  0.23096195931E+04  0.25500000920E-02 0.  1.
    10030    2    1    2    0    0  0.00000000000E+00  0.00000000000E+00 -0.67772217311E+03  0.39415170132E+04  0.38828145747E+04 0.  0.
        3    1    3    3  502    0  0.88176626952E+03  0.15470738611E+04  0.44620887479E+03  0.18357700444E+04  0.10100000352E+00 0. -1.
       -3    1    3    3    0  502 -0.88176626952E+03 -0.15470738611E+04 -0.11239310479E+04  0.21057469688E+04  0.10100000352E+00 0.  1.
</event>
<event>
 5   0  0.1164500E-08  0.3911517E+04  0.7818609E-02  0.8022638E-01
       -1   -1    0    0    0  501  0.00000000000E+00  0.00000000000E+00  0.34484038129E+04  0.34484038129E+04  0.50400001928E-02 0. -1.
        1   -1    0    0  501    0  0.00000000000E+00  0.00000000000E+00 -0.11092064519E+04  0.11092064519E+04  0.50400001928E-02 0.  1.
    10030    2    1    2    0    0  0.00000000000E+00  0.00000000000E+00  0.23391973609E+04  0.45576102648E+04  0.39115172290E+04 0.  0.
        1    1    3    3  502    0  0.38106455021E+03 -0.21232642102E+03  0.33909956050E+04  0.34189390011E+04  0.50400001928E-02 0. -1.
       -1    1    3    3    0  502 -0.38106455021E+03  0.21232642102E+03 -0.10517982441E+04  0.11386712637E+04  0.50400001928E-02 0.  1.
</event>
<event>
 5   0  0.1164500E-08  0.3896498E+04  0.7818609E-02  0.8025758E-01
       -3   -1    0    0    0  501  0.00000000000E+00  0.00000000000E+00  0.16896145216E+04  0.16896145246E+04  0.10100000352E+00 0.  1.
        3   -1    0    0  501    0  0.00000000000E+00  0.00000000000E+00 -0.22464730790E+04  0.22464730812E+04  0.10100000352E+00 0. -1.
    10030    2    1    2    0    0  0.00000000000E+00  0.00000000000E+00 -0.55685855737E+03  0.39360876059E+04  0.38964976823E+04 0.  0.
        3    1    3    3  502    0  0.71537665695E+03 -0.13980017109E+04 -0.14431845017E+04  0.21328277148E+04  0.10100000352E+00 0. -1.
       -3    1    3    3    0  502 -0.71537665695E+03  0.13980017109E+04  0.88632594429E+03  0.18032598911E+04  0.10100000352E+00 0.  1.
</event>
<event>
 5   0  0.3669347E-08  0.3865993E+04  0.7818609E-02  0.8032140E-01
       -2   -1    0    0    0  501  0.00000000000E+00  0.00000000000E+00  0.15036460874E+04  0.15036460874E+04  0.25500000920E-02 0.  1.
        2   -1    0    0  501    0  0.00000000000E+00  0.00000000000E+00 -0.24849428166E+04  0.24849428166E+04  0.25500000920E-02 0. -1.
    10030    2    1    2    0    0  0.00000000000E+00  0.00000000000E+00 -0.98129672919E+03  0.39885889040E+04  0.38659925212E+04 0.  0.
        5    1    3    3  502    0 -0.17996559870E+04 -0.50303889589E+03  0.19650209015E+02  0.18687477152E+04  0.46999998093E+01 0.  1.
       -5    1    3    3    0  502  0.17996559870E+04  0.50303889589E+03 -0.10009469382E+04  0.21198411888E+04  0.46999998093E+01 0. -1.
</event>
<event>
 5   0  0.1164500E-08  0.3898342E+04  0.7818609E-02  0.8025374E-01
        1   -1    0    0  501    0  0.00000000000E+00  0.00000000000E+00  0.19080852502E+04  0.19080852502E+04  0.50400001928E-02 0. -1.
       -1   -1    0    0    0  501  0.00000000000E+00  0.00000000000E+00 -0.19911413296E+04  0.19911413296E+04  0.50400001928E-02 0.  1.
    10030    2    1    2    0    0  0.00000000000E+00  0.00000000000E+00 -0.83056079384E+02  0.38992265798E+04  0.38983419050E+04 0.  0.
        1    1    3    3  502    0  0.18796615274E+04  0.51582788363E+03 -0.33681595513E+02  0.19494461555E+04  0.50400001928E-02 0.  1.
       -1    1    3    3    0  502 -0.18796615274E+04 -0.51582788363E+03 -0.49374483870E+02  0.19497804243E+04  0.50400001928E-02 0. -1.
</event>
<event>
 5   0  0.3669347E-08  0.3918028E+04  0.7818609E-02  0.8021290E-01
        2   -1    0    0  501    0  0.00000000000E+00  0.00000000000E+00  0.27545838758E+04  0.27545838758E+04  0.25500000920E-02 0. -1.
       -2   -1    0    0    0  501  0.00000000000E+00  0.00000000000E+00 -0.13932180015E+04  0.13932180015E+04  0.25500000920E-02 0.  1.
    10030    2    1    2    0    0  0.00000000000E+00  0.00000000000E+00  0.13613658744E+04  0.41478018773E+04  0.39180279950E+04 0.  0.
        5    1    3    3  502    0  0.18133862771E+04 -0.51028008548E+03  0.12497559338E+04  0.22606785574E+04  0.46999998093E+01 0. -1.
       -5    1    3    3    0  502 -0.18133862771E+04  0.51028008548E+03  0.11160994051E+03  0.18871233199E+04  0.46999998093E+01 0.  1.
</event>
<event>
 5   0  0.1164500E-08  0.3909752E+04  0.7818609E-02  0.8023004E-01
        1   -1    0    0  501    0  0.00000000000E+00  0.00000000000E+00  0.18503862147E+04  0.18503862147E+04  0.50400001928E-02 0.  1.
       -1   -1    0    0    0  501  0.00000000000E+00  0.00000000000E+00 -0.20652660626E+04  0.20652660626E+04  0.50400001928E-02 0. -1.
    10030    2    1    2    0    0  0.00000000000E+00  0.00000000000E+00 -0.21487984783E+03  0.39156522773E+04  0.39097518345E+04 0.  0.
        2    1    3    3  502    0 -0.16462014250E+04 -0.65549307643E+03  0.71957232591E+03  0.19124420612E+04  0.25500000920E-02 0.  1.
       -2    1    3    3    0  502  0.16462014250E+04  0.65549307643E+03 -0.93445217374E+03  0.20032102161E+04  0.25500000920E-02 0. -1.
</event>
<event>
 5   0  0.1164500E-08  0.3894805E+04  0.7818609E-02  0.8026111E-01
        1   -1    0    0  501    0  0.00000000000E+00  0.00000000000E+00  0.19141124993E+04  0.19141124993E+04  0.50400001928E-02 0. -1.
       -1   -1    0    0    0  501  0.00000000000E+00  0.00000000000E+00 -0.19812713906E+04  0.19812713906E+04  0.50400001928E-02 0.  1.
    10030    2    1    2    0    0  0.00000000000E+00  0.00000000000E+00 -0.67158891313E+02  0.38953838899E+04  0.38948049159E+04 0.  0.
        3    1    3    3  502    0  0.56979067889E+03 -0.14451946277E+04 -0.12081165657E+04  0.19679417106E+04  0.10100000352E+00 0.  1.
       -3    1    3    3    0  502 -0.56979067889E+03  0.14451946277E+04  0.11409576744E+04  0.19274421793E+04  0.10100000352E+00 0. -1.
</event>
<event>
 5   0  0.1164500E-08  0.3918200E+04  0.7818609E-02  0.8021255E-01
        1   -1    0    0  501    0  0.00000000000E+00  0.00000000000E+00  0.19651575072E+04  0.19651575072E+04  0.50400001928E-02 0. -1.
       -1   -1    0    0    0  501  0.00000000000E+00  0.00000000000E+00 -0.19530613626E+04  0.19530613626E+04  0.50400001928E-02 0.  1.
    10030    2    1    2    0    0  0.00000000000E+00  0.00000000000E+00  0.12096144524E+02  0.39182188698E+04  0.39182001984E+04 0.  0.
        5    1    3    3  502    0  0.72679477559E+03  0.61020627800E+03  0.17199607763E+04  0.19644005471E+04  0.46999998093E+01 0. -1.
       -5    1    3    3    0  502 -0.72679477559E+03 -0.61020627800E+03 -0.17078646318E+04  0.19538183227E+04  0.46999998093E+01 0.  1.
</event>
<event>
 5   0  0.3872969E-08  0.3908138E+04  0.7818609E-02  0.8023339E-01
        2   -1    0    0  501    0  0.00000000000E+00  0.00000000000E+00  0.16978061900E+04  0.16978061900E+04  0.25500000920E-02 0. -1.
       -2   -1    0    0    0  501  0.00000000000E+00  0.00000000000E+00 -0.22490116216E+04  0.22490116216E+04  0.25500000920E-02 0.  1.
    10030    2    1    2    0    0  0.00000000000E+00  0.00000000000E+00 -0.55120543161E+03  0.39468178116E+04  0.39081381002E+04 0.  0.
        2    1    3    3  502    0 -0.11888674291E+04  0.40217467105E+03 -0.17881697265E+04  0.21846512767E+04  0.25500000920E-02 0.  1.
       -2    1    3    3    0  502  0.11888674291E+04 -0.40217467105E+03  0.12369642949E+04  0.17621665349E+04  0.25500000920E-02 0. -1.
</event>
<event>
 5   0  0.3769985E-08  0.3898630E+04  0.7818609E-02  0.8025314E-01
       -2   -1    0    0    0  501  0.00000000000E+00  0.00000000000E+00  0.19588173297E+04  0.19588173297E+04  0.25500000920E-02 0. -1.
        2   -1    0    0  501    0  0.00000000000E+00  0.00000000000E+00 -0.19398586560E+04  0.19398586560E+04  0.25500000920E-02 0.  1.
    10030    2    1    2    0    0  0.00000000000E+00  0.00000000000E+00  0.18958673754E+02  0.38986759857E+04  0.38986298888E+04 0.  0.
        1    1    3    3  502    0 -0.17549441774E+04  0.68692622776E+03 -0.48865509494E+03  0.19469156402E+04  0.50400001928E-02 0. -1.
       -1    1    3    3    0  502  0.17549441774E+04 -0.68692622776E+03  0.50761376870E+03  0.19517603455E+04  0.50400001928E-02 0.  1.
</event>
<event>
 5   0  0.1164500E-08  0.3907959E+04  0.7818609E-02  0.8023376E-01
        1   -1    0    0  501    0  0.00000000000E+00  0.00000000000E+00  0.27518916598E+04  0.27518916598E+04  0.50400001928E-02 0.  1.
       -1   -1    0    0    0  501  0.00000000000E+00  0.00000000000E+00 -0.13874223506E+04  0.13874223506E+04  0.50400001928E-02 0. -1.
    10030    2    1    2    0    0  0.00000000000E+00  0.00000000000E+00  0.13644693092E+04  0.41393140105E+04  0.39079590557E+04 0.  0.
        1    1    3    3  502    0  0.11519595150E+03  0.17129016075E+04 -0.30613889115E+03  0.17438529310E+04  0.50400001928E-02 0. -1.
       -1    1    3    3    0  502 -0.11519595150E+03 -0.17129016075E+04  0.16706082004E+04  0.23954610795E+04  0.50400001928E-02 0.  1.
</event>
<event>
 5   0  0.1164500E-08  0.3901314E+04  0.7818609E-02  0.8024756E-01
       -1   -1    0    0    0  501  0.00000000000E+00  0.00000000000E+00  0.15648435757E+04  0.15648435757E+04  0.50400001928E-02 0. -1.
        1   -1    0    0  501    0  0.00000000000E+00  0.00000000000E+00 -0.24315933582E+04  0.24315933582E+04  0.50400001928E-02 0.  1.
    10030    2    1    2    0    0  0.00000000000E+00  0.00000000000E+00 -0.86674978258E+03  0.39964369339E+04  0.39013142633E+04 0.  0.
        3    1    3    3  502    0  0.16151674910E+04 -0.10385814808E+04 -0.78473309045E+03  0.20744212565E+04  0.10100000352E+00 0.  1.
       -3    1    3    3    0  502 -0.16151674910E+04  0.10385814808E+04 -0.82016692136E+02  0.19220156774E+04  0.10100000352E+00 0. -1.
</event>
<event>
 5   0  0.1164500E-08  0.3933767E+04  0.7818609E-02  0.8018043E-01
       -1   -1    0    0    0  501  0.00000000000E+00  0.00000000000E+00  0.13206547576E+04  0.13206547576E+04  0.50400001928E-02 0. -1.
        1   -1    0    0  501    0  0.00000000000E+00  0.00000000000E+00 -0.29293284062E+04  0.29293284062E+04  0.50400001928E-02 0.  1.
    10030    2    1    2    0    0  0.00000000000E+00  0.00000000000E+00 -0.16086736486E+04  0.42499831638E+04  0.39337674035E+04 0.  0.
        3    1    3    3  502    0 -0.63069379996E+02 -0.17662079013E+04  0.12828223565E+03  0.17719831939E+04  0.10100000352E+00 0. -1.
       -3    1    3    3    0  502  0.63069379996E+02  0.17662079013E+04 -0.17369558842E+04  0.24779999699E+04  0.10100000352E+00 0.  1.
</event>
<event>
 5   0  0.1164500E-08  0.3902379E+04  0.7818609E-02  0.8024535E-01
       -1   -1    0    0    0  501  0.00000000000E+00  0.00000000000E+00  0.16491582403E+04  0.16491582403E+04  0.50400001928E-02 0.  1.
        1   -1    0    0  501    0  0.00000000000E+00  0.00000000000E+00 -0.23085354190E+04  0.23085354190E+04  0.50400001928E-02 0. -1.
    10030    2    1    2    0    0  0.00000000000E+00  0.00000000000E+00 -0.65937717863E+03  0.39576936593E+04  0.39023788690E+04 0.  0.
        4    1    3    3  502    0  0.33384299712E+03 -0.16014377511E+04 -0.14082882629E+04  0.21585484617E+04  0.12699999809E+01 0. -1.
       -4    1    3    3    0  502 -0.33384299712E+03  0.16014377511E+04  0.74891108423E+03  0.17991451976E+04  0.12699999809E+01 0.  1.
</event>
<event>
 5   0  0.3769985E-08  0.3900259E+04  0.7818609E-02  0.8024975E-01
       -2   -1    0    0    0  501  0.00000000000E+00  0.00000000000E+00  0.23700992702E+04  0.23700992702E+04  0.25500000920E-02 0. -1.
        2   -1    0    0  501    0  0.00000000000E+00  0.00000000000E+00 -0.16045764665E+04  0.16045764665E+04  0.25500000920E-02 0.  1.
    10030    2    1    2    0    0  0.00000000000E+00  0.00000000000E+00  0.76552280373E+03  0.39746757366E+04  0.39002592284E+04 0.  0.
        1    1    3    3  502    0  0.78561228359E+03  0.73196953569E+03 -0.12761928131E+04  0.16678231793E+04  0.50400001928E-02 0.  1.
       -1    1    3    3    0  502 -0.78561228359E+03 -0.73196953569E+03  0.20417156168E+04  0.23068525573E+04  0.50400001928E-02 0. -1.
</event>
<event>
 5   0  0.3690572E-08  0.3900559E+04  0.7818609E-02  0.8024913E-01
       -2   -1    0    0    0  501  0.00000000000E+00  0.00000000000E+00  0.28642534612E+04  0.28642534612E+04  0.25500000920E-02 0. -1.
        2   -1    0    0  501    0  0.00000000000E+00  0.00000000000E+00 -0.13279515662E+04  0.13279515662E+04  0.25500000920E-02 0.  1.
    10030    2    1    2    0    0  0.00000000000E+00  0.00000000000E+00  0.15363018950E+04  0.41922050273E+04  0.39005588674E+04 0.  0.
        3    1    3    3  502    0  0.13433581043E+04  0.11993556581E+04 -0.36510363468E+02  0.18012212546E+04  0.10100000352E+00 0.  1.
       -3    1    3    3    0  502 -0.13433581043E+04 -0.11993556581E+04  0.15728122585E+04  0.23909837728E+04  0.10100000352E+00 0. -1.
</event>
<event>
 5   0  0.1164500E-08  0.3929006E+04  0.7818609E-02  0.8019024E-01
       -1   -1    0    0    0  501  0.00000000000E+00  0.00000000000E+00  0.27483273330E+04  0.27483273330E+04  0.50400001928E-02 0.  1.
        1   -1    0    0  501    0  0.00000000000E+00  0.00000000000E+00 -0.14042254145E+04  0.14042254145E+04  0.50400001928E-02 0. -1.
    10030    2    1    2    0    0  0.00000000000E+00  0.00000000000E+00  0.13441019184E+04  0.41525527475E+04  0.39290055171E+04 0.  0.
        3    1    3    3  502    0 -0.11904461093E+04  0.15394161739E+04  0.95625001983E+03  0.21682661751E+04  0.10100000352E+00 0.  1.
       -3    1    3    3    0  502  0.11904461093E+04 -0.15394161739E+04  0.38785189862E+03  0.19842865723E+04  0.10100000352E+00 0. -1.
</event>
<event>
 5   0  0.3724293E-08  0.3897237E+04  0.7818609E-02  0.8025604E-01
       -2   -1    0    0    0  501  0.00000000000E+00  0.00000000000E+00  0.27581775360E+04  0.27581775360E+04  0.25500000920E-02 0. -1.
        2   -1    0    0  501    0  0.00000000000E+00  0.00000000000E+00 -0.13766752978E+04  0.13766752978E+04  0.25500000920E-02 0.  1.
    10030    2    1    2    0    0  0.00000000000E+00  0.00000000000E+00  0.13815022382E+04  0.41348528338E+04  0.38972374219E+04 0.  0.
        4    1    3    3  502    0  0.40805313910E+03  0.51010295881E+03  0.26385493734E+04  0.27182083808E+04  0.12699999809E+01 0. -1.
       -4    1    3    3    0  502 -0.40805313910E+03 -0.51010295881E+03 -0.12570471352E+04  0.14166444529E+04  0.12699999809E+01 0.  1.
</event>
<event>
 5   0  0.1164500E-08  0.3902528E+04  0.7818609E-02  0.8024504E-01
       -1   -1    0    0    0  501  0.00000000000E+00  0.00000000000E+00  0.34039288448E+04  0.34039288448E+04  0.50400001928E-02 0. -1.
        1   -1    0    0  501    0  0.00000000000E+00  0.00000000000E+00 -0.11185404360E+04  0.11185404360E+04  0.50400001928E-02 0.  1.
    10030    2    1    2    0    0  0.00000000000E+00  0.00000000000E+00  0.22853884088E+04  0.45224692808E+04  0.39025284389E+04 0.  0.
        5    1    3    3  502    0 -0.60653089557E+03  0.51875504334E+03 -0.92072840177E+03  0.12185029348E+04  0.46999998093E+01 0.  1.
       -5    1    3    3    0  502  0.60653089557E+03 -0.51875504334E+03  0.32061168106E+04  0.33039663460E+04  0.46999998093E+01 0. -1.
</event>
<event>
 5   0  0.1164500E-08  0.3899836E+04  0.7818609E-02  0.8025063E-01
       -1   -1    0    0    0  501  0.00000000000E+00  0.00000000000E+00  0.15333342897E+04  0.15333342897E+04  0.50400001928E-02 0.  1.
        1   -1    0    0  501    0  0.00000000000E+00  0.00000000000E+00 -0.24796816743E+04  0.24796816743E+04  0.50400001928E-02 0. -1.
    10030    2    1    2    0    0  0.00000000000E+00  0.00000000000E+00 -0.94634738458E+03  0.40130159640E+04  0.38998363754E+04 0.  0.
        5    1    3    3  502    0 -0.14774112117E+04 -0.12295462431E+04 -0.81076649723E+03  0.20861189457E+04  0.46999998093E+01 0.  1.
       -5    1    3    3    0  502  0.14774112117E+04  0.12295462431E+04 -0.13558088735E+03  0.19268970184E+04  0.46999998093E+01 0. -1.
</event>
<event>
 5   0  0.3669347E-08  0.3902074E+04  0.7818609E-02  0.8024598E-01
       -2   -1    0    0    0  501  0.00000000000E+00  0.00000000000E+00  0.16954737188E+04  0.16954737188E+04  0.25500000920E-02 0. -1.
        2   -1    0    0  501    0  0.00000000000E+00  0.00000000000E+00 -0.22451217169E+04  0.22451217169E+04  0.25500000920E-02 0.  1.
    10030    2    1    2    0    0  0.00000000000E+00  0.00000000000E+00 -0.54964799809E+03  0.39405954357E+04  0.39020737392E+04 0.  0.
        5    1    3    3  502    0 -0.37113358878E+03  0.13249428538E+04  0.11220554978E+04  0.17754560926E+04  0.46999998093E+01 0. -1.
       -5    1    3    3    0  502  0.37113358878E+03 -0.13249428538E+04 -0.16717034959E+04  0.21651393431E+04  0.46999998093E+01 0.  1.
</event>
<event>
 5   0  0.1164500E-08  0.3894305E+04  0.7818609E-02  0.8026215E-01
       -1   -1    0    0    0  501  0.00000000000E+00  0.00000000000E+00  0.23219394476E+04  0.23219394476E+04  0.50400001928E-02 0.  1.
        1   -1    0    0  501    0  0.00000000000E+00  0.00000000000E+00 -0.16328603254E+04  0.16328603254E+04  0.50400001928E-02 0. -1.
    10030    2    1    2    0    0  0.00000000000E+00  0.00000000000E+00  0.68907912225E+03  0.39547997730E+04  0.38943049711E+04 0.  0.
        4    1    3    3  502    0 -0.10938885007E+04  0.86089920930E+03 -0.10381025452E+04  0.17364901404E+04  0.12699999809E+01 0. -1.
       -4    1    3    3    0  502  0.10938885007E+04 -0.86089920930E+03  0.17271816675E+04  0.22183096326E+04  0.12699999809E+01 0.  1.
</event>
<event>
 5   0  0.1164500E-08  0.3881071E+04  0.7818609E-02  0.8028978E-01
       -1   -1    0    0    0  501  0.00000000000E+00  0.00000000000E+00  0.13133401670E+04  0.13133401670E+04  0.50400001928E-02 0. -1.
        1   -1    0    0  501    0  0.00000000000E+00  0.00000000000E+00 -0.28672522497E+04  0.28672522497E+04  0.50400001928E-02 0.  1.
    10030    2    1    2    0    0  0.00000000000E+00  0.00000000000E+00 -0.15539120827E+04  0.41805924166E+04  0.38810707534E+04 0.  0.
        5    1    3    3  502    0  0.46033762572E+03  0.15971743563E+04  0.30171455673E+03  0.16893579899E+04  0.46999998093E+01 0. -1.
       -5    1    3    3    0  502 -0.46033762572E+03 -0.15971743563E+04 -0.18556266395E+04  0.24912344268E+04  0.46999998093E+01 0.  1.
</event>
<event>
 5   0  0.3872969E-08  0.3901090E+04  0.7818609E-02  0.8024803E-01
       -2   -1    0    0    0  501  0.00000000000E+00  0.00000000000E+00  0.15747028997E+04  0.15747028997E+04  0.25500000920E-02 0.  1.
        2   -1    0    0  501    0  0.00000000000E+00  0.00000000000E+00 -0.24160906502E+04  0.24160906502E+04  0.25500000920E-02 0. -1.
    10030    2    1    2    0    0  0.00000000000E+00  0.00000000000E+00 -0.84138775050E+03  0.39907935500E+04  0.39010895673E+04 0.  0.
        2    1    3    3  502    0  0.94574426295E+03 -0.13355889032E+04 -0.15064160340E+04  0.22243019572E+04  0.25500000920E-02 0.  1.
       -2    1    3    3    0  502 -0.94574426295E+03  0.13355889032E+04  0.66502828353E+03  0.17664915928E+04  0.25500000920E-02 0. -1.
</event>
<event>
 5   0  0.1164500E-08  0.3908403E+04  0.7818609E-02  0.8023284E-01
        1   -1    0    0  501    0  0.00000000000E+00  0.00000000000E+00  0.24166063330E+04  0.24166063330E+04  0.50400001928E-02 0.  1.
       -1   -1    0    0    0  501  0.00000000000E+00  0.00000000000E+00 -0.15802757688E+04  0.15802757688E+04  0.50400001928E-02 0. -1.
    10030    2    1    2    0    0  0.00000000000E+00  0.00000000000E+00  0.83633056415E+03  0.39968821018E+04  0.39084034749E+04 0.  0.
        1    1    3    3  502    0 -0.10480559561E+04 -0.10284199959E+04 -0.90053647588E+03  0.17225083220E+04  0.50400001928E-02 0. -1.
       -1    1    3    3    0  502  0.10480559561E+04  0.10284199959E+04  0.17368670400E+04  0.22743737797E+04  0.50400001928E-02 0.  1.
</event>
<event>
 5   0  0.3769985E-08  0.3907632E+04  0.7818609E-02  0.8023444E-01
       -2   -1    0    0    0  501  0.00000000000E+00  0.00000000000E+00  0.16446746001E+04  0.16446746001E+04  0.25500000920E-02 0.  1.
        2   -1    0    0  501    0  0.00000000000E+00  0.00000000000E+00 -0.23210646451E+04  0.23210646451E+04  0.25500000920E-02 0. -1.
    10030    2    1    2    0    0  0.00000000000E+00  0.00000000000E+00 -0.67639004503E+03  0.39657392452E+04  0.39076315420E+04 0.  0.
        1    1    3    3  502    0 -0.12681170035E+04 -0.13382551869E+04 -0.99461168725E+03  0.20948269829E+04  0.50400001928E-02 0. -1.
       -1    1    3    3    0  502  0.12681170035E+04  0.13382551869E+04  0.31822164221E+03  0.18709122623E+04  0.50400001928E-02 0.  1.
</event>
<event>
 5   0  0.1164500E-08  0.3937619E+04  0.7818609E-02  0.8017250E-01
        1   -1    0    0  501    0  0.00000000000E+00  0.00000000000E+00  0.19519816977E+04  0.19519816977E+04  0.50400001928E-02 0.  1.
       -1   -1    0    0    0  501  0.00000000000E+00  0.00000000000E+00 -0.19857819967E+04  0.19857819968E+04  0.50400001928E-02 0. -1.
    10030    2    1    2    0    0  0.00000000000E+00  0.00000000000E+00 -0.33800299042E+02  0.39377636945E+04  0.39376186272E+04 0.  0.
        2    1    3    3  502    0  0.13852661782E+03  0.12172302731E+04 -0.15581807790E+04  0.19821116269E+04  0.25500000920E-02 0. -1.
       -2    1    3    3    0  502 -0.13852661782E+03 -0.12172302731E+04  0.15243804799E+04  0.19556520675E+04  0.25500000920E-02 0.  1.
</event>
<event>
 5   0  0.1164500E-08  0.3903273E+04  0.7818609E-02  0.8024349E-01
        1   -1    0    0  501    0  0.00000000000E+00  0.00000000000E+00  0.13146884870E+04  0.13146884871E+04  0.50400001928E-02 0. -1.
       -1   -1    0    0    0  501  0.00000000000E+00  0.00000000000E+00 -0.28971766572E+04  0.28971766572E+04  0.50400001928E-02 0.  1.
    10030    2    1    2    0    0  0.00000000000E+00  0.00000000000E+00 -0.15824881702E+04  0.42118651443E+04  0.39032728812E+04 0.  0.
        4    1    3    3  502    0 -0.15539299810E+04 -0.97519940059E+03 -0.15095859435E+04  0.23758290323E+04  0.12699999809E+01 0.  1.
       -4    1    3    3    0  502  0.15539299810E+04  0.97519940059E+03 -0.72902226624E+02  0.18360361120E+04  0.12699999809E+01 0. -1.
</event>
<event>
 5   0  0.3690572E-08  0.3903078E+04  0.7818609E-02  0.8024389E-01
        2   -1    0    0  501    0  0.00000000000E+00  0.00000000000E+00  0.16678017992E+04  0.16678017992E+04  0.25500000920E-02 0.  1.
       -2   -1    0    0    0  501  0.00000000000E+00  0.00000000000E+00 -0.22835474932E+04  0.22835474932E+04  0.25500000920E-02 0. -1.
    10030    2    1    2    0    0  0.00000000000E+00  0.00000000000E+00 -0.61574569393E+03  0.39513492924E+04  0.39030780765E+04 0.  0.
        3    1    3    3  502    0  0.17980129800E+04 -0.58052994664E+03 -0.80242126155E+03  0.20527409935E+04  0.10100000352E+00 0.  1.
       -3    1    3    3    0  502 -0.17980129800E+04  0.58052994664E+03  0.18667556762E+03  0.18986082989E+04  0.10100000352E+00 0. -1.
</event>
<event>
 5   0  0.1164500E-08  0.3907794E+04  0.7818609E-02  0.8023410E-01
        1   -1    0    0  501    0  0.00000000000E+00  0.00000000000E+00  0.30621666205E+04  0.30621666205E+04  0.50400001928E-02 0.  1.
       -1   -1    0    0    0  501  0.00000000000E+00  0.00000000000E+00 -0.12467359440E+04  0.12467359440E+04  0.50400001928E-02 0. -1.
    10030    2    1    2    0    0  0.00000000000E+00  0.00000000000E+00  0.18154306765E+04  0.43089025645E+04  0.39077938493E+04 0.  0.
        3    1    3    3  502    0  0.12475997290E+04  0.10044173843E+04 -0.32623746931E+03  0.16345611834E+04  0.10100000352E+00 0. -1.
       -3    1    3    3    0  502 -0.12475997290E+04 -0.10044173843E+04  0.21416681458E+04  0.26743413811E+04  0.10100000352E+00 0.  1.
</event>
<event>
 5   0  0.3872969E-08  0.3914721E+04  0.7818609E-02  0.8021975E-01
        2   -1    0    0  501    0  0.00000000000E+00  0.00000000000E+00  0.21310785859E+04  0.21310785859E+04  0.25500000920E-02 0. -1.
       -2   -1    0    0    0  501  0.00000000000E+00  0.00000000000E+00 -0.17978030344E+04  0.17978030344E+04  0.25500000920E-02 0.  1.
    10030    2    1    2    0    0  0.00000000000E+00  0.00000000000E+00  0.33327555145E+03  0.39288816203E+04  0.39147207044E+04 0.  0.
        2    1    3    3  502    0 -0.23994263689E+03  0.16358618892E+04 -0.88483663658E+03  0.18752473072E+04  0.25500000920E-02 0.  1.
       -2    1    3    3    0  502  0.23994263689E+03 -0.16358618892E+04  0.12181121880E+04  0.20536343132E+04  0.25500000920E-02 0. -1.
</event>
<event>
 5   0  0.3690572E-08  0.3897341E+04  0.7818609E-02  0.8025583E-01
        2   -1    0    0  501    0  0.00000000000E+00  0.00000000000E+00  0.19307555117E+04  0.19307555117E+04  0.25500000920E-02 0.  1.
       -2   -1    0    0    0  501  0.00000000000E+00  0.00000000000E+00 -0.19667512839E+04  0.19667512839E+04  0.25500000920E-02 0. -1.
    10030    2    1    2    0    0  0.00000000000E+00  0.00000000000E+00 -0.35995772206E+02  0.38975067956E+04  0.38973405710E+04 0.  0.
        3    1    3    3  502    0 -0.88936256734E+03  0.17287760592E+04 -0.15098262448E+03  0.19499815902E+04  0.10100000352E+00 0. -1.
       -3    1    3    3    0  502  0.88936256734E+03 -0.17287760592E+04  0.11498685228E+03  0.19475252054E+04  0.10100000352E+00 0.  1.
</event>
<event>
 5   0  0.3872969E-08  0.3908183E+04  0.7818609E-02  0.8023330E-01
       -2   -1    0    0    0  501  0.00000000000E+00  0.00000000000E+00  0.13447860572E+04  0.13447860572E+04  0.25500000920E-02 0.  1.
        2   -1    0    0  501    0  0.00000000000E+00  0.00000000000E+00 -0.28394650045E+04  0.28394650045E+04  0.25500000920E-02 0. -1.
    10030    2    1    2    0    0  0.00000000000E+00  0.00000000000E+00 -0.14946789473E+04  0.41842510617E+04  0.39081826713E+04 0.  0.
        2    1    3    3  502    0 -0.82884895818E+03  0.17246373258E+04 -0.11717074935E+04  0.22437163259E+04  0.25500000920E-02 0. -1.
       -2    1    3    3    0  502  0.82884895818E+03 -0.17246373258E+04 -0.32297145379E+03  0.19405347358E+04  0.25500000920E-02 0.  1.
</event>
<event>
 5   0  0.3724293E-08  0.3904814E+04  0.7818609E-02  0.8024029E-01
       -2   -1    0    0    0  501  0.00000000000E+00  0.00000000000E+00  0.19415387597E+04  0.19415387597E+04  0.25500000920E-02 0. -1.
        2   -1    0    0  501    0  0.00000000000E+00  0.00000000000E+00 -0.19633360282E+04  0.19633360282E+04  0.25500000920E-02 0.  1.
    10030    2    1    2    0    0  0.00000000000E+00  0.00000000000E+00 -0.21797268497E+02  0.39048747879E+04  0.39048139506E+04 0.  0.
        4    1    3    3  502    0 -0.92331728481E+03 -0.14651470915E+04  0.89062557547E+03  0.19474050264E+04  0.12699999809E+01 0. -1.
       -4    1    3    3    0  502  0.92331728481E+03  0.14651470915E+04 -0.91242284397E+03  0.19574697615E+04  0.12699999809E+01 0.  1.
</event>
<event>
 5   0  0.1164500E-08  0.3899833E+04  0.7818609E-02  0.8025064E-01
        3   -1    0    0  501    0  0.00000000000E+00  0.00000000000E+00  0.20860187957E+04  0.20860187981E+04  0.10100000352E+00 0.  1.
       -3   -1    0    0    0  501  0.00000000000E+00  0.00000000000E+00 -0.18226939323E+04  0.18226939351E+04  0.10100000352E+00 0. -1.
    10030    2    1    2    0    0  0.00000000000E+00  0.00000000000E+00  0.26332486333E+03  0.39087127332E+04  0.38998327204E+04 0.  0.
        4    1    3    3  502    0 -0.12785394863E+04 -0.13671044018E+04 -0.41596483555E+03  0.19174634340E+04  0.12699999809E+01 0. -1.
       -4    1    3    3    0  502  0.12785394863E+04  0.13671044018E+04  0.67928969888E+03  0.19912492992E+04  0.12699999809E+01 0.  1.
</event>
<event>
 5   0  0.1164500E-08  0.3893081E+04  0.7818609E-02  0.8026470E-01
        1   -1    0    0  501    0  0.00000000000E+00  0.00000000000E+00  0.25107869122E+04  0.25107869122E+04  0.50400001928E-02 0. -1.
       -1   -1    0    0    0  501  0.00000000000E+00  0.00000000000E+00 -0.15090961969E+04  0.15090961969E+04  0.50400001928E-02 0.  1.
    10030    2    1    2    0    0  0.00000000000E+00  0.00000000000E+00  0.10016907153E+04  0.40198831090E+04  0.38930805182E+04 0.  0.
        1    1    3    3  502    0 -0.11535893595E+04 -0.86631517624E+03 -0.84852761087E+03  0.16736993461E+04  0.50400001928E-02 0.  1.
       -1    1    3    3    0  502  0.11535893595E+04  0.86631517624E+03  0.18502183262E+04  0.23461837629E+04  0.50400001928E-02 0. -1.
</event>
<event>
 5   0  0.3872969E-08  0.3869128E+04  0.7818609E-02  0.8031481E-01
       -2   -1    0    0    0  501  0.00000000000E+00  0.00000000000E+00  0.30361805630E+04  0.30361805630E+04  0.25500000920E-02 0. -1.
        2   -1    0    0  501    0  0.00000000000E+00  0.00000000000E+00 -0.12326468264E+04  0.12326468264E+04  0.25500000920E-02 0.  1.
    10030    2    1    2    0    0  0.00000000000E+00  0.00000000000E+00  0.18035337366E+04  0.42688273893E+04  0.38691282404E+04 0.  0.
        2    1    3    3  502    0 -0.73131568026E+03  0.17843301229E+04  0.73126532987E+03  0.20623786254E+04  0.25500000920E-02 0.  1.
       -2    1    3    3    0  502  0.73131568026E+03 -0.17843301229E+04  0.10722684067E+04  0.22064487639E+04  0.25500000920E-02 0. -1.
</event>
<event>
 5   0  0.3872969E-08  0.3892398E+04  0.7818609E-02  0.8026612E-01
        2   -1    0    0  501    0  0.00000000000E+00  0.00000000000E+00  0.17767513244E+04  0.17767513244E+04  0.25500000920E-02 0.  1.
       -2   -1    0    0    0  501  0.00000000000E+00  0.00000000000E+00 -0.21318064088E+04  0.21318064088E+04  0.25500000920E-02 0. -1.
    10030    2    1    2    0    0  0.00000000000E+00  0.00000000000E+00 -0.35505508439E+03  0.39085577333E+04  0.38923976469E+04 0.  0.
        2    1    3    3  502    0  0.43883517460E+03 -0.69276407051E+03  0.15947906853E+04  0.17932807080E+04  0.25500000920E-02 0.  1.
       -2    1    3    3    0  502 -0.43883517460E+03  0.69276407051E+03 -0.19498457697E+04  0.21152770252E+04  0.25500000920E-02 0. -1.
</event>
<event>
 5   0  0.3690572E-08  0.3899564E+04  0.7818609E-02  0.8025120E-01
       -2   -1    0    0    0  501  0.00000000000E+00  0.00000000000E+00  0.17982802312E+04  0.17982802312E+04  0.25500000920E-02 0.  1.
        2   -1    0    0  501    0  0.00000000000E+00  0.00000000000E+00 -0.21140472019E+04  0.21140472019E+04  0.25500000920E-02 0. -1.
    10030    2    1    2    0    0  0.00000000000E+00  0.00000000000E+00 -0.31576697067E+03  0.39123274332E+04  0.38995637146E+04 0.  0.
        3    1    3    3  502    0  0.62021618549E+03  0.18484487529E+04 -0.14305770238E+03  0.19549671162E+04  0.10100000352E+00 0.  1.
       -3    1    3    3    0  502 -0.62021618549E+03 -0.18484487529E+04 -0.17270926830E+03  0.19573603170E+04  0.10100000352E+00 0. -1.
</event>
<event>
 5   0  0.1164500E-08  0.3893038E+04  0.7818609E-02  0.8026479E-01
        1   -1    0    0  501    0  0.00000000000E+00  0.00000000000E+00  0.19705375843E+04  0.19705375843E+04  0.50400001928E-02 0.  1.
       -1   -1    0    0    0  501  0.00000000000E+00  0.00000000000E+00 -0.19227932253E+04  0.19227932253E+04  0.50400001928E-02 0. -1.
    10030    2    1    2    0    0  0.00000000000E+00  0.00000000000E+00  0.47744359012E+02  0.38933308096E+04  0.38930380514E+04 0.  0.
        2    1    3    3  502    0 -0.11222665680E+04 -0.70532082799E+02  0.16128526675E+04  0.19661512535E+04  0.25500000920E-02 0.  1.
       -2    1    3    3    0  502  0.11222665680E+04  0.70532082799E+02 -0.15651083085E+04  0.19271795562E+04  0.25500000920E-02 0. -1.
</event>
<event>
 5   0  0.1164500E-08  0.3896559E+04  0.7818609E-02  0.8025745E-01
       -1   -1    0    0    0  501  0.00000000000E+00  0.00000000000E+00  0.18146293057E+04  0.18146293057E+04  0.50400001928E-02 0.  1.
        1   -1    0    0  501    0  0.00000000000E+00  0.00000000000E+00 -0.20917736292E+04  0.20917736292E+04  0.50400001928E-02 0. -1.
    10030    2    1    2    0    0  0.00000000000E+00  0.00000000000E+00 -0.27714432348E+03  0.39064029349E+04  0.38965593687E+04 0.  0.
        1    1    3    3  502    0 -0.10376721506E+04 -0.15450345192E+04 -0.71613392176E+03  0.19941772618E+04  0.50400001928E-02 0. -1.
       -1    1    3    3    0  502  0.10376721506E+04  0.15450345192E+04  0.43898959829E+03  0.19122256731E+04  0.50400001928E-02 0.  1.
</event>
<event>
 5   0  0.3872969E-08  0.3899828E+04  0.7818609E-02  0.8025065E-01
        2   -1    0    0  501    0  0.00000000000E+00  0.00000000000E+00  0.26263647997E+04  0.26263647997E+04  0.25500000920E-02 0.  1.
       -2   -1    0    0    0  501  0.00000000000E+00  0.00000000000E+00 -0.14476906603E+04  0.14476906603E+04  0.25500000920E-02 0. -1.
    10030    2    1    2    0    0  0.00000000000E+00  0.00000000000E+00  0.11786741394E+04  0.40740554601E+04  0.38998275814E+04 0.  0.
        2    1    3    3  502    0 -0.20984019819E+03 -0.12839185942E+04  0.21067026459E+04  0.24760201744E+04  0.25500000920E-02 0.  1.
       -2    1    3    3    0  502  0.20984019819E+03  0.12839185942E+04 -0.92802850656E+03  0.15980352857E+04  0.25500000920E-02 0. -1.
</event>
<event>
 5   0  0.3669347E-08  0.3890962E+04  0.7818609E-02  0.8026912E-01
        2   -1    0    0  501    0  0.00000000000E+00  0.00000000000E+00  0.29517160071E+04  0.29517160071E+04  0.25500000920E-02 0.  1.
       -2   -1    0    0    0  501  0.00000000000E+00  0.00000000000E+00 -0.12822697152E+04  0.12822697152E+04  0.25500000920E-02 0. -1.
    10030    2    1    2    0    0  0.00000000000E+00  0.00000000000E+00  0.16694462919E+04  0.42339857223E+04  0.38909618573E+04 0.  0.
        5    1    3    3  502    0 -0.33593530700E+03 -0.96933204092E+03  0.26334527834E+04  0.28262258913E+04  0.46999998093E+01 0.  1.
       -5    1    3    3    0  502  0.33593530700E+03  0.96933204092E+03 -0.96400649151E+03  0.14077598310E+04  0.46999998093E+01 0. -1.
</event>
<event>
 5   0  0.1164500E-08  0.3899549E+04  0.7818609E-02  0.8025123E-01
        1   -1    0    0  501    0  0.00000000000E+00  0.00000000000E+00  0.20241620209E+04  0.20241620209E+04  0.50400001928E-02 0.  1.
       -1   -1    0    0    0  501  0.00000000000E+00  0.00000000000E+00 -0.18781207922E+04  0.18781207922E+04  0.50400001928E-02 0. -1.
    10030    2    1    2    0    0  0.00000000000E+00  0.00000000000E+00  0.14604122875E+03  0.39022828131E+04  0.38995490910E+04 0.  0.
        2    1    3    3  502    0  0.14284309046E+04 -0.64989125670E+03 -0.10848762292E+04  0.19078076233E+04  0.25500000920E-02 0. -1.
       -2    1    3    3    0  502 -0.14284309046E+04  0.64989125670E+03  0.12309174579E+04  0.19944751899E+04  0.25500000920E-02 0.  1.
</event>
<event>
 5   0  0.1164500E-08  0.3907806E+04  0.7818609E-02  0.8023408E-01
        1   -1    0    0  501    0  0.00000000000E+00  0.00000000000E+00  0.25930651337E+04  0.25930651337E+04  0.50400001928E-02 0.  1.
       -1   -1    0    0    0  501  0.00000000000E+00  0.00000000000E+00 -0.14722876513E+04  0.14722876513E+04  0.50400001928E-02 0. -1.
    10030    2    1    2    0    0  0.00000000000E+00  0.00000000000E+00  0.11207774824E+04  0.40653527849E+04  0.39078064308E+04 0.  0.
        5    1    3    3  502    0  0.12246675609E+04  0.13147979920E+04  0.13589361889E+04  0.22528280116E+04  0.46999998093E+01 0. -1.
       -5    1    3    3    0  502 -0.12246675609E+04 -0.13147979920E+04 -0.23815870652E+03  0.18125247733E+04  0.46999998093E+01 0.  1.
</event>
<event>
 5   0  0.3724293E-08  0.3902148E+04  0.7818609E-02  0.8024583E-01
        2   -1    0    0  501    0  0.00000000000E+00  0.00000000000E+00  0.27125355510E+04  0.27125355511E+04  0.25500000920E-02 0.  1.
       -2   -1    0    0    0  501  0.00000000000E+00  0.00000000000E+00 -0.14033691976E+04  0.14033691976E+04  0.25500000920E-02 0. -1.
    10030    2    1    2    0    0  0.00000000000E+00  0.00000000000E+00  0.13091663535E+04  0.41159047487E+04  0.39021475317E+04 0.  0.
        4    1    3    3  502    0 -0.16804954288E+04 -0.47778138280E+02 -0.38977603400E+03  0.17257678309E+04  0.12699999809E+01 0.  1.
       -4    1    3    3    0  502  0.16804954288E+04  0.47778138280E+02  0.16989423875E+04  0.23901369177E+04  0.12699999809E+01 0. -1.
</event>
<event>
 5   0  0.1164500E-08  0.3899909E+04  0.7818609E-02  0.8025048E-01
       -1   -1    0    0    0  501  0.00000000000E+00  0.00000000000E+00  0.13118200573E+04  0.13118200573E+04  0.50400001928E-02 0.  1.
        1   -1    0    0  501    0  0.00000000000E+00  0.00000000000E+00 -0.28985088680E+04  0.28985088680E+04  0.50400001928E-02 0. -1.
    10030    2    1    2    0    0  0.00000000000E+00  0.00000000000E+00 -0.15866888107E+04  0.42103289252E+04  0.38999087524E+04 0.  0.
        3    1    3    3  502    0  0.16212817638E+04  0.13367000578E+02 -0.19628964772E+04  0.25459174819E+04  0.10100000352E+00 0. -1.
       -3    1    3    3    0  502 -0.16212817638E+04 -0.13367000578E+02  0.37620766649E+03  0.16644114434E+04  0.10100000352E+00 0.  1.
</event>
<event>
 5   0  0.1164500E-08  0.3902200E+04  0.7818609E-02  0.8024572E-01
       -1   -1    0    0    0  501  0.00000000000E+00  0.00000000000E+00  0.20482368655E+04  0.20482368655E+04  0.50400001928E-02 0. -1.
        1   -1    0    0  501    0  0.00000000000E+00  0.00000000000E+00 -0.18585695976E+04  0.18585695976E+04  0.50400001928E-02 0.  1.
    10030    2    1    2    0    0  0.00000000000E+00  0.00000000000E+00  0.18966726790E+03  0.39068064631E+04  0.39021997729E+04 0.  0.
        2    1    3    3  502    0 -0.74218395083E+03 -0.16862681620E+04  0.73781718240E+03  0.19846187356E+04  0.25500000920E-02 0.  1.
       -2    1    3    3    0  502  0.74218395083E+03  0.16862681620E+04 -0.54814991450E+03  0.19221877275E+04  0.25500000920E-02 0. -1.
</event>
<event>
 5   0  0.3872969E-08  0.3901534E+04  0.7818609E-02  0.8024710E-01
        2   -1    0    0  501    0  0.00000000000E+00  0.00000000000E+00  0.24947527973E+04  0.24947527973E+04  0.25500000920E-02 0. -1.
       -2   -1    0    0    0  501  0.00000000000E+00  0.00000000000E+00 -0.15253987727E+04  0.15253987727E+04  0.25500000920E-02 0.  1.
    10030    2    1    2    0    0  0.00000000000E+00  0.00000000000E+00  0.96935402467E+03  0.40201515700E+04  0.39015344956E+04 0.  0.
        2    1    3    3  502    0 -0.73270306954E+03 -0.14199054280E+04 -0.66850316524E+03  0.17320166554E+04  0.25500000920E-02 0.  1.
       -2    1    3    3    0  502  0.73270306954E+03  0.14199054280E+04  0.16378571899E+04  0.22881349146E+04  0.25500000920E-02 0. -1.
</event>
<event>
 5   0  0.3669347E-08  0.3902377E+04  0.7818609E-02  0.8024535E-01
       -2   -1    0    0    0  501  0.00000000000E+00  0.00000000000E+00  0.19341063229E+04  0.19341063229E+04  0.25500000920E-02 0.  1.
        2   -1    0    0  501    0  0.00000000000E+00  0.00000000000E+00 -0.19684212478E+04  0.19684212478E+04  0.25500000920E-02 0. -1.
    10030    2    1    2    0    0  0.00000000000E+00  0.00000000000E+00 -0.34314924911E+02  0.39025275706E+04  0.39023767022E+04 0.  0.
        5    1    3    3  502    0 -0.14443554342E+04 -0.90872399345E+03 -0.96332932426E+03  0.19595834745E+04  0.46999998093E+01 0. -1.
       -5    1    3    3    0  502  0.14443554342E+04  0.90872399345E+03  0.92901439935E+03  0.19429440961E+04  0.46999998093E+01 0.  1.
</event>
<event>
 5   0  0.1164500E-08  0.3897155E+04  0.7818609E-02  0.8025621E-01
        1   -1    0    0  501    0  0.00000000000E+00  0.00000000000E+00  0.25730156953E+04  0.25730156953E+04  0.50400001928E-02 0.  1.
       -1   -1    0    0    0  501  0.00000000000E+00  0.00000000000E+00 -0.14756828597E+04  0.14756828597E+04  0.50400001928E-02 0. -1.
    10030    2    1    2    0    0  0.00000000000E+00  0.00000000000E+00  0.10973328355E+04  0.40486985550E+04  0.38971554546E+04 0.  0.
        4    1    3    3  502    0 -0.40680127942E+03  0.26294573256E+03  0.25094719855E+04  0.25557932228E+04  0.12699999809E+01 0.  1.
       -4    1    3    3    0  502  0.40680127942E+03 -0.26294573256E+03 -0.14121391499E+04  0.14929053322E+04  0.12699999809E+01 0. -1.
</event>
<event>
 5   0  0.3669347E-08  0.3905444E+04  0.7818609E-02  0.8023898E-01
       -2   -1    0    0    0  501  0.00000000000E+00  0.00000000000E+00  0.17706041555E+04  0.17706041555E+04  0.25500000920E-02 0. -1.
        2   -1    0    0  501    0  0.00000000000E+00  0.00000000000E+00 -0.21535715607E+04  0.21535715607E+04  0.25500000920E-02 0.  1.
    10030    2    1    2    0    0  0.00000000000E+00  0.00000000000E+00 -0.38296740514E+03  0.39241757162E+04  0.39054437671E+04 0.  0.
        5    1    3    3  502    0 -0.32857349677E+03 -0.14840363821E+04 -0.14232411654E+04  0.20822972966E+04  0.46999998093E+01 0.  1.
       -5    1    3    3    0  502  0.32857349677E+03  0.14840363821E+04  0.10402737603E+04  0.18418784196E+04  0.46999998093E+01 0. -1.
</event>
<event>
 5   0  0.1164500E-08  0.3884185E+04  0.7818609E-02  0.8028327E-01
        1   -1    0    0  501    0  0.00000000000E+00  0.00000000000E+00  0.35954672306E+04  0.35954672306E+04  0.50400001928E-02 0. -1.
       -1   -1    0    0    0  501  0.00000000000E+00  0.00000000000E+00 -0.10490216430E+04  0.10490216430E+04  0.50400001928E-02 0.  1.
    10030    2    1    2    0    0  0.00000000000E+00  0.00000000000E+00  0.25464455876E+04  0.46444888736E+04  0.38841848265E+04 0.  0.
        3    1    3    3  502    0 -0.16686835243E+04 -0.85986182721E+02  0.89603026225E+02  0.16732982521E+04  0.10100000352E+00 0.  1.
       -3    1    3    3    0  502  0.16686835243E+04  0.85986182721E+02  0.24568425614E+04  0.29711906215E+04  0.10100000352E+00 0. -1.
</event>
<event>
 5   0  0.3872969E-08  0.3890957E+04  0.7818609E-02  0.8026913E-01
        2   -1    0    0  501    0  0.00000000000E+00  0.00000000000E+00  0.24780698913E+04  0.24780698913E+04  0.25500000920E-02 0. -1.
       -2   -1    0    0    0  501  0.00000000000E+00  0.00000000000E+00 -0.15273525388E+04  0.15273525388E+04  0.25500000920E-02 0.  1.
    10030    2    1    2    0    0  0.00000000000E+00  0.00000000000E+00  0.95071735253E+03  0.40054224301E+04  0.38909568693E+04 0.  0.
        2    1    3    3  502    0 -0.45336900203E+03 -0.73368857431E+03 -0.13198017182E+04  0.15766162981E+04  0.25500000920E-02 0.  1.
       -2    1    3    3    0  502  0.45336900203E+03  0.73368857431E+03  0.22705190707E+04  0.24288061320E+04  0.25500000920E-02 0. -1.
</event>
<event>
 5   0  0.3690572E-08  0.3910745E+04  0.7818609E-02  0.8022798E-01
        2   -1    0    0  501    0  0.00000000000E+00  0.00000000000E+00  0.23698809916E+04  0.23698809916E+04  0.25500000920E-02 0.  1.
       -2   -1    0    0    0  501  0.00000000000E+00  0.00000000000E+00 -0.16133643545E+04  0.16133643545E+04  0.25500000920E-02 0. -1.
    10030    2    1    2    0    0  0.00000000000E+00  0.00000000000E+00  0.75651663714E+03  0.39832453461E+04  0.39107449501E+04 0.  0.
        3    1    3    3  502    0  0.82415315903E+03  0.16461337148E+03 -0.14200195484E+04  0.16500853068E+04  0.10100000352E+00 0. -1.
       -3    1    3    3    0  502 -0.82415315903E+03 -0.16461337148E+03  0.21765361856E+04  0.23331600393E+04  0.10100000352E+00 0.  1.
</event>
<event>
 5   0  0.3769985E-08  0.3897819E+04  0.7818609E-02  0.8025483E-01
       -2   -1    0    0    0  501  0.00000000000E+00  0.00000000000E+00  0.29013410527E+04  0.29013410527E+04  0.25500000920E-02 0.  1.
        2   -1    0    0  501    0  0.00000000000E+00  0.00000000000E+00 -0.13091351589E+04  0.13091351589E+04  0.25500000920E-02 0. -1.
    10030    2    1    2    0    0  0.00000000000E+00  0.00000000000E+00  0.15922058937E+04  0.42104762116E+04  0.38978186618E+04 0.  0.
        1    1    3    3  502    0 -0.78451902252E+03  0.52454674457E+03  0.26380579781E+04  0.28017796629E+04  0.50400001928E-02 0.  1.
       -1    1    3    3    0  502  0.78451902252E+03 -0.52454674457E+03 -0.10458520843E+04  0.14086965487E+04  0.50400001928E-02 0. -1.
</event>
<event>
 5   0  0.1164500E-08  0.3904380E+04  0.7818609E-02  0.8024119E-01
       -1   -1    0    0    0  501  0.00000000000E+00  0.00000000000E+00  0.14766351408E+04  0.14766351408E+04  0.50400001928E-02 0.  1.
        1   -1    0    0  501    0  0.00000000000E+00  0.00000000000E+00 -0.25808982460E+04  0.25808982460E+04  0.50400001928E-02 0. -1.
    10030    2    1    2    0    0  0.00000000000E+00  0.00000000000E+00 -0.11042631052E+04  0.40575333868E+04  0.39043796152E+04 0.  0.
        1    1    3    3  502    0  0.12719470485E+04  0.12274819727E+04  0.30891215715E+03  0.17944325031E+04  0.50400001928E-02 0. -1.
       -1    1    3    3    0  502 -0.12719470485E+04 -0.12274819727E+04 -0.14131752623E+04  0.22631008837E+04  0.50400001928E-02 0.  1.
</event>
<event>
 5   0  0.3690572E-08  0.3903243E+04  0.7818609E-02  0.8024355E-01
       -2   -1    0    0    0  501  0.00000000000E+00  0.00000000000E+00  0.29882217350E+04  0.29882217350E+04  0.25500000920E-02 0. -1.
        2   -1    0    0  501    0  0.00000000000E+00  0.00000000000E+00 -0.12746133708E+04  0.12746133708E+04  0.25500000920E-02 0.  1.
    10030    2    1    2    0    0  0.00000000000E+00  0.00000000000E+00  0.17136083642E+04  0.42628351058E+04  0.39032434607E+04 0.  0.
        3    1    3    3  502    0  0.11281887604E+04 -0.72982584908E+03  0.24026054608E+04  0.27528110469E+04  0.10100000352E+00 0. -1.
       -3    1    3    3    0  502 -0.11281887604E+04  0.72982584908E+03 -0.68899709662E+03  0.15100240589E+04  0.10100000352E+00 0.  1.
</event>
<event>
 5   0  0.1164500E-08  0.3897005E+04  0.7818609E-02  0.8025652E-01
        1   -1    0    0  501    0  0.00000000000E+00  0.00000000000E+00  0.27915113615E+04  0.27915113615E+04  0.50400001928E-02 0. -1.
       -1   -1    0    0    0  501  0.00000000000E+00  0.00000000000E+00 -0.13600736459E+04  0.13600736459E+04  0.50400001928E-02 0.  1.
    10030    2    1    2    0    0  0.00000000000E+00  0.00000000000E+00  0.14314377156E+04  0.41515850075E+04  0.38970045087E+04 0.  0.
        4    1    3    3  502    0 -0.18079607077E+03 -0.86537788627E+03 -0.11341179031E+04  0.14379816189E+04  0.12699999809E+01 0.  1.
       -4    1    3    3    0  502  0.18079607077E+03  0.86537788627E+03  0.25655556187E+04  0.27136033886E+04  0.12699999809E+01 0. -1.
</event>
<event>
 5   0  0.3669347E-08  0.3896923E+04  0.7818609E-02  0.8025669E-01
        2   -1    0    0  501    0  0.00000000000E+00  0.00000000000E+00  0.21288456539E+04  0.21288456539E+04  0.25500000920E-02 0. -1.
       -2   -1    0    0    0  501  0.00000000000E+00  0.00000000000E+00 -0.17833618287E+04  0.17833618287E+04  0.25500000920E-02 0.  1.
    10030    2    1    2    0    0  0.00000000000E+00  0.00000000000E+00  0.34548382517E+03  0.39122074826E+04  0.38969229289E+04 0.  0.
        5    1    3    3  502    0  0.38566923802E+03 -0.17166531655E+04  0.10131879915E+04  0.20303228433E+04  0.46999998093E+01 0. -1.
       -5    1    3    3    0  502 -0.38566923802E+03  0.17166531655E+04 -0.66770416637E+03  0.18818846393E+04  0.46999998093E+01 0.  1.
</event>
<event>
 5   0  0.1164500E-08  0.3907660E+04  0.7818609E-02  0.8023438E-01
        1   -1    0    0  501    0  0.00000000000E+00  0.00000000000E+00  0.17461926893E+04  0.17461926893E+04  0.50400001928E-02 0. -1.
       -1   -1    0    0    0  501  0.00000000000E+00  0.00000000000E+00 -0.21861571438E+04  0.21861571438E+04  0.50400001928E-02 0.  1.
    10030    2    1    2    0    0  0.00000000000E+00  0.00000000000E+00 -0.43996445452E+03  0.39323498331E+04  0.39076599761E+04 0.  0.
        4    1    3    3  502    0  0.34467868387E+03  0.10661232613E+04  0.13907646561E+04  0.17859591667E+04  0.12699999809E+01 0. -1.
       -4    1    3    3    0  502 -0.34467868387E+03 -0.10661232613E+04 -0.18307291107E+04  0.21463906664E+04  0.12699999809E+01 0.  1.
</event>
<event>
 5   0  0.1164500E-08  0.3892809E+04  0.7818609E-02  0.8026526E-01
        1   -1    0    0  501    0  0.00000000000E+00  0.00000000000E+00  0.11499599221E+04  0.11499599221E+04  0.50400001928E-02 0. -1.
       -1   -1    0    0    0  501  0.00000000000E+00  0.00000000000E+00 -0.32944551174E+04  0.32944551174E+04  0.50400001928E-02 0.  1.
    10030    2    1    2    0    0  0.00000000000E+00  0.00000000000E+00 -0.21444951953E+04  0.44444150395E+04  0.38928094483E+04 0.  0.
        5    1    3    3  502    0  0.97283112631E+03  0.42271908346E+03 -0.29354834014E+04  0.31212460194E+04  0.46999998093E+01 0.  1.
       -5    1    3    3    0  502 -0.97283112631E+03 -0.42271908346E+03  0.79098820601E+03  0.13231690201E+04  0.46999998093E+01 0. -1.
</event>
<event>
 5   0  0.3769985E-08  0.3899394E+04  0.7818609E-02  0.8025155E-01
        2   -1    0    0  501    0  0.00000000000E+00  0.00000000000E+00  0.25789907225E+04  0.25789907225E+04  0.25500000920E-02 0. -1.
       -2   -1    0    0    0  501  0.00000000000E+00  0.00000000000E+00 -0.14739560270E+04  0.14739560270E+04  0.25500000920E-02 0.  1.
    10030    2    1    2    0    0  0.00000000000E+00  0.00000000000E+00  0.11050346955E+04  0.40529467495E+04  0.38993942704E+04 0.  0.
        1    1    3    3  502    0  0.33434885703E+03 -0.16927235205E+04  0.14961315990E+04  0.22837495126E+04  0.50400001928E-02 0. -1.
       -1    1    3    3    0  502 -0.33434885703E+03  0.16927235205E+04 -0.39109690349E+03  0.17691972369E+04  0.50400001928E-02 0.  1.
</event>
<event>
 5   0  0.3724293E-08  0.3850698E+04  0.7818609E-02  0.8035362E-01
        2   -1    0    0  501    0  0.00000000000E+00  0.00000000000E+00  0.28465712860E+04  0.28465712860E+04  0.25500000920E-02 0. -1.
       -2   -1    0    0    0  501  0.00000000000E+00  0.00000000000E+00 -0.13022573265E+04  0.13022573265E+04  0.25500000920E-02 0.  1.
    10030    2    1    2    0    0  0.00000000000E+00  0.00000000000E+00  0.15443139595E+04  0.41488286124E+04  0.38506977614E+04 0.  0.
        4    1    3    3  502    0  0.82298794772E+03  0.16374988874E+04  0.13633622630E+03  0.18377434391E+04  0.12699999809E+01 0. -1.
       -4    1    3    3    0  502 -0.82298794772E+03 -0.16374988874E+04  0.14079777332E+04  0.23110851734E+04  0.12699999809E+01 0.  1.
</event>
<event>
 5   0  0.3690572E-08  0.3903807E+04  0.7818609E-02  0.8024238E-01
       -2   -1    0    0    0  501  0.00000000000E+00  0.00000000000E+00  0.13559834577E+04  0.13559834577E+04  0.25500000920E-02 0.  1.
        2   -1    0    0  501    0  0.00000000000E+00  0.00000000000E+00 -0.28097150698E+04  0.28097150698E+04  0.25500000920E-02 0. -1.
    10030    2    1    2    0    0  0.00000000000E+00  0.00000000000E+00 -0.14537316121E+04  0.41656985275E+04  0.39038069397E+04 0.  0.
        3    1    3    3  502    0 -0.19142728932E+04  0.31398442392E+03 -0.49577273021E+03  0.20022031711E+04  0.10100000352E+00 0.  1.
       -3    1    3    3    0  502  0.19142728932E+04 -0.31398442392E+03 -0.95795888185E+03  0.21634953565E+04  0.10100000352E+00 0. -1.
</event>
<event>
 5   0  0.1164500E-08  0.3903674E+04  0.7818609E-02  0.8024265E-01
       -1   -1    0    0    0  501  0.00000000000E+00  0.00000000000E+00  0.13233030623E+04  0.13233030623E+04  0.50400001928E-02 0. -1.
        1   -1    0    0  501    0  0.00000000000E+00  0.00000000000E+00 -0.28789081428E+04  0.28789081428E+04  0.50400001928E-02 0.  1.
    10030    2    1    2    0    0  0.00000000000E+00  0.00000000000E+00 -0.15556050805E+04  0.42022112051E+04  0.39036741470E+04 0.  0.
        4    1    3    3  502    0 -0.37344125101E+03  0.36797059825E+03 -0.28016933875E+04  0.28503242236E+04  0.12699999809E+01 0.  1.
       -4    1    3    3    0  502  0.37344125101E+03 -0.36797059825E+03  0.12460883070E+04  0.13518869816E+04  0.12699999809E+01 0. -1.
</event>
<event>
 5   0  0.1164500E-08  0.3900325E+04  0.7818609E-02  0.8024962E-01
        1   -1    0    0  501    0  0.00000000000E+00  0.00000000000E+00  0.15822001950E+04  0.15822001950E+04  0.50400001928E-02 0. -1.
       -1   -1    0    0    0  501  0.00000000000E+00  0.00000000000E+00 -0.24036996676E+04  0.24036996676E+04  0.50400001928E-02 0.  1.
    10030    2    1    2    0    0  0.00000000000E+00  0.00000000000E+00 -0.82149947254E+03  0.39858998626E+04  0.39003251571E+04 0.  0.
        2    1    3    3  502    0 -0.64635487086E+03  0.85663108619E+03  0.12533328569E+04  0.16499802081E+04  0.25500000920E-02 0. -1.
       -2    1    3    3    0  502  0.64635487086E+03 -0.85663108619E+03 -0.20748323294E+04  0.23359196545E+04  0.25500000920E-02 0.  1.
</event>
<event>
 5   0  0.3669347E-08  0.3904117E+04  0.7818609E-02  0.8024174E-01
        2   -1    0    0  501    0  0.00000000000E+00  0.00000000000E+00  0.19297525194E+04  0.19297525194E+04  0.25500000920E-02 0. -1.
       -2   -1    0    0    0  501  0.00000000000E+00  0.00000000000E+00 -0.19746221433E+04  0.19746221433E+04  0.25500000920E-02 0.  1.
    10030    2    1    2    0    0  0.00000000000E+00  0.00000000000E+00 -0.44869623880E+02  0.39043746627E+04  0.39041168301E+04 0.  0.
        5    1    3    3  502    0  0.14495210983E+04 -0.53477455468E+03 -0.12155830598E+04  0.19658991592E+04  0.46999998093E+01 0.  1.
       -5    1    3    3    0  502 -0.14495210983E+04  0.53477455468E+03  0.11707134360E+04  0.19384755035E+04  0.46999998093E+01 0. -1.
</event>
<event>
 5   0  0.1164500E-08  0.3818490E+04  0.7818609E-02  0.8042199E-01
       -1   -1    0    0    0  501  0.00000000000E+00  0.00000000000E+00  0.16489123113E+04  0.16489123113E+04  0.50400001928E-02 0. -1.
        1   -1    0    0  501    0  0.00000000000E+00  0.00000000000E+00 -0.22106795503E+04  0.22106795503E+04  0.50400001928E-02 0.  1.
    10030    2    1    2    0    0  0.00000000000E+00  0.00000000000E+00 -0.56176723905E+03  0.38595918616E+04  0.38184901345E+04 0.  0.
        1    1    3    3  502    0 -0.12356836098E+01 -0.18320201005E+04 -0.82417982492E+03  0.20088732064E+04  0.50400001928E-02 0.  1.
       -1    1    3    3    0  502  0.12356836098E+01  0.18320201005E+04  0.26241258587E+03  0.18507186552E+04  0.50400001928E-02 0. -1.
</event>
<event>
 5   0  0.3690572E-08  0.3899630E+04  0.7818609E-02  0.8025106E-01
       -2   -1    0    0    0  501  0.00000000000E+00  0.00000000000E+00  0.24080751980E+04  0.24080751980E+04  0.25500000920E-02 0. -1.
        2   -1    0    0  501    0  0.00000000000E+00  0.00000000000E+00 -0.15787623408E+04  0.15787623408E+04  0.25500000920E-02 0.  1.
    10030    2    1    2    0    0  0.00000000000E+00  0.00000000000E+00  0.82931285723E+03  0.39868375389E+04  0.38996299499E+04 0.  0.
        3    1    3    3  502    0  0.17635058640E+04  0.70424944674E+03  0.86711209661E+03  0.20875352964E+04  0.10100000352E+00 0. -1.
       -3    1    3    3    0  502 -0.17635058640E+04 -0.70424944674E+03 -0.37799239382E+02  0.18993022424E+04  0.10100000352E+00 0.  1.
</event>
<event>
 5   0  0.1164500E-08  0.3892393E+04  0.7818609E-02  0.8026613E-01
        1   -1    0    0  501    0  0.00000000000E+00  0.00000000000E+00  0.19264253239E+04  0.19264253239E+04  0.50400001928E-02 0.  1.
       -1   -1    0    0    0  501  0.00000000000E+00  0.00000000000E+00 -0.19661703981E+04  0.19661703981E+04  0.50400001928E-02 0. -1.
    10030    2    1    2    0    0  0.00000000000E+00  0.00000000000E+00 -0.39745074125E+02  0.38925957220E+04  0.38923928096E+04 0.  0.
        2    1    3    3  502    0 -0.13563401230E+04  0.36955360283E+03  0.13260995727E+04  0.19325549077E+04  0.25500000920E-02 0.  1.
       -2    1    3    3    0  502  0.13563401230E+04 -0.36955360283E+03 -0.13658446468E+04  0.19600408143E+04  0.25500000920E-02 0. -1.
</event>
<event>
 5   0  0.1164500E-08  0.3910127E+04  0.7818609E-02  0.8022926E-01
       -1   -1    0    0    0  501  0.00000000000E+00  0.00000000000E+00  0.27588403422E+04  0.27588403422E+04  0.50400001928E-02 0.  1.
        1   -1    0    0  501    0  0.00000000000E+00  0.00000000000E+00 -0.13854635703E+04  0.13854635703E+04  0.50400001928E-02 0. -1.
    10030    2    1    2    0    0  0.00000000000E+00  0.00000000000E+00  0.13733767719E+04  0.41443039126E+04  0.39101267450E+04 0.  0.
        4    1    3    3  502    0 -0.15366079171E+04 -0.38162589359E+03  0.19023174190E+04  0.24749980584E+04  0.12699999809E+01 0.  1.
       -4    1    3    3    0  502  0.15366079171E+04  0.38162589359E+03 -0.52894064710E+03  0.16693058542E+04  0.12699999809E+01 0. -1.
</event>
<event>
 5   0  0.3724293E-08  0.3897167E+04  0.7818609E-02  0.8025619E-01
        2   -1    0    0  501    0  0.00000000000E+00  0.00000000000E+00  0.23954321888E+04  0.23954321888E+04  0.25500000920E-02 0. -1.
       -2   -1    0    0    0  501  0.00000000000E+00  0.00000000000E+00 -0.15850905795E+04  0.15850905796E+04  0.25500000920E-02 0.  1.
    10030    2    1    2    0    0  0.00000000000E+00  0.00000000000E+00  0.81034160922E+03  0.39805227683E+04  0.38971666612E+04 0.  0.
        4    1    3    3  502    0  0.15488826240E+03 -0.42494072035E+03  0.23410760914E+04  0.23843665549E+04  0.12699999809E+01 0. -1.
       -4    1    3    3    0  502 -0.15488826240E+03  0.42494072035E+03 -0.15307344822E+04  0.15961562134E+04  0.12699999809E+01 0.  1.
</event>
<event>
 5   0  0.1164500E-08  0.3896467E+04  0.7818609E-02  0.8025764E-01
        1   -1    0    0  501    0  0.00000000000E+00  0.00000000000E+00  0.22375024745E+04  0.22375024745E+04  0.50400001928E-02 0.  1.
       -1   -1    0    0    0  501  0.00000000000E+00  0.00000000000E+00 -0.16963616121E+04  0.16963616121E+04  0.50400001928E-02 0. -1.
    10030    2    1    2    0    0  0.00000000000E+00  0.00000000000E+00  0.54114086242E+03  0.39338640866E+04  0.38964667609E+04 0.  0.
        5    1    3    3  502    0 -0.18292312301E+04  0.47484952305E+03  0.74842303276E+03  0.20326652672E+04  0.46999998093E+01 0. -1.
       -5    1    3    3    0  502  0.18292312301E+04 -0.47484952305E+03 -0.20728217034E+03  0.19011988194E+04  0.46999998093E+01 0.  1.
</event>
<event>
 5   0  0.3872969E-08  0.3898253E+04  0.7818609E-02  0.8025393E-01
       -2   -1    0    0    0  501  0.00000000000E+00  0.00000000000E+00  0.18077482919E+04  0.18077482919E+04  0.25500000920E-02 0.  1.
        2   -1    0    0  501    0  0.00000000000E+00  0.00000000000E+00 -0.21015617544E+04  0.21015617544E+04  0.25500000920E-02 0. -1.
    10030    2    1    2    0    0  0.00000000000E+00  0.00000000000E+00 -0.29381346251E+03  0.39093100463E+04  0.38982532867E+04 0.  0.
        2    1    3    3  502    0  0.40941734043E+03  0.66266680173E+03  0.16448744037E+04  0.18199894650E+04  0.25500000920E-02 0.  1.
       -2    1    3    3    0  502 -0.40941734043E+03 -0.66266680173E+03 -0.19386878662E+04  0.20893205813E+04  0.25500000920E-02 0. -1.
</event>
<event>
 5   0  0.1164500E-08  0.3918299E+04  0.7818609E-02  0.8021234E-01
        1   -1    0    0  501    0  0.00000000000E+00  0.00000000000E+00  0.12510094628E+04  0.12510094628E+04  0.50400001928E-02 0. -1.
       -1   -1    0    0    0  501  0.00000000000E+00  0.00000000000E+00 -0.30681357640E+04  0.30681357640E+04  0.50400001928E-02 0.  1.
    10030    2    1    2    0    0  0.00000000000E+00  0.00000000000E+00 -0.18171263011E+04  0.43191452268E+04  0.39182990565E+04 0.  0.
        4    1    3    3  502    0 -0.24538525286E+03  0.10828902865E+04 -0.26878150125E+04  0.29081293729E+04  0.12699999809E+01 0.  1.
       -4    1    3    3    0  502  0.24538525286E+03 -0.10828902865E+04  0.87068871142E+03  0.14110158539E+04  0.12699999809E+01 0. -1.
</event>
<event>
 5   0  0.1164500E-08  0.3901594E+04  0.7818609E-02  0.8024698E-01
       -1   -1    0    0    0  501  0.00000000000E+00  0.00000000000E+00  0.18649196006E+04  0.18649196006E+04  0.50400001928E-02 0.  1.
        1   -1    0    0  501    0  0.00000000000E+00  0.00000000000E+00 -0.20406291555E+04  0.20406291555E+04  0.50400001928E-02 0. -1.
    10030    2    1    2    0    0  0.00000000000E+00  0.00000000000E+00 -0.17570955489E+03  0.39055487562E+04  0.39015941920E+04 0.  0.
        1    1    3    3  502    0  0.12514692974E+04  0.13098651218E+04 -0.81225066520E+03  0.19853647481E+04  0.50400001928E-02 0. -1.
       -1    1    3    3    0  502 -0.12514692974E+04 -0.13098651218E+04  0.63654111031E+03  0.19201840081E+04  0.50400001928E-02 0.  1.
</event>
<event>
 5   0  0.3872969E-08  0.3896390E+04  0.7818609E-02  0.8025780E-01
       -2   -1    0    0    0  501  0.00000000000E+00  0.00000000000E+00  0.14068230686E+04  0.14068230686E+04  0.25500000920E-02 0. -1.
        2   -1    0    0  501    0  0.00000000000E+00  0.00000000000E+00 -0.26978973220E+04  0.26978973220E+04  0.25500000920E-02 0.  1.
    10030    2    1    2    0    0  0.00000000000E+00  0.00000000000E+00 -0.12910742534E+04  0.41047203906E+04  0.38963902214E+04 0.  0.
        2    1    3    3  502    0  0.84453541214E+03  0.11477363048E+04  0.75399967564E+03  0.16121582424E+04  0.25500000920E-02 0. -1.
       -2    1    3    3    0  502 -0.84453541214E+03 -0.11477363048E+04 -0.20450739290E+04  0.24925621482E+04  0.25500000920E-02 0.  1.
</event>
<event>
 5   0  0.3769985E-08  0.3881008E+04  0.7818609E-02  0.8028991E-01
        2   -1    0    0  501    0  0.00000000000E+00  0.00000000000E+00  0.16102597145E+04  0.16102597145E+04  0.25500000920E-02 0.  1.
       -2   -1    0    0    0  501  0.00000000000E+00  0.00000000000E+00 -0.23384777203E+04  0.23384777203E+04  0.25500000920E-02 0. -1.
    10030    2    1    2    0    0  0.00000000000E+00  0.00000000000E+00 -0.72821800575E+03  0.39487374348E+04  0.38810083567E+04 0.  0.
        1    1    3    3  502    0  0.18195968415E+03  0.18529365928E+04  0.19231053574E+03  0.18717549748E+04  0.50400001928E-02 0. -1.
       -1    1    3    3    0  502 -0.18195968415E+03 -0.18529365928E+04 -0.92052854149E+03  0.20769824600E+04  0.50400001928E-02 0.  1.
</event>
<event>
 5   0  0.1164500E-08  0.3904996E+04  0.7818609E-02  0.8023991E-01
        1   -1    0    0  501    0  0.00000000000E+00  0.00000000000E+00  0.23724953742E+04  0.23724953742E+04  0.50400001928E-02 0.  1.
       -1   -1    0    0    0  501  0.00000000000E+00  0.00000000000E+00 -0.16068514050E+04  0.16068514050E+04  0.50400001928E-02 0. -1.
    10030    2    1    2    0    0  0.00000000000E+00  0.00000000000E+00  0.76564396927E+03  0.39793467792E+04  0.39049955316E+04 0.  0.
        2    1    3    3  502    0  0.19092309830E+04  0.12759312355E+03  0.77855155405E+03  0.20658135139E+04  0.25500000920E-02 0. -1.
       -2    1    3    3    0  502 -0.19092309830E+04 -0.12759312355E+03 -0.12907584773E+02  0.19135332653E+04  0.25500000920E-02 0.  1.
</event>
<event>
 5   0  0.1164500E-08  0.3847414E+04  0.7818609E-02  0.8036056E-01
       -1   -1    0    0    0  501  0.00000000000E+00  0.00000000000E+00  0.13512069643E+04  0.13512069643E+04  0.50400001928E-02 0. -1.
        1   -1    0    0  501    0  0.00000000000E+00  0.00000000000E+00 -0.27387728827E+04  0.27387728827E+04  0.50400001928E-02 0.  1.
    10030    2    1    2    0    0  0.00000000000E+00  0.00000000000E+00 -0.13875659184E+04  0.40899798470E+04  0.38474141928E+04 0.  0.
        3    1    3    3  502    0 -0.95896419888E+03 -0.68815500324E+03  0.92102594657E+03  0.14971501086E+04  0.10100000352E+00 0. -1.
       -3    1    3    3    0  502  0.95896419888E+03  0.68815500324E+03 -0.23085918650E+04  0.25928297384E+04  0.10100000352E+00 0.  1.
</event>
<event>
 5   0  0.1164500E-08  0.3872140E+04  0.7818609E-02  0.8030849E-01
       -1   -1    0    0    0  501  0.00000000000E+00  0.00000000000E+00  0.17798930448E+04  0.17798930448E+04  0.50400001928E-02 0.  1.
        1   -1    0    0  501    0  0.00000000000E+00  0.00000000000E+00 -0.21059509827E+04  0.21059509827E+04  0.50400001928E-02 0. -1.
    10030    2    1    2    0    0  0.00000000000E+00  0.00000000000E+00 -0.32605793793E+03  0.38858440275E+04  0.38721402386E+04 0.  0.
        1    1    3    3  502    0 -0.76626765313E+02  0.14735418184E+04  0.10948704741E+04  0.18373727185E+04  0.50400001928E-02 0.  1.
       -1    1    3    3    0  502  0.76626765313E+02 -0.14735418184E+04 -0.14209284121E+04  0.20484713090E+04  0.50400001928E-02 0. -1.
</event>
<event>
 5   0  0.3724293E-08  0.3894046E+04  0.7818609E-02  0.8026269E-01
        2   -1    0    0  501    0  0.00000000000E+00  0.00000000000E+00  0.26116230608E+04  0.26116230608E+04  0.25500000920E-02 0. -1.
       -2   -1    0    0    0  501  0.00000000000E+00  0.00000000000E+00 -0.14515490088E+04  0.14515490088E+04  0.25500000920E-02 0.  1.
    10030    2    1    2    0    0  0.00000000000E+00  0.00000000000E+00  0.11600740521E+04  0.40631720696E+04  0.38940461555E+04 0.  0.
        4    1    3    3  502    0 -0.10592725784E+04  0.15383829495E+04  0.11536558446E+04  0.21953596323E+04  0.12699999809E+01 0. -1.
       -4    1    3    3    0  502  0.10592725784E+04 -0.15383829495E+04  0.64182074635E+01  0.18678124373E+04  0.12699999809E+01 0.  1.
</event>
<event>
 5   0  0.1164500E-08  0.3900385E+04  0.7818609E-02  0.8024949E-01
       -1   -1    0    0    0  501  0.00000000000E+00  0.00000000000E+00  0.25113277286E+04  0.25113277286E+04  0.50400001928E-02 0. -1.
        1   -1    0    0  501    0  0.00000000000E+00  0.00000000000E+00 -0.15144383035E+04  0.15144383035E+04  0.50400001928E-02 0.  1.
    10030    2    1    2    0    0  0.00000000000E+00  0.00000000000E+00  0.99688942505E+03  0.40257660321E+04  0.39003850604E+04 0.  0.
        3    1    3    3  502    0 -0.12732340482E+04  0.90213072621E+03 -0.70889505391E+03  0.17139127739E+04  0.10100000352E+00 0.  1.
       -3    1    3    3    0  502  0.12732340482E+04 -0.90213072621E+03  0.17057844790E+04  0.23118532582E+04  0.10100000352E+00 0. -1.
</event>
<event>
 5   0  0.1164500E-08  0.3894139E+04  0.7818609E-02  0.8026249E-01
        1   -1    0    0  501    0  0.00000000000E+00  0.00000000000E+00  0.16712613299E+04  0.16712613299E+04  0.50400001928E-02 0.  1.
       -1   -1    0    0    0  501  0.00000000000E+00  0.00000000000E+00 -0.22683942404E+04  0.22683942404E+04  0.50400001928E-02 0. -1.
    10030    2    1    2    0    0  0.00000000000E+00  0.00000000000E+00 -0.59713291053E+03  0.39396555704E+04  0.38941389678E+04 0.  0.
        1    1    3    3  502    0  0.15479639253E+04  0.13732325910E+03 -0.14853204284E+04  0.21497038788E+04  0.50400001928E-02 0. -1.
       -1    1    3    3    0  502 -0.15479639253E+04 -0.13732325910E+03  0.88818751784E+03  0.17899516916E+04  0.50400001928E-02 0.  1.
</event>
<event>
 5   0  0.1164500E-08  0.3932017E+04  0.7818609E-02  0.8018403E-01
        1   -1    0    0  501    0  0.00000000000E+00  0.00000000000E+00  0.20601826768E+04  0.20601826768E+04  0.50400001928E-02 0.  1.
       -1   -1    0    0    0  501  0.00000000000E+00  0.00000000000E+00 -0.18761388465E+04  0.18761388465E+04  0.50400001928E-02 0. -1.
    10030    2    1    2    0    0  0.00000000000E+00  0.00000000000E+00  0.18404383037E+03  0.39363215233E+04  0.39320166586E+04 0.  0.
        1    1    3    3  502    0  0.19433371340E+04  0.23468732323E+03 -0.91349022356E+02  0.19595872014E+04  0.50400001928E-02 0.  1.
       -1    1    3    3    0  502 -0.19433371340E+04 -0.23468732323E+03  0.27539285273E+03  0.19767343219E+04  0.50400001928E-02 0. -1.
</event>
<event>
 5   0  0.3724293E-08  0.3935427E+04  0.7818609E-02  0.8017701E-01
       -2   -1    0    0    0  501  0.00000000000E+00  0.00000000000E+00  0.15016445387E+04  0.15016445387E+04  0.25500000920E-02 0. -1.
        2   -1    0    0  501    0  0.00000000000E+00  0.00000000000E+00 -0.25784378048E+04  0.25784378048E+04  0.25500000920E-02 0.  1.
    10030    2    1    2    0    0  0.00000000000E+00  0.00000000000E+00 -0.10767932661E+04  0.40800823435E+04  0.39354273201E+04 0.  0.
        4    1    3    3  502    0  0.18285662493E+04 -0.31009511932E+03  0.14309429796E+03  0.18601857709E+04  0.12699999809E+01 0. -1.
       -4    1    3    3    0  502 -0.18285662493E+04  0.31009511932E+03 -0.12198875640E+04  0.22198965726E+04  0.12699999809E+01 0.  1.
</event>
<event>
 5   0  0.3690572E-08  0.3892780E+04  0.7818609E-02  0.8026533E-01
       -2   -1    0    0    0  501  0.00000000000E+00  0.00000000000E+00  0.12367843186E+04  0.12367843186E+04  0.25500000920E-02 0. -1.
        2   -1    0    0  501    0  0.00000000000E+00  0.00000000000E+00 -0.30631315692E+04  0.30631315692E+04  0.25500000920E-02 0.  1.
    10030    2    1    2    0    0  0.00000000000E+00  0.00000000000E+00 -0.18263472506E+04  0.42999158878E+04  0.38927795163E+04 0.  0.
        3    1    3    3  502    0  0.94255848446E+03  0.15604636553E+04 -0.16663774390E+04  0.24698739028E+04  0.10100000352E+00 0.  1.
       -3    1    3    3    0  502 -0.94255848446E+03 -0.15604636553E+04 -0.15996981157E+03  0.18300419850E+04  0.10100000352E+00 0. -1.
</event>
<event>
 5   0  0.3669347E-08  0.3899809E+04  0.7818609E-02  0.8025069E-01
        2   -1    0    0  501    0  0.00000000000E+00  0.00000000000E+00  0.28307629380E+04  0.28307629380E+04  0.25500000920E-02 0.  1.
       -2   -1    0    0    0  501  0.00000000000E+00  0.00000000000E+00 -0.13431460695E+04  0.13431460695E+04  0.25500000920E-02 0. -1.
    10030    2    1    2    0    0  0.00000000000E+00  0.00000000000E+00  0.14876168685E+04  0.41739090075E+04  0.38998092845E+04 0.  0.
        5    1    3    3  502    0 -0.10702973189E+04  0.11413167006E+04  0.19891929606E+04  0.25308202004E+04  0.46999998093E+01 0. -1.
       -5    1    3    3    0  502  0.10702973189E+04 -0.11413167006E+04 -0.50157609212E+03  0.16430888071E+04  0.46999998093E+01 0.  1.
</event>
<event>
 5   0  0.3690572E-08  0.3890579E+04  0.7818609E-02  0.8026992E-01
        2   -1    0    0  501    0  0.00000000000E+00  0.00000000000E+00  0.26057526616E+04  0.26057526616E+04  0.25500000920E-02 0.  1.
       -2   -1    0    0    0  501  0.00000000000E+00  0.00000000000E+00 -0.14522294238E+04  0.14522294238E+04  0.25500000920E-02 0. -1.
    10030    2    1    2    0    0  0.00000000000E+00  0.00000000000E+00  0.11535232378E+04  0.40579820854E+04  0.38905787160E+04 0.  0.
        3    1    3    3  502    0  0.94653883965E+03  0.14700281328E+04 -0.31271075913E+03  0.17761493505E+04  0.10100000352E+00 0. -1.
       -3    1    3    3    0  502 -0.94653883965E+03 -0.14700281328E+04  0.14662339969E+04  0.22818327349E+04  0.10100000352E+00 0.  1.
</event>
<event>
 5   0  0.1164500E-08  0.3913542E+04  0.7818609E-02  0.8022219E-01
        1   -1    0    0  501    0  0.00000000000E+00  0.00000000000E+00  0.19182890910E+04  0.19182890911E+04  0.50400001928E-02 0.  1.
       -1   -1    0    0    0  501  0.00000000000E+00  0.00000000000E+00 -0.19960248396E+04  0.19960248396E+04  0.50400001928E-02 0. -1.
    10030    2    1    2    0    0  0.00000000000E+00  0.00000000000E+00 -0.77735748591E+02  0.39143139307E+04  0.39135419637E+04 0.  0.
        5    1    3    3  502    0 -0.30843797406E+03  0.10921999822E+03  0.18907269160E+04  0.19188364581E+04  0.46999998093E+01 0.  1.
       -5    1    3    3    0  502  0.30843797406E+03 -0.10921999822E+03 -0.19684626646E+04  0.19954774726E+04  0.46999998093E+01 0. -1.
</event>
<event>
 5   0  0.3669347E-08  0.3888629E+04  0.7818609E-02  0.8027398E-01
        2   -1    0    0  501    0  0.00000000000E+00  0.00000000000E+00  0.16251399423E+04  0.16251399423E+04  0.25500000920E-02 0.  1.
       -2   -1    0    0    0  501  0.00000000000E+00  0.00000000000E+00 -0.23261744599E+04  0.23261744599E+04  0.25500000920E-02 0. -1.
    10030    2    1    2    0    0  0.00000000000E+00  0.00000000000E+00 -0.70103451765E+03  0.39513144022E+04  0.38886290785E+04 0.  0.
        5    1    3    3  502    0  0.15434741021E+04 -0.23444036116E+03  0.82707015571E+03  0.17667319319E+04  0.46999998093E+01 0.  1.
       -5    1    3    3    0  502 -0.15434741021E+04  0.23444036116E+03 -0.15281046734E+04  0.21845824703E+04  0.46999998093E+01 0. -1.
</event>
<event>
 5   0  0.3872969E-08  0.3913484E+04  0.7818609E-02  0.8022231E-01
        2   -1    0    0  501    0  0.00000000000E+00  0.00000000000E+00  0.24027022437E+04  0.24027022437E+04  0.25500000920E-02 0. -1.
       -2   -1    0    0    0  501  0.00000000000E+00  0.00000000000E+00 -0.15935553020E+04  0.15935553020E+04  0.25500000920E-02 0.  1.
    10030    2    1    2    0    0  0.00000000000E+00  0.00000000000E+00  0.80914694175E+03  0.39962575457E+04  0.39134838186E+04 0.  0.
        2    1    3    3  502    0 -0.25716985327E+03 -0.14805131195E+04  0.16843910994E+04  0.22572613508E+04  0.25500000920E-02 0. -1.
       -2    1    3    3    0  502  0.25716985327E+03  0.14805131195E+04 -0.87524415760E+03  0.17389961949E+04  0.25500000920E-02 0.  1.
</event>
<event>
 5   0  0.3669347E-08  0.3899061E+04  0.7818609E-02  0.8025225E-01
       -2   -1    0    0    0  501  0.00000000000E+00  0.00000000000E+00  0.25429822393E+04  0.25429822393E+04  0.25500000920E-02 0.  1.
        2   -1    0    0  501    0  0.00000000000E+00  0.00000000000E+00 -0.14945714110E+04  0.14945714110E+04  0.25500000920E-02 0. -1.
    10030    2    1    2    0    0  0.00000000000E+00  0.00000000000E+00  0.10484108284E+04  0.40375536503E+04  0.38990606835E+04 0.  0.
        5    1    3    3  502    0  0.14179715098E+04 -0.17360834960E+02 -0.86110996875E+03  0.16590590916E+04  0.46999998093E+01 0. -1.
       -5    1    3    3    0  502 -0.14179715098E+04  0.17360834960E+02  0.19095207971E+04  0.23784945587E+04  0.46999998093E+01 0.  1.
</event>
<event>
 5   0  0.1164500E-08  0.3901701E+04  0.7818609E-02  0.8024676E-01
       -1   -1    0    0    0  501  0.00000000000E+00  0.00000000000E+00  0.27502975268E+04  0.27502975268E+04  0.50400001928E-02 0.  1.
        1   -1    0    0  501    0  0.00000000000E+00  0.00000000000E+00 -0.13837837731E+04  0.13837837731E+04  0.50400001928E-02 0. -1.
    10030    2    1    2    0    0  0.00000000000E+00  0.00000000000E+00  0.13665137537E+04  0.41340812999E+04  0.39017007003E+04 0.  0.
        1    1    3    3  502    0 -0.10332038319E+04 -0.89435584587E+03 -0.79194220240E+03  0.15794160279E+04  0.50400001928E-02 0. -1.
       -1    1    3    3    0  502  0.10332038319E+04  0.89435584587E+03  0.21584559561E+04  0.25546652719E+04  0.50400001928E-02 0.  1.
</event>
<event>
 5   0  0.3872969E-08  0.3896772E+04  0.7818609E-02  0.8025701E-01
       -2   -1    0    0    0  501  0.00000000000E+00  0.00000000000E+00  0.16578037726E+04  0.16578037726E+04  0.25500000920E-02 0. -1.
        2   -1    0    0  501    0  0.00000000000E+00  0.00000000000E+00 -0.22899021948E+04  0.22899021948E+04  0.25500000920E-02 0.  1.
    10030    2    1    2    0    0  0.00000000000E+00  0.00000000000E+00 -0.63209842226E+03  0.39477059674E+04  0.38967722528E+04 0.  0.
        2    1    3    3  502    0  0.13174406085E+03  0.16320533405E+04 -0.13859084663E+04  0.21451566099E+04  0.25500000920E-02 0.  1.
       -2    1    3    3    0  502 -0.13174406085E+03 -0.16320533405E+04  0.75381004404E+03  0.18025493576E+04  0.25500000920E-02 0. -1.
</event>
<event>
 5   0  0.1164500E-08  0.3918995E+04  0.7818609E-02  0.8021090E-01
       -1   -1    0    0    0  501  0.00000000000E+00  0.00000000000E+00  0.25325881314E+04  0.25325881314E+04  0.50400001928E-02 0.  1.
        1   -1    0    0  501    0  0.00000000000E+00  0.00000000000E+00 -0.15160898435E+04  0.15160898436E+04  0.50400001928E-02 0. -1.
    10030    2    1    2    0    0  0.00000000000E+00  0.00000000000E+00  0.10164982879E+04  0.40486779750E+04  0.39189953529E+04 0.  0.
        5    1    3    3  502    0 -0.17969976082E+04 -0.56621513200E+03  0.10644023901E+04  0.21639719309E+04  0.46999998093E+01 0.  1.
       -5    1    3    3    0  502  0.17969976082E+04  0.56621513200E+03 -0.47904102174E+02  0.18847060441E+04  0.46999998093E+01 0. -1.
</event>
<event>
 5   0  0.1164500E-08  0.3901267E+04  0.7818609E-02  0.8024766E-01
        1   -1    0    0  501    0  0.00000000000E+00  0.00000000000E+00  0.17355343819E+04  0.17355343819E+04  0.50400001928E-02 0. -1.
       -1   -1    0    0    0  501  0.00000000000E+00  0.00000000000E+00 -0.21923913231E+04  0.21923913231E+04  0.50400001928E-02 0.  1.
    10030    2    1    2    0    0  0.00000000000E+00  0.00000000000E+00 -0.45685694123E+03  0.39279257050E+04  0.39012667275E+04 0.  0.
        5    1    3    3  502    0 -0.17295855936E+04 -0.85214402340E+03 -0.52596889886E+03  0.19985697723E+04  0.46999998093E+01 0. -1.
       -5    1    3    3    0  502  0.17295855936E+04  0.85214402340E+03  0.69111957629E+02  0.19293559327E+04  0.46999998093E+01 0.  1.
</event>
<event>
 5   0  0.3724293E-08  0.3941902E+04  0.7818609E-02  0.8016370E-01
        2   -1    0    0  501    0  0.00000000000E+00  0.00000000000E+00  0.19850736607E+04  0.19850736607E+04  0.25500000920E-02 0.  1.
       -2   -1    0    0    0  501  0.00000000000E+00  0.00000000000E+00 -0.19569291489E+04  0.19569291489E+04  0.25500000920E-02 0. -1.
    10030    2    1    2    0    0  0.00000000000E+00  0.00000000000E+00  0.28144511821E+02  0.39420028097E+04  0.39419023374E+04 0.  0.
        4    1    3    3  502    0 -0.17228401209E+04  0.65904900238E+03  0.70844089302E+03  0.19759589524E+04  0.12699999809E+01 0.  1.
       -4    1    3    3    0  502  0.17228401209E+04 -0.65904900238E+03 -0.68029638120E+03  0.19660438573E+04  0.12699999809E+01 0. -1.
</event>
<event>
 5   0  0.1164500E-08  0.3897880E+04  0.7818609E-02  0.8025470E-01
       -1   -1    0    0    0  501  0.00000000000E+00  0.00000000000E+00  0.14872121981E+04  0.14872121981E+04  0.50400001928E-02 0. -1.
        1   -1    0    0  501    0  0.00000000000E+00  0.00000000000E+00 -0.25540178144E+04  0.25540178144E+04  0.50400001928E-02 0.  1.
    10030    2    1    2    0    0  0.00000000000E+00  0.00000000000E+00 -0.10668056164E+04  0.40412300125E+04  0.38978796532E+04 0.  0.
        5    1    3    3  502    0  0.21385094992E+03  0.79222900450E+03 -0.23661777362E+04  0.25044317108E+04  0.46999998093E+01 0.  1.
       -5    1    3    3    0  502 -0.21385094992E+03 -0.79222900450E+03  0.12993721199E+04  0.15367983018E+04  0.46999998093E+01 0. -1.
</event>
<event>
 5   0  0.1164500E-08  0.3902273E+04  0.7818609E-02  0.8024557E-01
        1   -1    0    0  501    0  0.00000000000E+00  0.00000000000E+00  0.23140472623E+04  0.23140472623E+04  0.50400001928E-02 0. -1.
       -1   -1    0    0    0  501  0.00000000000E+00  0.00000000000E+00 -0.16451411430E+04  0.16451411431E+04  0.50400001928E-02 0.  1.
    10030    2    1    2    0    0  0.00000000000E+00  0.00000000000E+00  0.66890611921E+03  0.39591884053E+04  0.39022733672E+04 0.  0.
        1    1    3    3  502    0 -0.93289861239E+03 -0.10111647853E+04 -0.10692650466E+04  0.17424355896E+04  0.50400001928E-02 0.  1.
       -1    1    3    3    0  502  0.93289861239E+03  0.10111647853E+04  0.17381711658E+04  0.22167528157E+04  0.50400001928E-02 0. -1.
</event>
<event>
 5   0  0.1164500E-08  0.3893673E+04  0.7818609E-02  0.8026346E-01
        1   -1    0    0  501    0  0.00000000000E+00  0.00000000000E+00  0.17287756279E+04  0.17287756279E+04  0.50400001928E-02 0.  1.
       -1   -1    0    0    0  501  0.00000000000E+00  0.00000000000E+00 -0.21924030189E+04  0.21924030189E+04  0.50400001928E-02 0. -1.
    10030    2    1    2    0    0  0.00000000000E+00  0.00000000000E+00 -0.46362739107E+03  0.39211786468E+04  0.38936732814E+04 0.  0.
        5    1    3    3  502    0 -0.14737116217E+03  0.11709333376E+04 -0.17910883981E+04  0.21449528853E+04  0.46999998093E+01 0. -1.
       -5    1    3    3    0  502  0.14737116217E+03 -0.11709333376E+04  0.13274610071E+04  0.17762257615E+04  0.46999998093E+01 0.  1.
</event>
<event>
 5   0  0.3669347E-08  0.3920777E+04  0.7818609E-02  0.8020722E-01
       -2   -1    0    0    0  501  0.00000000000E+00  0.00000000000E+00  0.15022094861E+04  0.15022094861E+04  0.25500000920E-02 0.  1.
        2   -1    0    0  501    0  0.00000000000E+00  0.00000000000E+00 -0.25583138251E+04  0.25583138251E+04  0.25500000920E-02 0. -1.
    10030    2    1    2    0    0  0.00000000000E+00  0.00000000000E+00 -0.10561043390E+04  0.40605233112E+04  0.39207771151E+04 0.  0.
        5    1    3    3  502    0  0.94923470657E+03 -0.97400847867E+03 -0.19902393049E+04  0.24105629271E+04  0.46999998093E+01 0. -1.
       -5    1    3    3    0  502 -0.94923470657E+03  0.97400847867E+03  0.93413496593E+03  0.16499603841E+04  0.46999998093E+01 0.  1.
</event>
<event>
 5   0  0.1164500E-08  0.3899229E+04  0.7818609E-02  0.8025190E-01
       -1   -1    0    0    0  501  0.00000000000E+00  0.00000000000E+00  0.19051028891E+04  0.19051028891E+04  0.50400001928E-02 0.  1.
        1   -1    0    0  501    0  0.00000000000E+00  0.00000000000E+00 -0.19951659307E+04  0.19951659307E+04  0.50400001928E-02 0. -1.
    10030    2    1    2    0    0  0.00000000000E+00  0.00000000000E+00 -0.90063041632E+02  0.39002688198E+04  0.38992288359E+04 0.  0.
        1    1    3    3  502    0 -0.93561429184E+03 -0.11959803342E+02  0.16658279085E+04  0.19106281063E+04  0.50400001928E-02 0.  1.
       -1    1    3    3    0  502  0.93561429184E+03  0.11959803342E+02 -0.17558909501E+04  0.19896407135E+04  0.50400001928E-02 0. -1.
</event>
<event>
 5   0  0.3669347E-08  0.3901105E+04  0.7818609E-02  0.8024799E-01
        2   -1    0    0  501    0  0.00000000000E+00  0.00000000000E+00  0.21519840793E+04  0.21519840793E+04  0.25500000920E-02 0. -1.
       -2   -1    0    0    0  501  0.00000000000E+00  0.00000000000E+00 -0.17679755240E+04  0.17679755240E+04  0.25500000920E-02 0.  1.
    10030    2    1    2    0    0  0.00000000000E+00  0.00000000000E+00  0.38400855532E+03  0.39199596032E+04  0.39011050640E+04 0.  0.
        5    1    3    3  502    0  0.12863203891E+04 -0.46460710987E+03 -0.12054556964E+04  0.18230813026E+04  0.46999998093E+01 0.  1.
       -5    1    3    3    0  502 -0.12863203891E+04  0.46460710987E+03  0.15894642518E+04  0.20968783006E+04  0.46999998093E+01 0. -1.
</event>
<event>
 5   0  0.1164500E-08  0.3929000E+04  0.7818609E-02  0.8019025E-01
       -1   -1    0    0    0  501  0.00000000000E+00  0.00000000000E+00  0.24067202036E+04  0.24067202037E+04  0.50400001928E-02 0.  1.
        1   -1    0    0  501    0  0.00000000000E+00  0.00000000000E+00 -0.16035349084E+04  0.16035349084E+04  0.50400001928E-02 0. -1.
    10030    2    1    2    0    0  0.00000000000E+00  0.00000000000E+00  0.80318529530E+03  0.40102551120E+04  0.39289998021E+04 0.  0.
        5    1    3    3  502    0  0.14281211947E+04 -0.13486492528E+04  0.43139963002E+03  0.20110973832E+04  0.46999998093E+01 0. -1.
       -5    1    3    3    0  502 -0.14281211947E+04  0.13486492528E+04  0.37178566528E+03  0.19991577288E+04  0.46999998093E+01 0.  1.
</event>
<event>
 5   0  0.3724293E-08  0.3899126E+04  0.7818609E-02  0.8025211E-01
       -2   -1    0    0    0  501  0.00000000000E+00  0.00000000000E+00  0.25754554814E+04  0.25754554814E+04  0.25500000920E-02 0.  1.
        2   -1    0    0  501    0  0.00000000000E+00  0.00000000000E+00 -0.14757762973E+04  0.14757762973E+04  0.25500000920E-02 0. -1.
    10030    2    1    2    0    0  0.00000000000E+00  0.00000000000E+00  0.10996791841E+04  0.40512317786E+04  0.38991261349E+04 0.  0.
        4    1    3    3  502    0  0.63698946527E+03  0.62618883528E+03 -0.12506563946E+04  0.15368835566E+04  0.12699999809E+01 0. -1.
       -4    1    3    3    0  502 -0.63698946527E+03 -0.62618883528E+03  0.23503355787E+04  0.25143482220E+04  0.12699999809E+01 0.  1.
</event>
<event>
 5   0  0.1164500E-08  0.3901011E+04  0.7818609E-02  0.8024819E-01
        1   -1    0    0  501    0  0.00000000000E+00  0.00000000000E+00  0.19072984387E+04  0.19072984387E+04  0.50400001928E-02 0. -1.
       -1   -1    0    0    0  501  0.00000000000E+00  0.00000000000E+00 -0.19946910382E+04  0.19946910382E+04  0.50400001928E-02 0.  1.
    10030    2    1    2    0    0  0.00000000000E+00  0.00000000000E+00 -0.87392599517E+02  0.39019894769E+04  0.39010106910E+04 0.  0.
        4    1    3    3  502    0  0.88085267444E+03 -0.52186097590E+03  0.16169097518E+04  0.19138022548E+04  0.12699999809E+01 0. -1.
       -4    1    3    3    0  502 -0.88085267444E+03  0.52186097590E+03 -0.17043023513E+04  0.19881872220E+04  0.12699999809E+01 0.  1.
</event>
<event>
 5   0  0.1164500E-08  0.3865556E+04  0.7818609E-02  0.8032231E-01
        1   -1    0    0  501    0  0.00000000000E+00  0.00000000000E+00  0.30213153925E+04  0.30213153925E+04  0.50400001928E-02 0.  1.
       -1   -1    0    0    0  501  0.00000000000E+00  0.00000000000E+00 -0.12364250751E+04  0.12364250752E+04  0.50400001928E-02 0. -1.
    10030    2    1    2    0    0  0.00000000000E+00  0.00000000000E+00  0.17848903173E+04  0.42577404677E+04  0.38655556450E+04 0.  0.
        2    1    3    3  502    0  0.57159205149E+03 -0.12162421315E+04 -0.63761505181E+03  0.14874526379E+04  0.25500000920E-02 0. -1.
       -2    1    3    3    0  502 -0.57159205149E+03  0.12162421315E+04  0.24225053692E+04  0.27702878297E+04  0.25500000920E-02 0.  1.
</event>
<event>
 5   0  0.1164500E-08  0.3900594E+04  0.7818609E-02  0.8024906E-01
        1   -1    0    0  501    0  0.00000000000E+00  0.00000000000E+00  0.21254414619E+04  0.21254414619E+04  0.50400001928E-02 0.  1.
       -1   -1    0    0    0  501  0.00000000000E+00  0.00000000000E+00 -0.17895851980E+04  0.17895851980E+04  0.50400001928E-02 0. -1.
    10030    2    1    2    0    0  0.00000000000E+00  0.00000000000E+00  0.33585626392E+03  0.39150266599E+04  0.39005940981E+04 0.  0.
        3    1    3    3  502    0 -0.90829540298E+03 -0.26240314748E+03 -0.15441978966E+04  0.18106361051E+04  0.10100000352E+00 0. -1.
       -3    1    3    3    0  502  0.90829540298E+03  0.26240314748E+03  0.18800541605E+04  0.21043905549E+04  0.10100000352E+00 0.  1.
</event>
<event>
 5   0  0.3690572E-08  0.3899782E+04  0.7818609E-02  0.8025075E-01
        2   -1    0    0  501    0  0.00000000000E+00  0.00000000000E+00  0.12534670373E+04  0.12534670373E+04  0.25500000920E-02 0.  1.
       -2   -1    0    0    0  501  0.00000000000E+00  0.00000000000E+00 -0.30332463328E+04  0.30332463328E+04  0.25500000920E-02 0. -1.
    10030    2    1    2    0    0  0.00000000000E+00  0.00000000000E+00 -0.17797792955E+04  0.42867133701E+04  0.38997816832E+04 0.  0.
        3    1    3    3  502    0  0.18267973823E+04  0.22776456844E+03 -0.15963110697E+04  0.24366522969E+04  0.10100000352E+00 0. -1.
       -3    1    3    3    0  502 -0.18267973823E+04 -0.22776456844E+03 -0.18346822576E+03  0.18500610732E+04  0.10100000352E+00 0.  1.
</event>
<event>
 5   0  0.1164500E-08  0.3902861E+04  0.7818609E-02  0.8024434E-01
       -1   -1    0    0    0  501  0.00000000000E+00  0.00000000000E+00  0.14159826891E+04  0.14159826891E+04  0.50400001928E-02 0. -1.
        1   -1    0    0  501    0  0.00000000000E+00  0.00000000000E+00 -0.26893554159E+04  0.26893554159E+04  0.50400001928E-02 0.  1.
    10030    2    1    2    0    0  0.00000000000E+00  0.00000000000E+00 -0.12733727268E+04  0.41053381050E+04  0.39028608552E+04 0.  0.
        2    1    3    3  502    0 -0.47384423740E+03  0.39986465313E+03 -0.25829927844E+04  0.26563644001E+04  0.25500000920E-02 0.  1.
       -2    1    3    3    0  502  0.47384423740E+03 -0.39986465313E+03  0.13096200576E+04  0.14489737048E+04  0.25500000920E-02 0. -1.
</event>
<event>
 5   0  0.1164500E-08  0.3911652E+04  0.7818609E-02  0.8022610E-01
        1   -1    0    0  501    0  0.00000000000E+00  0.00000000000E+00  0.12641175698E+04  0.12641175698E+04  0.50400001928E-02 0. -1.
       -1   -1    0    0    0  501  0.00000000000E+00  0.00000000000E+00 -0.30260283123E+04  0.30260283123E+04  0.50400001928E-02 0.  1.
    10030    2    1    2    0    0  0.00000000000E+00  0.00000000000E+00 -0.17619107424E+04  0.42901458821E+04  0.39116521094E+04 0.  0.
        4    1    3    3  502    0  0.30156823305E+03 -0.14958639282E+04  0.46081888871E+03  0.15940225695E+04  0.12699999809E+01 0. -1.
       -4    1    3    3    0  502 -0.30156823305E+03  0.14958639282E+04 -0.22227296312E+04  0.26961233126E+04  0.12699999809E+01 0.  1.
</event>
<event>
 5   0  0.3669347E-08  0.3906857E+04  0.7818609E-02  0.8023605E-01
       -2   -1    0    0    0  501  0.00000000000E+00  0.00000000000E+00  0.23128942276E+04  0.23128942276E+04  0.25500000920E-02 0.  1.
        2   -1    0    0  501    0  0.00000000000E+00  0.00000000000E+00 -0.16498300502E+04  0.16498300502E+04  0.25500000920E-02 0. -1.
    10030    2    1    2    0    0  0.00000000000E+00  0.00000000000E+00  0.66306417737E+03  0.39627242778E+04  0.39068567415E+04 0.  0.
        5    1    3    3  502    0 -0.69229705331E+03 -0.13613959578E+04  0.15668086446E+04  0.21880552056E+04  0.46999998093E+01 0.  1.
       -5    1    3    3    0  502  0.69229705331E+03  0.13613959578E+04 -0.90374446719E+03  0.17746690722E+04  0.46999998093E+01 0. -1.
</event>
<event>
 5   0  0.3724293E-08  0.3894881E+04  0.7818609E-02  0.8026095E-01
       -2   -1    0    0    0  501  0.00000000000E+00  0.00000000000E+00  0.23820567727E+04  0.23820567727E+04  0.25500000920E-02 0.  1.
        2   -1    0    0  501    0  0.00000000000E+00  0.00000000000E+00 -0.15921213976E+04  0.15921213976E+04  0.25500000920E-02 0. -1.
    10030    2    1    2    0    0  0.00000000000E+00  0.00000000000E+00  0.78993537509E+03  0.39741781703E+04  0.38948805158E+04 0.  0.
        4    1    3    3  502    0  0.13775457920E+04 -0.71651174183E+03 -0.80433473558E+03  0.17487073698E+04  0.12699999809E+01 0. -1.
       -4    1    3    3    0  502 -0.13775457920E+04  0.71651174183E+03  0.15942701107E+04  0.22254708005E+04  0.12699999809E+01 0.  1.
</event>
<event>
 5   0  0.1164500E-08  0.3896939E+04  0.7818609E-02  0.8025666E-01
       -1   -1    0    0    0  501  0.00000000000E+00  0.00000000000E+00  0.16204058973E+04  0.16204058973E+04  0.50400001928E-02 0. -1.
        1   -1    0    0  501    0  0.00000000000E+00  0.00000000000E+00 -0.23429517422E+04  0.23429517422E+04  0.50400001928E-02 0.  1.
    10030    2    1    2    0    0  0.00000000000E+00  0.00000000000E+00 -0.72254584496E+03  0.39633576395E+04  0.38969387063E+04 0.  0.
        2    1    3    3  502    0  0.16395139057E+04 -0.59882870181E+03 -0.12420183306E+04  0.21422444293E+04  0.25500000920E-02 0.  1.
       -2    1    3    3    0  502 -0.16395139057E+04  0.59882870181E+03  0.51947248562E+03  0.18211132102E+04  0.25500000920E-02 0. -1.
</event>
<event>
 5   0  0.1164500E-08  0.3917333E+04  0.7818609E-02  0.8021434E-01
        1   -1    0    0  501    0  0.00000000000E+00  0.00000000000E+00  0.23002758527E+04  0.23002758527E+04  0.50400001928E-02 0. -1.
       -1   -1    0    0    0  501  0.00000000000E+00  0.00000000000E+00 -0.16677892325E+04  0.16677892325E+04  0.50400001928E-02 0.  1.
    10030    2    1    2    0    0  0.00000000000E+00  0.00000000000E+00  0.63248662019E+03  0.39680650852E+04  0.39173334292E+04 0.  0.
        3    1    3    3  502    0  0.81828000474E+03  0.11449254675E+04  0.16962146710E+04  0.22039919947E+04  0.10100000352E+00 0. -1.
       -3    1    3    3    0  502 -0.81828000474E+03 -0.11449254675E+04 -0.10637280508E+04  0.17640730905E+04  0.10100000352E+00 0.  1.
</event>
<event>
 5   0  0.1164500E-08  0.3902241E+04  0.7818609E-02  0.8024563E-01
        1   -1    0    0  501    0  0.00000000000E+00  0.00000000000E+00  0.20572744944E+04  0.20572744944E+04  0.50400001928E-02 0. -1.
       -1   -1    0    0    0  501  0.00000000000E+00  0.00000000000E+00 -0.18504439054E+04  0.18504439054E+04  0.50400001928E-02 0.  1.
    10030    2    1    2    0    0  0.00000000000E+00  0.00000000000E+00  0.20683058904E+03  0.39077183998E+04  0.39022409202E+04 0.  0.
        5    1    3    3  502    0 -0.11919851793E+04 -0.79730053287E+03  0.14282735502E+04  0.20239822705E+04  0.46999998093E+01 0. -1.
       -5    1    3    3    0  502  0.11919851793E+04  0.79730053287E+03 -0.12214429611E+04  0.18837361293E+04  0.46999998093E+01 0.  1.
</event>
<event>
 5   0  0.3872969E-08  0.3866662E+04  0.7818609E-02  0.8031999E-01
       -2   -1    0    0    0  501  0.00000000000E+00  0.00000000000E+00  0.14260175964E+04  0.14260175964E+04  0.25500000920E-02 0.  1.
        2   -1    0    0  501    0  0.00000000000E+00  0.00000000000E+00 -0.26211236203E+04  0.26211236203E+04  0.25500000920E-02 0. -1.
    10030    2    1    2    0    0  0.00000000000E+00  0.00000000000E+00 -0.11951060239E+04  0.40471412167E+04  0.38666618186E+04 0.  0.
        2    1    3    3  502    0  0.13375120299E+04  0.11585077649E+04  0.21770578054E+03  0.17828276637E+04  0.25500000920E-02 0.  1.
       -2    1    3    3    0  502 -0.13375120299E+04 -0.11585077649E+04 -0.14128118045E+04  0.22643135530E+04  0.25500000920E-02 0. -1.
</event>
<event>
 5   0  0.1164500E-08  0.3847279E+04  0.7818609E-02  0.8036084E-01
       -1   -1    0    0    0  501  0.00000000000E+00  0.00000000000E+00  0.34843304767E+04  0.34843304767E+04  0.50400001928E-02 0. -1.
        1   -1    0    0  501    0  0.00000000000E+00  0.00000000000E+00 -0.10620084995E+04  0.10620084995E+04  0.50400001928E-02 0.  1.
    10030    2    1    2    0    0  0.00000000000E+00  0.00000000000E+00  0.24223219772E+04  0.45463389762E+04  0.38472788208E+04 0.  0.
        1    1    3    3  502    0  0.11329957074E+03 -0.37091430509E+02 -0.10576388698E+04  0.10643366695E+04  0.50400001928E-02 0.  1.
       -1    1    3    3    0  502 -0.11329957074E+03  0.37091430509E+02  0.34799608470E+04  0.34820023067E+04  0.50400001928E-02 0. -1.
</event>
<event>
 5   0  0.3669347E-08  0.3908067E+04  0.7818609E-02  0.8023354E-01
        2   -1    0    0  501    0  0.00000000000E+00  0.00000000000E+00  0.19527022575E+04  0.19527022575E+04  0.25500000920E-02 0.  1.
       -2   -1    0    0    0  501  0.00000000000E+00  0.00000000000E+00 -0.19553653807E+04  0.19553653807E+04  0.25500000920E-02 0. -1.
    10030    2    1    2    0    0  0.00000000000E+00  0.00000000000E+00 -0.26631232201E+01  0.39080676382E+04  0.39080667308E+04 0.  0.
        5    1    3    3  502    0  0.19331434591E+03  0.43221368782E+03 -0.18971287195E+04  0.19553256958E+04  0.46999998093E+01 0. -1.
       -5    1    3    3    0  502 -0.19331434591E+03 -0.43221368782E+03  0.18944655963E+04  0.19527419424E+04  0.46999998093E+01 0.  1.
</event>
<event>
 5   0  0.1164500E-08  0.3896272E+04  0.7818609E-02  0.8025805E-01
        1   -1    0    0  501    0  0.00000000000E+00  0.00000000000E+00  0.13070441404E+04  0.13070441404E+04  0.50400001928E-02 0.  1.
       -1   -1    0    0    0  501  0.00000000000E+00  0.00000000000E+00 -0.29036764704E+04  0.29036764704E+04  0.50400001928E-02 0. -1.
    10030    2    1    2    0    0  0.00000000000E+00  0.00000000000E+00 -0.15966323300E+04  0.42107206109E+04  0.38962717135E+04 0.  0.
        3    1    3    3  502    0  0.16795858243E+04  0.10348763191E+03  0.26249100770E+03  0.17031205977E+04  0.10100000352E+00 0.  1.
       -3    1    3    3    0  502 -0.16795858243E+04 -0.10348763191E+03 -0.18591233377E+04  0.25076000132E+04  0.10100000352E+00 0. -1.
</event>
<event>
 5   0  0.3872969E-08  0.3912641E+04  0.7818609E-02  0.8022405E-01
       -2   -1    0    0    0  501  0.00000000000E+00  0.00000000000E+00  0.17797210173E+04  0.17797210173E+04  0.25500000920E-02 0. -1.
        2   -1    0    0  501    0  0.00000000000E+00  0.00000000000E+00 -0.21504439483E+04  0.21504439483E+04  0.25500000920E-02 0.  1.
    10030    2    1    2    0    0  0.00000000000E+00  0.00000000000E+00 -0.37072293092E+03  0.39301649656E+04  0.39126412007E+04 0.  0.
        2    1    3    3  502    0  0.21854544329E+03  0.16483845361E+04  0.84991293582E+03  0.18674275590E+04  0.25500000920E-02 0. -1.
       -2    1    3    3    0  502 -0.21854544329E+03 -0.16483845361E+04 -0.12206358667E+04  0.20627374066E+04  0.25500000920E-02 0.  1.
</event>
<event>
 5   0  0.3669347E-08  0.3883214E+04  0.7818609E-02  0.8028530E-01
        2   -1    0    0  501    0  0.00000000000E+00  0.00000000000E+00  0.20238251810E+04  0.20238251810E+04  0.25500000920E-02 0.  1.
       -2   -1    0    0    0  501  0.00000000000E+00  0.00000000000E+00 -0.18627285291E+04  0.18627285291E+04  0.25500000920E-02 0. -1.
    10030    2    1    2    0    0  0.00000000000E+00  0.00000000000E+00  0.16109665184E+03  0.38865537101E+04  0.38832135674E+04 0.  0.
        5    1    3    3  502    0 -0.87360599947E+03  0.14118243728E+04  0.10880816379E+04  0.19850388517E+04  0.46999998093E+01 0.  1.
       -5    1    3    3    0  502  0.87360599947E+03 -0.14118243728E+04 -0.92698498610E+03  0.19015148583E+04  0.46999998093E+01 0. -1.
</event>
<event>
 5   0  0.1164500E-08  0.3904748E+04  0.7818609E-02  0.8024042E-01
        1   -1    0    0  501    0  0.00000000000E+00  0.00000000000E+00  0.17510297684E+04  0.17510297684E+04  0.50400001928E-02 0.  1.
       -1   -1    0    0    0  501  0.00000000000E+00  0.00000000000E+00 -0.21768700444E+04  0.21768700444E+04  0.50400001928E-02 0. -1.
    10030    2    1    2    0    0  0.00000000000E+00  0.00000000000E+00 -0.42584027595E+03  0.39278998128E+04  0.39047480071E+04 0.  0.
        3    1    3    3  502    0 -0.72959290145E+03  0.12307531159E+04  0.11233783387E+04  0.18190761216E+04  0.10100000352E+00 0.  1.
       -3    1    3    3    0  502  0.72959290145E+03 -0.12307531159E+04 -0.15492186147E+04  0.21088236912E+04  0.10100000352E+00 0. -1.
</event>
<event>
 5   0  0.1164500E-08  0.3900654E+04  0.7818609E-02  0.8024893E-01
        1   -1    0    0  501    0  0.00000000000E+00  0.00000000000E+00  0.19569357668E+04  0.19569357668E+04  0.50400001928E-02 0.  1.
       -1   -1    0    0    0  501  0.00000000000E+00  0.00000000000E+00 -0.19437407632E+04  0.19437407632E+04  0.50400001928E-02 0. -1.
    10030    2    1    2    0    0  0.00000000000E+00  0.00000000000E+00  0.13195003572E+02  0.39006765300E+04  0.39006542123E+04 0.  0.
        4    1    3    3  502    0 -0.68381340538E+03 -0.18061165286E+04 -0.26564754959E+03  0.19494173288E+04  0.12699999809E+01 0.  1.
       -4    1    3    3    0  502  0.68381340538E+03  0.18061165286E+04  0.27884255316E+03  0.19512592013E+04  0.12699999809E+01 0. -1.
</event>
<event>
 5   0  0.3690572E-08  0.3901927E+04  0.7818609E-02  0.8024629E-01
       -2   -1    0    0    0  501  0.00000000000E+00  0.00000000000E+00  0.11833677619E+04  0.11833677619E+04  0.25500000920E-02 0.  1.
        2   -1    0    0  501    0  0.00000000000E+00  0.00000000000E+00 -0.32164632842E+04  0.32164632842E+04  0.25500000920E-02 0. -1.
    10030    2    1    2    0    0  0.00000000000E+00  0.00000000000E+00 -0.20330955223E+04  0.43998310461E+04  0.39019271946E+04 0.  0.
        3    1    3    3  502    0 -0.17982189395E+04  0.43876922731E+03 -0.17117863266E+04  0.25211747713E+04  0.10100000352E+00 0. -1.
       -3    1    3    3    0  502  0.17982189395E+04 -0.43876922731E+03 -0.32130919564E+03  0.18786562748E+04  0.10100000352E+00 0.  1.
</event>
<event>
 5   0  0.1164500E-08  0.3906676E+04  0.7818609E-02  0.8023642E-01
        1   -1    0    0  501    0  0.00000000000E+00  0.00000000000E+00  0.16318928444E+04  0.16318928444E+04  0.50400001928E-02 0. -1.
       -1   -1    0    0    0  501  0.00000000000E+00  0.00000000000E+00 -0.23381005946E+04  0.23381005946E+04  0.50400001928E-02 0.  1.
    10030    2    1    2    0    0  0.00000000000E+00  0.00000000000E+00 -0.70620775023E+03  0.39699934391E+04  0.39066761473E+04 0.  0.
        5    1    3    3  502    0 -0.64529879566E+03  0.17437464448E+04 -0.96151037872E+03  0.20932239483E+04  0.46999998093E+01 0.  1.
       -5    1    3    3    0  502  0.64529879566E+03 -0.17437464448E+04  0.25530262849E+03  0.18767694908E+04  0.46999998093E+01 0. -1.
</event>
<event>
 5   0  0.3769985E-08  0.3897766E+04  0.7818609E-02  0.8025494E-01
       -2   -1    0    0    0  501  0.00000000000E+00  0.00000000000E+00  0.25841624032E+04  0.25841624032E+04  0.25500000920E-02 0.  1.
        2   -1    0    0  501    0  0.00000000000E+00  0.00000000000E+00 -0.14697782846E+04  0.14697782846E+04  0.25500000920E-02 0. -1.
    10030    2    1    2    0    0  0.00000000000E+00  0.00000000000E+00  0.11143841186E+04  0.40539406878E+04  0.38977664291E+04 0.  0.
        1    1    3    3  502    0 -0.28879190239E+03  0.14330393750E+04  0.18976867929E+04  0.23954577386E+04  0.50400001928E-02 0.  1.
       -1    1    3    3    0  502  0.28879190239E+03 -0.14330393750E+04 -0.78330267428E+03  0.16584829492E+04  0.50400001928E-02 0. -1.
</event>
<event>
 5   0  0.1164500E-08  0.3895897E+04  0.7818609E-02  0.8025883E-01
        1   -1    0    0  501    0  0.00000000000E+00  0.00000000000E+00  0.31296248356E+04  0.31296248356E+04  0.50400001928E-02 0. -1.
       -1   -1    0    0    0  501  0.00000000000E+00  0.00000000000E+00 -0.12124464462E+04  0.12124464462E+04  0.50400001928E-02 0.  1.
    10030    2    1    2    0    0  0.00000000000E+00  0.00000000000E+00  0.19171783895E+04  0.43420712818E+04  0.38958965643E+04 0.  0.
        1    1    3    3  502    0  0.17573240101E+04  0.13824832074E+03  0.34674631667E+02  0.17630946102E+04  0.50400001928E-02 0.  1.
       -1    1    3    3    0  502 -0.17573240101E+04 -0.13824832074E+03  0.18825037578E+04  0.25789766716E+04  0.50400001928E-02 0. -1.
</event>
<event>
 5   0  0.3872969E-08  0.3899181E+04  0.7818609E-02  0.8025199E-01
        2   -1    0    0  501    0  0.00000000000E+00  0.00000000000E+00  0.17824794295E+04  0.17824794295E+04  0.25500000920E-02 0. -1.
       -2   -1    0    0    0  501  0.00000000000E+00  0.00000000000E+00 -0.21323690196E+04  0.21323690196E+04  0.25500000920E-02 0.  1.
    10030    2    1    2    0    0  0.00000000000E+00  0.00000000000E+00 -0.34988959008E+03  0.39148484491E+04  0.38991814082E+04 0.  0.
        2    1    3    3  502    0 -0.80124132937E+03  0.31746405853E+03  0.15808335363E+04  0.18005015317E+04  0.25500000920E-02 0. -1.
       -2    1    3    3    0  502  0.80124132937E+03 -0.31746405853E+03 -0.19307231264E+04  0.21143469174E+04  0.25500000920E-02 0.  1.
</event>
<event>
 5   0  0.1164500E-08  0.3898169E+04  0.7818609E-02  0.8025410E-01
        1   -1    0    0  501    0  0.00000000000E+00  0.00000000000E+00  0.17710090698E+04  0.17710090698E+04  0.50400001928E-02 0.  1.
       -1   -1    0    0    0  501  0.00000000000E+00  0.00000000000E+00 -0.21450659286E+04  0.21450659286E+04  0.50400001928E-02 0. -1.
    10030    2    1    2    0    0  0.00000000000E+00  0.00000000000E+00 -0.37405685879E+03  0.39160749984E+04  0.38981694242E+04 0.  0.
        3    1    3    3  502    0 -0.11727445389E+04 -0.59841805518E+02  0.13757586220E+04  0.18087627239E+04  0.10100000352E+00 0.  1.
       -3    1    3    3    0  502  0.11727445389E+04  0.59841805518E+02 -0.17498154808E+04  0.21073122745E+04  0.10100000352E+00 0. -1.
</event>
<event>
 5   0  0.3724293E-08  0.3907424E+04  0.7818609E-02  0.8023487E-01
       -2   -1    0    0    0  501  0.00000000000E+00  0.00000000000E+00  0.16248759337E+04  0.16248759337E+04  0.25500000920E-02 0. -1.
        2   -1    0    0  501    0  0.00000000000E+00  0.00000000000E+00 -0.23490961789E+04  0.23490961789E+04  0.25500000920E-02 0.  1.
    10030    2    1    2    0    0  0.00000000000E+00  0.00000000000E+00 -0.72422024525E+03  0.39739721126E+04  0.39074236254E+04 0.  0.
        4    1    3    3  502    0  0.73295587516E+03 -0.11548665789E+04 -0.17808768377E+04  0.22455433761E+04  0.12699999809E+01 0.  1.
       -4    1    3    3    0  502 -0.73295587516E+03  0.11548665789E+04  0.10566565925E+04  0.17284287365E+04  0.12699999809E+01 0. -1.
</event>
<event>
 5   0  0.3769985E-08  0.3897120E+04  0.7818609E-02  0.8025628E-01
        2   -1    0    0  501    0  0.00000000000E+00  0.00000000000E+00  0.12343258902E+04  0.12343258902E+04  0.25500000920E-02 0. -1.
       -2   -1    0    0    0  501  0.00000000000E+00  0.00000000000E+00 -0.30760811319E+04  0.30760811319E+04  0.25500000920E-02 0.  1.
    10030    2    1    2    0    0  0.00000000000E+00  0.00000000000E+00 -0.18417552418E+04  0.43104070221E+04  0.38971202606E+04 0.  0.
        1    1    3    3  502    0  0.64762956439E+03  0.18339665984E+04 -0.10518828166E+04  0.22111795487E+04  0.50400001928E-02 0. -1.
       -1    1    3    3    0  502 -0.64762956439E+03 -0.18339665984E+04 -0.78987242517E+03  0.20992274734E+04  0.50400001928E-02 0.  1.
</event>
<event>
 5   0  0.1164500E-08  0.3897863E+04  0.7818609E-02  0.8025474E-01
        1   -1    0    0  501    0  0.00000000000E+00  0.00000000000E+00  0.26112440880E+04  0.26112440880E+04  0.50400001928E-02 0. -1.
       -1   -1    0    0    0  501  0.00000000000E+00  0.00000000000E+00 -0.14546069221E+04  0.14546069221E+04  0.50400001928E-02 0.  1.
    10030    2    1    2    0    0  0.00000000000E+00  0.00000000000E+00  0.11566371659E+04  0.40658510101E+04  0.38978628636E+04 0.  0.
        3    1    3    3  502    0  0.17426897710E+04 -0.72034331866E+03  0.64682735026E+02  0.18868084167E+04  0.10100000352E+00 0.  1.
       -3    1    3    3    0  502 -0.17426897710E+04  0.72034331866E+03  0.10919544308E+04  0.21790425935E+04  0.10100000352E+00 0. -1.
</event>
<event>
 5   0  0.1164500E-08  0.3895869E+04  0.7818609E-02  0.8025889E-01
        1   -1    0    0  501    0  0.00000000000E+00  0.00000000000E+00  0.24114677938E+04  0.24114677938E+04  0.50400001928E-02 0. -1.
       -1   -1    0    0    0  501  0.00000000000E+00  0.00000000000E+00 -0.15735019809E+04  0.15735019809E+04  0.50400001928E-02 0.  1.
    10030    2    1    2    0    0  0.00000000000E+00  0.00000000000E+00  0.83796581291E+03  0.39849697747E+04  0.38958692742E+04 0.  0.
        5    1    3    3  502    0 -0.43857903419E+03 -0.89667805780E+03 -0.12920089306E+04  0.16326947894E+04  0.46999998093E+01 0.  1.
       -5    1    3    3    0  502  0.43857903419E+03  0.89667805780E+03  0.21299747435E+04  0.23522749853E+04  0.46999998093E+01 0. -1.
</event>
<event>
 5   0  0.1164500E-08  0.3899847E+04  0.7818609E-02  0.8025061E-01
       -1   -1    0    0    0  501  0.00000000000E+00  0.00000000000E+00  0.25507848672E+04  0.25507848672E+04  0.50400001928E-02 0.  1.
        1   -1    0    0  501    0  0.00000000000E+00  0.00000000000E+00 -0.14906010569E+04  0.14906010569E+04  0.50400001928E-02 0. -1.
    10030    2    1    2    0    0  0.00000000000E+00  0.00000000000E+00  0.10601838104E+04  0.40413859241E+04  0.38998474939E+04 0.  0.
        3    1    3    3  502    0  0.18348203413E+04 -0.88289013901E+02  0.12079275376E+04  0.21985107644E+04  0.10100000352E+00 0. -1.
       -3    1    3    3    0  502 -0.18348203413E+04  0.88289013901E+02 -0.14774372728E+03  0.18428751597E+04  0.10100000352E+00 0.  1.
</event>
<event>
 5   0  0.3872969E-08  0.3907641E+04  0.7818609E-02  0.8023442E-01
       -2   -1    0    0    0  501  0.00000000000E+00  0.00000000000E+00  0.22605288849E+04  0.22605288849E+04  0.25500000920E-02 0.  1.
        2   -1    0    0  501    0  0.00000000000E+00  0.00000000000E+00 -0.16887262031E+04  0.16887262031E+04  0.25500000920E-02 0. -1.
    10030    2    1    2    0    0  0.00000000000E+00  0.00000000000E+00  0.57180268173E+03  0.39492550880E+04  0.39076409051E+04 0.  0.
        2    1    3    3  502    0 -0.11327331345E+04 -0.10245016864E+04 -0.94556838630E+03  0.17963261487E+04  0.25500000920E-02 0. -1.
       -2    1    3    3    0  502  0.11327331345E+04  0.10245016864E+04  0.15173710680E+04  0.21529289393E+04  0.25500000920E-02 0.  1.
</event>
<event>
 5   0  0.1164500E-08  0.3900346E+04  0.7818609E-02  0.8024957E-01
       -1   -1    0    0    0  501  0.00000000000E+00  0.00000000000E+00  0.11544617966E+04  0.11544617966E+04  0.50400001928E-02 0. -1.
        1   -1    0    0  501    0  0.00000000000E+00  0.00000000000E+00 -0.32943271716E+04  0.32943271716E+04  0.50400001928E-02 0.  1.
    10030    2    1    2    0    0  0.00000000000E+00  0.00000000000E+00 -0.21398653750E+04  0.44487889683E+04  0.39003460694E+04 0.  0.
        3    1    3    3  502    0 -0.16439204421E+04  0.52389539398E+03 -0.21067212728E+04  0.27230892999E+04  0.10100000352E+00 0.  1.
       -3    1    3    3    0  502  0.16439204421E+04 -0.52389539398E+03 -0.33144102194E+02  0.17256996684E+04  0.10100000352E+00 0. -1.
</event>
<event>
 5   0  0.3769985E-08  0.3896919E+04  0.7818609E-02  0.8025670E-01
       -2   -1    0    0    0  501  0.00000000000E+00  0.00000000000E+00  0.18860399424E+04  0.18860399424E+04  0.25500000920E-02 0. -1.
        2   -1    0    0  501    0  0.00000000000E+00  0.00000000000E+00 -0.20129451730E+04  0.20129451730E+04  0.25500000920E-02 0.  1.
    10030    2    1    2    0    0  0.00000000000E+00  0.00000000000E+00 -0.12690523062E+03  0.38989851154E+04  0.38969192951E+04 0.  0.
        1    1    3    3  502    0  0.18589544338E+04  0.47635222738E+03 -0.40108070865E+03  0.19604817690E+04  0.50400001928E-02 0.  1.
       -1    1    3    3    0  502 -0.18589544338E+04 -0.47635222738E+03  0.27417547803E+03  0.19385033465E+04  0.50400001928E-02 0. -1.
</event>
<event>
 5   0  0.3724293E-08  0.3903074E+04  0.7818609E-02  0.8024390E-01
        2   -1    0    0  501    0  0.00000000000E+00  0.00000000000E+00  0.31633841868E+04  0.31633841868E+04  0.25500000920E-02 0.  1.
       -2   -1    0    0    0  501  0.00000000000E+00  0.00000000000E+00 -0.12039309043E+04  0.12039309043E+04  0.25500000920E-02 0. -1.
    10030    2    1    2    0    0  0.00000000000E+00  0.00000000000E+00  0.19594532825E+04  0.43673150911E+04  0.39030736527E+04 0.  0.
        4    1    3    3  502    0  0.73101954197E+03 -0.99813980699E+03  0.26684855194E+04  0.29413413989E+04  0.12699999809E+01 0.  1.
       -4    1    3    3    0  502 -0.73101954197E+03  0.99813980699E+03 -0.70903223684E+03  0.14259736922E+04  0.12699999809E+01 0. -1.
</event>
<event>
 5   0  0.1164500E-08  0.3805740E+04  0.7818609E-02  0.8044924E-01
       -1   -1    0    0    0  501  0.00000000000E+00  0.00000000000E+00  0.22808947297E+04  0.22808947297E+04  0.50400001928E-02 0. -1.
        1   -1    0    0  501    0  0.00000000000E+00  0.00000000000E+00 -0.15874975923E+04  0.15874975923E+04  0.50400001928E-02 0.  1.
    10030    2    1    2    0    0  0.00000000000E+00  0.00000000000E+00  0.69339713734E+03  0.38683923220E+04  0.38057403441E+04 0.  0.
        5    1    3    3  502    0  0.10532714442E+04  0.10272068459E+04 -0.87996496731E+03  0.17143205865E+04  0.46999998093E+01 0.  1.
       -5    1    3    3    0  502 -0.10532714442E+04 -0.10272068459E+04  0.15733621046E+04  0.21540717355E+04  0.46999998093E+01 0. -1.
</event>
<event>
 5   0  0.3690572E-08  0.3901566E+04  0.7818609E-02  0.8024704E-01
       -2   -1    0    0    0  501  0.00000000000E+00  0.00000000000E+00  0.16118894461E+04  0.16118894461E+04  0.25500000920E-02 0.  1.
        2   -1    0    0  501    0  0.00000000000E+00  0.00000000000E+00 -0.23609277289E+04  0.23609277289E+04  0.25500000920E-02 0. -1.
    10030    2    1    2    0    0  0.00000000000E+00  0.00000000000E+00 -0.74903828279E+03  0.39728171750E+04  0.39015660903E+04 0.  0.
        3    1    3    3  502    0 -0.77872278539E+03 -0.52539456081E+03  0.13664131602E+04  0.16581717510E+04  0.10100000352E+00 0.  1.
       -3    1    3    3    0  502  0.77872278539E+03  0.52539456081E+03 -0.21154514430E+04  0.23146454240E+04  0.10100000352E+00 0. -1.
</event>
<event>
 5   0  0.3690572E-08  0.3896797E+04  0.7818609E-02  0.8025696E-01
        2   -1    0    0  501    0  0.00000000000E+00  0.00000000000E+00  0.15005774382E+04  0.15005774382E+04  0.25500000920E-02 0.  1.
       -2   -1    0    0    0  501  0.00000000000E+00  0.00000000000E+00 -0.25298634146E+04  0.25298634146E+04  0.25500000920E-02 0. -1.
    10030    2    1    2    0    0  0.00000000000E+00  0.00000000000E+00 -0.10292859764E+04  0.40304408528E+04  0.38967966135E+04 0.  0.
        3    1    3    3  502    0  0.18042056798E+03  0.11767805552E+04 -0.21099055252E+04  0.24226154033E+04  0.10100000352E+00 0. -1.
       -3    1    3    3    0  502 -0.18042056798E+03 -0.11767805552E+04  0.10806195489E+04  0.16078254495E+04  0.10100000352E+00 0.  1.
</event>
<event>
 5   0  0.1164500E-08  0.3907794E+04  0.7818609E-02  0.8023410E-01
       -1   -1    0    0    0  501  0.00000000000E+00  0.00000000000E+00  0.12683731401E+04  0.12683731401E+04  0.50400001928E-02 0.  1.
        1   -1    0    0  501    0  0.00000000000E+00  0.00000000000E+00 -0.30099292438E+04  0.30099292438E+04  0.50400001928E-02 0. -1.
    10030    2    1    2    0    0  0.00000000000E+00  0.00000000000E+00 -0.17415561037E+04  0.42783023838E+04  0.39077939589E+04 0.  0.
        2    1    3    3  502    0  0.45585367886E+03  0.15475646946E+04  0.33597887076E+03  0.16479201625E+04  0.25500000920E-02 0.  1.
       -2    1    3    3    0  502 -0.45585367886E+03 -0.15475646946E+04 -0.20775349744E+04  0.26303822213E+04  0.25500000920E-02 0. -1.
</event>
<event>
 5   0  0.1164500E-08  0.3905122E+04  0.7818609E-02  0.8023965E-01
       -1   -1    0    0    0  501  0.00000000000E+00  0.00000000000E+00  0.25479619254E+04  0.25479619254E+04  0.50400001928E-02 0. -1.
        1   -1    0    0  501    0  0.00000000000E+00  0.00000000000E+00 -0.14962919914E+04  0.14962919914E+04  0.50400001928E-02 0.  1.
    10030    2    1    2    0    0  0.00000000000E+00  0.00000000000E+00  0.10516699340E+04  0.40442539168E+04  0.39051222892E+04 0.  0.
        5    1    3    3  502    0  0.92618104044E+03 -0.15896428437E+04 -0.15145088225E+03  0.18460051869E+04  0.46999998093E+01 0.  1.
       -5    1    3    3    0  502 -0.92618104044E+03  0.15896428437E+04  0.12031208163E+04  0.21982487299E+04  0.46999998093E+01 0. -1.
</event>
<event>
 5   0  0.1164500E-08  0.3891423E+04  0.7818609E-02  0.8026815E-01
        1   -1    0    0  501    0  0.00000000000E+00  0.00000000000E+00  0.17125129809E+04  0.17125129809E+04  0.50400001928E-02 0.  1.
       -1   -1    0    0    0  501  0.00000000000E+00  0.00000000000E+00 -0.22106652397E+04  0.22106652397E+04  0.50400001928E-02 0. -1.
    10030    2    1    2    0    0  0.00000000000E+00  0.00000000000E+00 -0.49815225883E+03  0.39231782206E+04  0.38914228345E+04 0.  0.
        1    1    3    3  502    0 -0.11180687874E+04  0.11745740613E+04 -0.13330669443E+04  0.20992306964E+04  0.50400001928E-02 0. -1.
       -1    1    3    3    0  502  0.11180687874E+04 -0.11745740613E+04  0.83491468543E+03  0.18239475241E+04  0.50400001928E-02 0.  1.
</event>
<event>
 5   0  0.3669347E-08  0.3900154E+04  0.7818609E-02  0.8024997E-01
       -2   -1    0    0    0  501  0.00000000000E+00  0.00000000000E+00  0.15299041484E+04  0.15299041484E+04  0.25500000920E-02 0.  1.
        2   -1    0    0  501    0  0.00000000000E+00  0.00000000000E+00 -0.24856457920E+04  0.24856457920E+04  0.25500000920E-02 0. -1.
    10030    2    1    2    0    0  0.00000000000E+00  0.00000000000E+00 -0.95574164360E+03  0.40155499405E+04  0.39001537451E+04 0.  0.
        5    1    3    3  502    0 -0.15003353858E+04 -0.10732698223E+04 -0.11289279488E+04  0.21627331747E+04  0.46999998093E+01 0. -1.
       -5    1    3    3    0  502  0.15003353858E+04  0.10732698223E+04  0.17318630522E+03  0.18528167658E+04  0.46999998093E+01 0.  1.
</event>
<event>
 5   0  0.3690572E-08  0.3899220E+04  0.7818609E-02  0.8025191E-01
        2   -1    0    0  501    0  0.00000000000E+00  0.00000000000E+00  0.17157611137E+04  0.17157611137E+04  0.25500000920E-02 0. -1.
       -2   -1    0    0    0  501  0.00000000000E+00  0.00000000000E+00 -0.22153317759E+04  0.22153317759E+04  0.25500000920E-02 0.  1.
    10030    2    1    2    0    0  0.00000000000E+00  0.00000000000E+00 -0.49957066217E+03  0.39310928896E+04  0.38992204940E+04 0.  0.
        3    1    3    3  502    0 -0.10932971289E+04  0.14499944387E+04 -0.96494794173E+03  0.20564306516E+04  0.10100000352E+00 0.  1.
       -3    1    3    3    0  502  0.10932971289E+04 -0.14499944387E+04  0.46537727956E+03  0.18746622381E+04  0.10100000352E+00 0. -1.
</event>
<event>
 5   0  0.3724293E-08  0.3894164E+04  0.7818609E-02  0.8026244E-01
        2   -1    0    0  501    0  0.00000000000E+00  0.00000000000E+00  0.33202593814E+04  0.33202593814E+04  0.25500000920E-02 0. -1.
       -2   -1    0    0    0  501  0.00000000000E+00  0.00000000000E+00 -0.11418166647E+04  0.11418166647E+04  0.25500000920E-02 0.  1.
    10030    2    1    2    0    0  0.00000000000E+00  0.00000000000E+00  0.21784427168E+04  0.44620760461E+04  0.38941635779E+04 0.  0.
        4    1    3    3  502    0  0.13826657671E+04 -0.11978602892E+03 -0.47559601055E+03  0.14670741271E+04  0.12699999809E+01 0.  1.
       -4    1    3    3    0  502 -0.13826657671E+04  0.11978602892E+03  0.26540387273E+04  0.29950019190E+04  0.12699999809E+01 0. -1.
</event>
<event>
 5   0  0.3690572E-08  0.3903302E+04  0.7818609E-02  0.8024343E-01
       -2   -1    0    0    0  501  0.00000000000E+00  0.00000000000E+00  0.22071171278E+04  0.22071171278E+04  0.25500000920E-02 0. -1.
        2   -1    0    0  501    0  0.00000000000E+00  0.00000000000E+00 -0.17257540177E+04  0.17257540177E+04  0.25500000920E-02 0.  1.
    10030    2    1    2    0    0  0.00000000000E+00  0.00000000000E+00  0.48136311004E+03  0.39328711455E+04  0.39033018079E+04 0.  0.
        3    1    3    3  502    0 -0.42572549289E+03  0.98605368323E+03 -0.14012019118E+04  0.17654775188E+04  0.10100000352E+00 0.  1.
       -3    1    3    3    0  502  0.42572549289E+03 -0.98605368323E+03  0.18825650219E+04  0.21673936267E+04  0.10100000352E+00 0. -1.
</event>
<event>
 5   0  0.1164500E-08  0.3900258E+04  0.7818609E-02  0.8024975E-01
       -1   -1    0    0    0  501  0.00000000000E+00  0.00000000000E+00  0.21543206457E+04  0.21543206457E+04  0.50400001928E-02 0.  1.
        1   -1    0    0  501    0  0.00000000000E+00  0.00000000000E+00 -0.17652915181E+04  0.17652915181E+04  0.50400001928E-02 0. -1.
    10030    2    1    2    0    0  0.00000000000E+00  0.00000000000E+00  0.38902912757E+03  0.39196121639E+04  0.39002584341E+04 0.  0.
        5    1    3    3  502    0  0.92583072459E+03  0.16835518125E+04  0.53004648999E+03  0.19931082779E+04  0.46999998093E+01 0.  1.
       -5    1    3    3    0  502 -0.92583072459E+03 -0.16835518125E+04 -0.14101736243E+03  0.19265038859E+04  0.46999998093E+01 0. -1.
</event>
<event>
 5   0  0.1164500E-08  0.3907159E+04  0.7818609E-02  0.8023542E-01
       -1   -1    0    0    0  501  0.00000000000E+00  0.00000000000E+00  0.27393031078E+04  0.27393031078E+04  0.50400001928E-02 0.  1.
        1   -1    0    0  501    0  0.00000000000E+00  0.00000000000E+00 -0.13932275735E+04  0.13932275735E+04  0.50400001928E-02 0. -1.
    10030    2    1    2    0    0  0.00000000000E+00  0.00000000000E+00  0.13460755344E+04  0.41325306813E+04  0.39071588767E+04 0.  0.
        4    1    3    3  502    0  0.59415889325E+02 -0.13937513212E+04  0.21195497374E+04  0.25374328947E+04  0.12699999809E+01 0.  1.
       -4    1    3    3    0  502 -0.59415889325E+02  0.13937513212E+04 -0.77347420298E+03  0.15950977866E+04  0.12699999809E+01 0. -1.
</event>
<event>
 5   0  0.1164500E-08  0.3907188E+04  0.7818609E-02  0.8023536E-01
        1   -1    0    0  501    0  0.00000000000E+00  0.00000000000E+00  0.20840787315E+04  0.20840787315E+04  0.50400001928E-02 0. -1.
       -1   -1    0    0    0  501  0.00000000000E+00  0.00000000000E+00 -0.18312792247E+04  0.18312792247E+04  0.50400001928E-02 0.  1.
    10030    2    1    2    0    0  0.00000000000E+00  0.00000000000E+00  0.25279950685E+03  0.39153579563E+04  0.39071882902E+04 0.  0.
        5    1    3    3  502    0 -0.39678133041E+03 -0.19076480068E+04  0.26794541417E+03  0.19668180335E+04  0.46999998093E+01 0. -1.
       -5    1    3    3    0  502  0.39678133041E+03  0.19076480068E+04 -0.15145907325E+02  0.19485399227E+04  0.46999998093E+01 0.  1.
</event>
<event>
 5   0  0.1164500E-08  0.3899657E+04  0.7818609E-02  0.8025101E-01
       -1   -1    0    0    0  501  0.00000000000E+00  0.00000000000E+00  0.26741890882E+04  0.26741890882E+04  0.50400001928E-02 0. -1.
        1   -1    0    0  501    0  0.00000000000E+00  0.00000000000E+00 -0.14216763536E+04  0.14216763536E+04  0.50400001928E-02 0.  1.
    10030    2    1    2    0    0  0.00000000000E+00  0.00000000000E+00  0.12525127346E+04  0.40958654418E+04  0.38996571089E+04 0.  0.
        4    1    3    3  502    0  0.52825490834E+03 -0.12712601700E+03  0.25930705590E+04  0.26493830998E+04  0.12699999809E+01 0. -1.
       -4    1    3    3    0  502 -0.52825490834E+03  0.12712601700E+03 -0.13405578244E+04  0.14464823421E+04  0.12699999809E+01 0.  1.
</event>
<event>
 5   0  0.3690572E-08  0.3894520E+04  0.7818609E-02  0.8026170E-01
        2   -1    0    0  501    0  0.00000000000E+00  0.00000000000E+00  0.22075575901E+04  0.22075575901E+04  0.25500000920E-02 0. -1.
       -2   -1    0    0    0  501  0.00000000000E+00  0.00000000000E+00 -0.17176543785E+04  0.17176543785E+04  0.25500000920E-02 0.  1.
    10030    2    1    2    0    0  0.00000000000E+00  0.00000000000E+00  0.48990321160E+03  0.39252119687E+04  0.38945197191E+04 0.  0.
        3    1    3    3  502    0 -0.54825322696E+03 -0.14375757045E+04 -0.95802735314E+03  0.18124629449E+04  0.10100000352E+00 0.  1.
       -3    1    3    3    0  502  0.54825322696E+03  0.14375757045E+04  0.14479305647E+04  0.21127490238E+04  0.10100000352E+00 0. -1.
</event>
<event>
 5   0  0.1164500E-08  0.3909208E+04  0.7818609E-02  0.8023117E-01
        1   -1    0    0  501    0  0.00000000000E+00  0.00000000000E+00  0.18100001400E+04  0.18100001400E+04  0.50400001928E-02 0.  1.
       -1   -1    0    0    0  501  0.00000000000E+00  0.00000000000E+00 -0.21107599903E+04  0.21107599903E+04  0.50400001928E-02 0. -1.
    10030    2    1    2    0    0  0.00000000000E+00  0.00000000000E+00 -0.30075985032E+03  0.39207601303E+04  0.39092075299E+04 0.  0.
        3    1    3    3  502    0 -0.75188269167E+02 -0.19421527096E+04 -0.35803149247E+03  0.19763089290E+04  0.10100000352E+00 0.  1.
       -3    1    3    3    0  502  0.75188269167E+02  0.19421527096E+04  0.57271642156E+02  0.19444512013E+04  0.10100000352E+00 0. -1.
</event>
<event>
 5   0  0.1164500E-08  0.3903767E+04  0.7818609E-02  0.8024246E-01
       -4   -1    0    0    0  501  0.00000000000E+00  0.00000000000E+00  0.15401465398E+04  0.15401470634E+04  0.12699999809E+01 0.  1.
        4   -1    0    0  501    0  0.00000000000E+00  0.00000000000E+00 -0.24736912672E+04  0.24736915932E+04  0.12699999809E+01 0. -1.
    10030    2    1    2    0    0  0.00000000000E+00  0.00000000000E+00 -0.93354472741E+03  0.40138386565E+04  0.39037667710E+04 0.  0.
        2    1    3    3  502    0  0.17035021521E+03 -0.82326703061E+03 -0.22779923478E+04  0.24281756395E+04  0.25500000920E-02 0. -1.
       -2    1    3    3    0  502 -0.17035021521E+03  0.82326703061E+03  0.13444476204E+04  0.15856630170E+04  0.25500000920E-02 0.  1.
</event>
<event>
 5   0  0.3690572E-08  0.3894476E+04  0.7818609E-02  0.8026179E-01
       -2   -1    0    0    0  501  0.00000000000E+00  0.00000000000E+00  0.13130405488E+04  0.13130405488E+04  0.25500000920E-02 0. -1.
        2   -1    0    0  501    0  0.00000000000E+00  0.00000000000E+00 -0.28877518692E+04  0.28877518692E+04  0.25500000920E-02 0.  1.
    10030    2    1    2    0    0  0.00000000000E+00  0.00000000000E+00 -0.15747113203E+04  0.42007924180E+04  0.38944757281E+04 0.  0.
        3    1    3    3  502    0  0.93219623784E+03 -0.11634400438E+04 -0.21385406995E+04  0.26069021644E+04  0.10100000352E+00 0.  1.
       -3    1    3    3    0  502 -0.93219623784E+03  0.11634400438E+04  0.56382937915E+03  0.15938902536E+04  0.10100000352E+00 0. -1.
</event>
<event>
 5   0  0.1164500E-08  0.3899772E+04  0.7818609E-02  0.8025077E-01
       -1   -1    0    0    0  501  0.00000000000E+00  0.00000000000E+00  0.19154194977E+04  0.19154194977E+04  0.50400001928E-02 0. -1.
        1   -1    0    0  501    0  0.00000000000E+00  0.00000000000E+00 -0.19849722981E+04  0.19849722981E+04  0.50400001928E-02 0.  1.
    10030    2    1    2    0    0  0.00000000000E+00  0.00000000000E+00 -0.69552800406E+02  0.39003917958E+04  0.38997716046E+04 0.  0.
        3    1    3    3  502    0  0.14398508539E+04 -0.23126397791E+03 -0.13293551164E+04  0.19732811621E+04  0.10100000352E+00 0.  1.
       -3    1    3    3    0  502 -0.14398508539E+04  0.23126397791E+03  0.12598023160E+04  0.19271106337E+04  0.10100000352E+00 0. -1.
</event>
<event>
 5   0  0.3724293E-08  0.3906560E+04  0.7818609E-02  0.8023666E-01
        2   -1    0    0  501    0  0.00000000000E+00  0.00000000000E+00  0.24944918736E+04  0.24944918736E+04  0.25500000920E-02 0. -1.
       -2   -1    0    0    0  501  0.00000000000E+00  0.00000000000E+00 -0.15294909144E+04  0.15294909144E+04  0.25500000920E-02 0.  1.
    10030    2    1    2    0    0  0.00000000000E+00  0.00000000000E+00  0.96500095912E+03  0.40239827880E+04  0.39065599480E+04 0.  0.
        4    1    3    3  502    0 -0.11981657247E+04  0.74583504346E+03 -0.90843239737E+03  0.16784284463E+04  0.12699999809E+01 0.  1.
       -4    1    3    3    0  502  0.11981657247E+04 -0.74583504346E+03  0.18734333565E+04  0.23455543417E+04  0.12699999809E+01 0. -1.
</event>
<event>
 5   0  0.1164500E-08  0.3893334E+04  0.7818609E-02  0.8026417E-01
        1   -1    0    0  501    0  0.00000000000E+00  0.00000000000E+00  0.15045353875E+04  0.15045353875E+04  0.50400001928E-02 0.  1.
       -1   -1    0    0    0  501  0.00000000000E+00  0.00000000000E+00 -0.25187261818E+04  0.25187261818E+04  0.50400001928E-02 0. -1.
    10030    2    1    2    0    0  0.00000000000E+00  0.00000000000E+00 -0.10141907943E+04  0.40232615692E+04  0.38933341351E+04 0.  0.
        2    1    3    3  502    0  0.16518934591E+04 -0.98979413973E+03 -0.21286878985E+03  0.19374616282E+04  0.25500000920E-02 0. -1.
       -2    1    3    3    0  502 -0.16518934591E+04  0.98979413973E+03 -0.80132200447E+03  0.20857999410E+04  0.25500000920E-02 0.  1.
</event>
<event>
 5   0  0.1164500E-08  0.3890968E+04  0.7818609E-02  0.8026910E-01
       -1   -1    0    0    0  501  0.00000000000E+00  0.00000000000E+00  0.14901361087E+04  0.14901361087E+04  0.50400001928E-02 0.  1.
        1   -1    0    0  501    0  0.00000000000E+00  0.00000000000E+00 -0.25399751365E+04  0.25399751365E+04  0.50400001928E-02 0. -1.
    10030    2    1    2    0    0  0.00000000000E+00  0.00000000000E+00 -0.10498390278E+04  0.40301112452E+04  0.38909683453E+04 0.  0.
        2    1    3    3  502    0 -0.53310420100E+03 -0.41447194636E+03 -0.24146989513E+04  0.25073408442E+04  0.25500000920E-02 0. -1.
       -2    1    3    3    0  502  0.53310420100E+03  0.41447194636E+03  0.13648599235E+04  0.15227704010E+04  0.25500000920E-02 0.  1.
</event>
<event>
 5   0  0.1164500E-08  0.3901844E+04  0.7818609E-02  0.8024646E-01
        1   -1    0    0  501    0  0.00000000000E+00  0.00000000000E+00  0.23785650207E+04  0.23785650207E+04  0.50400001928E-02 0.  1.
       -1   -1    0    0    0  501  0.00000000000E+00  0.00000000000E+00 -0.16001648401E+04  0.16001648401E+04  0.50400001928E-02 0. -1.
    10030    2    1    2    0    0  0.00000000000E+00  0.00000000000E+00  0.77840018062E+03  0.39787298609E+04  0.39018437263E+04 0.  0.
        4    1    3    3  502    0 -0.17527951619E+04 -0.61292182048E+03 -0.22103224391E+03  0.18699788510E+04  0.12699999809E+01 0.  1.
       -4    1    3    3    0  502  0.17527951619E+04  0.61292182048E+03  0.99943242453E+03  0.21087510099E+04  0.12699999809E+01 0. -1.
</event>
<event>
 5   0  0.1164500E-08  0.3897678E+04  0.7818609E-02  0.8025512E-01
       -1   -1    0    0    0  501  0.00000000000E+00  0.00000000000E+00  0.20365954166E+04  0.20365954166E+04  0.50400001928E-02 0. -1.
        1   -1    0    0  501    0  0.00000000000E+00  0.00000000000E+00 -0.18648640496E+04  0.18648640496E+04  0.50400001928E-02 0.  1.
    10030    2    1    2    0    0  0.00000000000E+00  0.00000000000E+00  0.17173136705E+03  0.39014594662E+04  0.38976780658E+04 0.  0.
        3    1    3    3  502    0  0.31570904661E+03  0.15411528175E+04  0.12372639444E+04  0.20014110741E+04  0.10100000352E+00 0. -1.
       -3    1    3    3    0  502 -0.31570904661E+03 -0.15411528175E+04 -0.10655325773E+04  0.19000483922E+04  0.10100000352E+00 0.  1.
</event>
<event>
 5   0  0.1164500E-08  0.3911420E+04  0.7818609E-02  0.8022658E-01
       -1   -1    0    0    0  501  0.00000000000E+00  0.00000000000E+00  0.12598535184E+04  0.12598535184E+04  0.50400001928E-02 0.  1.
        1   -1    0    0  501    0  0.00000000000E+00  0.00000000000E+00 -0.30359104706E+04  0.30359104706E+04  0.50400001928E-02 0. -1.
    10030    2    1    2    0    0  0.00000000000E+00  0.00000000000E+00 -0.17760569522E+04  0.42957639890E+04  0.39114204520E+04 0.  0.
        5    1    3    3  502    0  0.18941992832E+03  0.10485092434E+04 -0.26891541415E+04  0.28925462191E+04  0.46999998093E+01 0. -1.
       -5    1    3    3    0  502 -0.18941992832E+03 -0.10485092434E+04  0.91309718933E+03  0.14032177699E+04  0.46999998093E+01 0.  1.
</event>
<event>
 5   0  0.3690572E-08  0.3858955E+04  0.7818609E-02  0.8033620E-01
        2   -1    0    0  501    0  0.00000000000E+00  0.00000000000E+00  0.11464466158E+04  0.11464466158E+04  0.25500000920E-02 0.  1.
       -2   -1    0    0    0  501  0.00000000000E+00  0.00000000000E+00 -0.32473239253E+04  0.32473239253E+04  0.25500000920E-02 0. -1.
    10030    2    1    2    0    0  0.00000000000E+00  0.00000000000E+00 -0.21008773096E+04  0.43937705411E+04  0.38589550527E+04 0.  0.
        3    1    3    3  502    0 -0.13939655573E+04  0.10236418401E+04 -0.76360508542E+02  0.17311307083E+04  0.10100000352E+00 0.  1.
       -3    1    3    3    0  502  0.13939655573E+04 -0.10236418401E+04 -0.20245168010E+04  0.26626398329E+04  0.10100000352E+00 0. -1.
</event>
<event>
 5   0  0.1164500E-08  0.3895890E+04  0.7818609E-02  0.8025885E-01
        1   -1    0    0  501    0  0.00000000000E+00  0.00000000000E+00  0.27474194108E+04  0.27474194108E+04  0.50400001928E-02 0. -1.
       -1   -1    0    0    0  501  0.00000000000E+00  0.00000000000E+00 -0.13811104824E+04  0.13811104824E+04  0.50400001928E-02 0.  1.
    10030    2    1    2    0    0  0.00000000000E+00  0.00000000000E+00  0.13663089284E+04  0.41285298932E+04  0.38958900127E+04 0.  0.
        1    1    3    3  502    0  0.39672437613E+03 -0.12247375884E+04 -0.86602928168E+03  0.15515731075E+04  0.50400001928E-02 0.  1.
       -1    1    3    3    0  502 -0.39672437613E+03  0.12247375884E+04  0.22323382101E+04  0.25769567857E+04  0.50400001928E-02 0. -1.
</event>
<event>
 5   0  0.3769985E-08  0.3915203E+04  0.7818609E-02  0.8021875E-01
       -2   -1    0    0    0  501  0.00000000000E+00  0.00000000000E+00  0.22091125181E+04  0.22091125181E+04  0.25500000920E-02 0. -1.
        2   -1    0    0  501    0  0.00000000000E+00  0.00000000000E+00 -0.17347257101E+04  0.17347257101E+04  0.25500000920E-02 0.  1.
    10030    2    1    2    0    0  0.00000000000E+00  0.00000000000E+00  0.47438680797E+03  0.39438382282E+04  0.39152033315E+04 0.  0.
        1    1    3    3  502    0 -0.44772140648E+03 -0.14509570417E+04 -0.10073481550E+04  0.18222187300E+04  0.50400001928E-02 0.  1.
       -1    1    3    3    0  502  0.44772140648E+03  0.14509570417E+04  0.14817349630E+04  0.21216194982E+04  0.50400001928E-02 0. -1.
</event>
<event>
 5   0  0.1164500E-08  0.3899820E+04  0.7818609E-02  0.8025067E-01
        1   -1    0    0  501    0  0.00000000000E+00  0.00000000000E+00  0.23349730151E+04  0.23349730151E+04  0.50400001928E-02 0.  1.
       -1   -1    0    0    0  501  0.00000000000E+00  0.00000000000E+00 -0.16283483002E+04  0.16283483002E+04  0.50400001928E-02 0. -1.
    10030    2    1    2    0    0  0.00000000000E+00  0.00000000000E+00  0.70662471496E+03  0.39633213153E+04  0.38998201703E+04 0.  0.
        3    1    3    3  502    0 -0.66942940687E+03 -0.32575808644E+03 -0.14782246996E+04  0.16551139944E+04  0.10100000352E+00 0. -1.
       -3    1    3    3    0  502  0.66942940687E+03  0.32575808644E+03  0.21848494146E+04  0.23082073209E+04  0.10100000352E+00 0.  1.
</event>
<event>
 5   0  0.1164500E-08  0.3893496E+04  0.7818609E-02  0.8026383E-01
       -1   -1    0    0    0  501  0.00000000000E+00  0.00000000000E+00  0.32261317194E+04  0.32261317194E+04  0.50400001928E-02 0.  1.
        1   -1    0    0  501    0  0.00000000000E+00  0.00000000000E+00 -0.11747278966E+04  0.11747278966E+04  0.50400001928E-02 0. -1.
    10030    2    1    2    0    0  0.00000000000E+00  0.00000000000E+00  0.20514038228E+04  0.44008596161E+04  0.38934955652E+04 0.  0.
        2    1    3    3  502    0 -0.15375252103E+04  0.11686622916E+04  0.74866831014E+03  0.20712941758E+04  0.25500000920E-02 0.  1.
       -2    1    3    3    0  502  0.15375252103E+04 -0.11686622916E+04  0.13027355127E+04  0.23295654402E+04  0.25500000920E-02 0. -1.
</event>
<event>
 5   0  0.1164500E-08  0.3899748E+04  0.7818609E-02  0.8025082E-01
        3   -1    0    0  501    0  0.00000000000E+00  0.00000000000E+00  0.23268822779E+04  0.23268822800E+04  0.10100000352E+00 0. -1.
       -3   -1    0    0    0  501  0.00000000000E+00  0.00000000000E+00 -0.16339498388E+04  0.16339498419E+04  0.10100000352E+00 0.  1.
    10030    2    1    2    0    0  0.00000000000E+00  0.00000000000E+00  0.69293243907E+03  0.39608321219E+04  0.38997481628E+04 0.  0.
        3    1    3    3  502    0 -0.16524106939E+04  0.45571974662E+03  0.12904692736E+04  0.21455657867E+04  0.10100000352E+00 0. -1.
       -3    1    3    3    0  502  0.16524106939E+04 -0.45571974662E+03 -0.59753683455E+03  0.18152663352E+04  0.10100000352E+00 0.  1.
</event>
<event>
 5   0  0.3669347E-08  0.3899249E+04  0.7818609E-02  0.8025185E-01
       -2   -1    0    0    0  501  0.00000000000E+00  0.00000000000E+00  0.17325398094E+04  0.17325398094E+04  0.25500000920E-02 0. -1.
        2   -1    0    0  501    0  0.00000000000E+00  0.00000000000E+00 -0.21939096128E+04  0.21939096128E+04  0.25500000920E-02 0.  1.
    10030    2    1    2    0    0  0.00000000000E+00  0.00000000000E+00 -0.46136980338E+03  0.39264494222E+04  0.38992490264E+04 0.  0.
        5    1    3    3  502    0  0.56574067255E+03 -0.14680452640E+04 -0.13901484514E+04  0.20994652206E+04  0.46999998093E+01 0.  1.
       -5    1    3    3    0  502 -0.56574067255E+03  0.14680452640E+04  0.92877864806E+03  0.18269842016E+04  0.46999998093E+01 0. -1.
</event>
<event>
 5   0  0.3669347E-08  0.3900919E+04  0.7818609E-02  0.8024838E-01
       -2   -1    0    0    0  501  0.00000000000E+00  0.00000000000E+00  0.31180495621E+04  0.31180495621E+04  0.25500000920E-02 0. -1.
        2   -1    0    0  501    0  0.00000000000E+00  0.00000000000E+00 -0.12200872698E+04  0.12200872698E+04  0.25500000920E-02 0.  1.
    10030    2    1    2    0    0  0.00000000000E+00  0.00000000000E+00  0.18979622923E+04  0.43381368319E+04  0.39009191621E+04 0.  0.
        5    1    3    3  502    0  0.42697442626E+03  0.18496431660E+04  0.45067035768E+03  0.19510542954E+04  0.46999998093E+01 0.  1.
       -5    1    3    3    0  502 -0.42697442626E+03 -0.18496431660E+04  0.14472919346E+04  0.23870825365E+04  0.46999998093E+01 0. -1.
</event>
<event>
 5   0  0.3669347E-08  0.3877257E+04  0.7818609E-02  0.8029776E-01
        2   -1    0    0  501    0  0.00000000000E+00  0.00000000000E+00  0.23516554101E+04  0.23516554101E+04  0.25500000920E-02 0.  1.
       -2   -1    0    0    0  501  0.00000000000E+00  0.00000000000E+00 -0.15981423575E+04  0.15981423575E+04  0.25500000920E-02 0. -1.
    10030    2    1    2    0    0  0.00000000000E+00  0.00000000000E+00  0.75351305260E+03  0.39497977676E+04  0.38772568246E+04 0.  0.
        5    1    3    3  502    0  0.86351208915E+03  0.13574582978E+04  0.14786176620E+04  0.21851037593E+04  0.46999998093E+01 0.  1.
       -5    1    3    3    0  502 -0.86351208915E+03 -0.13574582978E+04 -0.72510460941E+03  0.17646940083E+04  0.46999998093E+01 0. -1.
</event>
<event>
 5   0  0.1164500E-08  0.3895949E+04  0.7818609E-02  0.8025872E-01
       -1   -1    0    0    0  501  0.00000000000E+00  0.00000000000E+00  0.29707175327E+04  0.29707175327E+04  0.50400001928E-02 0. -1.
        1   -1    0    0  501    0  0.00000000000E+00  0.00000000000E+00 -0.12773363341E+04  0.12773363341E+04  0.50400001928E-02 0.  1.
    10030    2    1    2    0    0  0.00000000000E+00  0.00000000000E+00  0.16933811986E+04  0.42480538668E+04  0.38959494057E+04 0.  0.
        4    1    3    3  502    0  0.22563557922E+03  0.17048491664E+04 -0.15097863348E+03  0.17263308650E+04  0.12699999809E+01 0.  1.
       -4    1    3    3    0  502 -0.22563557922E+03 -0.17048491664E+04  0.18443598320E+04  0.25217230018E+04  0.12699999809E+01 0. -1.
</event>
<event>
 5   0  0.3872969E-08  0.3906614E+04  0.7818609E-02  0.8023655E-01
       -2   -1    0    0    0  501  0.00000000000E+00  0.00000000000E+00  0.14984508115E+04  0.14984508115E+04  0.25500000920E-02 0.  1.
        2   -1    0    0  501    0  0.00000000000E+00  0.00000000000E+00 -0.25462346332E+04  0.25462346332E+04  0.25500000920E-02 0. -1.
    10030    2    1    2    0    0  0.00000000000E+00  0.00000000000E+00 -0.10477838217E+04  0.40446854447E+04  0.39066135475E+04 0.  0.
        2    1    3    3  502    0 -0.14963845007E+03 -0.12018971398E+04  0.10627385478E+04  0.16113229414E+04  0.25500000920E-02 0.  1.
       -2    1    3    3    0  502  0.14963845007E+03  0.12018971398E+04 -0.21105223695E+04  0.24333625033E+04  0.25500000920E-02 0. -1.
</event>
<event>
 5   0  0.3690572E-08  0.3898726E+04  0.7818609E-02  0.8025294E-01
       -2   -1    0    0    0  501  0.00000000000E+00  0.00000000000E+00  0.16462442039E+04  0.16462442039E+04  0.25500000920E-02 0.  1.
        2   -1    0    0  501    0  0.00000000000E+00  0.00000000000E+00 -0.23082941977E+04  0.23082941977E+04  0.25500000920E-02 0. -1.
    10030    2    1    2    0    0  0.00000000000E+00  0.00000000000E+00 -0.66204999374E+03  0.39545384016E+04  0.38987259170E+04 0.  0.
        3    1    3    3  502    0 -0.16402222300E+04 -0.74972473696E+03  0.41956838026E+03  0.18516084308E+04  0.10100000352E+00 0. -1.
       -3    1    3    3    0  502  0.16402222300E+04  0.74972473696E+03 -0.10816183740E+04  0.21029299708E+04  0.10100000352E+00 0.  1.
</event>
<event>
 5   0  0.1164500E-08  0.3894838E+04  0.7818609E-02  0.8026104E-01
        1   -1    0    0  501    0  0.00000000000E+00  0.00000000000E+00  0.18361329290E+04  0.18361329290E+04  0.50400001928E-02 0.  1.
       -1   -1    0    0    0  501  0.00000000000E+00  0.00000000000E+00 -0.20654504251E+04  0.20654504251E+04  0.50400001928E-02 0. -1.
    10030    2    1    2    0    0  0.00000000000E+00  0.00000000000E+00 -0.22931749612E+03  0.39015833541E+04  0.38948383991E+04 0.  0.
        3    1    3    3  502    0  0.16429178308E+04  0.12616427792E+03  0.92509110584E+03  0.18896798639E+04  0.10100000352E+00 0.  1.
       -3    1    3    3    0  502 -0.16429178308E+04 -0.12616427792E+03 -0.11544086020E+04  0.20119034903E+04  0.10100000352E+00 0. -1.
</event>
<event>
 5   0  0.3690572E-08  0.3903427E+04  0.7818609E-02  0.8024317E-01
       -2   -1    0    0    0  501  0.00000000000E+00  0.00000000000E+00  0.17459815866E+04  0.17459815866E+04  0.25500000920E-02 0.  1.
        2   -1    0    0  501    0  0.00000000000E+00  0.00000000000E+00 -0.21816874042E+04  0.21816874042E+04  0.25500000920E-02 0. -1.
    10030    2    1    2    0    0  0.00000000000E+00  0.00000000000E+00 -0.43570581755E+03  0.39276689908E+04  0.39034272303E+04 0.  0.
        3    1    3    3  502    0 -0.22986852886E+03 -0.49939081997E+03 -0.21021696529E+04  0.21728663078E+04  0.10100000352E+00 0. -1.
       -3    1    3    3    0  502  0.22986852886E+03  0.49939081997E+03  0.16664638354E+04  0.17548026830E+04  0.10100000352E+00 0.  1.
</event>
<event>
 5   0  0.1164500E-08  0.3908766E+04  0.7818609E-02  0.8023209E-01
        1   -1    0    0  501    0  0.00000000000E+00  0.00000000000E+00  0.26789445764E+04  0.26789445764E+04  0.50400001928E-02 0.  1.
       -1   -1    0    0    0  501  0.00000000000E+00  0.00000000000E+00 -0.14257900168E+04  0.14257900168E+04  0.50400001928E-02 0. -1.
    10030    2    1    2    0    0  0.00000000000E+00  0.00000000000E+00  0.12531545595E+04  0.41047345932E+04  0.39087657554E+04 0.  0.
        1    1    3    3  502    0 -0.18697387080E+04  0.56846479031E+03  0.65092092635E+03  0.20597992879E+04  0.50400001928E-02 0. -1.
       -1    1    3    3    0  502  0.18697387080E+04 -0.56846479031E+03  0.60223363320E+03  0.20449353053E+04  0.50400001928E-02 0.  1.
</event>
<event>
 5   0  0.3669347E-08  0.3897322E+04  0.7818609E-02  0.8025586E-01
        2   -1    0    0  501    0  0.00000000000E+00  0.00000000000E+00  0.14949401025E+04  0.14949401025E+04  0.25500000920E-02 0. -1.
       -2   -1    0    0    0  501  0.00000000000E+00  0.00000000000E+00 -0.25400880152E+04  0.25400880152E+04  0.25500000920E-02 0.  1.
    10030    2    1    2    0    0  0.00000000000E+00  0.00000000000E+00 -0.10451479127E+04  0.40350281177E+04  0.38973218691E+04 0.  0.
        5    1    3    3  502    0 -0.12884098994E+04  0.42110988179E+03 -0.19720127417E+04  0.23929458717E+04  0.46999998093E+01 0.  1.
       -5    1    3    3    0  502  0.12884098994E+04 -0.42110988179E+03  0.92686482900E+03  0.16420822460E+04  0.46999998093E+01 0. -1.
</event>
<event>
 5   0  0.1164500E-08  0.3906936E+04  0.7818609E-02  0.8023588E-01
       -1   -1    0    0    0  501  0.00000000000E+00  0.00000000000E+00  0.18697977398E+04  0.18697977398E+04  0.50400001928E-02 0. -1.
        1   -1    0    0  501    0  0.00000000000E+00  0.00000000000E+00 -0.20408819480E+04  0.20408819480E+04  0.50400001928E-02 0.  1.
    10030    2    1    2    0    0  0.00000000000E+00  0.00000000000E+00 -0.17108420824E+03  0.39106796878E+04  0.39069356041E+04 0.  0.
        3    1    3    3  502    0  0.40688507622E+03  0.14680175837E+04  0.11384974667E+04  0.19017906255E+04  0.10100000352E+00 0. -1.
       -3    1    3    3    0  502 -0.40688507622E+03 -0.14680175837E+04 -0.13095816749E+04  0.20088890623E+04  0.10100000352E+00 0.  1.
</event>
<event>
 5   0  0.3872969E-08  0.3991565E+04  0.7818609E-02  0.8006250E-01
       -2   -1    0    0    0  501  0.00000000000E+00  0.00000000000E+00  0.16417471234E+04  0.16417471234E+04  0.25500000920E-02 0. -1.
        2   -1    0    0  501    0  0.00000000000E+00  0.00000000000E+00 -0.24261646081E+04  0.24261646081E+04  0.25500000920E-02 0.  1.
    10030    2    1    2    0    0  0.00000000000E+00  0.00000000000E+00 -0.78441748461E+03  0.40679117315E+04  0.39915654905E+04 0.  0.
        2    1    3    3  502    0  0.15727174449E+04 -0.10221442144E+04 -0.10871081761E+04  0.21679536764E+04  0.25500000920E-02 0.  1.
       -2    1    3    3    0  502 -0.15727174449E+04  0.10221442144E+04  0.30269069144E+03  0.18999580551E+04  0.25500000920E-02 0. -1.
</event>
<event>
 5   0  0.1164500E-08  0.3892660E+04  0.7818609E-02  0.8026557E-01
       -1   -1    0    0    0  501  0.00000000000E+00  0.00000000000E+00  0.25114391265E+04  0.25114391265E+04  0.50400001928E-02 0. -1.
        1   -1    0    0  501    0  0.00000000000E+00  0.00000000000E+00 -0.15083785669E+04  0.15083785669E+04  0.50400001928E-02 0.  1.
    10030    2    1    2    0    0  0.00000000000E+00  0.00000000000E+00  0.10030605596E+04  0.40198176934E+04  0.38926602474E+04 0.  0.
        5    1    3    3  502    0  0.15650206057E+04  0.92651511202E+03  0.12173243137E+04  0.21885201219E+04  0.46999998093E+01 0.  1.
       -5    1    3    3    0  502 -0.15650206057E+04 -0.92651511202E+03 -0.21426375412E+03  0.18312975715E+04  0.46999998093E+01 0. -1.
</event>
<event>
 5   0  0.1164500E-08  0.3881188E+04  0.7818609E-02  0.8028953E-01
        1   -1    0    0  501    0  0.00000000000E+00  0.00000000000E+00  0.24786229137E+04  0.24786229137E+04  0.50400001928E-02 0.  1.
       -1   -1    0    0    0  501  0.00000000000E+00  0.00000000000E+00 -0.15193541542E+04  0.15193541542E+04  0.50400001928E-02 0. -1.
    10030    2    1    2    0    0  0.00000000000E+00  0.00000000000E+00  0.95926875953E+03  0.39979770680E+04  0.38811884885E+04 0.  0.
        2    1    3    3  502    0 -0.11621967069E+04  0.11128585294E+03 -0.11171129912E+04  0.16158673095E+04  0.25500000920E-02 0. -1.
       -2    1    3    3    0  502  0.11621967069E+04 -0.11128585294E+03  0.20763817508E+04  0.23821097585E+04  0.25500000920E-02 0.  1.
</event>
<event>
 5   0  0.1164500E-08  0.3801286E+04  0.7818609E-02  0.8045879E-01
       -3   -1    0    0    0  501  0.00000000000E+00  0.00000000000E+00  0.16905398454E+04  0.16905398484E+04  0.10100000352E+00 0. -1.
        3   -1    0    0  501    0  0.00000000000E+00  0.00000000000E+00 -0.21368581306E+04  0.21368581329E+04  0.10100000352E+00 0.  1.
    10030    2    1    2    0    0  0.00000000000E+00  0.00000000000E+00 -0.44631828517E+03  0.38273979814E+04  0.38012860056E+04 0.  0.
        5    1    3    3  502    0  0.10723903295E+04 -0.78586838082E+03 -0.15907276381E+04  0.20731730848E+04  0.46999998093E+01 0.  1.
       -5    1    3    3    0  502 -0.10723903295E+04  0.78586838082E+03  0.11444093529E+04  0.17542248966E+04  0.46999998093E+01 0. -1.
</event>
<event>
 5   0  0.3669347E-08  0.3908606E+04  0.7818609E-02  0.8023242E-01
       -2   -1    0    0    0  501  0.00000000000E+00  0.00000000000E+00  0.29304182723E+04  0.29304182723E+04  0.25500000920E-02 0. -1.
        2   -1    0    0  501    0  0.00000000000E+00  0.00000000000E+00 -0.13033294925E+04  0.13033294925E+04  0.25500000920E-02 0.  1.
    10030    2    1    2    0    0  0.00000000000E+00  0.00000000000E+00  0.16270887797E+04  0.42337477648E+04  0.39086061760E+04 0.  0.
        5    1    3    3  502    0  0.13113741831E+03 -0.94098395789E+03 -0.10363365737E+04  0.14059386244E+04  0.46999998093E+01 0.  1.
       -5    1    3    3    0  502 -0.13113741831E+03  0.94098395789E+03  0.26634253534E+04  0.28278091405E+04  0.46999998093E+01 0. -1.
</event>
<event>
 5   0  0.1164500E-08  0.3903802E+04  0.7818609E-02  0.8024239E-01
        3   -1    0    0  501    0  0.00000000000E+00  0.00000000000E+00  0.24572427592E+04  0.24572427613E+04  0.10100000352E+00 0. -1.
       -3   -1    0    0    0  501  0.00000000000E+00  0.00000000000E+00 -0.15504847941E+04  0.15504847974E+04  0.10100000352E+00 0.  1.
    10030    2    1    2    0    0  0.00000000000E+00  0.00000000000E+00  0.90675796504E+03  0.40077275587E+04  0.39038020157E+04 0.  0.
        3    1    3    3  502    0 -0.97081132119E+03 -0.14953399289E+04 -0.36238247193E+03  0.18192957952E+04  0.10100000352E+00 0.  1.
       -3    1    3    3    0  502  0.97081132119E+03  0.14953399289E+04  0.12691404370E+04  0.21884317635E+04  0.10100000352E+00 0. -1.
</event>
<event>
 5   0  0.3769985E-08  0.3892123E+04  0.7818609E-02  0.8026669E-01
        2   -1    0    0  501    0  0.00000000000E+00  0.00000000000E+00  0.23982098538E+04  0.23982098538E+04  0.25500000920E-02 0. -1.
       -2   -1    0    0    0  501  0.00000000000E+00  0.00000000000E+00 -0.15791592620E+04  0.15791592620E+04  0.25500000920E-02 0.  1.
    10030    2    1    2    0    0  0.00000000000E+00  0.00000000000E+00  0.81905059185E+03  0.39773691158E+04  0.38921229697E+04 0.  0.
        1    1    3    3  502    0  0.14941012319E+04 -0.11545035419E+04  0.89094687503E+03  0.20878226107E+04  0.50400001928E-02 0.  1.
       -1    1    3    3    0  502 -0.14941012319E+04  0.11545035419E+04 -0.71896283183E+02  0.18895465051E+04  0.50400001928E-02 0. -1.
</event>
<event>
 5   0  0.3669347E-08  0.3898731E+04  0.7818609E-02  0.8025293E-01
        2   -1    0    0  501    0  0.00000000000E+00  0.00000000000E+00  0.16492310716E+04  0.16492310716E+04  0.25500000920E-02 0.  1.
       -2   -1    0    0    0  501  0.00000000000E+00  0.00000000000E+00 -0.23041197450E+04  0.23041197450E+04  0.25500000920E-02 0. -1.
    10030    2    1    2    0    0  0.00000000000E+00  0.00000000000E+00 -0.65488867342E+03  0.39533508166E+04  0.38987310121E+04 0.  0.
        5    1    3    3  502    0 -0.15868686067E+04  0.10006109897E+04  0.20972190498E+03  0.18876916313E+04  0.46999998093E+01 0. -1.
       -5    1    3    3    0  502  0.15868686067E+04 -0.10006109897E+04 -0.86461057840E+03  0.20656591853E+04  0.46999998093E+01 0.  1.
</event>
<event>
 5   0  0.3669347E-08  0.3884737E+04  0.7818609E-02  0.8028211E-01
        2   -1    0    0  501    0  0.00000000000E+00  0.00000000000E+00  0.20631318717E+04  0.20631318717E+04  0.25500000920E-02 0. -1.
       -2   -1    0    0    0  501  0.00000000000E+00  0.00000000000E+00 -0.18286740524E+04  0.18286740524E+04  0.25500000920E-02 0.  1.
    10030    2    1    2    0    0  0.00000000000E+00  0.00000000000E+00  0.23445781938E+03  0.38918059241E+04  0.38847371703E+04 0.  0.
        5    1    3    3  502    0 -0.32970932404E+03 -0.12909029239E+04  0.15331778951E+04  0.20312053430E+04  0.46999998093E+01 0. -1.
       -5    1    3    3    0  502  0.32970932404E+03  0.12909029239E+04 -0.12987200757E+04  0.18606005811E+04  0.46999998093E+01 0.  1.
</event>
<event>
 5   0  0.1164500E-08  0.3907307E+04  0.7818609E-02  0.8023511E-01
        1   -1    0    0  501    0  0.00000000000E+00  0.00000000000E+00  0.29866240526E+04  0.29866240526E+04  0.50400001928E-02 0. -1.
       -1   -1    0    0    0  501  0.00000000000E+00  0.00000000000E+00 -0.12779518304E+04  0.12779518304E+04  0.50400001928E-02 0.  1.
    10030    2    1    2    0    0  0.00000000000E+00  0.00000000000E+00  0.17086722222E+04  0.42645758830E+04  0.39073068345E+04 0.  0.
        5    1    3    3  502    0  0.86580870473E+03 -0.95691535642E+03  0.24552269704E+04  0.27737111022E+04  0.46999998093E+01 0. -1.
       -5    1    3    3    0  502 -0.86580870473E+03  0.95691535642E+03 -0.74655474820E+03  0.14908647808E+04  0.46999998093E+01 0.  1.
</event>
<event>
 5   0  0.1164500E-08  0.3899376E+04  0.7818609E-02  0.8025159E-01
       -3   -1    0    0    0  501  0.00000000000E+00  0.00000000000E+00  0.23387090915E+04  0.23387090937E+04  0.10100000352E+00 0.  1.
        3   -1    0    0  501    0  0.00000000000E+00  0.00000000000E+00 -0.16253768676E+04  0.16253768707E+04  0.10100000352E+00 0. -1.
    10030    2    1    2    0    0  0.00000000000E+00  0.00000000000E+00  0.71333222389E+03  0.39640859644E+04  0.38993761901E+04 0.  0.
        5    1    3    3  502    0  0.39163931286E+03 -0.13714382148E+04  0.17080253203E+04  0.22252183518E+04  0.46999998093E+01 0.  1.
       -5    1    3    3    0  502 -0.39163931286E+03  0.13714382148E+04 -0.99469309637E+03  0.17388676127E+04  0.46999998093E+01 0. -1.
</event>
<event>
 5   0  0.3669347E-08  0.3901791E+04  0.7818609E-02  0.8024657E-01
        2   -1    0    0  501    0  0.00000000000E+00  0.00000000000E+00  0.27837645573E+04  0.27837645573E+04  0.25500000920E-02 0.  1.
       -2   -1    0    0    0  501  0.00000000000E+00  0.00000000000E+00 -0.13672107084E+04  0.13672107084E+04  0.25500000920E-02 0. -1.
    10030    2    1    2    0    0  0.00000000000E+00  0.00000000000E+00  0.14165538489E+04  0.41509752657E+04  0.39017907234E+04 0.  0.
        5    1    3    3  502    0  0.16229259899E+04 -0.10718757839E+04  0.54635918646E+03  0.20202318965E+04  0.46999998093E+01 0. -1.
       -5    1    3    3    0  502 -0.16229259899E+04  0.10718757839E+04  0.87019466245E+03  0.21307433692E+04  0.46999998093E+01 0.  1.
</event>
<event>
 5   0  0.1164500E-08  0.3891385E+04  0.7818609E-02  0.8026823E-01
       -1   -1    0    0    0  501  0.00000000000E+00  0.00000000000E+00  0.11791574249E+04  0.11791574249E+04  0.50400001928E-02 0. -1.
        1   -1    0    0  501    0  0.00000000000E+00  0.00000000000E+00 -0.32105295221E+04  0.32105295221E+04  0.50400001928E-02 0.  1.
    10030    2    1    2    0    0  0.00000000000E+00  0.00000000000E+00 -0.20313720973E+04  0.43896869470E+04  0.38913852155E+04 0.  0.
        4    1    3    3  502    0 -0.12180783782E+03  0.19160466206E+04 -0.13717761767E+04  0.23596277871E+04  0.12699999809E+01 0.  1.
       -4    1    3    3    0  502  0.12180783782E+03 -0.19160466206E+04 -0.65959592058E+03  0.20300591599E+04  0.12699999809E+01 0. -1.
</event>
<event>
 5   0  0.3769985E-08  0.3899281E+04  0.7818609E-02  0.8025179E-01
        2   -1    0    0  501    0  0.00000000000E+00  0.00000000000E+00  0.22448111233E+04  0.22448111233E+04  0.25500000920E-02 0.  1.
       -2   -1    0    0    0  501  0.00000000000E+00  0.00000000000E+00 -0.16932816718E+04  0.16932816718E+04  0.25500000920E-02 0. -1.
    10030    2    1    2    0    0  0.00000000000E+00  0.00000000000E+00  0.55152945143E+03  0.39380927951E+04  0.38992807192E+04 0.  0.
        1    1    3    3  502    0 -0.95874057475E+03 -0.13564003284E+04  0.13067548705E+04  0.21134364510E+04  0.50400001928E-02 0.  1.
       -1    1    3    3    0  502  0.95874057475E+03  0.13564003284E+04 -0.75522541910E+03  0.18246563442E+04  0.50400001928E-02 0. -1.
</event>
<event>
 5   0  0.1164500E-08  0.3857971E+04  0.7818609E-02  0.8033828E-01
        1   -1    0    0  501    0  0.00000000000E+00  0.00000000000E+00  0.25310189118E+04  0.25310189118E+04  0.50400001928E-02 0. -1.
       -1   -1    0    0    0  501  0.00000000000E+00  0.00000000000E+00 -0.14701527971E+04  0.14701527971E+04  0.50400001928E-02 0.  1.
    10030    2    1    2    0    0  0.00000000000E+00  0.00000000000E+00  0.10608661147E+04  0.40011717089E+04  0.38579707271E+04 0.  0.
        5    1    3    3  502    0 -0.45367467744E+03 -0.56614092009E+03 -0.13232619708E+04  0.15090992637E+04  0.46999998093E+01 0.  1.
       -5    1    3    3    0  502  0.45367467744E+03  0.56614092009E+03  0.23841280855E+04  0.24920724452E+04  0.46999998093E+01 0. -1.
</event>
<event>
 5   0  0.1164500E-08  0.3904648E+04  0.7818609E-02  0.8024063E-01
        1   -1    0    0  501    0  0.00000000000E+00  0.00000000000E+00  0.17611108158E+04  0.17611108158E+04  0.50400001928E-02 0.  1.
       -1   -1    0    0    0  501  0.00000000000E+00  0.00000000000E+00 -0.21642987591E+04  0.21642987592E+04  0.50400001928E-02 0. -1.
    10030    2    1    2    0    0  0.00000000000E+00  0.00000000000E+00 -0.40318794336E+03  0.39254095749E+04  0.39046484878E+04 0.  0.
        1    1    3    3  502    0  0.12437199916E+04 -0.71582197490E+03 -0.15323882122E+04  0.20993937578E+04  0.50400001928E-02 0. -1.
       -1    1    3    3    0  502 -0.12437199916E+04  0.71582197490E+03  0.11292002689E+04  0.18260158172E+04  0.50400001928E-02 0.  1.
</event>
<event>
 5   0  0.1164500E-08  0.3901227E+04  0.7818609E-02  0.8024774E-01
        1   -1    0    0  501    0  0.00000000000E+00  0.00000000000E+00  0.12396039795E+04  0.12396039795E+04  0.50400001928E-02 0. -1.
       -1   -1    0    0    0  501  0.00000000000E+00  0.00000000000E+00 -0.30694428788E+04  0.30694428788E+04  0.50400001928E-02 0.  1.
    10030    2    1    2    0    0  0.00000000000E+00  0.00000000000E+00 -0.18298388993E+04  0.43090468584E+04  0.39012272979E+04 0.  0.
        3    1    3    3  502    0 -0.92137081696E+03  0.13093390053E+04  0.31583368762E+03  0.16318834951E+04  0.10100000352E+00 0. -1.
       -3    1    3    3    0  502  0.92137081696E+03 -0.13093390053E+04 -0.21456725870E+04  0.26771633633E+04  0.10100000352E+00 0.  1.
</event>
<event>
 5   0  0.1164500E-08  0.3874171E+04  0.7818609E-02  0.8030423E-01
        1   -1    0    0  501    0  0.00000000000E+00  0.00000000000E+00  0.27569294941E+04  0.27569294941E+04  0.50400001928E-02 0. -1.
       -1   -1    0    0    0  501  0.00000000000E+00  0.00000000000E+00 -0.13610435607E+04  0.13610435607E+04  0.50400001928E-02 0.  1.
    10030    2    1    2    0    0  0.00000000000E+00  0.00000000000E+00  0.13958859334E+04  0.41179730548E+04  0.38741714651E+04 0.  0.
        4    1    3    3  502    0  0.18592119704E+04  0.53974844134E+03  0.76766008600E+03  0.20826188205E+04  0.12699999809E+01 0.  1.
       -4    1    3    3    0  502 -0.18592119704E+04 -0.53974844134E+03  0.62822584737E+03  0.20353542343E+04  0.12699999809E+01 0. -1.
</event>
<event>
 5   0  0.3724293E-08  0.3885291E+04  0.7818609E-02  0.8028095E-01
        2   -1    0    0  501    0  0.00000000000E+00  0.00000000000E+00  0.20461580539E+04  0.20461580539E+04  0.25500000920E-02 0. -1.
       -2   -1    0    0    0  501  0.00000000000E+00  0.00000000000E+00 -0.18443690690E+04  0.18443690690E+04  0.25500000920E-02 0.  1.
    10030    2    1    2    0    0  0.00000000000E+00  0.00000000000E+00  0.20178898493E+03  0.38905271229E+04  0.38852905296E+04 0.  0.
        4    1    3    3  502    0 -0.18297469939E+04 -0.64484687629E+03  0.42254288893E+00  0.19400524083E+04  0.12699999809E+01 0. -1.
       -4    1    3    3    0  502  0.18297469939E+04  0.64484687629E+03  0.20136644204E+03  0.19504747146E+04  0.12699999809E+01 0.  1.
</event>
<event>
 5   0  0.3690572E-08  0.3906219E+04  0.7818609E-02  0.8023737E-01
        2   -1    0    0  501    0  0.00000000000E+00  0.00000000000E+00  0.23573660504E+04  0.23573660504E+04  0.25500000920E-02 0. -1.
       -2   -1    0    0    0  501  0.00000000000E+00  0.00000000000E+00 -0.16181773677E+04  0.16181773677E+04  0.25500000920E-02 0.  1.
    10030    2    1    2    0    0  0.00000000000E+00  0.00000000000E+00  0.73918868266E+03  0.39755434180E+04  0.39062188316E+04 0.  0.
        3    1    3    3  502    0  0.15969348989E+03  0.81893207490E+03 -0.14276690787E+04  0.16535993355E+04  0.10100000352E+00 0.  1.
       -3    1    3    3    0  502 -0.15969348989E+03 -0.81893207490E+03  0.21668577614E+04  0.23219440825E+04  0.10100000352E+00 0. -1.
</event>
<event>
 5   0  0.1164500E-08  0.3898758E+04  0.7818609E-02  0.8025288E-01
       -1   -1    0    0    0  501  0.00000000000E+00  0.00000000000E+00  0.14615314308E+04  0.14615314308E+04  0.50400001928E-02 0. -1.
        1   -1    0    0  501    0  0.00000000000E+00  0.00000000000E+00 -0.26000660587E+04  0.26000660587E+04  0.50400001928E-02 0.  1.
    10030    2    1    2    0    0  0.00000000000E+00  0.00000000000E+00 -0.11385346278E+04  0.40615974895E+04  0.38987578878E+04 0.  0.
        1    1    3    3  502    0 -0.10334135634E+04 -0.12117866704E+04 -0.17403671986E+04  0.23590778947E+04  0.50400001928E-02 0.  1.
       -1    1    3    3    0  502  0.10334135634E+04  0.12117866704E+04  0.60183257071E+03  0.17025195948E+04  0.50400001928E-02 0. -1.
</event>
<event>
 5   0  0.3669347E-08  0.3905175E+04  0.7818609E-02  0.8023954E-01
        2   -1    0    0  501    0  0.00000000000E+00  0.00000000000E+00  0.12273951746E+04  0.12273951746E+04  0.25500000920E-02 0. -1.
       -2   -1    0    0    0  501  0.00000000000E+00  0.00000000000E+00 -0.31062516388E+04  0.31062516388E+04  0.25500000920E-02 0.  1.
    10030    2    1    2    0    0  0.00000000000E+00  0.00000000000E+00 -0.18788564641E+04  0.43336468134E+04  0.39051751677E+04 0.  0.
        5    1    3    3  502    0  0.17005862568E+04  0.73896650526E+03 -0.16185463619E+04  0.24612556812E+04  0.46999998093E+01 0.  1.
       -5    1    3    3    0  502 -0.17005862568E+04 -0.73896650526E+03 -0.26031010227E+03  0.18723911322E+04  0.46999998093E+01 0. -1.
</event>
<event>
 5   0  0.3690572E-08  0.3907029E+04  0.7818609E-02  0.8023569E-01
        2   -1    0    0  501    0  0.00000000000E+00  0.00000000000E+00  0.12596796510E+04  0.12596796510E+04  0.25500000920E-02 0. -1.
       -2   -1    0    0    0  501  0.00000000000E+00  0.00000000000E+00 -0.30295154884E+04  0.30295154884E+04  0.25500000920E-02 0.  1.
    10030    2    1    2    0    0  0.00000000000E+00  0.00000000000E+00 -0.17698358375E+04  0.42891951394E+04  0.39070290570E+04 0.  0.
        3    1    3    3  502    0 -0.14634617295E+04 -0.85808445661E+01  0.53565009539E+03  0.15584334762E+04  0.10100000352E+00 0. -1.
       -3    1    3    3    0  502  0.14634617295E+04  0.85808445661E+01 -0.23054859329E+04  0.27307616633E+04  0.10100000352E+00 0.  1.
</event>
<event>
 5   0  0.3724293E-08  0.3899328E+04  0.7818609E-02  0.8025169E-01
       -2   -1    0    0    0  501  0.00000000000E+00  0.00000000000E+00  0.15623537475E+04  0.15623537475E+04  0.25500000920E-02 0.  1.
        2   -1    0    0  501    0  0.00000000000E+00  0.00000000000E+00 -0.24329890414E+04  0.24329890414E+04  0.25500000920E-02 0. -1.
    10030    2    1    2    0    0  0.00000000000E+00  0.00000000000E+00 -0.87063529390E+03  0.39953427889E+04  0.38993279146E+04 0.  0.
        4    1    3    3  502    0 -0.11880100727E+04  0.39747091909E+03 -0.19660367831E+04  0.23312342889E+04  0.12699999809E+01 0. -1.
       -4    1    3    3    0  502  0.11880100727E+04 -0.39747091909E+03  0.10954014892E+04  0.16641085000E+04  0.12699999809E+01 0.  1.
</event>
<event>
 5   0  0.3872969E-08  0.3908082E+04  0.7818609E-02  0.8023350E-01
        2   -1    0    0  501    0  0.00000000000E+00  0.00000000000E+00  0.16324454575E+04  0.16324454575E+04  0.25500000920E-02 0.  1.
       -2   -1    0    0    0  501  0.00000000000E+00  0.00000000000E+00 -0.23389914678E+04  0.23389914678E+04  0.25500000920E-02 0. -1.
    10030    2    1    2    0    0  0.00000000000E+00  0.00000000000E+00 -0.70654601032E+03  0.39714369252E+04  0.39080818807E+04 0.  0.
        2    1    3    3  502    0  0.86295177896E+03  0.15247786876E+03 -0.21281088512E+04  0.23014739963E+04  0.25500000920E-02 0. -1.
       -2    1    3    3    0  502 -0.86295177896E+03 -0.15247786876E+03  0.14215628409E+04  0.16699629289E+04  0.25500000920E-02 0.  1.
</event>
<event>
 5   0  0.3872969E-08  0.3905687E+04  0.7818609E-02  0.8023848E-01
       -2   -1    0    0    0  501  0.00000000000E+00  0.00000000000E+00  0.17120398797E+04  0.17120398797E+04  0.25500000920E-02 0. -1.
        2   -1    0    0  501    0  0.00000000000E+00  0.00000000000E+00 -0.22275164417E+04  0.22275164417E+04  0.25500000920E-02 0.  1.
    10030    2    1    2    0    0  0.00000000000E+00  0.00000000000E+00 -0.51547656199E+03  0.39395563215E+04  0.39056866137E+04 0.  0.
        2    1    3    3  502    0 -0.18304877290E+04  0.59972977341E+03  0.66351395679E+02  0.19273722097E+04  0.25500000920E-02 0.  1.
       -2    1    3    3    0  502  0.18304877290E+04 -0.59972977341E+03 -0.58182795767E+03  0.20121841117E+04  0.25500000920E-02 0. -1.
</event>
<event>
 5   0  0.3872969E-08  0.3947901E+04  0.7818609E-02  0.8015140E-01
        2   -1    0    0  501    0  0.00000000000E+00  0.00000000000E+00  0.26532022057E+04  0.26532022057E+04  0.25500000920E-02 0. -1.
       -2   -1    0    0    0  501  0.00000000000E+00  0.00000000000E+00 -0.14685954929E+04  0.14685954929E+04  0.25500000920E-02 0.  1.
    10030    2    1    2    0    0  0.00000000000E+00  0.00000000000E+00  0.11846067127E+04  0.41217976986E+04  0.39479011138E+04 0.  0.
        2    1    3    3  502    0  0.93252545622E+03  0.64949706355E+02  0.24074635378E+04  0.25825767900E+04  0.25500000920E-02 0. -1.
       -2    1    3    3    0  502 -0.93252545622E+03 -0.64949706355E+02 -0.12228568250E+04  0.15392209085E+04  0.25500000920E-02 0.  1.
</event>
<event>
 5   0  0.3690572E-08  0.3915182E+04  0.7818609E-02  0.8021879E-01
        2   -1    0    0  501    0  0.00000000000E+00  0.00000000000E+00  0.25772896063E+04  0.25772896063E+04  0.25500000920E-02 0.  1.
       -2   -1    0    0    0  501  0.00000000000E+00  0.00000000000E+00 -0.14868964489E+04  0.14868964489E+04  0.25500000920E-02 0. -1.
    10030    2    1    2    0    0  0.00000000000E+00  0.00000000000E+00  0.10903931574E+04  0.40641860552E+04  0.39151821227E+04 0.  0.
        3    1    3    3  502    0 -0.91985791494E+03 -0.17212527647E+04  0.38669940286E+03  0.19895693258E+04  0.10100000352E+00 0. -1.
       -3    1    3    3    0  502  0.91985791494E+03  0.17212527647E+04  0.70369375459E+03  0.20746167295E+04  0.10100000352E+00 0.  1.
</event>
<event>
 5   0  0.3724293E-08  0.3898628E+04  0.7818609E-02  0.8025315E-01
        2   -1    0    0  501    0  0.00000000000E+00  0.00000000000E+00  0.16873792462E+04  0.16873792462E+04  0.25500000920E-02 0. -1.
       -2   -1    0    0    0  501  0.00000000000E+00  0.00000000000E+00 -0.22519097158E+04  0.22519097158E+04  0.25500000920E-02 0.  1.
    10030    2    1    2    0    0  0.00000000000E+00  0.00000000000E+00 -0.56453046954E+03  0.39392889620E+04  0.38986283325E+04 0.  0.
        4    1    3    3  502    0  0.84903893773E+03 -0.10336375132E+04  0.11504619301E+04  0.17643236358E+04  0.12699999809E+01 0. -1.
       -4    1    3    3    0  502 -0.84903893773E+03  0.10336375132E+04 -0.17149923996E+04  0.21749653262E+04  0.12699999809E+01 0.  1.
</event>
<event>
 5   0  0.3769985E-08  0.3898579E+04  0.7818609E-02  0.8025325E-01
       -2   -1    0    0    0  501  0.00000000000E+00  0.00000000000E+00  0.18770873761E+04  0.18770873761E+04  0.25500000920E-02 0.  1.
        2   -1    0    0  501    0  0.00000000000E+00  0.00000000000E+00 -0.20242690143E+04  0.20242690143E+04  0.25500000920E-02 0. -1.
    10030    2    1    2    0    0  0.00000000000E+00  0.00000000000E+00 -0.14718163826E+03  0.39013563904E+04  0.38985791322E+04 0.  0.
        1    1    3    3  502    0 -0.79960335370E+03 -0.13260394416E+03  0.17004609748E+04  0.18837507415E+04  0.50400001928E-02 0.  1.
       -1    1    3    3    0  502  0.79960335370E+03  0.13260394416E+03 -0.18476426130E+04  0.20176056490E+04  0.50400001928E-02 0. -1.
</event>
<event>
 5   0  0.1164500E-08  0.3879269E+04  0.7818609E-02  0.8029355E-01
        1   -1    0    0  501    0  0.00000000000E+00  0.00000000000E+00  0.16974335750E+04  0.16974335750E+04  0.50400001928E-02 0.  1.
       -1   -1    0    0    0  501  0.00000000000E+00  0.00000000000E+00 -0.22163941643E+04  0.22163941643E+04  0.50400001928E-02 0. -1.
    10030    2    1    2    0    0  0.00000000000E+00  0.00000000000E+00 -0.51896058926E+03  0.39138277393E+04  0.38792689362E+04 0.  0.
        1    1    3    3  502    0  0.16621649328E+04 -0.52602297190E+03 -0.11171650132E+04  0.20706400213E+04  0.50400001928E-02 0. -1.
       -1    1    3    3    0  502 -0.16621649328E+04  0.52602297190E+03  0.59820442397E+03  0.18431877180E+04  0.50400001928E-02 0.  1.
</event>
<event>
 5   0  0.1164500E-08  0.3899991E+04  0.7818609E-02  0.8025031E-01
        1   -1    0    0  501    0  0.00000000000E+00  0.00000000000E+00  0.21992181748E+04  0.21992181748E+04  0.50400001928E-02 0. -1.
       -1   -1    0    0    0  501  0.00000000000E+00  0.00000000000E+00 -0.17290159219E+04  0.17290159219E+04  0.50400001928E-02 0.  1.
    10030    2    1    2    0    0  0.00000000000E+00  0.00000000000E+00  0.47020225283E+03  0.39282340967E+04  0.38999914051E+04 0.  0.
        3    1    3    3  502    0 -0.38325129421E+03 -0.58973112836E+03 -0.15968107209E+04  0.17448406365E+04  0.10100000352E+00 0.  1.
       -3    1    3    3    0  502  0.38325129421E+03  0.58973112836E+03  0.20670129737E+04  0.21833934602E+04  0.10100000352E+00 0. -1.
</event>
<event>
 5   0  0.1164500E-08  0.3907397E+04  0.7818609E-02  0.8023493E-01
        1   -1    0    0  501    0  0.00000000000E+00  0.00000000000E+00  0.22989814042E+04  0.22989814042E+04  0.50400001928E-02 0. -1.
       -1   -1    0    0    0  501  0.00000000000E+00  0.00000000000E+00 -0.16602733883E+04  0.16602733884E+04  0.50400001928E-02 0.  1.
    10030    2    1    2    0    0  0.00000000000E+00  0.00000000000E+00  0.63870801584E+03  0.39592547926E+04  0.39073969062E+04 0.  0.
        1    1    3    3  502    0  0.81595776356E+03 -0.12245707392E+04 -0.98283896139E+03  0.17695572868E+04  0.50400001928E-02 0.  1.
       -1    1    3    3    0  502 -0.81595776356E+03  0.12245707392E+04  0.16215469772E+04  0.21896975057E+04  0.50400001928E-02 0. -1.
</event>
<event>
 5   0  0.3724293E-08  0.3896294E+04  0.7818609E-02  0.8025800E-01
        2   -1    0    0  501    0  0.00000000000E+00  0.00000000000E+00  0.12975814782E+04  0.12975814782E+04  0.25500000920E-02 0.  1.
       -2   -1    0    0    0  501  0.00000000000E+00  0.00000000000E+00 -0.29248849662E+04  0.29248849662E+04  0.25500000920E-02 0. -1.
    10030    2    1    2    0    0  0.00000000000E+00  0.00000000000E+00 -0.16273034881E+04  0.42224664444E+04  0.38962939098E+04 0.  0.
        4    1    3    3  502    0  0.88956148450E+03  0.74704746453E+03 -0.25085032807E+04  0.27644149239E+04  0.12699999809E+01 0. -1.
       -4    1    3    3    0  502 -0.88956148450E+03 -0.74704746453E+03  0.88119979268E+03  0.14580515205E+04  0.12699999809E+01 0.  1.
</event>
<event>
 5   0  0.3872969E-08  0.3902005E+04  0.7818609E-02  0.8024612E-01
        2   -1    0    0  501    0  0.00000000000E+00  0.00000000000E+00  0.22543249749E+04  0.22543249749E+04  0.25500000920E-02 0. -1.
       -2   -1    0    0    0  501  0.00000000000E+00  0.00000000000E+00 -0.16884921028E+04  0.16884921028E+04  0.25500000920E-02 0.  1.
    10030    2    1    2    0    0  0.00000000000E+00  0.00000000000E+00  0.56583287210E+03  0.39428170776E+04  0.39020045705E+04 0.  0.
        2    1    3    3  502    0  0.73107937945E+03  0.98141751159E+03  0.18182669793E+04  0.21917463812E+04  0.25500000920E-02 0. -1.
       -2    1    3    3    0  502 -0.73107937945E+03 -0.98141751159E+03 -0.12524341072E+04  0.17510706965E+04  0.25500000920E-02 0.  1.
</event>
<event>
 5   0  0.3872969E-08  0.3902255E+04  0.7818609E-02  0.8024560E-01
        2   -1    0    0  501    0  0.00000000000E+00  0.00000000000E+00  0.18731431657E+04  0.18731431657E+04  0.25500000920E-02 0.  1.
       -2   -1    0    0    0  501  0.00000000000E+00  0.00000000000E+00 -0.20323589605E+04  0.20323589605E+04  0.25500000920E-02 0. -1.
    10030    2    1    2    0    0  0.00000000000E+00  0.00000000000E+00 -0.15921579478E+03  0.39055021261E+04  0.39022553976E+04 0.  0.
        2    1    3    3  502    0  0.13330217169E+04  0.89100789119E+03  0.10330982745E+04  0.19073893165E+04  0.25500000920E-02 0.  1.
       -2    1    3    3    0  502 -0.13330217169E+04 -0.89100789119E+03 -0.11923140693E+04  0.19981128096E+04  0.25500000920E-02 0. -1.
</event>
<event>
 5   0  0.3769985E-08  0.3906982E+04  0.7818609E-02  0.8023579E-01
        2   -1    0    0  501    0  0.00000000000E+00  0.00000000000E+00  0.21990671266E+04  0.21990671266E+04  0.25500000920E-02 0.  1.
       -2   -1    0    0    0  501  0.00000000000E+00  0.00000000000E+00 -0.17353391548E+04  0.17353391548E+04  0.25500000920E-02 0. -1.
    10030    2    1    2    0    0  0.00000000000E+00  0.00000000000E+00  0.46372797184E+03  0.39344062814E+04  0.39069821032E+04 0.  0.
        1    1    3    3  502    0 -0.15709359781E+04  0.17688173485E+03 -0.92379770952E+03  0.18309913171E+04  0.50400001928E-02 0. -1.
       -1    1    3    3    0  502  0.15709359781E+04 -0.17688173485E+03  0.13875256814E+04  0.21034149642E+04  0.50400001928E-02 0.  1.
</event>
<event>
 5   0  0.3669347E-08  0.3895024E+04  0.7818609E-02  0.8026065E-01
        2   -1    0    0  501    0  0.00000000000E+00  0.00000000000E+00  0.14124190823E+04  0.14124190823E+04  0.25500000920E-02 0. -1.
       -2   -1    0    0    0  501  0.00000000000E+00  0.00000000000E+00 -0.26853234820E+04  0.26853234820E+04  0.25500000920E-02 0.  1.
    10030    2    1    2    0    0  0.00000000000E+00  0.00000000000E+00 -0.12729043997E+04  0.40977425643E+04  0.38950235574E+04 0.  0.
        5    1    3    3  502    0 -0.17025023393E+04  0.74079578587E+03 -0.12548254657E+04  0.22409599843E+04  0.46999998093E+01 0.  1.
       -5    1    3    3    0  502  0.17025023393E+04 -0.74079578587E+03 -0.18078933942E+02  0.18567825800E+04  0.46999998093E+01 0. -1.
</event>
<event>
 5   0  0.1164500E-08  0.3901773E+04  0.7818609E-02  0.8024661E-01
        1   -1    0    0  501    0  0.00000000000E+00  0.00000000000E+00  0.14374096433E+04  0.14374096433E+04  0.50400001928E-02 0. -1.
       -1   -1    0    0    0  501  0.00000000000E+00  0.00000000000E+00 -0.26477890375E+04  0.26477890375E+04  0.50400001928E-02 0.  1.
    10030    2    1    2    0    0  0.00000000000E+00  0.00000000000E+00 -0.12103793942E+04  0.40851986809E+04  0.39017726720E+04 0.  0.
        2    1    3    3  502    0 -0.10884316776E+04  0.95718979876E+03 -0.19723557492E+04  0.24476688970E+04  0.25500000920E-02 0.  1.
       -2    1    3    3    0  502  0.10884316776E+04 -0.95718979876E+03  0.76197635502E+03  0.16375297839E+04  0.25500000920E-02 0. -1.
</event>
<event>
 5   0  0.1164500E-08  0.3907107E+04  0.7818609E-02  0.8023553E-01
       -1   -1    0    0    0  501  0.00000000000E+00  0.00000000000E+00  0.13989588505E+04  0.13989588505E+04  0.50400001928E-02 0.  1.
        1   -1    0    0  501    0  0.00000000000E+00  0.00000000000E+00 -0.27280076410E+04  0.27280076410E+04  0.50400001928E-02 0. -1.
    10030    2    1    2    0    0  0.00000000000E+00  0.00000000000E+00 -0.13290487905E+04  0.41269664916E+04  0.39071065682E+04 0.  0.
        3    1    3    3  502    0  0.17833591296E+04  0.44455351851E+03  0.34830290743E+02  0.18382629777E+04  0.10100000352E+00 0.  1.
       -3    1    3    3    0  502 -0.17833591296E+04 -0.44455351851E+03 -0.13638790812E+04  0.22887035139E+04  0.10100000352E+00 0. -1.
</event>
<event>
 5   0  0.1164500E-08  0.3898259E+04  0.7818609E-02  0.8025391E-01
        1   -1    0    0  501    0  0.00000000000E+00  0.00000000000E+00  0.27447790294E+04  0.27447790294E+04  0.50400001928E-02 0.  1.
       -1   -1    0    0    0  501  0.00000000000E+00  0.00000000000E+00 -0.13841211373E+04  0.13841211374E+04  0.50400001928E-02 0. -1.
    10030    2    1    2    0    0  0.00000000000E+00  0.00000000000E+00  0.13606578921E+04  0.41289001668E+04  0.38982594434E+04 0.  0.
        1    1    3    3  502    0  0.17491649994E+04  0.36139054132E+03 -0.14617640747E+03  0.17920794794E+04  0.50400001928E-02 0. -1.
       -1    1    3    3    0  502 -0.17491649994E+04 -0.36139054132E+03  0.15068342996E+04  0.23368206874E+04  0.50400001928E-02 0.  1.
</event>
<event>
 5   0  0.1164500E-08  0.3899408E+04  0.7818609E-02  0.8025152E-01
       -1   -1    0    0    0  501  0.00000000000E+00  0.00000000000E+00  0.18500577247E+04  0.18500577247E+04  0.50400001928E-02 0.  1.
        1   -1    0    0  501    0  0.00000000000E+00  0.00000000000E+00 -0.20547174516E+04  0.20547174516E+04  0.50400001928E-02 0. -1.
    10030    2    1    2    0    0  0.00000000000E+00  0.00000000000E+00 -0.20465972697E+03  0.39047751763E+04  0.38994081055E+04 0.  0.
        2    1    3    3  502    0 -0.23585974186E+03  0.14221883181E+04  0.12121445568E+04  0.18834924626E+04  0.25500000920E-02 0.  1.
       -2    1    3    3    0  502  0.23585974186E+03 -0.14221883181E+04 -0.14168042838E+04  0.20212827137E+04  0.25500000920E-02 0. -1.
</event>
<event>
 5   0  0.3690572E-08  0.3906108E+04  0.7818609E-02  0.8023760E-01
       -2   -1    0    0    0  501  0.00000000000E+00  0.00000000000E+00  0.20717357861E+04  0.20717357861E+04  0.25500000920E-02 0. -1.
        2   -1    0    0  501    0  0.00000000000E+00  0.00000000000E+00 -0.18411706202E+04  0.18411706202E+04  0.25500000920E-02 0.  1.
    10030    2    1    2    0    0  0.00000000000E+00  0.00000000000E+00  0.23056516592E+03  0.39129064063E+04  0.39061075572E+04 0.  0.
        3    1    3    3  502    0 -0.12056157064E+02  0.42483355170E+03  0.20248508292E+04  0.20689731241E+04  0.10100000352E+00 0. -1.
       -3    1    3    3    0  502  0.12056157064E+02 -0.42483355170E+03 -0.17942856633E+04  0.18439332822E+04  0.10100000352E+00 0.  1.
</event>
<event>
 5   0  0.1164500E-08  0.3926331E+04  0.7818609E-02  0.8019575E-01
       -1   -1    0    0    0  501  0.00000000000E+00  0.00000000000E+00  0.16743330038E+04  0.16743330038E+04  0.50400001928E-02 0.  1.
        1   -1    0    0  501    0  0.00000000000E+00  0.00000000000E+00 -0.23018229613E+04  0.23018229614E+04  0.50400001928E-02 0. -1.
    10030    2    1    2    0    0  0.00000000000E+00  0.00000000000E+00 -0.62748995754E+03  0.39761559652E+04  0.39263306805E+04 0.  0.
        2    1    3    3  502    0  0.74687459124E+03 -0.10718610139E+04 -0.17977110038E+04  0.22222674324E+04  0.25500000920E-02 0. -1.
       -2    1    3    3    0  502 -0.74687459124E+03  0.10718610139E+04  0.11702210463E+04  0.17538885327E+04  0.25500000920E-02 0.  1.
</event>
<event>
 5   0  0.3669347E-08  0.3897431E+04  0.7818609E-02  0.8025564E-01
       -2   -1    0    0    0  501  0.00000000000E+00  0.00000000000E+00  0.14994890910E+04  0.14994890910E+04  0.25500000920E-02 0. -1.
        2   -1    0    0  501    0  0.00000000000E+00  0.00000000000E+00 -0.25325240052E+04  0.25325240052E+04  0.25500000920E-02 0.  1.
    10030    2    1    2    0    0  0.00000000000E+00  0.00000000000E+00 -0.10330349142E+04  0.40320130962E+04  0.38974310095E+04 0.  0.
        5    1    3    3  502    0  0.10719561537E+04 -0.32800248585E+03 -0.21655463300E+04  0.24385013068E+04  0.46999998093E+01 0.  1.
       -5    1    3    3    0  502 -0.10719561537E+04  0.32800248585E+03  0.11325114157E+04  0.15935117894E+04  0.46999998093E+01 0. -1.
</event>
<event>
 5   0  0.3769985E-08  0.3916602E+04  0.7818609E-02  0.8021585E-01
        2   -1    0    0  501    0  0.00000000000E+00  0.00000000000E+00  0.16495525245E+04  0.16495525245E+04  0.25500000920E-02 0. -1.
       -2   -1    0    0    0  501  0.00000000000E+00  0.00000000000E+00 -0.23248382986E+04  0.23248382986E+04  0.25500000920E-02 0.  1.
    10030    2    1    2    0    0  0.00000000000E+00  0.00000000000E+00 -0.67528577406E+03  0.39743908231E+04  0.39166020397E+04 0.  0.
        1    1    3    3  502    0  0.17566760057E+04  0.54225750807E+03  0.34683845942E+03  0.18708956976E+04  0.50400001928E-02 0. -1.
       -1    1    3    3    0  502 -0.17566760057E+04 -0.54225750807E+03 -0.10221242335E+04  0.21034951255E+04  0.50400001928E-02 0.  1.
</event>
<event>
 5   0  0.1164500E-08  0.3899288E+04  0.7818609E-02  0.8025177E-01
       -1   -1    0    0    0  501  0.00000000000E+00  0.00000000000E+00  0.15959810918E+04  0.15959810918E+04  0.50400001928E-02 0.  1.
        1   -1    0    0  501    0  0.00000000000E+00  0.00000000000E+00 -0.23816773155E+04  0.23816773155E+04  0.50400001928E-02 0. -1.
    10030    2    1    2    0    0  0.00000000000E+00  0.00000000000E+00 -0.78569622369E+03  0.39776584072E+04  0.38992881208E+04 0.  0.
        5    1    3    3  502    0 -0.17120105797E+04  0.78521416319E+03 -0.90650434755E+03  0.20902903457E+04  0.46999998093E+01 0.  1.
       -5    1    3    3    0  502  0.17120105797E+04 -0.78521416319E+03  0.12080812387E+03  0.18873680616E+04  0.46999998093E+01 0. -1.
</event>
<event>
 5   0  0.1164500E-08  0.3898578E+04  0.7818609E-02  0.8025325E-01
       -1   -1    0    0    0  501  0.00000000000E+00  0.00000000000E+00  0.19966026327E+04  0.19966026327E+04  0.50400001928E-02 0. -1.
        1   -1    0    0  501    0  0.00000000000E+00  0.00000000000E+00 -0.19030968871E+04  0.19030968871E+04  0.50400001928E-02 0.  1.
    10030    2    1    2    0    0  0.00000000000E+00  0.00000000000E+00  0.93505745609E+02  0.38996995199E+04  0.38985783333E+04 0.  0.
        3    1    3    3  502    0 -0.10633575370E+04  0.10313818136E+04 -0.12205963231E+04  0.19194616670E+04  0.10100000352E+00 0.  1.
       -3    1    3    3    0  502  0.10633575370E+04 -0.10313818136E+04  0.13141020687E+04  0.19802378529E+04  0.10100000352E+00 0. -1.
</event>
<event>
 5   0  0.1164500E-08  0.3916377E+04  0.7818609E-02  0.8021632E-01
        1   -1    0    0  501    0  0.00000000000E+00  0.00000000000E+00  0.20037372211E+04  0.20037372211E+04  0.50400001928E-02 0.  1.
       -1   -1    0    0    0  501  0.00000000000E+00  0.00000000000E+00 -0.19136755771E+04  0.19136755771E+04  0.50400001928E-02 0. -1.
    10030    2    1    2    0    0  0.00000000000E+00  0.00000000000E+00  0.90061643943E+02  0.39174127982E+04  0.39163773990E+04 0.  0.
        1    1    3    3  502    0 -0.15865436030E+04 -0.94927063900E+03  0.69038945455E+03  0.19735432474E+04  0.50400001928E-02 0.  1.
       -1    1    3    3    0  502  0.15865436030E+04  0.94927063900E+03 -0.60032781061E+03  0.19438695508E+04  0.50400001928E-02 0. -1.
</event>
<event>
 5   0  0.1164500E-08  0.3900845E+04  0.7818609E-02  0.8024853E-01
       -3   -1    0    0    0  501  0.00000000000E+00  0.00000000000E+00  0.19319203775E+04  0.19319203801E+04  0.10100000352E+00 0.  1.
        3   -1    0    0  501    0  0.00000000000E+00  0.00000000000E+00 -0.19691022009E+04  0.19691022035E+04  0.10100000352E+00 0. -1.
    10030    2    1    2    0    0  0.00000000000E+00  0.00000000000E+00 -0.37181823374E+02  0.39010225836E+04  0.39008453840E+04 0.  0.
        4    1    3    3  502    0 -0.13089315767E+02  0.19424297810E+04  0.15732125762E+03  0.19488346198E+04  0.12699999809E+01 0. -1.
       -4    1    3    3    0  502  0.13089315767E+02 -0.19424297810E+04 -0.19450308099E+03  0.19521879638E+04  0.12699999809E+01 0.  1.
</event>
<event>
 5   0  0.3872969E-08  0.3899840E+04  0.7818609E-02  0.8025063E-01
        2   -1    0    0  501    0  0.00000000000E+00  0.00000000000E+00  0.25107688338E+04  0.25107688338E+04  0.25500000920E-02 0.  1.
       -2   -1    0    0    0  501  0.00000000000E+00  0.00000000000E+00 -0.15143517784E+04  0.15143517784E+04  0.25500000920E-02 0. -1.
    10030    2    1    2    0    0  0.00000000000E+00  0.00000000000E+00  0.99641705540E+03  0.40251206122E+04  0.38998396114E+04 0.  0.
        2    1    3    3  502    0  0.34089866710E+03 -0.59330208886E+03  0.23827810925E+04  0.24790855178E+04  0.25500000920E-02 0.  1.
       -2    1    3    3    0  502 -0.34089866710E+03  0.59330208886E+03 -0.13863640371E+04  0.15460350944E+04  0.25500000920E-02 0. -1.
</event>
<event>
 5   0  0.1164500E-08  0.3880077E+04  0.7818609E-02  0.8029186E-01
        1   -1    0    0  501    0  0.00000000000E+00  0.00000000000E+00  0.25326885025E+04  0.25326885025E+04  0.50400001928E-02 0. -1.
       -1   -1    0    0    0  501  0.00000000000E+00  0.00000000000E+00 -0.14860691849E+04  0.14860691849E+04  0.50400001928E-02 0.  1.
    10030    2    1    2    0    0  0.00000000000E+00  0.00000000000E+00  0.10466193176E+04  0.40187576875E+04  0.38800774934E+04 0.  0.
        2    1    3    3  502    0  0.12451065469E+04 -0.14279010709E+04  0.90574688171E+02  0.18966801406E+04  0.25500000920E-02 0.  1.
       -2    1    3    3    0  502 -0.12451065469E+04  0.14279010709E+04  0.95604462941E+03  0.21220775469E+04  0.25500000920E-02 0. -1.
</event>
<event>
 5   0  0.3669347E-08  0.3902456E+04  0.7818609E-02  0.8024519E-01
       -2   -1    0    0    0  501  0.00000000000E+00  0.00000000000E+00  0.16534637655E+04  0.16534637655E+04  0.25500000920E-02 0. -1.
        2   -1    0    0  501    0  0.00000000000E+00  0.00000000000E+00 -0.23026154788E+04  0.23026154788E+04  0.25500000920E-02 0.  1.
    10030    2    1    2    0    0  0.00000000000E+00  0.00000000000E+00 -0.64915171328E+03  0.39560792443E+04  0.39024562829E+04 0.  0.
        5    1    3    3  502    0  0.39615189748E+03 -0.18961969542E+04 -0.87330278003E+02  0.19391100749E+04  0.46999998093E+01 0.  1.
       -5    1    3    3    0  502 -0.39615189748E+03  0.18961969542E+04 -0.56182143527E+03  0.20169691694E+04  0.46999998093E+01 0. -1.
</event>
<event>
 5   0  0.1164500E-08  0.3902725E+04  0.7818609E-02  0.8024463E-01
        1   -1    0    0  501    0  0.00000000000E+00  0.00000000000E+00  0.22068166303E+04  0.22068166303E+04  0.50400001928E-02 0. -1.
       -1   -1    0    0    0  501  0.00000000000E+00  0.00000000000E+00 -0.17254791062E+04  0.17254791062E+04  0.50400001928E-02 0.  1.
    10030    2    1    2    0    0  0.00000000000E+00  0.00000000000E+00  0.48133752407E+03  0.39322957365E+04  0.39027251950E+04 0.  0.
        3    1    3    3  502    0  0.13149822452E+04 -0.77618796208E+02 -0.12098966195E+04  0.17885896183E+04  0.10100000352E+00 0.  1.
       -3    1    3    3    0  502 -0.13149822452E+04  0.77618796208E+02  0.16912341436E+04  0.21437061182E+04  0.10100000352E+00 0. -1.
</event>
<event>
 5   0  0.3690572E-08  0.3900250E+04  0.7818609E-02  0.8024977E-01
       -2   -1    0    0    0  501  0.00000000000E+00  0.00000000000E+00  0.13643046500E+04  0.13643046500E+04  0.25500000920E-02 0.  1.
        2   -1    0    0  501    0  0.00000000000E+00  0.00000000000E+00 -0.27874918552E+04  0.27874918552E+04  0.25500000920E-02 0. -1.
    10030    2    1    2    0    0  0.00000000000E+00  0.00000000000E+00 -0.14231872053E+04  0.41517965052E+04  0.39002502996E+04 0.  0.
        3    1    3    3  502    0 -0.43534812217E+03  0.50288248156E+03  0.12398230587E+04  0.14069754812E+04  0.10100000352E+00 0.  1.
       -3    1    3    3    0  502  0.43534812217E+03 -0.50288248156E+03 -0.26630102639E+04  0.27448210240E+04  0.10100000352E+00 0. -1.
</event>
<event>
 5   0  0.3669347E-08  0.3908150E+04  0.7818609E-02  0.8023336E-01
       -2   -1    0    0    0  501  0.00000000000E+00  0.00000000000E+00  0.24711964644E+04  0.24711964644E+04  0.25500000920E-02 0. -1.
        2   -1    0    0  501    0  0.00000000000E+00  0.00000000000E+00 -0.15451661874E+04  0.15451661874E+04  0.25500000920E-02 0.  1.
    10030    2    1    2    0    0  0.00000000000E+00  0.00000000000E+00  0.92603027700E+03  0.40163626519E+04  0.39081500582E+04 0.  0.
        5    1    3    3  502    0 -0.94961170309E+03  0.16544812829E+04  0.89819794435E+03  0.21085189919E+04  0.46999998093E+01 0. -1.
       -5    1    3    3    0  502  0.94961170309E+03 -0.16544812829E+04  0.27832332655E+02  0.19078436600E+04  0.46999998093E+01 0.  1.
</event>
<event>
 5   0  0.3669347E-08  0.3887313E+04  0.7818609E-02  0.8027673E-01
        2   -1    0    0  501    0  0.00000000000E+00  0.00000000000E+00  0.16993796047E+04  0.16993796047E+04  0.25500000920E-02 0. -1.
       -2   -1    0    0    0  501  0.00000000000E+00  0.00000000000E+00 -0.22230473232E+04  0.22230473232E+04  0.25500000920E-02 0.  1.
    10030    2    1    2    0    0  0.00000000000E+00  0.00000000000E+00 -0.52366771848E+03  0.39224269280E+04  0.38873133558E+04 0.  0.
        5    1    3    3  502    0  0.13414527443E+04  0.11506228448E+04  0.55439252411E+03  0.18522423051E+04  0.46999998093E+01 0. -1.
       -5    1    3    3    0  502 -0.13414527443E+04 -0.11506228448E+04 -0.10780602426E+04  0.20701846229E+04  0.46999998093E+01 0.  1.
</event>
<event>
 5   0  0.3690572E-08  0.3903223E+04  0.7818609E-02  0.8024359E-01
        2   -1    0    0  501    0  0.00000000000E+00  0.00000000000E+00  0.17260404306E+04  0.17260404306E+04  0.25500000920E-02 0.  1.
       -2   -1    0    0    0  501  0.00000000000E+00  0.00000000000E+00 -0.22066617408E+04  0.22066617408E+04  0.25500000920E-02 0. -1.
    10030    2    1    2    0    0  0.00000000000E+00  0.00000000000E+00 -0.48062131014E+03  0.39327021714E+04  0.39032229664E+04 0.  0.
        3    1    3    3  502    0 -0.10411389833E+03 -0.17028941926E+03 -0.21963511355E+04  0.22054016665E+04  0.10100000352E+00 0. -1.
       -3    1    3    3    0  502  0.10411389833E+03  0.17028941926E+03  0.17157298254E+04  0.17273005048E+04  0.10100000352E+00 0.  1.
</event>
<event>
 5   0  0.1164500E-08  0.3888659E+04  0.7818609E-02  0.8027392E-01
       -1   -1    0    0    0  501  0.00000000000E+00  0.00000000000E+00  0.13155570786E+04  0.13155570786E+04  0.50400001928E-02 0.  1.
        1   -1    0    0  501    0  0.00000000000E+00  0.00000000000E+00 -0.28736242328E+04  0.28736242328E+04  0.50400001928E-02 0. -1.
    10030    2    1    2    0    0  0.00000000000E+00  0.00000000000E+00 -0.15580671542E+04  0.41891813115E+04  0.38886587409E+04 0.  0.
        1    1    3    3  502    0 -0.33693385738E+03 -0.10534121511E+04 -0.25017466790E+04  0.27353131503E+04  0.50400001928E-02 0. -1.
       -1    1    3    3    0  502  0.33693385738E+03  0.10534121511E+04  0.94367952478E+03  0.14538681611E+04  0.50400001928E-02 0.  1.
</event>
<event>
 5   0  0.1164500E-08  0.3879317E+04  0.7818609E-02  0.8029345E-01
        1   -1    0    0  501    0  0.00000000000E+00  0.00000000000E+00  0.18991462089E+04  0.18991462089E+04  0.50400001928E-02 0.  1.
       -1   -1    0    0    0  501  0.00000000000E+00  0.00000000000E+00 -0.19810349754E+04  0.19810349754E+04  0.50400001928E-02 0. -1.
    10030    2    1    2    0    0  0.00000000000E+00  0.00000000000E+00 -0.81888766495E+02  0.38801811843E+04  0.38793169827E+04 0.  0.
        4    1    3    3  502    0 -0.11989429671E+04 -0.87723659269E+03 -0.12883249135E+04  0.19664157682E+04  0.12699999809E+01 0. -1.
       -4    1    3    3    0  502  0.11989429671E+04  0.87723659269E+03  0.12064361470E+04  0.19137654160E+04  0.12699999809E+01 0.  1.
</event>
<event>
 5   0  0.1164500E-08  0.3890671E+04  0.7818609E-02  0.8026972E-01
       -3   -1    0    0    0  501  0.00000000000E+00  0.00000000000E+00  0.14528015406E+04  0.14528015441E+04  0.10100000352E+00 0. -1.
        3   -1    0    0  501    0  0.00000000000E+00  0.00000000000E+00 -0.26048497995E+04  0.26048498015E+04  0.10100000352E+00 0.  1.
    10030    2    1    2    0    0  0.00000000000E+00  0.00000000000E+00 -0.11520482589E+04  0.40576513456E+04  0.38906707971E+04 0.  0.
        4    1    3    3  502    0  0.77458549490E+03  0.11182379133E+04  0.87430332359E+03  0.16170487420E+04  0.12699999809E+01 0. -1.
       -4    1    3    3    0  502 -0.77458549490E+03 -0.11182379133E+04 -0.20263515825E+04  0.24406026036E+04  0.12699999809E+01 0.  1.
</event>
<event>
 5   0  0.3872969E-08  0.3894983E+04  0.7818609E-02  0.8026073E-01
       -2   -1    0    0    0  501  0.00000000000E+00  0.00000000000E+00  0.14242294796E+04  0.14242294796E+04  0.25500000920E-02 0.  1.
        2   -1    0    0  501    0  0.00000000000E+00  0.00000000000E+00 -0.26630007087E+04  0.26630007087E+04  0.25500000920E-02 0. -1.
    10030    2    1    2    0    0  0.00000000000E+00  0.00000000000E+00 -0.12387712291E+04  0.40872301883E+04  0.38949834985E+04 0.  0.
        2    1    3    3  502    0 -0.15994759947E+04 -0.10039102220E+04 -0.11188675785E+04  0.21949997380E+04  0.25500000920E-02 0. -1.
       -2    1    3    3    0  502  0.15994759947E+04  0.10039102220E+04 -0.11990365059E+03  0.18922304503E+04  0.25500000920E-02 0.  1.
</event>
<event>
 5   0  0.1164500E-08  0.3903272E+04  0.7818609E-02  0.8024349E-01
       -1   -1    0    0    0  501  0.00000000000E+00  0.00000000000E+00  0.31400508875E+04  0.31400508875E+04  0.50400001928E-02 0.  1.
        1   -1    0    0  501    0  0.00000000000E+00  0.00000000000E+00 -0.12130005966E+04  0.12130005966E+04  0.50400001928E-02 0. -1.
    10030    2    1    2    0    0  0.00000000000E+00  0.00000000000E+00  0.19270502909E+04  0.43530514841E+04  0.39032722682E+04 0.  0.
        3    1    3    3  502    0 -0.52675281411E+03  0.60013496741E+03  0.29495304715E+04  0.30557094952E+04  0.10100000352E+00 0.  1.
       -3    1    3    3    0  502  0.52675281411E+03 -0.60013496741E+03 -0.10224801807E+04  0.12973419890E+04  0.10100000352E+00 0. -1.
</event>
<event>
 5   0  0.1164500E-08  0.3900773E+04  0.7818609E-02  0.8024868E-01
       -1   -1    0    0    0  501  0.00000000000E+00  0.00000000000E+00  0.19179775160E+04  0.19179775160E+04  0.50400001928E-02 0. -1.
        1   -1    0    0  501    0  0.00000000000E+00  0.00000000000E+00 -0.19833433279E+04  0.19833433279E+04  0.50400001928E-02 0.  1.
    10030    2    1    2    0    0  0.00000000000E+00  0.00000000000E+00 -0.65365811918E+02  0.39013208440E+04  0.39007732103E+04 0.  0.
        4    1    3    3  502    0 -0.11301163302E+04 -0.15709872375E+04 -0.27529164361E+03  0.19547252805E+04  0.12699999809E+01 0. -1.
       -4    1    3    3    0  502  0.11301163302E+04  0.15709872375E+04  0.20992583169E+03  0.19465955635E+04  0.12699999809E+01 0.  1.
</event>
<event>
 5   0  0.3724293E-08  0.3903991E+04  0.7818609E-02  0.8024200E-01
        2   -1    0    0  501    0  0.00000000000E+00  0.00000000000E+00  0.18776778312E+04  0.18776778312E+04  0.25500000920E-02 0. -1.
       -2   -1    0    0    0  501  0.00000000000E+00  0.00000000000E+00 -0.20292543939E+04  0.20292543939E+04  0.25500000920E-02 0.  1.
    10030    2    1    2    0    0  0.00000000000E+00  0.00000000000E+00 -0.15157656267E+03  0.39069322252E+04  0.39039907733E+04 0.  0.
        4    1    3    3  502    0 -0.95473487272E+03  0.55016693864E+03 -0.16882384466E+04  0.20160240582E+04  0.12699999809E+01 0.  1.
       -4    1    3    3    0  502  0.95473487272E+03 -0.55016693864E+03  0.15366618839E+04  0.18909081670E+04  0.12699999809E+01 0. -1.
</event>
<event>
 5   0  0.1164500E-08  0.3897892E+04  0.7818609E-02  0.8025468E-01
        1   -1    0    0  501    0  0.00000000000E+00  0.00000000000E+00  0.15625703322E+04  0.15625703322E+04  0.50400001928E-02 0. -1.
       -1   -1    0    0    0  501  0.00000000000E+00  0.00000000000E+00 -0.24308605610E+04  0.24308605610E+04  0.50400001928E-02 0.  1.
    10030    2    1    2    0    0  0.00000000000E+00  0.00000000000E+00 -0.86829022879E+03  0.39934308931E+04  0.38978920427E+04 0.  0.
        4    1    3    3  502    0  0.12861055197E+04  0.66915872138E+03 -0.17685863862E+04  0.22868625277E+04  0.12699999809E+01 0.  1.
       -4    1    3    3    0  502 -0.12861055197E+04 -0.66915872138E+03  0.90029615740E+03  0.17065683655E+04  0.12699999809E+01 0. -1.
</event>
<event>
 5   0  0.1164500E-08  0.3883152E+04  0.7818609E-02  0.8028542E-01
        1   -1    0    0  501    0  0.00000000000E+00  0.00000000000E+00  0.26904526400E+04  0.26904526400E+04  0.50400001928E-02 0. -1.
       -1   -1    0    0    0  501  0.00000000000E+00  0.00000000000E+00 -0.14011462867E+04  0.14011462867E+04  0.50400001928E-02 0.  1.
    10030    2    1    2    0    0  0.00000000000E+00  0.00000000000E+00  0.12893063533E+04  0.40915989268E+04  0.38831521867E+04 0.  0.
        4    1    3    3  502    0 -0.70018982674E+03 -0.76140413683E+03  0.23759340402E+04  0.25913444830E+04  0.12699999809E+01 0. -1.
       -4    1    3    3    0  502  0.70018982674E+03  0.76140413683E+03 -0.10866276870E+04  0.15002544438E+04  0.12699999809E+01 0.  1.
</event>
<event>
 5   0  0.1164500E-08  0.3902260E+04  0.7818609E-02  0.8024559E-01
        1   -1    0    0  501    0  0.00000000000E+00  0.00000000000E+00  0.17249608032E+04  0.17249608032E+04  0.50400001928E-02 0. -1.
       -1   -1    0    0    0  501  0.00000000000E+00  0.00000000000E+00 -0.22069532991E+04  0.22069532991E+04  0.50400001928E-02 0.  1.
    10030    2    1    2    0    0  0.00000000000E+00  0.00000000000E+00 -0.48199249588E+03  0.39319141023E+04  0.39022598250E+04 0.  0.
        3    1    3    3  502    0 -0.19019016854E+04  0.29956003259E+03  0.77541705623E+02  0.19269091729E+04  0.10100000352E+00 0.  1.
       -3    1    3    3    0  502  0.19019016854E+04 -0.29956003259E+03 -0.55953420150E+03  0.20050049294E+04  0.10100000352E+00 0. -1.
</event>
<event>
 5   0  0.3769985E-08  0.3866323E+04  0.7818609E-02  0.8032070E-01
        2   -1    0    0  501    0  0.00000000000E+00  0.00000000000E+00  0.14705583687E+04  0.14705583687E+04  0.25500000920E-02 0.  1.
       -2   -1    0    0    0  501  0.00000000000E+00  0.00000000000E+00 -0.25412883285E+04  0.25412883286E+04  0.25500000920E-02 0. -1.
    10030    2    1    2    0    0  0.00000000000E+00  0.00000000000E+00 -0.10707299598E+04  0.40118466973E+04  0.38663227071E+04 0.  0.
        1    1    3    3  502    0  0.60332866329E+03  0.68186352897E+03 -0.23048874612E+04  0.24781948182E+04  0.50400001928E-02 0. -1.
       -1    1    3    3    0  502 -0.60332866329E+03 -0.68186352897E+03  0.12341575014E+04  0.15336518791E+04  0.50400001928E-02 0.  1.
</event>
<event>
 5   0  0.1164500E-08  0.3878601E+04  0.7818609E-02  0.8029495E-01
       -1   -1    0    0    0  501  0.00000000000E+00  0.00000000000E+00  0.14316794296E+04  0.14316794296E+04  0.50400001928E-02 0.  1.
        1   -1    0    0  501    0  0.00000000000E+00  0.00000000000E+00 -0.26269054601E+04  0.26269054601E+04  0.50400001928E-02 0. -1.
    10030    2    1    2    0    0  0.00000000000E+00  0.00000000000E+00 -0.11952260305E+04  0.40585848897E+04  0.38786010420E+04 0.  0.
        3    1    3    3  502    0  0.29614549673E+03 -0.13583174969E+04 -0.20124499179E+04  0.24459524239E+04  0.10100000352E+00 0. -1.
       -3    1    3    3    0  502 -0.29614549673E+03  0.13583174969E+04  0.81722388735E+03  0.16126324658E+04  0.10100000352E+00 0.  1.
</event>
<event>
 5   0  0.3872969E-08  0.3894467E+04  0.7818609E-02  0.8026181E-01
       -2   -1    0    0    0  501  0.00000000000E+00  0.00000000000E+00  0.17282765919E+04  0.17282765919E+04  0.25500000920E-02 0.  1.
        2   -1    0    0  501    0  0.00000000000E+00  0.00000000000E+00 -0.21939299404E+04  0.21939299404E+04  0.25500000920E-02 0. -1.
    10030    2    1    2    0    0  0.00000000000E+00  0.00000000000E+00 -0.46565334859E+03  0.39222065323E+04  0.38944667210E+04 0.  0.
        2    1    3    3  502    0  0.16479519578E+04  0.68472160311E+03  0.55190782714E+03  0.18679377876E+04  0.25500000920E-02 0.  1.
       -2    1    3    3    0  502 -0.16479519578E+04 -0.68472160311E+03 -0.10175611757E+04  0.20542687446E+04  0.25500000920E-02 0. -1.
</event>
<event>
 5   0  0.3690572E-08  0.3894615E+04  0.7818609E-02  0.8026150E-01
       -2   -1    0    0    0  501  0.00000000000E+00  0.00000000000E+00  0.22695634717E+04  0.22695634717E+04  0.25500000920E-02 0.  1.
        2   -1    0    0  501    0  0.00000000000E+00  0.00000000000E+00 -0.16708090328E+04  0.16708090328E+04  0.25500000920E-02 0. -1.
    10030    2    1    2    0    0  0.00000000000E+00  0.00000000000E+00  0.59875443882E+03  0.39403725045E+04  0.38946153335E+04 0.  0.
        3    1    3    3  502    0 -0.10338710993E+04  0.12560724209E+04 -0.78343027969E+03  0.18056495756E+04  0.10100000352E+00 0. -1.
       -3    1    3    3    0  502  0.10338710993E+04 -0.12560724209E+04  0.13821847185E+04  0.21347229288E+04  0.10100000352E+00 0.  1.
</event>
<event>
 5   0  0.1164500E-08  0.3909610E+04  0.7818609E-02  0.8023034E-01
        1   -1    0    0  501    0  0.00000000000E+00  0.00000000000E+00  0.19138821758E+04  0.19138821758E+04  0.50400001928E-02 0.  1.
       -1   -1    0    0    0  501  0.00000000000E+00  0.00000000000E+00 -0.19966026537E+04  0.19966026537E+04  0.50400001928E-02 0. -1.
    10030    2    1    2    0    0  0.00000000000E+00  0.00000000000E+00 -0.82720477865E+02  0.39104848296E+04  0.39096098175E+04 0.  0.
        5    1    3    3  502    0 -0.84719986239E+03 -0.16564202573E+04  0.55857769256E+03  0.19425516221E+04  0.46999998093E+01 0.  1.
       -5    1    3    3    0  502  0.84719986239E+03  0.16564202573E+04 -0.64129817042E+03  0.19679332075E+04  0.46999998093E+01 0. -1.
</event>
<event>
 5   0  0.3724293E-08  0.3906388E+04  0.7818609E-02  0.8023702E-01
       -2   -1    0    0    0  501  0.00000000000E+00  0.00000000000E+00  0.13238808944E+04  0.13238808944E+04  0.25500000920E-02 0. -1.
        2   -1    0    0  501    0  0.00000000000E+00  0.00000000000E+00 -0.28816544348E+04  0.28816544348E+04  0.25500000920E-02 0.  1.
    10030    2    1    2    0    0  0.00000000000E+00  0.00000000000E+00 -0.15577735405E+04  0.42055353292E+04  0.39063882298E+04 0.  0.
        4    1    3    3  502    0  0.87731063767E+03 -0.16873960442E+04 -0.12579175533E+04  0.22802055936E+04  0.12699999809E+01 0.  1.
       -4    1    3    3    0  502 -0.87731063767E+03  0.16873960442E+04 -0.29985598713E+03  0.19253297356E+04  0.12699999809E+01 0. -1.
</event>
<event>
 5   0  0.3724293E-08  0.3888197E+04  0.7818609E-02  0.8027489E-01
       -2   -1    0    0    0  501  0.00000000000E+00  0.00000000000E+00  0.22218024209E+04  0.22218024209E+04  0.25500000920E-02 0. -1.
        2   -1    0    0  501    0  0.00000000000E+00  0.00000000000E+00 -0.17011044897E+04  0.17011044897E+04  0.25500000920E-02 0.  1.
    10030    2    1    2    0    0  0.00000000000E+00  0.00000000000E+00  0.52069793119E+03  0.39229069106E+04  0.38881965349E+04 0.  0.
        4    1    3    3  502    0  0.97672041342E+03  0.99960214056E+03 -0.11031327916E+04  0.17804748733E+04  0.12699999809E+01 0.  1.
       -4    1    3    3    0  502 -0.97672041342E+03 -0.99960214056E+03  0.16238307228E+04  0.21424320374E+04  0.12699999809E+01 0. -1.
</event>
<event>
 5   0  0.3872969E-08  0.3800666E+04  0.7818609E-02  0.8046012E-01
        2   -1    0    0  501    0  0.00000000000E+00  0.00000000000E+00  0.24545046959E+04  0.24545046959E+04  0.25500000920E-02 0.  1.
       -2   -1    0    0    0  501  0.00000000000E+00  0.00000000000E+00 -0.14712810672E+04  0.14712810672E+04  0.25500000920E-02 0. -1.
    10030    2    1    2    0    0  0.00000000000E+00  0.00000000000E+00  0.98322362867E+03  0.39257857630E+04  0.38006664091E+04 0.  0.
        2    1    3    3  502    0  0.11474447799E+04 -0.45081057142E+03 -0.10021662570E+04  0.15887721362E+04  0.25500000920E-02 0. -1.
       -2    1    3    3    0  502 -0.11474447799E+04  0.45081057142E+03  0.19853898856E+04  0.23370136269E+04  0.25500000920E-02 0.  1.
</event>
<event>
 5   0  0.1164500E-08  0.3903278E+04  0.7818609E-02  0.8024348E-01
       -1   -1    0    0    0  501  0.00000000000E+00  0.00000000000E+00  0.19209172365E+04  0.19209172365E+04  0.50400001928E-02 0.  1.
        1   -1    0    0  501    0  0.00000000000E+00  0.00000000000E+00 -0.19828522604E+04  0.19828522604E+04  0.50400001928E-02 0. -1.
    10030    2    1    2    0    0  0.00000000000E+00  0.00000000000E+00 -0.61935023919E+02  0.39037694969E+04  0.39032781528E+04 0.  0.
        5    1    3    3  502    0  0.10534698443E+03  0.19342023264E+04  0.20704641076E+03  0.19481085527E+04  0.46999998093E+01 0.  1.
       -5    1    3    3    0  502 -0.10534698443E+03 -0.19342023264E+04 -0.26898143468E+03  0.19556609443E+04  0.46999998093E+01 0. -1.
</event>
<event>
 5   0  0.3690572E-08  0.3899867E+04  0.7818609E-02  0.8025057E-01
       -2   -1    0    0    0  501  0.00000000000E+00  0.00000000000E+00  0.16755448965E+04  0.16755448965E+04  0.25500000920E-02 0. -1.
        2   -1    0    0  501    0  0.00000000000E+00  0.00000000000E+00 -0.22692563674E+04  0.22692563674E+04  0.25500000920E-02 0.  1.
    10030    2    1    2    0    0  0.00000000000E+00  0.00000000000E+00 -0.59371147087E+03  0.39448012639E+04  0.38998671389E+04 0.  0.
        3    1    3    3  502    0  0.62793460057E+03 -0.39296986359E+03  0.15276769146E+04  0.16977997355E+04  0.10100000352E+00 0. -1.
       -3    1    3    3    0  502 -0.62793460057E+03  0.39296986359E+03 -0.21213883855E+04  0.22470015284E+04  0.10100000352E+00 0.  1.
</event>
<event>
 5   0  0.1164500E-08  0.3895021E+04  0.7818609E-02  0.8026065E-01
        1   -1    0    0  501    0  0.00000000000E+00  0.00000000000E+00  0.28753425633E+04  0.28753425633E+04  0.50400001928E-02 0. -1.
       -1   -1    0    0    0  501  0.00000000000E+00  0.00000000000E+00 -0.13190769204E+04  0.13190769204E+04  0.50400001928E-02 0.  1.
    10030    2    1    2    0    0  0.00000000000E+00  0.00000000000E+00  0.15562656430E+04  0.41944194837E+04  0.38950214446E+04 0.  0.
        5    1    3    3  502    0  0.18007726757E+04  0.42553565832E+02 -0.19172653360E+02  0.18013835561E+04  0.46999998093E+01 0.  1.
       -5    1    3    3    0  502 -0.18007726757E+04 -0.42553565832E+02  0.15754382963E+04  0.23930359276E+04  0.46999998093E+01 0. -1.
</event>
<event>
 5   0  0.3724293E-08  0.3903683E+04  0.7818609E-02  0.8024264E-01
        2   -1    0    0  501    0  0.00000000000E+00  0.00000000000E+00  0.26412750890E+04  0.26412750890E+04  0.25500000920E-02 0. -1.
       -2   -1    0    0    0  501  0.00000000000E+00  0.00000000000E+00 -0.14423662728E+04  0.14423662728E+04  0.25500000920E-02 0.  1.
    10030    2    1    2    0    0  0.00000000000E+00  0.00000000000E+00  0.11989088162E+04  0.40836413618E+04  0.39036834429E+04 0.  0.
        4    1    3    3  502    0 -0.16491469686E+04  0.83601271637E+03 -0.54739719262E+02  0.18497570207E+04  0.12699999809E+01 0.  1.
       -4    1    3    3    0  502  0.16491469686E+04 -0.83601271637E+03  0.12536485355E+04  0.22338843411E+04  0.12699999809E+01 0. -1.
</event>
<event>
 5   0  0.1164500E-08  0.3896424E+04  0.7818609E-02  0.8025773E-01
       -1   -1    0    0    0  501  0.00000000000E+00  0.00000000000E+00  0.16339617753E+04  0.16339617753E+04  0.50400001928E-02 0.  1.
        1   -1    0    0  501    0  0.00000000000E+00  0.00000000000E+00 -0.23229005320E+04  0.23229005320E+04  0.50400001928E-02 0. -1.
    10030    2    1    2    0    0  0.00000000000E+00  0.00000000000E+00 -0.68893875669E+03  0.39568623074E+04  0.38964243492E+04 0.  0.
        4    1    3    3  502    0 -0.19115718224E+04  0.32284367020E+03 -0.54031879488E+03  0.20125309638E+04  0.12699999809E+01 0. -1.
       -4    1    3    3    0  502  0.19115718224E+04 -0.32284367020E+03 -0.14861996181E+03  0.19443313435E+04  0.12699999809E+01 0.  1.
</event>
<event>
 5   0  0.1164500E-08  0.3872570E+04  0.7818609E-02  0.8030758E-01
       -1   -1    0    0    0  501  0.00000000000E+00  0.00000000000E+00  0.25612033125E+04  0.25612033125E+04  0.50400001928E-02 0. -1.
        1   -1    0    0  501    0  0.00000000000E+00  0.00000000000E+00 -0.14638428367E+04  0.14638428367E+04  0.50400001928E-02 0.  1.
    10030    2    1    2    0    0  0.00000000000E+00  0.00000000000E+00  0.10973604758E+04  0.40250461492E+04  0.38725697527E+04 0.  0.
        3    1    3    3  502    0 -0.81370171497E+02 -0.17558708502E+03  0.25511262178E+04  0.25584559637E+04  0.10100000352E+00 0. -1.
       -3    1    3    3    0  502  0.81370171497E+02  0.17558708502E+03 -0.14537657420E+04  0.14665901855E+04  0.10100000352E+00 0.  1.
</event>
<event>
 5   0  0.3872969E-08  0.3886095E+04  0.7818609E-02  0.8027927E-01
        2   -1    0    0  501    0  0.00000000000E+00  0.00000000000E+00  0.20700823947E+04  0.20700823947E+04  0.25500000920E-02 0. -1.
       -2   -1    0    0    0  501  0.00000000000E+00  0.00000000000E+00 -0.18238080161E+04  0.18238080161E+04  0.25500000920E-02 0.  1.
    10030    2    1    2    0    0  0.00000000000E+00  0.00000000000E+00  0.24627437860E+03  0.38938904109E+04  0.38860946286E+04 0.  0.
        2    1    3    3  502    0  0.24358423834E+03 -0.15044904155E+04  0.13307969471E+04  0.20233252842E+04  0.25500000920E-02 0. -1.
       -2    1    3    3    0  502 -0.24358423834E+03  0.15044904155E+04 -0.10845225685E+04  0.18705651266E+04  0.25500000920E-02 0.  1.
</event>
<event>
 5   0  0.1164500E-08  0.3895456E+04  0.7818609E-02  0.8025975E-01
       -1   -1    0    0    0  501  0.00000000000E+00  0.00000000000E+00  0.22971077263E+04  0.22971077263E+04  0.50400001928E-02 0.  1.
        1   -1    0    0  501    0  0.00000000000E+00  0.00000000000E+00 -0.16514872165E+04  0.16514872165E+04  0.50400001928E-02 0. -1.
    10030    2    1    2    0    0  0.00000000000E+00  0.00000000000E+00  0.64562050983E+03  0.39485949428E+04  0.38954558372E+04 0.  0.
        3    1    3    3  502    0  0.47587059092E+01  0.13408042304E+04 -0.11092125202E+04  0.17401525952E+04  0.10100000352E+00 0. -1.
       -3    1    3    3    0  502 -0.47587059092E+01 -0.13408042304E+04  0.17548330300E+04  0.22084423476E+04  0.10100000352E+00 0.  1.
</event>
<event>
 5   0  0.3769985E-08  0.3914206E+04  0.7818609E-02  0.8022081E-01
        2   -1    0    0  501    0  0.00000000000E+00  0.00000000000E+00  0.15810246413E+04  0.15810246413E+04  0.25500000920E-02 0.  1.
       -2   -1    0    0    0  501  0.00000000000E+00  0.00000000000E+00 -0.24226395509E+04  0.24226395509E+04  0.25500000920E-02 0. -1.
    10030    2    1    2    0    0  0.00000000000E+00  0.00000000000E+00 -0.84161490958E+03  0.40036641922E+04  0.39142063445E+04 0.  0.
        1    1    3    3  502    0  0.14967555311E+04 -0.55210872244E+03 -0.15803618302E+04  0.22455833709E+04  0.50400001928E-02 0. -1.
       -1    1    3    3    0  502 -0.14967555311E+04  0.55210872244E+03  0.73874692064E+03  0.17580808212E+04  0.50400001928E-02 0.  1.
</event>
<event>
 5   0  0.3769985E-08  0.3900196E+04  0.7818609E-02  0.8024988E-01
       -2   -1    0    0    0  501  0.00000000000E+00  0.00000000000E+00  0.12936403623E+04  0.12936403623E+04  0.25500000920E-02 0. -1.
        2   -1    0    0  501    0  0.00000000000E+00  0.00000000000E+00 -0.29396755889E+04  0.29396755889E+04  0.25500000920E-02 0.  1.
    10030    2    1    2    0    0  0.00000000000E+00  0.00000000000E+00 -0.16460352265E+04  0.42333159512E+04  0.39001964022E+04 0.  0.
        1    1    3    3  502    0  0.14936028821E+04 -0.58038959118E+03  0.38329416426E+03  0.16476091962E+04  0.50400001928E-02 0. -1.
       -1    1    3    3    0  502 -0.14936028821E+04  0.58038959118E+03 -0.20293293908E+04  0.25857067551E+04  0.50400001928E-02 0.  1.
</event>
<event>
 5   0  0.3690572E-08  0.3897625E+04  0.7818609E-02  0.8025523E-01
       -2   -1    0    0    0  501  0.00000000000E+00  0.00000000000E+00  0.18655087708E+04  0.18655087708E+04  0.25500000920E-02 0. -1.
        2   -1    0    0  501    0  0.00000000000E+00  0.00000000000E+00 -0.20358363335E+04  0.20358363335E+04  0.25500000920E-02 0.  1.
    10030    2    1    2    0    0  0.00000000000E+00  0.00000000000E+00 -0.17032756269E+03  0.39013451042E+04  0.38976251928E+04 0.  0.
        3    1    3    3  502    0  0.12669353852E+04  0.11980576344E+04 -0.95628351373E+03  0.19887044865E+04  0.10100000352E+00 0.  1.
       -3    1    3    3    0  502 -0.12669353852E+04 -0.11980576344E+04  0.78595595104E+03  0.19126406178E+04  0.10100000352E+00 0. -1.
</event>
<event>
 5   0  0.3690572E-08  0.3873043E+04  0.7818609E-02  0.8030659E-01
       -2   -1    0    0    0  501  0.00000000000E+00  0.00000000000E+00  0.19059058383E+04  0.19059058383E+04  0.25500000920E-02 0.  1.
        2   -1    0    0  501    0  0.00000000000E+00  0.00000000000E+00 -0.19676288703E+04  0.19676288703E+04  0.25500000920E-02 0. -1.
    10030    2    1    2    0    0  0.00000000000E+00  0.00000000000E+00 -0.61723031971E+02  0.38735347086E+04  0.38730429130E+04 0.  0.
        3    1    3    3  502    0 -0.82298130501E+03 -0.17012128433E+04 -0.45363492814E+03  0.19435040583E+04  0.10100000352E+00 0. -1.
       -3    1    3    3    0  502  0.82298130501E+03  0.17012128433E+04  0.39191189617E+03  0.19300306503E+04  0.10100000352E+00 0.  1.
</event>
<event>
 5   0  0.3669347E-08  0.3892485E+04  0.7818609E-02  0.8026594E-01
        2   -1    0    0  501    0  0.00000000000E+00  0.00000000000E+00  0.14492823182E+04  0.14492823182E+04  0.25500000920E-02 0. -1.
       -2   -1    0    0    0  501  0.00000000000E+00  0.00000000000E+00 -0.26136106139E+04  0.26136106139E+04  0.25500000920E-02 0.  1.
    10030    2    1    2    0    0  0.00000000000E+00  0.00000000000E+00 -0.11643282958E+04  0.40628929321E+04  0.38924848872E+04 0.  0.
        5    1    3    3  502    0  0.16155924256E+04  0.39273238202E+03  0.47378710261E+03  0.17288360009E+04  0.46999998093E+01 0. -1.
       -5    1    3    3    0  502 -0.16155924256E+04 -0.39273238202E+03 -0.16381153984E+04  0.23340569312E+04  0.46999998093E+01 0.  1.
</event>
<event>
 5   0  0.1164500E-08  0.3893606E+04  0.7818609E-02  0.8026360E-01
       -1   -1    0    0    0  501  0.00000000000E+00  0.00000000000E+00  0.25002256243E+04  0.25002256243E+04  0.50400001928E-02 0.  1.
        1   -1    0    0  501    0  0.00000000000E+00  0.00000000000E+00 -0.15158795841E+04  0.15158795842E+04  0.50400001928E-02 0. -1.
    10030    2    1    2    0    0  0.00000000000E+00  0.00000000000E+00  0.98434604015E+03  0.40161052085E+04  0.38936055166E+04 0.  0.
        3    1    3    3  502    0 -0.10265905731E+04 -0.27386844697E+03 -0.11904534453E+04  0.15956414217E+04  0.10100000352E+00 0. -1.
       -3    1    3    3    0  502  0.10265905731E+04  0.27386844697E+03  0.21747994854E+04  0.24204637868E+04  0.10100000352E+00 0.  1.
</event>
<event>
 5   0  0.1164500E-08  0.3912669E+04  0.7818609E-02  0.8022399E-01
        1   -1    0    0  501    0  0.00000000000E+00  0.00000000000E+00  0.22139097113E+04  0.22139097113E+04  0.50400001928E-02 0.  1.
       -1   -1    0    0    0  501  0.00000000000E+00  0.00000000000E+00 -0.17287265890E+04  0.17287265890E+04  0.50400001928E-02 0. -1.
    10030    2    1    2    0    0  0.00000000000E+00  0.00000000000E+00  0.48518312230E+03  0.39426363003E+04  0.39126689528E+04 0.  0.
        4    1    3    3  502    0 -0.12875734972E+04  0.19402736171E+02 -0.12414480387E+04  0.17886913715E+04  0.12699999809E+01 0. -1.
       -4    1    3    3    0  502  0.12875734972E+04 -0.19402736171E+02  0.17266311610E+04  0.21539449287E+04  0.12699999809E+01 0.  1.
</event>
<event>
 5   0  0.3724293E-08  0.3903676E+04  0.7818609E-02  0.8024265E-01
       -2   -1    0    0    0  501  0.00000000000E+00  0.00000000000E+00  0.15562726614E+04  0.15562726614E+04  0.25500000920E-02 0.  1.
        2   -1    0    0  501    0  0.00000000000E+00  0.00000000000E+00 -0.24479460589E+04  0.24479460589E+04  0.25500000920E-02 0. -1.
    10030    2    1    2    0    0  0.00000000000E+00  0.00000000000E+00 -0.89167339752E+03  0.40042187204E+04  0.39036759743E+04 0.  0.
        4    1    3    3  502    0  0.83418773369E+03  0.17533608639E+04 -0.24190357243E+03  0.19566968200E+04  0.12699999809E+01 0.  1.
       -4    1    3    3    0  502 -0.83418773369E+03 -0.17533608639E+04 -0.64976982509E+03  0.20475219004E+04  0.12699999809E+01 0. -1.
</event>
<event>
 5   0  0.1164500E-08  0.3905532E+04  0.7818609E-02  0.8023880E-01
        1   -1    0    0  501    0  0.00000000000E+00  0.00000000000E+00  0.24591096508E+04  0.24591096508E+04  0.50400001928E-02 0.  1.
       -1   -1    0    0    0  501  0.00000000000E+00  0.00000000000E+00 -0.15506808481E+04  0.15506808481E+04  0.50400001928E-02 0. -1.
    10030    2    1    2    0    0  0.00000000000E+00  0.00000000000E+00  0.90842880272E+03  0.40097904989E+04  0.39055315843E+04 0.  0.
        3    1    3    3  502    0  0.78382905274E+03 -0.40579886308E+03  0.22426200363E+04  0.24100633474E+04  0.10100000352E+00 0.  1.
       -3    1    3    3    0  502 -0.78382905274E+03  0.40579886308E+03 -0.13341912336E+04  0.15997271515E+04  0.10100000352E+00 0. -1.
</event>
<event>
 5   0  0.1164500E-08  0.3898964E+04  0.7818609E-02  0.8025245E-01
       -1   -1    0    0    0  501  0.00000000000E+00  0.00000000000E+00  0.15511344127E+04  0.15511344127E+04  0.50400001928E-02 0. -1.
        1   -1    0    0  501    0  0.00000000000E+00  0.00000000000E+00 -0.24501289629E+04  0.24501289629E+04  0.50400001928E-02 0.  1.
    10030    2    1    2    0    0  0.00000000000E+00  0.00000000000E+00 -0.89899455017E+03  0.40012633756E+04  0.38989636315E+04 0.  0.
        4    1    3    3  502    0 -0.11418804408E+04  0.23478515098E+03  0.11540176408E+04  0.16403576855E+04  0.12699999809E+01 0. -1.
       -4    1    3    3    0  502  0.11418804408E+04 -0.23478515098E+03 -0.20530121910E+04  0.23609056901E+04  0.12699999809E+01 0.  1.
</event>
<event>
 5   0  0.1164500E-08  0.3902976E+04  0.7818609E-02  0.8024410E-01
        1   -1    0    0  501    0  0.00000000000E+00  0.00000000000E+00  0.13333017076E+04  0.13333017076E+04  0.50400001928E-02 0. -1.
       -1   -1    0    0    0  501  0.00000000000E+00  0.00000000000E+00 -0.28562974544E+04  0.28562974544E+04  0.50400001928E-02 0.  1.
    10030    2    1    2    0    0  0.00000000000E+00  0.00000000000E+00 -0.15229957468E+04  0.41895991620E+04  0.39029764403E+04 0.  0.
        5    1    3    3  502    0  0.73444455894E+03 -0.11288696560E+04  0.75449334745E+03  0.15437091085E+04  0.46999998093E+01 0. -1.
       -5    1    3    3    0  502 -0.73444455894E+03  0.11288696560E+04 -0.22774890943E+04  0.26458900535E+04  0.46999998093E+01 0.  1.
</event>
<event>
 5   0  0.1164500E-08  0.3892241E+04  0.7818609E-02  0.8026645E-01
       -1   -1    0    0    0  501  0.00000000000E+00  0.00000000000E+00  0.17601308194E+04  0.17601308194E+04  0.50400001928E-02 0.  1.
        1   -1    0    0  501    0  0.00000000000E+00  0.00000000000E+00 -0.21517632428E+04  0.21517632429E+04  0.50400001928E-02 0. -1.
    10030    2    1    2    0    0  0.00000000000E+00  0.00000000000E+00 -0.39163242343E+03  0.39118940623E+04  0.38922408969E+04 0.  0.
        3    1    3    3  502    0 -0.15153116032E+04 -0.88804318602E+03  0.64662547665E+03  0.18716074568E+04  0.10100000352E+00 0.  1.
       -3    1    3    3    0  502  0.15153116032E+04  0.88804318602E+03 -0.10382579001E+04  0.20402866055E+04  0.10100000352E+00 0. -1.
</event>
<event>
 5   0  0.1164500E-08  0.3898963E+04  0.7818609E-02  0.8025245E-01
       -1   -1    0    0    0  501  0.00000000000E+00  0.00000000000E+00  0.16011632165E+04  0.16011632165E+04  0.50400001928E-02 0. -1.
        1   -1    0    0  501    0  0.00000000000E+00  0.00000000000E+00 -0.23735734804E+04  0.23735734804E+04  0.50400001928E-02 0.  1.
    10030    2    1    2    0    0  0.00000000000E+00  0.00000000000E+00 -0.77241026390E+03  0.39747366969E+04  0.38989632204E+04 0.  0.
        5    1    3    3  502    0  0.15248616023E+04 -0.11087843368E+04  0.11926451327E+03  0.18891404728E+04  0.46999998093E+01 0. -1.
       -5    1    3    3    0  502 -0.15248616023E+04  0.11087843368E+04 -0.89167477716E+03  0.20855962241E+04  0.46999998093E+01 0.  1.
</event>
<event>
 5   0  0.1164500E-08  0.3895002E+04  0.7818609E-02  0.8026070E-01
        1   -1    0    0  501    0  0.00000000000E+00  0.00000000000E+00  0.15283332103E+04  0.15283332103E+04  0.50400001928E-02 0. -1.
       -1   -1    0    0    0  501  0.00000000000E+00  0.00000000000E+00 -0.24816312243E+04  0.24816312243E+04  0.50400001928E-02 0.  1.
    10030    2    1    2    0    0  0.00000000000E+00  0.00000000000E+00 -0.95329801401E+03  0.40099644346E+04  0.38950016256E+04 0.  0.
        2    1    3    3  502    0 -0.51105692162E+01  0.10734923844E+04 -0.21495237088E+04  0.24026785453E+04  0.25500000920E-02 0.  1.
       -2    1    3    3    0  502  0.51105692162E+01 -0.10734923844E+04  0.11962256948E+04  0.16072858894E+04  0.25500000920E-02 0. -1.
</event>
<event>
 5   0  0.1164500E-08  0.3886865E+04  0.7818609E-02  0.8027767E-01
       -1   -1    0    0    0  501  0.00000000000E+00  0.00000000000E+00  0.16663238983E+04  0.16663238983E+04  0.50400001928E-02 0. -1.
        1   -1    0    0  501    0  0.00000000000E+00  0.00000000000E+00 -0.22666240813E+04  0.22666240813E+04  0.50400001928E-02 0.  1.
    10030    2    1    2    0    0  0.00000000000E+00  0.00000000000E+00 -0.60030018296E+03  0.39329479796E+04  0.38868649964E+04 0.  0.
        2    1    3    3  502    0 -0.10321051028E+04 -0.66128424169E+03 -0.18261391272E+04  0.21993912575E+04  0.25500000920E-02 0.  1.
       -2    1    3    3    0  502  0.10321051028E+04  0.66128424169E+03  0.12258389443E+04  0.17335567221E+04  0.25500000920E-02 0. -1.
</event>
<event>
 5   0  0.3669347E-08  0.3895075E+04  0.7818609E-02  0.8026054E-01
        2   -1    0    0  501    0  0.00000000000E+00  0.00000000000E+00  0.14689790368E+04  0.14689790368E+04  0.25500000920E-02 0. -1.
       -2   -1    0    0    0  501  0.00000000000E+00  0.00000000000E+00 -0.25819985035E+04  0.25819985035E+04  0.25500000920E-02 0.  1.
    10030    2    1    2    0    0  0.00000000000E+00  0.00000000000E+00 -0.11130194667E+04  0.40509775404E+04  0.38950746718E+04 0.  0.
        5    1    3    3  502    0  0.65903242272E+03 -0.61105855123E+03  0.12404075842E+04  0.15317797988E+04  0.46999998093E+01 0. -1.
       -5    1    3    3    0  502 -0.65903242272E+03  0.61105855123E+03 -0.23534270509E+04  0.25191977415E+04  0.46999998093E+01 0.  1.
</event>
<event>
 5   0  0.1164500E-08  0.3888724E+04  0.7818609E-02  0.8027378E-01
       -1   -1    0    0    0  501  0.00000000000E+00  0.00000000000E+00  0.18394081197E+04  0.18394081197E+04  0.50400001928E-02 0. -1.
        1   -1    0    0  501    0  0.00000000000E+00  0.00000000000E+00 -0.20553046671E+04  0.20553046671E+04  0.50400001928E-02 0.  1.
    10030    2    1    2    0    0  0.00000000000E+00  0.00000000000E+00 -0.21589654741E+03  0.38947127868E+04  0.38887242603E+04 0.  0.
        3    1    3    3  502    0 -0.18089769230E+04 -0.79347309227E+02  0.60155679413E+03  0.19080262289E+04  0.10100000352E+00 0. -1.
       -3    1    3    3    0  502  0.18089769230E+04  0.79347309227E+02 -0.81745334154E+03  0.19866865579E+04  0.10100000352E+00 0.  1.
</event>
<event>
 5   0  0.3669347E-08  0.3895770E+04  0.7818609E-02  0.8025910E-01
       -2   -1    0    0    0  501  0.00000000000E+00  0.00000000000E+00  0.22003541867E+04  0.22003541867E+04  0.25500000920E-02 0.  1.
        2   -1    0    0  501    0  0.00000000000E+00  0.00000000000E+00 -0.17243838994E+04  0.17243838994E+04  0.25500000920E-02 0. -1.
    10030    2    1    2    0    0  0.00000000000E+00  0.00000000000E+00  0.47597028722E+03  0.39247380861E+04  0.38957696711E+04 0.  0.
        5    1    3    3  502    0  0.23096869209E+03  0.52882243931E+03 -0.16362878991E+04  0.17350676897E+04  0.46999998093E+01 0. -1.
       -5    1    3    3    0  502 -0.23096869209E+03 -0.52882243931E+03  0.21122581864E+04  0.21896703964E+04  0.46999998093E+01 0.  1.
</event>
<event>
 5   0  0.1164500E-08  0.3901739E+04  0.7818609E-02  0.8024668E-01
       -1   -1    0    0    0  501  0.00000000000E+00  0.00000000000E+00  0.24425353785E+04  0.24425353785E+04  0.50400001928E-02 0.  1.
        1   -1    0    0  501    0  0.00000000000E+00  0.00000000000E+00 -0.15581725887E+04  0.15581725887E+04  0.50400001928E-02 0. -1.
    10030    2    1    2    0    0  0.00000000000E+00  0.00000000000E+00  0.88436278982E+03  0.40007079673E+04  0.39017389322E+04 0.  0.
        5    1    3    3  502    0  0.31534476812E+03 -0.34666512811E+03 -0.14995938402E+04  0.15711215132E+04  0.46999998093E+01 0. -1.
       -5    1    3    3    0  502 -0.31534476812E+03  0.34666512811E+03  0.23839566300E+04  0.24295864540E+04  0.46999998093E+01 0.  1.
</event>
<event>
 5   0  0.3724293E-08  0.3896474E+04  0.7818609E-02  0.8025763E-01
       -2   -1    0    0    0  501  0.00000000000E+00  0.00000000000E+00  0.15255457885E+04  0.15255457885E+04  0.25500000920E-02 0. -1.
        2   -1    0    0  501    0  0.00000000000E+00  0.00000000000E+00 -0.24880461074E+04  0.24880461074E+04  0.25500000920E-02 0.  1.
    10030    2    1    2    0    0  0.00000000000E+00  0.00000000000E+00 -0.96250031891E+03  0.40135918958E+04  0.38964744375E+04 0.  0.
        4    1    3    3  502    0 -0.21836761281E+03 -0.16444645029E+03  0.15056925975E+04  0.15303067864E+04  0.12699999809E+01 0. -1.
       -4    1    3    3    0  502  0.21836761281E+03  0.16444645029E+03 -0.24681929164E+04  0.24832851094E+04  0.12699999809E+01 0.  1.
</event>
<event>
 5   0  0.1164500E-08  0.3902445E+04  0.7818609E-02  0.8024521E-01
        1   -1    0    0  501    0  0.00000000000E+00  0.00000000000E+00  0.19489883229E+04  0.19489883229E+04  0.50400001928E-02 0.  1.
       -1   -1    0    0    0  501  0.00000000000E+00  0.00000000000E+00 -0.19534588679E+04  0.19534588679E+04  0.50400001928E-02 0. -1.
    10030    2    1    2    0    0  0.00000000000E+00  0.00000000000E+00 -0.44705450456E+01  0.39024471908E+04  0.39024446301E+04 0.  0.
        4    1    3    3  502    0  0.19449865626E+03 -0.13491015670E+04 -0.13984317854E+04  0.19528230429E+04  0.12699999809E+01 0. -1.
       -4    1    3    3    0  502 -0.19449865626E+03  0.13491015670E+04  0.13939612404E+04  0.19496241479E+04  0.12699999809E+01 0.  1.
</event>
<event>
 5   0  0.3724293E-08  0.3902239E+04  0.7818609E-02  0.8024564E-01
       -2   -1    0    0    0  501  0.00000000000E+00  0.00000000000E+00  0.20079740176E+04  0.20079740176E+04  0.25500000920E-02 0.  1.
        2   -1    0    0  501    0  0.00000000000E+00  0.00000000000E+00 -0.18958746211E+04  0.18958746211E+04  0.25500000920E-02 0. -1.
    10030    2    1    2    0    0  0.00000000000E+00  0.00000000000E+00  0.11209939658E+03  0.39038486387E+04  0.39022388342E+04 0.  0.
        4    1    3    3  502    0 -0.15062934520E+04  0.67681929745E+03  0.10956420143E+04  0.19817763147E+04  0.12699999809E+01 0.  1.
       -4    1    3    3    0  502  0.15062934520E+04 -0.67681929745E+03 -0.98354261773E+03  0.19220723240E+04  0.12699999809E+01 0. -1.
</event>
<event>
 5   0  0.3872969E-08  0.3896974E+04  0.7818609E-02  0.8025659E-01
       -2   -1    0    0    0  501  0.00000000000E+00  0.00000000000E+00  0.14858412955E+04  0.14858412955E+04  0.25500000920E-02 0.  1.
        2   -1    0    0  501    0  0.00000000000E+00  0.00000000000E+00 -0.25551860308E+04  0.25551860308E+04  0.25500000920E-02 0. -1.
    10030    2    1    2    0    0  0.00000000000E+00  0.00000000000E+00 -0.10693447353E+04  0.40410273263E+04  0.38969736577E+04 0.  0.
        2    1    3    3  502    0  0.19292296694E+04  0.12911532339E+03 -0.78441327685E+03  0.20866006022E+04  0.25500000920E-02 0.  1.
       -2    1    3    3    0  502 -0.19292296694E+04 -0.12911532339E+03 -0.28493145848E+03  0.19544267242E+04  0.25500000920E-02 0. -1.
</event>
<event>
 5   0  0.1164500E-08  0.3894653E+04  0.7818609E-02  0.8026142E-01
       -1   -1    0    0    0  501  0.00000000000E+00  0.00000000000E+00  0.20766784575E+04  0.20766784575E+04  0.50400001928E-02 0.  1.
        1   -1    0    0  501    0  0.00000000000E+00  0.00000000000E+00 -0.18260318944E+04  0.18260318944E+04  0.50400001928E-02 0. -1.
    10030    2    1    2    0    0  0.00000000000E+00  0.00000000000E+00  0.25064656302E+03  0.39027103519E+04  0.38946533082E+04 0.  0.
        1    1    3    3  502    0  0.92227617969E+03 -0.16999351151E+04  0.35318840571E+03  0.19659895211E+04  0.50400001928E-02 0.  1.
       -1    1    3    3    0  502 -0.92227617969E+03  0.16999351151E+04 -0.10254184269E+03  0.19367208308E+04  0.50400001928E-02 0. -1.
</event>
<event>
 5   0  0.1164500E-08  0.3886214E+04  0.7818609E-02  0.8027903E-01
       -1   -1    0    0    0  501  0.00000000000E+00  0.00000000000E+00  0.16146309801E+04  0.16146309801E+04  0.50400001928E-02 0. -1.
        1   -1    0    0  501    0  0.00000000000E+00  0.00000000000E+00 -0.23384070430E+04  0.23384070430E+04  0.50400001928E-02 0.  1.
    10030    2    1    2    0    0  0.00000000000E+00  0.00000000000E+00 -0.72377606289E+03  0.39530380231E+04  0.38862138159E+04 0.  0.
        1    1    3    3  502    0  0.10898554613E+04 -0.15778375834E+04 -0.42955419959E+02  0.19181244835E+04  0.50400001928E-02 0.  1.
       -1    1    3    3    0  502 -0.10898554613E+04  0.15778375834E+04 -0.68082064293E+03  0.20349135397E+04  0.50400001928E-02 0. -1.
</event>
<event>
 5   0  0.3669347E-08  0.3900708E+04  0.7818609E-02  0.8024882E-01
        2   -1    0    0  501    0  0.00000000000E+00  0.00000000000E+00  0.16247049747E+04  0.16247049747E+04  0.25500000920E-02 0. -1.
       -2   -1    0    0    0  501  0.00000000000E+00  0.00000000000E+00 -0.23412748271E+04  0.23412748271E+04  0.25500000920E-02 0.  1.
    10030    2    1    2    0    0  0.00000000000E+00  0.00000000000E+00 -0.71656985240E+03  0.39659798018E+04  0.39007080684E+04 0.  0.
        5    1    3    3  502    0  0.98561263733E+02  0.81272146994E+03 -0.21581120270E+04  0.23081811284E+04  0.46999998093E+01 0.  1.
       -5    1    3    3    0  502 -0.98561263733E+02 -0.81272146994E+03  0.14415421746E+04  0.16577986734E+04  0.46999998093E+01 0. -1.
</event>
<event>
 5   0  0.3690572E-08  0.3918349E+04  0.7818609E-02  0.8021224E-01
        2   -1    0    0  501    0  0.00000000000E+00  0.00000000000E+00  0.21852051872E+04  0.21852051872E+04  0.25500000920E-02 0. -1.
       -2   -1    0    0    0  501  0.00000000000E+00  0.00000000000E+00 -0.17565239068E+04  0.17565239068E+04  0.25500000920E-02 0.  1.
    10030    2    1    2    0    0  0.00000000000E+00  0.00000000000E+00  0.42868128041E+03  0.39417290940E+04  0.39183492201E+04 0.  0.
        3    1    3    3  502    0  0.35626449446E+03 -0.18057789488E+04  0.88961574730E+03  0.20443038399E+04  0.10100000352E+00 0. -1.
       -3    1    3    3    0  502 -0.35626449446E+03  0.18057789488E+04 -0.46093446689E+03  0.18974252541E+04  0.10100000352E+00 0.  1.
</event>
<event>
 5   0  0.3669347E-08  0.3919989E+04  0.7818609E-02  0.8020885E-01
        2   -1    0    0  501    0  0.00000000000E+00  0.00000000000E+00  0.16296670574E+04  0.16296670574E+04  0.25500000920E-02 0. -1.
       -2   -1    0    0    0  501  0.00000000000E+00  0.00000000000E+00 -0.23572786772E+04  0.23572786772E+04  0.25500000920E-02 0.  1.
    10030    2    1    2    0    0  0.00000000000E+00  0.00000000000E+00 -0.72761161982E+03  0.39869457346E+04  0.39199894925E+04 0.  0.
        5    1    3    3  502    0 -0.11333504285E+03  0.45482301637E+03  0.15718162462E+04  0.16402247437E+04  0.46999998093E+01 0. -1.
       -5    1    3    3    0  502  0.11333504285E+03 -0.45482301637E+03 -0.22994278660E+04  0.23467209909E+04  0.46999998093E+01 0.  1.
</event>
<event>
 5   0  0.1164500E-08  0.3893595E+04  0.7818609E-02  0.8026363E-01
       -1   -1    0    0    0  501  0.00000000000E+00  0.00000000000E+00  0.17745462147E+04  0.17745462147E+04  0.50400001928E-02 0.  1.
        1   -1    0    0  501    0  0.00000000000E+00  0.00000000000E+00 -0.21357688810E+04  0.21357688810E+04  0.50400001928E-02 0. -1.
    10030    2    1    2    0    0  0.00000000000E+00  0.00000000000E+00 -0.36122266630E+03  0.39103150957E+04  0.38935950397E+04 0.  0.
        2    1    3    3  502    0  0.12915856257E+04 -0.57991051556E+03  0.11613644096E+04  0.18311900301E+04  0.25500000920E-02 0.  1.
       -2    1    3    3    0  502 -0.12915856257E+04  0.57991051556E+03 -0.15225870759E+04  0.20791250656E+04  0.25500000920E-02 0. -1.
</event>
<event>
 5   0  0.3724293E-08  0.3899058E+04  0.7818609E-02  0.8025225E-01
        2   -1    0    0  501    0  0.00000000000E+00  0.00000000000E+00  0.20725323152E+04  0.20725323152E+04  0.25500000920E-02 0.  1.
       -2   -1    0    0    0  501  0.00000000000E+00  0.00000000000E+00 -0.18338256281E+04  0.18338256281E+04  0.25500000920E-02 0. -1.
    10030    2    1    2    0    0  0.00000000000E+00  0.00000000000E+00  0.23870668712E+03  0.39063579433E+04  0.38990577706E+04 0.  0.
        4    1    3    3  502    0 -0.11109397931E+04 -0.29247811642E+03  0.16973993937E+04  0.20496089840E+04  0.12699999809E+01 0.  1.
       -4    1    3    3    0  502  0.11109397931E+04  0.29247811642E+03 -0.14586927066E+04  0.18567489593E+04  0.12699999809E+01 0. -1.
</event>
<event>
 5   0  0.1164500E-08  0.3905745E+04  0.7818609E-02  0.8023835E-01
        1   -1    0    0  501    0  0.00000000000E+00  0.00000000000E+00  0.14310405892E+04  0.14310405892E+04  0.50400001928E-02 0.  1.
       -1   -1    0    0    0  501  0.00000000000E+00  0.00000000000E+00 -0.26649921035E+04  0.26649921035E+04  0.50400001928E-02 0. -1.
    10030    2    1    2    0    0  0.00000000000E+00  0.00000000000E+00 -0.12339515143E+04  0.40960326927E+04  0.39057454449E+04 0.  0.
        3    1    3    3  502    0 -0.14430782272E+04  0.15909893290E+03 -0.19867197291E+04  0.24606589630E+04  0.10100000352E+00 0. -1.
       -3    1    3    3    0  502  0.14430782272E+04 -0.15909893290E+03  0.75276821482E+03  0.16353737297E+04  0.10100000352E+00 0.  1.
</event>
<event>
 5   0  0.3690572E-08  0.3892406E+04  0.7818609E-02  0.8026611E-01
        2   -1    0    0  501    0  0.00000000000E+00  0.00000000000E+00  0.16235525855E+04  0.16235525855E+04  0.25500000920E-02 0.  1.
       -2   -1    0    0    0  501  0.00000000000E+00  0.00000000000E+00 -0.23329735792E+04  0.23329735792E+04  0.25500000920E-02 0. -1.
    10030    2    1    2    0    0  0.00000000000E+00  0.00000000000E+00 -0.70942099369E+03  0.39565261647E+04  0.38924055731E+04 0.  0.
        3    1    3    3  502    0  0.34243879526E+02  0.15232140627E+04 -0.15855884927E+04  0.21989644387E+04  0.10100000352E+00 0. -1.
       -3    1    3    3    0  502 -0.34243879526E+02 -0.15232140627E+04  0.87616749904E+03  0.17575617260E+04  0.10100000352E+00 0.  1.
</event>
<event>
 5   0  0.1164500E-08  0.3898012E+04  0.7818609E-02  0.8025443E-01
       -1   -1    0    0    0  501  0.00000000000E+00  0.00000000000E+00  0.19552971331E+04  0.19552971331E+04  0.50400001928E-02 0. -1.
        1   -1    0    0  501    0  0.00000000000E+00  0.00000000000E+00 -0.19427351404E+04  0.19427351404E+04  0.50400001928E-02 0.  1.
    10030    2    1    2    0    0  0.00000000000E+00  0.00000000000E+00  0.12561992715E+02  0.38980322735E+04  0.38980120320E+04 0.  0.
        1    1    3    3  502    0 -0.15770538989E+03 -0.19147954412E+04 -0.32130562329E+03  0.19479604398E+04  0.50400001928E-02 0. -1.
       -1    1    3    3    0  502  0.15770538989E+03  0.19147954412E+04  0.33386761601E+03  0.19500718337E+04  0.50400001928E-02 0.  1.
</event>
<event>
 5   0  0.3669347E-08  0.3898914E+04  0.7818609E-02  0.8025255E-01
       -2   -1    0    0    0  501  0.00000000000E+00  0.00000000000E+00  0.10915630669E+04  0.10915630669E+04  0.25500000920E-02 0. -1.
        2   -1    0    0  501    0  0.00000000000E+00  0.00000000000E+00 -0.34815972305E+04  0.34815972305E+04  0.25500000920E-02 0.  1.
    10030    2    1    2    0    0  0.00000000000E+00  0.00000000000E+00 -0.23900341636E+04  0.45731602975E+04  0.38989141826E+04 0.  0.
        5    1    3    3  502    0  0.18763112328E+04  0.26792866124E+03 -0.66003770768E+03  0.20069881603E+04  0.46999998093E+01 0. -1.
       -5    1    3    3    0  502 -0.18763112328E+04 -0.26792866124E+03 -0.17299964559E+04  0.25661721372E+04  0.46999998093E+01 0.  1.
</event>
<event>
 5   0  0.1164500E-08  0.3791605E+04  0.7818609E-02  0.8047959E-01
        1   -1    0    0  501    0  0.00000000000E+00  0.00000000000E+00  0.13647341845E+04  0.13647341846E+04  0.50400001928E-02 0. -1.
       -1   -1    0    0    0  501  0.00000000000E+00  0.00000000000E+00 -0.26335291087E+04  0.26335291087E+04  0.50400001928E-02 0.  1.
    10030    2    1    2    0    0  0.00000000000E+00  0.00000000000E+00 -0.12687949242E+04  0.39982632933E+04  0.37916050431E+04 0.  0.
        4    1    3    3  502    0 -0.11388107675E+04  0.44756066227E+03  0.89258321347E+03  0.15145649265E+04  0.12699999809E+01 0. -1.
       -4    1    3    3    0  502  0.11388107675E+04 -0.44756066227E+03 -0.21613781376E+04  0.24836983668E+04  0.12699999809E+01 0.  1.
</event>
<event>
 5   0  0.3872969E-08  0.3898745E+04  0.7818609E-02  0.8025290E-01
        2   -1    0    0  501    0  0.00000000000E+00  0.00000000000E+00  0.14676128257E+04  0.14676128257E+04  0.25500000920E-02 0. -1.
       -2   -1    0    0    0  501  0.00000000000E+00  0.00000000000E+00 -0.25892748688E+04  0.25892748688E+04  0.25500000920E-02 0.  1.
    10030    2    1    2    0    0  0.00000000000E+00  0.00000000000E+00 -0.11216620431E+04  0.40568876946E+04  0.38987449298E+04 0.  0.
        2    1    3    3  502    0  0.11338174542E+04 -0.15783561387E+04 -0.71967583030E+03  0.20723617977E+04  0.25500000920E-02 0.  1.
       -2    1    3    3    0  502 -0.11338174542E+04  0.15783561387E+04 -0.40198621278E+03  0.19845258968E+04  0.25500000920E-02 0. -1.
</event>
<event>
 5   0  0.3690572E-08  0.3897291E+04  0.7818609E-02  0.8025593E-01
        2   -1    0    0  501    0  0.00000000000E+00  0.00000000000E+00  0.19068113628E+04  0.19068113628E+04  0.25500000920E-02 0. -1.
       -2   -1    0    0    0  501  0.00000000000E+00  0.00000000000E+00 -0.19913970029E+04  0.19913970029E+04  0.25500000920E-02 0.  1.
    10030    2    1    2    0    0  0.00000000000E+00  0.00000000000E+00 -0.84585640070E+02  0.38982083658E+04  0.38972905630E+04 0.  0.
        3    1    3    3  502    0 -0.13234314608E+04 -0.90112828062E+03  0.10686961790E+04  0.19249972838E+04  0.10100000352E+00 0. -1.
       -3    1    3    3    0  502  0.13234314608E+04  0.90112828062E+03 -0.11532818190E+04  0.19732110819E+04  0.10100000352E+00 0.  1.
</event>
<event>
 5   0  0.1164500E-08  0.3897262E+04  0.7818609E-02  0.8025599E-01
       -1   -1    0    0    0  501  0.00000000000E+00  0.00000000000E+00  0.16995042910E+04  0.16995042910E+04  0.50400001928E-02 0. -1.
        1   -1    0    0  501    0  0.00000000000E+00  0.00000000000E+00 -0.22342761731E+04  0.22342761731E+04  0.50400001928E-02 0.  1.
    10030    2    1    2    0    0  0.00000000000E+00  0.00000000000E+00 -0.53477188210E+03  0.39337804640E+04  0.38972615736E+04 0.  0.
        5    1    3    3  502    0 -0.78918256743E+03 -0.44236205181E+03 -0.20094336690E+04  0.22037102963E+04  0.46999998093E+01 0.  1.
       -5    1    3    3    0  502  0.78918256743E+03  0.44236205181E+03  0.14746617869E+04  0.17300701678E+04  0.46999998093E+01 0. -1.
</event>
<event>
 5   0  0.1164500E-08  0.3901449E+04  0.7818609E-02  0.8024728E-01
       -1   -1    0    0    0  501  0.00000000000E+00  0.00000000000E+00  0.22612149010E+04  0.22612149010E+04  0.50400001928E-02 0. -1.
        1   -1    0    0  501    0  0.00000000000E+00  0.00000000000E+00 -0.16828680754E+04  0.16828680754E+04  0.50400001928E-02 0.  1.
    10030    2    1    2    0    0  0.00000000000E+00  0.00000000000E+00  0.57834682556E+03  0.39440829765E+04  0.39014491506E+04 0.  0.
        2    1    3    3  502    0 -0.38120228104E+03 -0.16563082788E+04 -0.67870951380E+03  0.18301144493E+04  0.25500000920E-02 0.  1.
       -2    1    3    3    0  502  0.38120228104E+03  0.16563082788E+04  0.12570563394E+04  0.21139685272E+04  0.25500000920E-02 0. -1.
</event>
<event>
 5   0  0.3769985E-08  0.3900224E+04  0.7818609E-02  0.8024983E-01
       -2   -1    0    0    0  501  0.00000000000E+00  0.00000000000E+00  0.24183008837E+04  0.24183008837E+04  0.25500000920E-02 0. -1.
        2   -1    0    0  501    0  0.00000000000E+00  0.00000000000E+00 -0.15725658659E+04  0.15725658659E+04  0.25500000920E-02 0.  1.
    10030    2    1    2    0    0  0.00000000000E+00  0.00000000000E+00  0.84573501772E+03  0.39908667496E+04  0.39002243131E+04 0.  0.
        1    1    3    3  502    0  0.97556023236E+02 -0.40156577516E+03  0.23729834711E+04  0.24086973251E+04  0.50400001928E-02 0. -1.
       -1    1    3    3    0  502 -0.97556023236E+02  0.40156577516E+03 -0.15272484534E+04  0.15821694245E+04  0.50400001928E-02 0.  1.
</event>
<event>
 5   0  0.3872969E-08  0.3897827E+04  0.7818609E-02  0.8025481E-01
       -2   -1    0    0    0  501  0.00000000000E+00  0.00000000000E+00  0.22316128998E+04  0.22316128998E+04  0.25500000920E-02 0.  1.
        2   -1    0    0  501    0  0.00000000000E+00  0.00000000000E+00 -0.17020267065E+04  0.17020267065E+04  0.25500000920E-02 0. -1.
    10030    2    1    2    0    0  0.00000000000E+00  0.00000000000E+00  0.52958619330E+03  0.39336396062E+04  0.38978274738E+04 0.  0.
        2    1    3    3  502    0  0.31018427018E+03 -0.78143650179E+03 -0.15096009895E+04  0.17279329951E+04  0.25500000920E-02 0. -1.
       -2    1    3    3    0  502 -0.31018427018E+03  0.78143650179E+03  0.20391871828E+04  0.22057066112E+04  0.25500000920E-02 0.  1.
</event>
<event>
 5   0  0.1164500E-08  0.3893248E+04  0.7818609E-02  0.8026435E-01
       -1   -1    0    0    0  501  0.00000000000E+00  0.00000000000E+00  0.14419269395E+04  0.14419269395E+04  0.50400001928E-02 0.  1.
        1   -1    0    0  501    0  0.00000000000E+00  0.00000000000E+00 -0.26279730701E+04  0.26279730701E+04  0.50400001928E-02 0. -1.
    10030    2    1    2    0    0  0.00000000000E+00  0.00000000000E+00 -0.11860461306E+04  0.40699000096E+04  0.38932480866E+04 0.  0.
        2    1    3    3  502    0  0.18228321767E+04  0.51144056514E+03 -0.10664015389E+04  0.21729014792E+04  0.25500000920E-02 0. -1.
       -2    1    3    3    0  502 -0.18228321767E+04 -0.51144056514E+03 -0.11964459173E+03  0.18969985304E+04  0.25500000920E-02 0.  1.
</event>
<event>
 5   0  0.3724293E-08  0.3901267E+04  0.7818609E-02  0.8024766E-01
        2   -1    0    0  501    0  0.00000000000E+00  0.00000000000E+00  0.26064916562E+04  0.26064916562E+04  0.25500000920E-02 0.  1.
       -2   -1    0    0    0  501  0.00000000000E+00  0.00000000000E+00 -0.14598052401E+04  0.14598052401E+04  0.25500000920E-02 0. -1.
    10030    2    1    2    0    0  0.00000000000E+00  0.00000000000E+00  0.11466864160E+04  0.40662968963E+04  0.39012665523E+04 0.  0.
        4    1    3    3  502    0  0.10374060366E+04 -0.38600319990E+03 -0.11007630230E+04  0.15610543235E+04  0.12699999809E+01 0. -1.
       -4    1    3    3    0  502 -0.10374060366E+04  0.38600319990E+03  0.22474494390E+04  0.25052425729E+04  0.12699999809E+01 0.  1.
</event>
<event>
 5   0  0.3669347E-08  0.3870575E+04  0.7818609E-02  0.8031177E-01
        2   -1    0    0  501    0  0.00000000000E+00  0.00000000000E+00  0.22790794720E+04  0.22790794720E+04  0.25500000920E-02 0.  1.
       -2   -1    0    0    0  501  0.00000000000E+00  0.00000000000E+00 -0.16433558652E+04  0.16433558652E+04  0.25500000920E-02 0. -1.
    10030    2    1    2    0    0  0.00000000000E+00  0.00000000000E+00  0.63572360682E+03  0.39224353372E+04  0.38705754701E+04 0.  0.
        5    1    3    3  502    0 -0.40024333372E+02 -0.13704314589E+04  0.17020440252E+04  0.21855572023E+04  0.46999998093E+01 0.  1.
       -5    1    3    3    0  502  0.40024333372E+02  0.13704314589E+04 -0.10663204184E+04  0.17368781349E+04  0.46999998093E+01 0. -1.
</event>
<event>
 5   0  0.3724293E-08  0.3902193E+04  0.7818609E-02  0.8024573E-01
       -2   -1    0    0    0  501  0.00000000000E+00  0.00000000000E+00  0.23502763078E+04  0.23502763078E+04  0.25500000920E-02 0. -1.
        2   -1    0    0  501    0  0.00000000000E+00  0.00000000000E+00 -0.16197153030E+04  0.16197153030E+04  0.25500000920E-02 0.  1.
    10030    2    1    2    0    0  0.00000000000E+00  0.00000000000E+00  0.73056100476E+03  0.39699916108E+04  0.39021934868E+04 0.  0.
        4    1    3    3  502    0 -0.21471425917E+03 -0.15605283963E+04  0.15365544930E+04  0.22005345741E+04  0.12699999809E+01 0. -1.
       -4    1    3    3    0  502  0.21471425917E+03  0.15605283963E+04 -0.80599348825E+03  0.17694570367E+04  0.12699999809E+01 0.  1.
</event>
<event>
 5   0  0.3872969E-08  0.3918736E+04  0.7818609E-02  0.8021144E-01
        2   -1    0    0  501    0  0.00000000000E+00  0.00000000000E+00  0.22619061375E+04  0.22619061375E+04  0.25500000920E-02 0.  1.
       -2   -1    0    0    0  501  0.00000000000E+00  0.00000000000E+00 -0.16972953831E+04  0.16972953831E+04  0.25500000920E-02 0. -1.
    10030    2    1    2    0    0  0.00000000000E+00  0.00000000000E+00  0.56461075445E+03  0.39592015206E+04  0.39187359412E+04 0.  0.
        2    1    3    3  502    0 -0.23554436040E+03 -0.16489727821E+04 -0.76010962808E+03  0.18309448459E+04  0.25500000920E-02 0. -1.
       -2    1    3    3    0  502  0.23554436040E+03  0.16489727821E+04  0.13247203825E+04  0.21282566748E+04  0.25500000920E-02 0.  1.
</event>
<event>
 5   0  0.3669347E-08  0.3898509E+04  0.7818609E-02  0.8025339E-01
       -2   -1    0    0    0  501  0.00000000000E+00  0.00000000000E+00  0.15353264278E+04  0.15353264278E+04  0.25500000920E-02 0.  1.
        2   -1    0    0  501    0  0.00000000000E+00  0.00000000000E+00 -0.24747792738E+04  0.24747792738E+04  0.25500000920E-02 0. -1.
    10030    2    1    2    0    0  0.00000000000E+00  0.00000000000E+00 -0.93945284595E+03  0.40101057016E+04  0.38985094700E+04 0.  0.
        5    1    3    3  502    0  0.80268295621E+03 -0.17618295422E+04 -0.23690992173E+03  0.19505106165E+04  0.46999998093E+01 0. -1.
       -5    1    3    3    0  502 -0.80268295621E+03  0.17618295422E+04 -0.70254292422E+03  0.20595950851E+04  0.46999998093E+01 0.  1.
</event>
<event>
 5   0  0.1164500E-08  0.3920062E+04  0.7818609E-02  0.8020870E-01
       -1   -1    0    0    0  501  0.00000000000E+00  0.00000000000E+00  0.30284062424E+04  0.30284062424E+04  0.50400001928E-02 0. -1.
        1   -1    0    0  501    0  0.00000000000E+00  0.00000000000E+00 -0.12685618778E+04  0.12685618779E+04  0.50400001928E-02 0.  1.
    10030    2    1    2    0    0  0.00000000000E+00  0.00000000000E+00  0.17598443646E+04  0.42969681203E+04  0.39200615861E+04 0.  0.
        1    1    3    3  502    0 -0.94645279840E+03  0.50349715090E+03  0.26785534205E+04  0.28851223036E+04  0.50400001928E-02 0. -1.
       -1    1    3    3    0  502  0.94645279840E+03 -0.50349715090E+03 -0.91870905589E+03  0.14118458166E+04  0.50400001928E-02 0.  1.
</event>
<event>
 5   0  0.3690572E-08  0.3892787E+04  0.7818609E-02  0.8026531E-01
       -2   -1    0    0    0  501  0.00000000000E+00  0.00000000000E+00  0.15894560601E+04  0.15894560601E+04  0.25500000920E-02 0.  1.
        2   -1    0    0  501    0  0.00000000000E+00  0.00000000000E+00 -0.23834866989E+04  0.23834866989E+04  0.25500000920E-02 0. -1.
    10030    2    1    2    0    0  0.00000000000E+00  0.00000000000E+00 -0.79403063884E+03  0.39729427590E+04  0.38927868566E+04 0.  0.
        3    1    3    3  502    0  0.25159922073E+03  0.17948140743E+04  0.32737966737E+03  0.18416941076E+04  0.10100000352E+00 0.  1.
       -3    1    3    3    0  502 -0.25159922073E+03 -0.17948140743E+04 -0.11214103062E+04  0.21312486514E+04  0.10100000352E+00 0. -1.
</event>
<event>
 5   0  0.1164500E-08  0.3857544E+04  0.7818609E-02  0.8033918E-01
       -1   -1    0    0    0  501  0.00000000000E+00  0.00000000000E+00  0.30068054589E+04  0.30068054589E+04  0.50400001928E-02 0. -1.
        1   -1    0    0  501    0  0.00000000000E+00  0.00000000000E+00 -0.12372474065E+04  0.12372474065E+04  0.50400001928E-02 0.  1.
    10030    2    1    2    0    0  0.00000000000E+00  0.00000000000E+00  0.17695580524E+04  0.42440528654E+04  0.38575444293E+04 0.  0.
        1    1    3    3  502    0  0.42542520283E+03  0.13596306356E+04 -0.54572055751E+03  0.15255795605E+04  0.50400001928E-02 0.  1.
       -1    1    3    3    0  502 -0.42542520283E+03 -0.13596306356E+04  0.23152786099E+04  0.27184733050E+04  0.50400001928E-02 0. -1.
</event>
<event>
 5   0  0.3872969E-08  0.3903388E+04  0.7818609E-02  0.8024325E-01
        2   -1    0    0  501    0  0.00000000000E+00  0.00000000000E+00  0.22457100967E+04  0.22457100967E+04  0.25500000920E-02 0. -1.
       -2   -1    0    0    0  501  0.00000000000E+00  0.00000000000E+00 -0.16961711100E+04  0.16961711100E+04  0.25500000920E-02 0.  1.
    10030    2    1    2    0    0  0.00000000000E+00  0.00000000000E+00  0.54953898671E+03  0.39418812067E+04  0.39033875480E+04 0.  0.
        2    1    3    3  502    0 -0.61559908491E+03 -0.56649591661E+03  0.20554589851E+04  0.22191871252E+04  0.25500000920E-02 0. -1.
       -2    1    3    3    0  502  0.61559908491E+03  0.56649591661E+03 -0.15059199984E+04  0.17226940815E+04  0.25500000920E-02 0.  1.
</event>
<event>
 5   0  0.3669347E-08  0.3890770E+04  0.7818609E-02  0.8026952E-01
        2   -1    0    0  501    0  0.00000000000E+00  0.00000000000E+00  0.13101505569E+04  0.13101505569E+04  0.25500000920E-02 0.  1.
       -2   -1    0    0    0  501  0.00000000000E+00  0.00000000000E+00 -0.28886163806E+04  0.28886163806E+04  0.25500000920E-02 0. -1.
    10030    2    1    2    0    0  0.00000000000E+00  0.00000000000E+00 -0.15784658237E+04  0.41987669375E+04  0.38907697746E+04 0.  0.
        5    1    3    3  502    0 -0.60807856050E+03  0.17139483028E+04 -0.15346527274E+04  0.23796132888E+04  0.46999998093E+01 0. -1.
       -5    1    3    3    0  502  0.60807856050E+03 -0.17139483028E+04 -0.43813096341E+02  0.18191536488E+04  0.46999998093E+01 0.  1.
</event>
<event>
 5   0  0.1164500E-08  0.3900061E+04  0.7818609E-02  0.8025017E-01
       -1   -1    0    0    0  501  0.00000000000E+00  0.00000000000E+00  0.17375310407E+04  0.17375310407E+04  0.50400001928E-02 0. -1.
        1   -1    0    0  501    0  0.00000000000E+00  0.00000000000E+00 -0.21885182855E+04  0.21885182855E+04  0.50400001928E-02 0.  1.
    10030    2    1    2    0    0  0.00000000000E+00  0.00000000000E+00 -0.45098724481E+03  0.39260493262E+04  0.39000607453E+04 0.  0.
        3    1    3    3  502    0  0.71515752048E+03  0.10150731066E+03  0.15978919868E+04  0.17535714485E+04  0.10100000352E+00 0. -1.
       -3    1    3    3    0  502 -0.71515752048E+03 -0.10150731066E+03 -0.20488792316E+04  0.21724778777E+04  0.10100000352E+00 0.  1.
</event>
<event>
 5   0  0.1164500E-08  0.3899412E+04  0.7818609E-02  0.8025152E-01
       -1   -1    0    0    0  501  0.00000000000E+00  0.00000000000E+00  0.13284932568E+04  0.13284932568E+04  0.50400001928E-02 0. -1.
        1   -1    0    0  501    0  0.00000000000E+00  0.00000000000E+00 -0.28614021871E+04  0.28614021871E+04  0.50400001928E-02 0.  1.
    10030    2    1    2    0    0  0.00000000000E+00  0.00000000000E+00 -0.15329089303E+04  0.41898954439E+04  0.38994120123E+04 0.  0.
        1    1    3    3  502    0 -0.51738110320E+02  0.13674642373E+04  0.72578476765E+03  0.15489992903E+04  0.50400001928E-02 0. -1.
       -1    1    3    3    0  502  0.51738110320E+02 -0.13674642373E+04 -0.22586936979E+04  0.26408961535E+04  0.50400001928E-02 0.  1.
</event>
<event>
 5   0  0.1164500E-08  0.3892971E+04  0.7818609E-02  0.8026493E-01
        1   -1    0    0  501    0  0.00000000000E+00  0.00000000000E+00  0.12285831247E+04  0.12285831247E+04  0.50400001928E-02 0.  1.
       -1   -1    0    0    0  501  0.00000000000E+00  0.00000000000E+00 -0.30838817642E+04  0.30838817642E+04  0.50400001928E-02 0. -1.
    10030    2    1    2    0    0  0.00000000000E+00  0.00000000000E+00 -0.18552986396E+04  0.43124648889E+04  0.38929706364E+04 0.  0.
        5    1    3    3  502    0 -0.15057207256E+04 -0.80940821768E+03  0.10348514831E+03  0.17126201658E+04  0.46999998093E+01 0.  1.
       -5    1    3    3    0  502  0.15057207256E+04  0.80940821768E+03 -0.19587837879E+04  0.25998447231E+04  0.46999998093E+01 0. -1.
</event>
<event>
 5   0  0.1164500E-08  0.3902423E+04  0.7818609E-02  0.8024525E-01
        1   -1    0    0  501    0  0.00000000000E+00  0.00000000000E+00  0.25148291496E+04  0.25148291496E+04  0.50400001928E-02 0. -1.
       -1   -1    0    0    0  501  0.00000000000E+00  0.00000000000E+00 -0.15139105795E+04  0.15139105795E+04  0.50400001928E-02 0.  1.
    10030    2    1    2    0    0  0.00000000000E+00  0.00000000000E+00  0.10009185702E+04  0.40287397291E+04  0.39024230705E+04 0.  0.
        3    1    3    3  502    0 -0.60694747647E+03  0.95563936477E+03 -0.11401935069E+04  0.16067585625E+04  0.10100000352E+00 0.  1.
       -3    1    3    3    0  502  0.60694747647E+03 -0.95563936477E+03  0.21411120771E+04  0.24219811666E+04  0.10100000352E+00 0. -1.
</event>
<event>
 5   0  0.3669347E-08  0.3898244E+04  0.7818609E-02  0.8025395E-01
        2   -1    0    0  501    0  0.00000000000E+00  0.00000000000E+00  0.21142991619E+04  0.21142991619E+04  0.25500000920E-02 0.  1.
       -2   -1    0    0    0  501  0.00000000000E+00  0.00000000000E+00 -0.17968487743E+04  0.17968487743E+04  0.25500000920E-02 0. -1.
    10030    2    1    2    0    0  0.00000000000E+00  0.00000000000E+00  0.31745038756E+03  0.39111479362E+04  0.38982436341E+04 0.  0.
        5    1    3    3  502    0 -0.17106617399E+03 -0.13826921582E+04  0.15263046599E+04  0.20665742776E+04  0.46999998093E+01 0. -1.
       -5    1    3    3    0  502  0.17106617399E+03  0.13826921582E+04 -0.12088542723E+04  0.18445736586E+04  0.46999998093E+01 0.  1.
</event>
<event>
 5   0  0.3669347E-08  0.3902189E+04  0.7818609E-02  0.8024574E-01
       -2   -1    0    0    0  501  0.00000000000E+00  0.00000000000E+00  0.14146747839E+04  0.14146747839E+04  0.25500000920E-02 0.  1.
        2   -1    0    0  501    0  0.00000000000E+00  0.00000000000E+00 -0.26909149206E+04  0.26909149206E+04  0.25500000920E-02 0. -1.
    10030    2    1    2    0    0  0.00000000000E+00  0.00000000000E+00 -0.12762401367E+04  0.41055897045E+04  0.39021888647E+04 0.  0.
        5    1    3    3  502    0 -0.25324466461E+03  0.71553550794E+03  0.12529622427E+04  0.14649438197E+04  0.46999998093E+01 0.  1.
       -5    1    3    3    0  502  0.25324466461E+03 -0.71553550794E+03 -0.25292023794E+04  0.26406458848E+04  0.46999998093E+01 0. -1.
</event>
<event>
 5   0  0.1164500E-08  0.3902165E+04  0.7818609E-02  0.8024579E-01
        1   -1    0    0  501    0  0.00000000000E+00  0.00000000000E+00  0.23441932453E+04  0.23441932453E+04  0.50400001928E-02 0. -1.
       -1   -1    0    0    0  501  0.00000000000E+00  0.00000000000E+00 -0.16238942733E+04  0.16238942733E+04  0.50400001928E-02 0.  1.
    10030    2    1    2    0    0  0.00000000000E+00  0.00000000000E+00  0.72029897203E+03  0.39680875186E+04  0.39021645206E+04 0.  0.
        1    1    3    3  502    0  0.98413978481E+03 -0.13567182318E+04  0.13757748437E+04  0.21684030754E+04  0.50400001928E-02 0.  1.
       -1    1    3    3    0  502 -0.98413978481E+03  0.13567182318E+04 -0.65547587168E+03  0.17996844432E+04  0.50400001928E-02 0. -1.
</event>
<event>
 5   0  0.1164500E-08  0.3899632E+04  0.7818609E-02  0.8025106E-01
        3   -1    0    0  501    0  0.00000000000E+00  0.00000000000E+00  0.16273569849E+04  0.16273569880E+04  0.10100000352E+00 0.  1.
       -3   -1    0    0    0  501  0.00000000000E+00  0.00000000000E+00 -0.23361703366E+04  0.23361703388E+04  0.10100000352E+00 0. -1.
    10030    2    1    2    0    0  0.00000000000E+00  0.00000000000E+00 -0.70881335174E+03  0.39635273268E+04  0.38996323548E+04 0.  0.
        5    1    3    3  502    0 -0.80254960472E+03 -0.88417645868E+03  0.12122467211E+04  0.17015928070E+04  0.46999998093E+01 0.  1.
       -5    1    3    3    0  502  0.80254960472E+03  0.88417645868E+03 -0.19210600729E+04  0.22619345197E+04  0.46999998093E+01 0. -1.
</event>
<event>
 5   0  0.3690572E-08  0.3908096E+04  0.7818609E-02  0.8023347E-01
        2   -1    0    0  501    0  0.00000000000E+00  0.00000000000E+00  0.18655555473E+04  0.18655555473E+04  0.25500000920E-02 0. -1.
       -2   -1    0    0    0  501  0.00000000000E+00  0.00000000000E+00 -0.20467382926E+04  0.20467382926E+04  0.25500000920E-02 0.  1.
    10030    2    1    2    0    0  0.00000000000E+00  0.00000000000E+00 -0.18118274532E+03  0.39122938399E+04  0.39080961993E+04 0.  0.
        3    1    3    3  502    0  0.59425954192E+03  0.92694444910E+03  0.15254329349E+04  0.18813070095E+04  0.10100000352E+00 0. -1.
       -3    1    3    3    0  502 -0.59425954192E+03 -0.92694444910E+03 -0.17066156803E+04  0.20309868304E+04  0.10100000352E+00 0.  1.
</event>
<event>
 5   0  0.3669347E-08  0.3894391E+04  0.7818609E-02  0.8026197E-01
       -2   -1    0    0    0  501  0.00000000000E+00  0.00000000000E+00  0.18568387149E+04  0.18568387149E+04  0.25500000920E-02 0. -1.
        2   -1    0    0  501    0  0.00000000000E+00  0.00000000000E+00 -0.20419490831E+04  0.20419490831E+04  0.25500000920E-02 0.  1.
    10030    2    1    2    0    0  0.00000000000E+00  0.00000000000E+00 -0.18511036823E+03  0.38987877980E+04  0.38943908953E+04 0.  0.
        5    1    3    3  502    0 -0.88140030079E+02 -0.19335158173E+04  0.12051353699E+03  0.19392776189E+04  0.46999998093E+01 0. -1.
       -5    1    3    3    0  502  0.88140030079E+02  0.19335158173E+04 -0.30562390522E+03  0.19595101791E+04  0.46999998093E+01 0.  1.
</event>
<event>
 5   0  0.3724293E-08  0.3899143E+04  0.7818609E-02  0.8025207E-01
       -2   -1    0    0    0  501  0.00000000000E+00  0.00000000000E+00  0.24496350939E+04  0.24496350939E+04  0.25500000920E-02 0.  1.
        2   -1    0    0  501    0  0.00000000000E+00  0.00000000000E+00 -0.15515900546E+04  0.15515900546E+04  0.25500000920E-02 0. -1.
    10030    2    1    2    0    0  0.00000000000E+00  0.00000000000E+00  0.89804503936E+03  0.40012251485E+04  0.38991432131E+04 0.  0.
        4    1    3    3  502    0 -0.16998027995E+03  0.17769057025E+04  0.12534726308E+04  0.21811653812E+04  0.12699999809E+01 0.  1.
       -4    1    3    3    0  502  0.16998027995E+03 -0.17769057025E+04 -0.35542759143E+03  0.18200597673E+04  0.12699999809E+01 0. -1.
</event>
<event>
 5   0  0.1164500E-08  0.3904259E+04  0.7818609E-02  0.8024144E-01
       -1   -1    0    0    0  501  0.00000000000E+00  0.00000000000E+00  0.18106498769E+04  0.18106498769E+04  0.50400001928E-02 0. -1.
        1   -1    0    0  501    0  0.00000000000E+00  0.00000000000E+00 -0.21046641201E+04  0.21046641201E+04  0.50400001928E-02 0.  1.
    10030    2    1    2    0    0  0.00000000000E+00  0.00000000000E+00 -0.29401424324E+03  0.39153139970E+04  0.39042591256E+04 0.  0.
        3    1    3    3  502    0 -0.15436238035E+04 -0.30625790116E+03  0.10113572215E+04  0.18706714806E+04  0.10100000352E+00 0. -1.
       -3    1    3    3    0  502  0.15436238035E+04  0.30625790116E+03 -0.13053714648E+04  0.20446425164E+04  0.10100000352E+00 0.  1.
</event>
<event>
 5   0  0.1164500E-08  0.3904878E+04  0.7818609E-02  0.8024015E-01
       -1   -1    0    0    0  501  0.00000000000E+00  0.00000000000E+00  0.15246444516E+04  0.15246444517E+04  0.50400001928E-02 0.  1.
        1   -1    0    0  501    0  0.00000000000E+00  0.00000000000E+00 -0.25002672887E+04  0.25002672887E+04  0.50400001928E-02 0. -1.
    10030    2    1    2    0    0  0.00000000000E+00  0.00000000000E+00 -0.97562283709E+03  0.40249117404E+04  0.39048783077E+04 0.  0.
        4    1    3    3  502    0 -0.83397014412E+03  0.38198987808E+03 -0.22643332497E+04  0.24430778020E+04  0.12699999809E+01 0. -1.
       -4    1    3    3    0  502  0.83397014412E+03 -0.38198987808E+03  0.12887104126E+04  0.15818339384E+04  0.12699999809E+01 0.  1.
</event>
<event>
 5   0  0.1164500E-08  0.3899227E+04  0.7818609E-02  0.8025190E-01
        1   -1    0    0  501    0  0.00000000000E+00  0.00000000000E+00  0.29050355193E+04  0.29050355193E+04  0.50400001928E-02 0. -1.
       -1   -1    0    0    0  501  0.00000000000E+00  0.00000000000E+00 -0.13084149280E+04  0.13084149280E+04  0.50400001928E-02 0.  1.
    10030    2    1    2    0    0  0.00000000000E+00  0.00000000000E+00  0.15966205914E+04  0.42134504473E+04  0.38992265078E+04 0.  0.
        4    1    3    3  502    0  0.65355337561E+02  0.40050339736E+03  0.28588938579E+04  0.28875508645E+04  0.12699999809E+01 0. -1.
       -4    1    3    3    0  502 -0.65355337561E+02 -0.40050339736E+03 -0.12622732665E+04  0.13258995828E+04  0.12699999809E+01 0.  1.
</event>
<event>
 5   0  0.1164500E-08  0.3906610E+04  0.7818609E-02  0.8023656E-01
       -1   -1    0    0    0  501  0.00000000000E+00  0.00000000000E+00  0.15122414105E+04  0.15122414106E+04  0.50400001928E-02 0. -1.
        1   -1    0    0  501    0  0.00000000000E+00  0.00000000000E+00 -0.25230095680E+04  0.25230095680E+04  0.50400001928E-02 0.  1.
    10030    2    1    2    0    0  0.00000000000E+00  0.00000000000E+00 -0.10107681574E+04  0.40352509785E+04  0.39066095520E+04 0.  0.
        4    1    3    3  502    0  0.17516298073E+04  0.27742345695E+03 -0.13510163757E+04  0.22294433423E+04  0.12699999809E+01 0.  1.
       -4    1    3    3    0  502 -0.17516298073E+04 -0.27742345695E+03  0.34024821824E+03  0.18058076362E+04  0.12699999809E+01 0. -1.
</event>
<event>
 5   0  0.1164500E-08  0.3906563E+04  0.7818609E-02  0.8023666E-01
       -1   -1    0    0    0  501  0.00000000000E+00  0.00000000000E+00  0.14168460211E+04  0.14168460211E+04  0.50400001928E-02 0.  1.
        1   -1    0    0  501    0  0.00000000000E+00  0.00000000000E+00 -0.26928182031E+04  0.26928182031E+04  0.50400001928E-02 0. -1.
    10030    2    1    2    0    0  0.00000000000E+00  0.00000000000E+00 -0.12759721820E+04  0.41096642242E+04  0.39065630708E+04 0.  0.
        1    1    3    3  502    0 -0.98626910711E+03  0.13279467797E+04 -0.17308101937E+04  0.23941331057E+04  0.50400001928E-02 0. -1.
       -1    1    3    3    0  502  0.98626910711E+03 -0.13279467797E+04  0.45483801166E+03  0.17155311184E+04  0.50400001928E-02 0.  1.
</event>
<event>
 5   0  0.1164500E-08  0.3903332E+04  0.7818609E-02  0.8024337E-01
        1   -1    0    0  501    0  0.00000000000E+00  0.00000000000E+00  0.23988027396E+04  0.23988027396E+04  0.50400001928E-02 0. -1.
       -1   -1    0    0    0  501  0.00000000000E+00  0.00000000000E+00 -0.15878754410E+04  0.15878754410E+04  0.50400001928E-02 0.  1.
    10030    2    1    2    0    0  0.00000000000E+00  0.00000000000E+00  0.81092729861E+03  0.39866781806E+04  0.39033318885E+04 0.  0.
        5    1    3    3  502    0 -0.14153345829E+04 -0.68906134857E+03 -0.77286051369E+03  0.17536570324E+04  0.46999998093E+01 0.  1.
       -5    1    3    3    0  502  0.14153345829E+04  0.68906134857E+03  0.15837878123E+04  0.22330211481E+04  0.46999998093E+01 0. -1.
</event>
<event>
 5   0  0.3724293E-08  0.3842755E+04  0.7818609E-02  0.8037042E-01
        2   -1    0    0  501    0  0.00000000000E+00  0.00000000000E+00  0.19282894756E+04  0.19282894756E+04  0.25500000920E-02 0. -1.
       -2   -1    0    0    0  501  0.00000000000E+00  0.00000000000E+00 -0.19144901240E+04  0.19144901240E+04  0.25500000920E-02 0.  1.
    10030    2    1    2    0    0  0.00000000000E+00  0.00000000000E+00  0.13799351629E+02  0.38427795996E+04  0.38427548229E+04 0.  0.
        4    1    3    3  502    0 -0.16968345755E+03  0.62824796200E+03 -0.18009287761E+04  0.19148979207E+04  0.12699999809E+01 0.  1.
       -4    1    3    3    0  502  0.16968345755E+03 -0.62824796200E+03  0.18147281277E+04  0.19278816789E+04  0.12699999809E+01 0. -1.
</event>
<event>
 5   0  0.1164500E-08  0.3897908E+04  0.7818609E-02  0.8025464E-01
       -3   -1    0    0    0  501  0.00000000000E+00  0.00000000000E+00  0.22502538542E+04  0.22502538565E+04  0.10100000352E+00 0.  1.
        3   -1    0    0  501    0  0.00000000000E+00  0.00000000000E+00 -0.16879972501E+04  0.16879972531E+04  0.10100000352E+00 0. -1.
    10030    2    1    2    0    0  0.00000000000E+00  0.00000000000E+00  0.56225660409E+03  0.39382511096E+04  0.38979083254E+04 0.  0.
        5    1    3    3  502    0 -0.13800239905E+04 -0.11767950576E+04  0.10020165812E+04  0.20720454003E+04  0.46999998093E+01 0.  1.
       -5    1    3    3    0  502  0.13800239905E+04  0.11767950576E+04 -0.43975997713E+03  0.18662057093E+04  0.46999998093E+01 0. -1.
</event>
<event>
 5   0  0.3724293E-08  0.3897794E+04  0.7818609E-02  0.8025488E-01
       -2   -1    0    0    0  501  0.00000000000E+00  0.00000000000E+00  0.20512379062E+04  0.20512379062E+04  0.25500000920E-02 0. -1.
        2   -1    0    0  501    0  0.00000000000E+00  0.00000000000E+00 -0.18516619909E+04  0.18516619909E+04  0.25500000920E-02 0.  1.
    10030    2    1    2    0    0  0.00000000000E+00  0.00000000000E+00  0.19957591531E+03  0.39028998972E+04  0.38977938711E+04 0.  0.
        4    1    3    3  502    0 -0.10240648047E+04 -0.15965598000E+04  0.54813084132E+03  0.19743760917E+04  0.12699999809E+01 0.  1.
       -4    1    3    3    0  502  0.10240648047E+04  0.15965598000E+04 -0.34855492601E+03  0.19285238055E+04  0.12699999809E+01 0. -1.
</event>
<event>
 5   0  0.1164500E-08  0.3903316E+04  0.7818609E-02  0.8024340E-01
       -1   -1    0    0    0  501  0.00000000000E+00  0.00000000000E+00  0.20384818757E+04  0.20384818757E+04  0.50400001928E-02 0. -1.
        1   -1    0    0  501    0  0.00000000000E+00  0.00000000000E+00 -0.18685319197E+04  0.18685319197E+04  0.50400001928E-02 0.  1.
    10030    2    1    2    0    0  0.00000000000E+00  0.00000000000E+00  0.16994995600E+03  0.39070137954E+04  0.39033157456E+04 0.  0.
        1    1    3    3  502    0 -0.34642966058E+02  0.82792332291E+03  0.18536553686E+04  0.20304421660E+04  0.50400001928E-02 0. -1.
       -1    1    3    3    0  502  0.34642966058E+02 -0.82792332291E+03 -0.16837054126E+04  0.18765716294E+04  0.50400001928E-02 0.  1.
</event>
<event>
 5   0  0.3769985E-08  0.3906793E+04  0.7818609E-02  0.8023618E-01
       -2   -1    0    0    0  501  0.00000000000E+00  0.00000000000E+00  0.23886024339E+04  0.23886024339E+04  0.25500000920E-02 0. -1.
        2   -1    0    0  501    0  0.00000000000E+00  0.00000000000E+00 -0.15974859048E+04  0.15974859048E+04  0.25500000920E-02 0.  1.
    10030    2    1    2    0    0  0.00000000000E+00  0.00000000000E+00  0.79111652915E+03  0.39860883387E+04  0.39067934270E+04 0.  0.
        1    1    3    3  502    0  0.91686650349E+03 -0.16818144869E+04  0.48837950083E+01  0.19155072449E+04  0.50400001928E-02 0. -1.
       -1    1    3    3    0  502 -0.91686650349E+03  0.16818144869E+04  0.78623273414E+03  0.20705810938E+04  0.50400001928E-02 0.  1.
</event>
<event>
 5   0  0.1164500E-08  0.3898256E+04  0.7818609E-02  0.8025392E-01
        1   -1    0    0  501    0  0.00000000000E+00  0.00000000000E+00  0.21381423865E+04  0.21381423865E+04  0.50400001928E-02 0. -1.
       -1   -1    0    0    0  501  0.00000000000E+00  0.00000000000E+00 -0.17768226711E+04  0.17768226711E+04  0.50400001928E-02 0.  1.
    10030    2    1    2    0    0  0.00000000000E+00  0.00000000000E+00  0.36131971532E+03  0.39149650576E+04  0.38982559518E+04 0.  0.
        3    1    3    3  502    0 -0.13347450896E+04  0.31835697750E+03  0.15708635498E+04  0.20857871228E+04  0.10100000352E+00 0. -1.
       -3    1    3    3    0  502  0.13347450896E+04 -0.31835697750E+03 -0.12095438345E+04  0.18291779348E+04  0.10100000352E+00 0.  1.
</event>
<event>
 5   0  0.3872969E-08  0.3899946E+04  0.7818609E-02  0.8025040E-01
       -2   -1    0    0    0  501  0.00000000000E+00  0.00000000000E+00  0.20551331668E+04  0.20551331668E+04  0.25500000920E-02 0.  1.
        2   -1    0    0  501    0  0.00000000000E+00  0.00000000000E+00 -0.18501942429E+04  0.18501942429E+04  0.25500000920E-02 0. -1.
    10030    2    1    2    0    0  0.00000000000E+00  0.00000000000E+00  0.20493892391E+03  0.39053274096E+04  0.38999464373E+04 0.  0.
        2    1    3    3  502    0  0.17805423068E+04  0.33487912438E+02  0.89788476393E+03  0.19944045216E+04  0.25500000920E-02 0.  1.
       -2    1    3    3    0  502 -0.17805423068E+04 -0.33487912438E+02 -0.69294584002E+03  0.19109228880E+04  0.25500000920E-02 0. -1.
</event>
<event>
 5   0  0.1164500E-08  0.3909309E+04  0.7818609E-02  0.8023096E-01
        1   -1    0    0  501    0  0.00000000000E+00  0.00000000000E+00  0.26506896194E+04  0.26506896194E+04  0.50400001928E-02 0. -1.
       -1   -1    0    0    0  501  0.00000000000E+00  0.00000000000E+00 -0.14413887835E+04  0.14413887835E+04  0.50400001928E-02 0.  1.
    10030    2    1    2    0    0  0.00000000000E+00  0.00000000000E+00  0.12093008360E+04  0.40920784029E+04  0.39093090366E+04 0.  0.
        1    1    3    3  502    0  0.30163224847E+03  0.30446560899E+03  0.26009015398E+04  0.26359761266E+04  0.50400001928E-02 0. -1.
       -1    1    3    3    0  502 -0.30163224847E+03 -0.30446560899E+03 -0.13916007038E+04  0.14561022764E+04  0.50400001928E-02 0.  1.
</event>
<event>
 5   0  0.1164500E-08  0.3905131E+04  0.7818609E-02  0.8023963E-01
        1   -1    0    0  501    0  0.00000000000E+00  0.00000000000E+00  0.23370686901E+04  0.23370686901E+04  0.50400001928E-02 0. -1.
       -1   -1    0    0    0  501  0.00000000000E+00  0.00000000000E+00 -0.16313221477E+04  0.16313221477E+04  0.50400001928E-02 0.  1.
    10030    2    1    2    0    0  0.00000000000E+00  0.00000000000E+00  0.70574654246E+03  0.39683908378E+04  0.39051309401E+04 0.  0.
        5    1    3    3  502    0  0.18255930356E+04 -0.11593195572E+03 -0.34102014357E+03  0.18607920299E+04  0.46999998093E+01 0. -1.
       -5    1    3    3    0  502 -0.18255930356E+04  0.11593195572E+03  0.10467666860E+04  0.21075988079E+04  0.46999998093E+01 0.  1.
</event>
<event>
 5   0  0.1164500E-08  0.3945518E+04  0.7818609E-02  0.8015628E-01
       -1   -1    0    0    0  501  0.00000000000E+00  0.00000000000E+00  0.25052091879E+04  0.25052091879E+04  0.50400001928E-02 0. -1.
        1   -1    0    0  501    0  0.00000000000E+00  0.00000000000E+00 -0.15534740599E+04  0.15534740599E+04  0.50400001928E-02 0.  1.
    10030    2    1    2    0    0  0.00000000000E+00  0.00000000000E+00  0.95173512796E+03  0.40586832479E+04  0.39455177040E+04 0.  0.
        1    1    3    3  502    0 -0.10073494503E+03  0.18873031259E+04  0.10575205191E+04  0.21657355024E+04  0.50400001928E-02 0. -1.
       -1    1    3    3    0  502  0.10073494503E+03 -0.18873031259E+04 -0.10578539113E+03  0.18929477455E+04  0.50400001928E-02 0.  1.
</event>
<event>
 5   0  0.3669347E-08  0.3897065E+04  0.7818609E-02  0.8025640E-01
       -2   -1    0    0    0  501  0.00000000000E+00  0.00000000000E+00  0.13811135591E+04  0.13811135591E+04  0.25500000920E-02 0. -1.
        2   -1    0    0  501    0  0.00000000000E+00  0.00000000000E+00 -0.27490707287E+04  0.27490707287E+04  0.25500000920E-02 0.  1.
    10030    2    1    2    0    0  0.00000000000E+00  0.00000000000E+00 -0.13679571696E+04  0.41301842878E+04  0.38970649768E+04 0.  0.
        5    1    3    3  502    0 -0.73764061849E+02  0.79168264631E+03 -0.25693115172E+04  0.26895327311E+04  0.46999998093E+01 0.  1.
       -5    1    3    3    0  502  0.73764061849E+02 -0.79168264631E+03  0.12013543476E+04  0.14406515567E+04  0.46999998093E+01 0. -1.
</event>
<event>
 5   0  0.3690572E-08  0.3898086E+04  0.7818609E-02  0.8025427E-01
        2   -1    0    0  501    0  0.00000000000E+00  0.00000000000E+00  0.26603432909E+04  0.26603432909E+04  0.25500000920E-02 0. -1.
       -2   -1    0    0    0  501  0.00000000000E+00  0.00000000000E+00 -0.14279241785E+04  0.14279241785E+04  0.25500000920E-02 0.  1.
    10030    2    1    2    0    0  0.00000000000E+00  0.00000000000E+00  0.12324191124E+04  0.40882674694E+04  0.38980859448E+04 0.  0.
        3    1    3    3  502    0  0.34788652969E+03  0.46336321697E+03 -0.13355059785E+04  0.14557838910E+04  0.10100000352E+00 0.  1.
       -3    1    3    3    0  502 -0.34788652969E+03 -0.46336321697E+03  0.25679250909E+04  0.26324835785E+04  0.10100000352E+00 0. -1.
</event>
<event>
 5   0  0.3769985E-08  0.3904886E+04  0.7818609E-02  0.8024014E-01
        2   -1    0    0  501    0  0.00000000000E+00  0.00000000000E+00  0.25466269102E+04  0.25466269102E+04  0.25500000920E-02 0. -1.
       -2   -1    0    0    0  501  0.00000000000E+00  0.00000000000E+00 -0.14968951211E+04  0.14968951211E+04  0.25500000920E-02 0.  1.
    10030    2    1    2    0    0  0.00000000000E+00  0.00000000000E+00  0.10497317890E+04  0.40435220313E+04  0.39048858612E+04 0.  0.
        1    1    3    3  502    0  0.83936966459E+02  0.13803874786E+04 -0.90229593308E+03  0.16512579921E+04  0.50400001928E-02 0.  1.
       -1    1    3    3    0  502 -0.83936966459E+02 -0.13803874786E+04  0.19520277221E+04  0.23922640392E+04  0.50400001928E-02 0. -1.
</event>
<event>
 5   0  0.1164500E-08  0.3902328E+04  0.7818609E-02  0.8024545E-01
       -1   -1    0    0    0  501  0.00000000000E+00  0.00000000000E+00  0.20013449184E+04  0.20013449184E+04  0.50400001928E-02 0.  1.
        1   -1    0    0  501    0  0.00000000000E+00  0.00000000000E+00 -0.19022408522E+04  0.19022408522E+04  0.50400001928E-02 0. -1.
    10030    2    1    2    0    0  0.00000000000E+00  0.00000000000E+00  0.99104066135E+02  0.39035857706E+04  0.39023275429E+04 0.  0.
        2    1    3    3  502    0  0.14243436070E+04  0.44884765329E+03 -0.12065682356E+04  0.19199025584E+04  0.25500000920E-02 0. -1.
       -2    1    3    3    0  502 -0.14243436070E+04 -0.44884765329E+03  0.13056723018E+04  0.19836832122E+04  0.25500000920E-02 0.  1.
</event>
<event>
 5   0  0.1164500E-08  0.3906913E+04  0.7818609E-02  0.8023593E-01
        1   -1    0    0  501    0  0.00000000000E+00  0.00000000000E+00  0.23536798858E+04  0.23536798858E+04  0.50400001928E-02 0. -1.
       -1   -1    0    0    0  501  0.00000000000E+00  0.00000000000E+00 -0.16212876718E+04  0.16212876718E+04  0.50400001928E-02 0.  1.
    10030    2    1    2    0    0  0.00000000000E+00  0.00000000000E+00  0.73239221402E+03  0.39749675576E+04  0.39069129411E+04 0.  0.
        1    1    3    3  502    0 -0.48170124463E+03  0.15560746541E+04  0.14632115177E+04  0.21896100940E+04  0.50400001928E-02 0. -1.
       -1    1    3    3    0  502  0.48170124463E+03 -0.15560746541E+04 -0.73081930373E+03  0.17853574636E+04  0.50400001928E-02 0.  1.
</event>
<event>
 5   0  0.3669347E-08  0.3900259E+04  0.7818609E-02  0.8024975E-01
        2   -1    0    0  501    0  0.00000000000E+00  0.00000000000E+00  0.24130542278E+04  0.24130542278E+04  0.25500000920E-02 0. -1.
       -2   -1    0    0    0  501  0.00000000000E+00  0.00000000000E+00 -0.15760128103E+04  0.15760128103E+04  0.25500000920E-02 0.  1.
    10030    2    1    2    0    0  0.00000000000E+00  0.00000000000E+00  0.83704141753E+03  0.39890670380E+04  0.39002586452E+04 0.  0.
        5    1    3    3  502    0 -0.51016572939E+03  0.12230727732E+04 -0.10447217318E+04  0.16874956791E+04  0.46999998093E+01 0. -1.
       -5    1    3    3    0  502  0.51016572939E+03 -0.12230727732E+04  0.18817631494E+04  0.23015713589E+04  0.46999998093E+01 0.  1.
</event>
<event>
 5   0  0.1164500E-08  0.3903752E+04  0.7818609E-02  0.8024249E-01
       -1   -1    0    0    0  501  0.00000000000E+00  0.00000000000E+00  0.15190991135E+04  0.15190991136E+04  0.50400001928E-02 0.  1.
        1   -1    0    0  501    0  0.00000000000E+00  0.00000000000E+00 -0.25079463513E+04  0.25079463513E+04  0.50400001928E-02 0. -1.
    10030    2    1    2    0    0  0.00000000000E+00  0.00000000000E+00 -0.98884723775E+03  0.40270454649E+04  0.39037515695E+04 0.  0.
        5    1    3    3  502    0  0.15312540674E+04  0.13750530052E+03 -0.17349644731E+04  0.23181394565E+04  0.46999998093E+01 0. -1.
       -5    1    3    3    0  502 -0.15312540674E+04 -0.13750530052E+03  0.74611723538E+03  0.17089060084E+04  0.46999998093E+01 0.  1.
</event>
<event>
 5   0  0.1164500E-08  0.3927148E+04  0.7818609E-02  0.8019407E-01
        1   -1    0    0  501    0  0.00000000000E+00  0.00000000000E+00  0.20637964634E+04  0.20637964634E+04  0.50400001928E-02 0.  1.
       -1   -1    0    0    0  501  0.00000000000E+00  0.00000000000E+00 -0.18682182574E+04  0.18682182574E+04  0.50400001928E-02 0. -1.
    10030    2    1    2    0    0  0.00000000000E+00  0.00000000000E+00  0.19557820607E+03  0.39320147208E+04  0.39271476837E+04 0.  0.
        4    1    3    3  502    0  0.82109692670E+03 -0.14829022975E+04 -0.89461093348E+03  0.19166454346E+04  0.12699999809E+01 0. -1.
       -4    1    3    3    0  502 -0.82109692670E+03  0.14829022975E+04  0.10901891396E+04  0.20153692862E+04  0.12699999809E+01 0.  1.
</event>
<event>
 5   0  0.3669347E-08  0.3900128E+04  0.7818609E-02  0.8025003E-01
       -2   -1    0    0    0  501  0.00000000000E+00  0.00000000000E+00  0.15419630956E+04  0.15419630956E+04  0.25500000920E-02 0. -1.
        2   -1    0    0  501    0  0.00000000000E+00  0.00000000000E+00 -0.24661743731E+04  0.24661743731E+04  0.25500000920E-02 0.  1.
    10030    2    1    2    0    0  0.00000000000E+00  0.00000000000E+00 -0.92421127753E+03  0.40081374687E+04  0.39001281367E+04 0.  0.
        5    1    3    3  502    0 -0.36096340149E+03 -0.19155562615E+04 -0.51911636699E+03  0.20172144806E+04  0.46999998093E+01 0. -1.
       -5    1    3    3    0  502  0.36096340149E+03  0.19155562615E+04 -0.40509491055E+03  0.19909229882E+04  0.46999998093E+01 0.  1.
</event>
<event>
 5   0  0.3669347E-08  0.3898825E+04  0.7818609E-02  0.8025274E-01
       -2   -1    0    0    0  501  0.00000000000E+00  0.00000000000E+00  0.21779161330E+04  0.21779161330E+04  0.25500000920E-02 0. -1.
        2   -1    0    0  501    0  0.00000000000E+00  0.00000000000E+00 -0.17448832252E+04  0.17448832252E+04  0.25500000920E-02 0.  1.
    10030    2    1    2    0    0  0.00000000000E+00  0.00000000000E+00  0.43303290775E+03  0.39227993582E+04  0.38988251186E+04 0.  0.
        5    1    3    3  502    0 -0.37659480102E+03 -0.11009288787E+04 -0.13571725196E+04  0.17876821244E+04  0.46999998093E+01 0.  1.
       -5    1    3    3    0  502  0.37659480102E+03  0.11009288787E+04  0.17902054273E+04  0.21351172338E+04  0.46999998093E+01 0. -1.
</event>
<event>
 5   0  0.3724293E-08  0.3895890E+04  0.7818609E-02  0.8025885E-01
       -2   -1    0    0    0  501  0.00000000000E+00  0.00000000000E+00  0.20971394716E+04  0.20971394716E+04  0.25500000920E-02 0. -1.
        2   -1    0    0  501    0  0.00000000000E+00  0.00000000000E+00 -0.18093641334E+04  0.18093641334E+04  0.25500000920E-02 0.  1.
    10030    2    1    2    0    0  0.00000000000E+00  0.00000000000E+00  0.28777533819E+03  0.39065036050E+04  0.38958895994E+04 0.  0.
        4    1    3    3  502    0  0.19037482150E+04  0.38044756170E+03  0.30397762700E+03  0.19650449420E+04  0.12699999809E+01 0.  1.
       -4    1    3    3    0  502 -0.19037482150E+04 -0.38044756170E+03 -0.16202288809E+02  0.19414586631E+04  0.12699999809E+01 0. -1.
</event>
<event>
 5   0  0.3769985E-08  0.3900164E+04  0.7818609E-02  0.8024995E-01
       -2   -1    0    0    0  501  0.00000000000E+00  0.00000000000E+00  0.14960070069E+04  0.14960070069E+04  0.25500000920E-02 0.  1.
        2   -1    0    0  501    0  0.00000000000E+00  0.00000000000E+00 -0.25419795237E+04  0.25419795237E+04  0.25500000920E-02 0. -1.
    10030    2    1    2    0    0  0.00000000000E+00  0.00000000000E+00 -0.10459725168E+04  0.40379865306E+04  0.39001636780E+04 0.  0.
        1    1    3    3  502    0  0.10877013197E+04 -0.38929070139E+03  0.11035743503E+04  0.15976600883E+04  0.50400001928E-02 0.  1.
       -1    1    3    3    0  502 -0.10877013197E+04  0.38929070139E+03 -0.21495468671E+04  0.24403264423E+04  0.50400001928E-02 0. -1.
</event>
<event>
 5   0  0.3769985E-08  0.3885781E+04  0.7818609E-02  0.8027993E-01
        2   -1    0    0  501    0  0.00000000000E+00  0.00000000000E+00  0.22586486971E+04  0.22586486971E+04  0.25500000920E-02 0. -1.
       -2   -1    0    0    0  501  0.00000000000E+00  0.00000000000E+00 -0.16712755401E+04  0.16712755401E+04  0.25500000920E-02 0.  1.
    10030    2    1    2    0    0  0.00000000000E+00  0.00000000000E+00  0.58737315704E+03  0.39299242372E+04  0.38857814252E+04 0.  0.
        1    1    3    3  502    0 -0.12464068049E+04 -0.13063668123E+04  0.10192626589E+04  0.20734079530E+04  0.50400001928E-02 0.  1.
       -1    1    3    3    0  502  0.12464068049E+04  0.13063668123E+04 -0.43188950189E+03  0.18565162842E+04  0.50400001928E-02 0. -1.
</event>
<event>
 5   0  0.1164500E-08  0.3896438E+04  0.7818609E-02  0.8025770E-01
        1   -1    0    0  501    0  0.00000000000E+00  0.00000000000E+00  0.21504659311E+04  0.21504659311E+04  0.50400001928E-02 0. -1.
       -1   -1    0    0    0  501  0.00000000000E+00  0.00000000000E+00 -0.17649930149E+04  0.17649930149E+04  0.50400001928E-02 0.  1.
    10030    2    1    2    0    0  0.00000000000E+00  0.00000000000E+00  0.38547291624E+03  0.39154589460E+04  0.38964380386E+04 0.  0.
        2    1    3    3  502    0 -0.18975709710E+03 -0.15744073523E+04 -0.94450857166E+03  0.18457688666E+04  0.25500000920E-02 0.  1.
       -2    1    3    3    0  502  0.18975709710E+03  0.15744073523E+04  0.13299814879E+04  0.20696900795E+04  0.25500000920E-02 0. -1.
</event>
<event>
 5   0  0.3769985E-08  0.3899557E+04  0.7818609E-02  0.8025121E-01
        2   -1    0    0  501    0  0.00000000000E+00  0.00000000000E+00  0.19924796790E+04  0.19924796790E+04  0.25500000920E-02 0. -1.
       -2   -1    0    0    0  501  0.00000000000E+00  0.00000000000E+00 -0.19079922816E+04  0.19079922816E+04  0.25500000920E-02 0.  1.
    10030    2    1    2    0    0  0.00000000000E+00  0.00000000000E+00  0.84487397399E+02  0.39004719605E+04  0.38995568203E+04 0.  0.
        1    1    3    3  502    0 -0.12081276687E+04 -0.93322174994E+03  0.12554424167E+04  0.19765148520E+04  0.50400001928E-02 0. -1.
       -1    1    3    3    0  502  0.12081276687E+04  0.93322174994E+03 -0.11709550193E+04  0.19239571086E+04  0.50400001928E-02 0.  1.
</event>
<event>
 5   0  0.1164500E-08  0.3892001E+04  0.7818609E-02  0.8026695E-01
        1   -1    0    0  501    0  0.00000000000E+00  0.00000000000E+00  0.13453722084E+04  0.13453722084E+04  0.50400001928E-02 0.  1.
       -1   -1    0    0    0  501  0.00000000000E+00  0.00000000000E+00 -0.28147732922E+04  0.28147732922E+04  0.50400001928E-02 0. -1.
    10030    2    1    2    0    0  0.00000000000E+00  0.00000000000E+00 -0.14694010838E+04  0.41601455006E+04  0.38920009045E+04 0.  0.
        5    1    3    3  502    0 -0.13965297835E+04  0.11631494657E+04 -0.14780897437E+04  0.23426445518E+04  0.46999998093E+01 0. -1.
       -5    1    3    3    0  502  0.13965297835E+04 -0.11631494657E+04  0.86886599201E+01  0.18175009487E+04  0.46999998093E+01 0.  1.
</event>
<event>
 5   0  0.1164500E-08  0.3906918E+04  0.7818609E-02  0.8023592E-01
        1   -1    0    0  501    0  0.00000000000E+00  0.00000000000E+00  0.16620447661E+04  0.16620447661E+04  0.50400001928E-02 0.  1.
       -1   -1    0    0    0  501  0.00000000000E+00  0.00000000000E+00 -0.22959679700E+04  0.22959679700E+04  0.50400001928E-02 0. -1.
    10030    2    1    2    0    0  0.00000000000E+00  0.00000000000E+00 -0.63392320395E+03  0.39580127361E+04  0.39069177353E+04 0.  0.
        5    1    3    3  502    0  0.35491717259E+03 -0.13477729542E+04  0.10697055907E+04  0.17569149883E+04  0.46999998093E+01 0.  1.
       -5    1    3    3    0  502 -0.35491717259E+03  0.13477729542E+04 -0.17036287946E+04  0.22010977478E+04  0.46999998093E+01 0. -1.
</event>
<event>
 5   0  0.3724293E-08  0.3896216E+04  0.7818609E-02  0.8025817E-01
       -2   -1    0    0    0  501  0.00000000000E+00  0.00000000000E+00  0.17277524203E+04  0.17277524203E+04  0.25500000920E-02 0. -1.
        2   -1    0    0  501    0  0.00000000000E+00  0.00000000000E+00 -0.21965678868E+04  0.21965678868E+04  0.25500000920E-02 0.  1.
    10030    2    1    2    0    0  0.00000000000E+00  0.00000000000E+00 -0.46881546650E+03  0.39243203072E+04  0.38962163610E+04 0.  0.
        4    1    3    3  502    0 -0.12700981577E+04 -0.65691638699E+03  0.10981757495E+04  0.18029642424E+04  0.12699999809E+01 0. -1.
       -4    1    3    3    0  502  0.12700981577E+04  0.65691638699E+03 -0.15669912160E+04  0.21213560648E+04  0.12699999809E+01 0.  1.
</event>
<event>
 5   0  0.1164500E-08  0.3902284E+04  0.7818609E-02  0.8024554E-01
       -1   -1    0    0    0  501  0.00000000000E+00  0.00000000000E+00  0.18908195956E+04  0.18908195956E+04  0.50400001928E-02 0.  1.
        1   -1    0    0  501    0  0.00000000000E+00  0.00000000000E+00 -0.20133888131E+04  0.20133888131E+04  0.50400001928E-02 0. -1.
    10030    2    1    2    0    0  0.00000000000E+00  0.00000000000E+00 -0.12256921751E+03  0.39042084087E+04  0.39022839576E+04 0.  0.
        1    1    3    3  502    0  0.74250230363E+03 -0.17160503604E+04  0.49649953543E+03  0.19345930577E+04  0.50400001928E-02 0. -1.
       -1    1    3    3    0  502 -0.74250230363E+03  0.17160503604E+04 -0.61906875293E+03  0.19696153510E+04  0.50400001928E-02 0.  1.
</event>
<event>
 5   0  0.3690572E-08  0.3900764E+04  0.7818609E-02  0.8024870E-01
        2   -1    0    0  501    0  0.00000000000E+00  0.00000000000E+00  0.22751860252E+04  0.22751860252E+04  0.25500000920E-02 0. -1.
       -2   -1    0    0    0  501  0.00000000000E+00  0.00000000000E+00 -0.16719464781E+04  0.16719464781E+04  0.25500000920E-02 0.  1.
    10030    2    1    2    0    0  0.00000000000E+00  0.00000000000E+00  0.60323954708E+03  0.39471325033E+04  0.39007636492E+04 0.  0.
        3    1    3    3  502    0  0.11638559115E+02 -0.13035530519E+04  0.17695897924E+04  0.21979158443E+04  0.10100000352E+00 0. -1.
       -3    1    3    3    0  502 -0.11638559115E+02  0.13035530519E+04 -0.11663502453E+04  0.17492166590E+04  0.10100000352E+00 0.  1.
</event>
<event>
 5   0  0.3690572E-08  0.3900267E+04  0.7818609E-02  0.8024974E-01
        2   -1    0    0  501    0  0.00000000000E+00  0.00000000000E+00  0.18398132117E+04  0.18398132117E+04  0.25500000920E-02 0.  1.
       -2   -1    0    0    0  501  0.00000000000E+00  0.00000000000E+00 -0.20670692582E+04  0.20670692582E+04  0.25500000920E-02 0. -1.
    10030    2    1    2    0    0  0.00000000000E+00  0.00000000000E+00 -0.22725604642E+03  0.39068824699E+04  0.39002673399E+04 0.  0.
        3    1    3    3  502    0  0.39247944388E+03 -0.36132092412E+03  0.17653008008E+04  0.18441474593E+04  0.10100000352E+00 0.  1.
       -3    1    3    3    0  502 -0.39247944388E+03  0.36132092412E+03 -0.19925568473E+04  0.20627350106E+04  0.10100000352E+00 0. -1.
</event>
<event>
 5   0  0.3690572E-08  0.3896364E+04  0.7818609E-02  0.8025786E-01
       -2   -1    0    0    0  501  0.00000000000E+00  0.00000000000E+00  0.16623512230E+04  0.16623512230E+04  0.25500000920E-02 0.  1.
        2   -1    0    0  501    0  0.00000000000E+00  0.00000000000E+00 -0.22831594503E+04  0.22831594503E+04  0.25500000920E-02 0. -1.
    10030    2    1    2    0    0  0.00000000000E+00  0.00000000000E+00 -0.62080822731E+03  0.39455106734E+04  0.38963638971E+04 0.  0.
        3    1    3    3  502    0  0.26016315861E+03  0.12870567432E+04  0.11469197951E+04  0.17434520228E+04  0.10100000352E+00 0.  1.
       -3    1    3    3    0  502 -0.26016315861E+03 -0.12870567432E+04 -0.17677280224E+04  0.22020586506E+04  0.10100000352E+00 0. -1.
</event>
<event>
 5   0  0.1164500E-08  0.3893008E+04  0.7818609E-02  0.8026485E-01
        1   -1    0    0  501    0  0.00000000000E+00  0.00000000000E+00  0.26691669271E+04  0.26691669271E+04  0.50400001928E-02 0. -1.
       -1   -1    0    0    0  501  0.00000000000E+00  0.00000000000E+00 -0.14194985660E+04  0.14194985660E+04  0.50400001928E-02 0.  1.
    10030    2    1    2    0    0  0.00000000000E+00  0.00000000000E+00  0.12496683611E+04  0.40886654932E+04  0.38930084128E+04 0.  0.
        2    1    3    3  502    0  0.18463015377E+04  0.54224114724E+03  0.31679529791E+03  0.19501830916E+04  0.25500000920E-02 0.  1.
       -2    1    3    3    0  502 -0.18463015377E+04 -0.54224114724E+03  0.93287306318E+03  0.21384824016E+04  0.25500000920E-02 0. -1.
</event>
<event>
 5   0  0.3669347E-08  0.3902877E+04  0.7818609E-02  0.8024431E-01
       -2   -1    0    0    0  501  0.00000000000E+00  0.00000000000E+00  0.20786298439E+04  0.20786298439E+04  0.25500000920E-02 0.  1.
        2   -1    0    0  501    0  0.00000000000E+00  0.00000000000E+00 -0.18320298387E+04  0.18320298387E+04  0.25500000920E-02 0. -1.
    10030    2    1    2    0    0  0.00000000000E+00  0.00000000000E+00  0.24660000521E+03  0.39106596826E+04  0.39028768351E+04 0.  0.
        5    1    3    3  502    0 -0.47372284788E+03 -0.52584628382E+03  0.19454869131E+04  0.20702340616E+04  0.46999998093E+01 0.  1.
       -5    1    3    3    0  502  0.47372284788E+03  0.52584628382E+03 -0.16988869078E+04  0.18404256210E+04  0.46999998093E+01 0. -1.
</event>
<event>
 5   0  0.3669347E-08  0.3931064E+04  0.7818609E-02  0.8018599E-01
       -2   -1    0    0    0  501  0.00000000000E+00  0.00000000000E+00  0.15630961787E+04  0.15630961787E+04  0.25500000920E-02 0. -1.
        2   -1    0    0  501    0  0.00000000000E+00  0.00000000000E+00 -0.24715796278E+04  0.24715796278E+04  0.25500000920E-02 0.  1.
    10030    2    1    2    0    0  0.00000000000E+00  0.00000000000E+00 -0.90848344915E+03  0.40346758065E+04  0.39310643198E+04 0.  0.
        5    1    3    3  502    0 -0.10876855282E+04 -0.32361926435E+02 -0.21342060011E+04  0.23956135847E+04  0.46999998093E+01 0.  1.
       -5    1    3    3    0  502  0.10876855282E+04  0.32361926435E+02  0.12257225519E+04  0.16390622217E+04  0.46999998093E+01 0. -1.
</event>
<event>
 5   0  0.3724293E-08  0.3891256E+04  0.7818609E-02  0.8026850E-01
       -2   -1    0    0    0  501  0.00000000000E+00  0.00000000000E+00  0.25996179593E+04  0.25996179593E+04  0.25500000920E-02 0. -1.
        2   -1    0    0  501    0  0.00000000000E+00  0.00000000000E+00 -0.14561635329E+04  0.14561635330E+04  0.25500000920E-02 0.  1.
    10030    2    1    2    0    0  0.00000000000E+00  0.00000000000E+00  0.11434544263E+04  0.40557814922E+04  0.38912562865E+04 0.  0.
        4    1    3    3  502    0  0.13947072952E+04 -0.18061057190E+03 -0.82960311728E+03  0.16328109391E+04  0.12699999809E+01 0.  1.
       -4    1    3    3    0  502 -0.13947072952E+04  0.18061057190E+03  0.19730575436E+04  0.24229705531E+04  0.12699999809E+01 0. -1.
</event>
<event>
 5   0  0.3724293E-08  0.3805150E+04  0.7818609E-02  0.8045051E-01
       -2   -1    0    0    0  501  0.00000000000E+00  0.00000000000E+00  0.21384514350E+04  0.21384514350E+04  0.25500000920E-02 0. -1.
        2   -1    0    0  501    0  0.00000000000E+00  0.00000000000E+00 -0.16927158961E+04  0.16927158961E+04  0.25500000920E-02 0.  1.
    10030    2    1    2    0    0  0.00000000000E+00  0.00000000000E+00  0.44573553895E+03  0.38311673311E+04  0.38051495303E+04 0.  0.
        4    1    3    3  502    0  0.22601626673E+03  0.11811592124E+04 -0.12615155907E+04  0.17428837128E+04  0.12699999809E+01 0.  1.
       -4    1    3    3    0  502 -0.22601626673E+03 -0.11811592124E+04  0.17072511296E+04  0.20882836183E+04  0.12699999809E+01 0. -1.
</event>
<event>
 5   0  0.1164500E-08  0.3908391E+04  0.7818609E-02  0.8023286E-01
       -1   -1    0    0    0  501  0.00000000000E+00  0.00000000000E+00  0.27804642561E+04  0.27804642561E+04  0.50400001928E-02 0.  1.
        1   -1    0    0  501    0  0.00000000000E+00  0.00000000000E+00 -0.13734681517E+04  0.13734681517E+04  0.50400001928E-02 0. -1.
    10030    2    1    2    0    0  0.00000000000E+00  0.00000000000E+00  0.14069961044E+04  0.41539324078E+04  0.39083905141E+04 0.  0.
        4    1    3    3  502    0 -0.12724124856E+04  0.70557263184E+03  0.20900708760E+04  0.25466181794E+04  0.12699999809E+01 0. -1.
       -4    1    3    3    0  502  0.12724124856E+04 -0.70557263184E+03 -0.68307477159E+03  0.16073142284E+04  0.12699999809E+01 0.  1.
</event>
<event>
 5   0  0.3690572E-08  0.3906539E+04  0.7818609E-02  0.8023671E-01
       -2   -1    0    0    0  501  0.00000000000E+00  0.00000000000E+00  0.11656641457E+04  0.11656641457E+04  0.25500000920E-02 0. -1.
        2   -1    0    0  501    0  0.00000000000E+00  0.00000000000E+00 -0.32730371387E+04  0.32730371387E+04  0.25500000920E-02 0.  1.
    10030    2    1    2    0    0  0.00000000000E+00  0.00000000000E+00 -0.21073729931E+04  0.44387012844E+04  0.39065391539E+04 0.  0.
        3    1    3    3  502    0  0.55792514011E+03  0.10904967396E+04 -0.27823892626E+04  0.30400910545E+04  0.10100000352E+00 0.  1.
       -3    1    3    3    0  502 -0.55792514011E+03 -0.10904967396E+04  0.67501626953E+03  0.13986102299E+04  0.10100000352E+00 0. -1.
</event>
<event>
 5   0  0.1164500E-08  0.3898666E+04  0.7818609E-02  0.8025307E-01
        1   -1    0    0  501    0  0.00000000000E+00  0.00000000000E+00  0.24947865723E+04  0.24947865723E+04  0.50400001928E-02 0. -1.
       -1   -1    0    0    0  501  0.00000000000E+00  0.00000000000E+00 -0.15231362707E+04  0.15231362707E+04  0.50400001928E-02 0.  1.
    10030    2    1    2    0    0  0.00000000000E+00  0.00000000000E+00  0.97165030160E+03  0.40179228430E+04  0.38986663956E+04 0.  0.
        4    1    3    3  502    0 -0.32726364022E+03 -0.37612838405E+03  0.24279658149E+04  0.24786273747E+04  0.12699999809E+01 0. -1.
       -4    1    3    3    0  502  0.32726364022E+03  0.37612838405E+03 -0.14563155133E+04  0.15392954683E+04  0.12699999809E+01 0.  1.
</event>
<event>
 5   0  0.3769985E-08  0.3907015E+04  0.7818609E-02  0.8023572E-01
        2   -1    0    0  501    0  0.00000000000E+00  0.00000000000E+00  0.12891400885E+04  0.12891400885E+04  0.25500000920E-02 0. -1.
       -2   -1    0    0    0  501  0.00000000000E+00  0.00000000000E+00 -0.29602616636E+04  0.29602616636E+04  0.25500000920E-02 0.  1.
    10030    2    1    2    0    0  0.00000000000E+00  0.00000000000E+00 -0.16711215751E+04  0.42494017522E+04  0.39070152204E+04 0.  0.
        1    1    3    3  502    0  0.38060662519E+03 -0.16128798438E+04  0.28946963489E+03  0.16822709245E+04  0.50400001928E-02 0. -1.
       -1    1    3    3    0  502 -0.38060662519E+03  0.16128798438E+04 -0.19605912100E+04  0.25671308277E+04  0.50400001928E-02 0.  1.
</event>
<event>
 5   0  0.3872969E-08  0.3915396E+04  0.7818609E-02  0.8021835E-01
        2   -1    0    0  501    0  0.00000000000E+00  0.00000000000E+00  0.36019354579E+04  0.36019354579E+04  0.25500000920E-02 0.  1.
       -2   -1    0    0    0  501  0.00000000000E+00  0.00000000000E+00 -0.10640338573E+04  0.10640338573E+04  0.25500000920E-02 0. -1.
    10030    2    1    2    0    0  0.00000000000E+00  0.00000000000E+00  0.25379016006E+04  0.46659693153E+04  0.39153959080E+04 0.  0.
        2    1    3    3  502    0 -0.15921474963E+04  0.51530445944E+03  0.24796296807E+04  0.29914938892E+04  0.25500000920E-02 0.  1.
       -2    1    3    3    0  502  0.15921474963E+04 -0.51530445944E+03  0.58271919848E+02  0.16744754260E+04  0.25500000920E-02 0. -1.
</event>
<event>
 5   0  0.1164500E-08  0.3899227E+04  0.7818609E-02  0.8025190E-01
        1   -1    0    0  501    0  0.00000000000E+00  0.00000000000E+00  0.13853546271E+04  0.13853546271E+04  0.50400001928E-02 0.  1.
       -1   -1    0    0    0  501  0.00000000000E+00  0.00000000000E+00 -0.27436966253E+04  0.27436966253E+04  0.50400001928E-02 0. -1.
    10030    2    1    2    0    0  0.00000000000E+00  0.00000000000E+00 -0.13583419982E+04  0.41290512524E+04  0.38992270081E+04 0.  0.
        1    1    3    3  502    0  0.75338809978E+03 -0.16252507759E+04 -0.14939083092E+04  0.23325513392E+04  0.50400001928E-02 0. -1.
       -1    1    3    3    0  502 -0.75338809978E+03  0.16252507759E+04  0.13556631102E+03  0.17964999132E+04  0.50400001928E-02 0.  1.
</event>
<event>
 5   0  0.1164500E-08  0.3886055E+04  0.7818609E-02  0.8027936E-01
       -1   -1    0    0    0  501  0.00000000000E+00  0.00000000000E+00  0.16431741061E+04  0.16431741061E+04  0.50400001928E-02 0.  1.
        1   -1    0    0  501    0  0.00000000000E+00  0.00000000000E+00 -0.22975993018E+04  0.22975993018E+04  0.50400001928E-02 0. -1.
    10030    2    1    2    0    0  0.00000000000E+00  0.00000000000E+00 -0.65442519563E+03  0.39407734079E+04  0.38860549039E+04 0.  0.
        2    1    3    3  502    0  0.14322468588E+04 -0.37389111179E+03  0.94917229490E+03  0.17584236331E+04  0.25500000920E-02 0.  1.
       -2    1    3    3    0  502 -0.14322468588E+04  0.37389111179E+03 -0.16035974905E+04  0.21823497748E+04  0.25500000920E-02 0. -1.
</event>
<event>
 5   0  0.3724293E-08  0.3885640E+04  0.7818609E-02  0.8028022E-01
        2   -1    0    0  501    0  0.00000000000E+00  0.00000000000E+00  0.11496212994E+04  0.11496212994E+04  0.25500000920E-02 0. -1.
       -2   -1    0    0    0  501  0.00000000000E+00  0.00000000000E+00 -0.32832989764E+04  0.32832989764E+04  0.25500000920E-02 0.  1.
    10030    2    1    2    0    0  0.00000000000E+00  0.00000000000E+00 -0.21336776770E+04  0.44329202758E+04  0.38856404546E+04 0.  0.
        4    1    3    3  502    0  0.81820488550E+03  0.11178757174E+04 -0.26208394027E+04  0.29644402746E+04  0.12699999809E+01 0.  1.
       -4    1    3    3    0  502 -0.81820488550E+03 -0.11178757174E+04  0.48716172567E+03  0.14684800012E+04  0.12699999809E+01 0. -1.
</event>
<event>
 5   0  0.3724293E-08  0.3904134E+04  0.7818609E-02  0.8024170E-01
        2   -1    0    0  501    0  0.00000000000E+00  0.00000000000E+00  0.21841810967E+04  0.21841810967E+04  0.25500000920E-02 0.  1.
       -2   -1    0    0    0  501  0.00000000000E+00  0.00000000000E+00 -0.17446200059E+04  0.17446200059E+04  0.25500000920E-02 0. -1.
    10030    2    1    2    0    0  0.00000000000E+00  0.00000000000E+00  0.43956109084E+03  0.39288011026E+04  0.39041342384E+04 0.  0.
        4    1    3    3  502    0  0.12434718293E+04  0.42713012295E+03  0.16717766526E+04  0.21268523976E+04  0.12699999809E+01 0.  1.
       -4    1    3    3    0  502 -0.12434718293E+04 -0.42713012295E+03 -0.12322155617E+04  0.18019487050E+04  0.12699999809E+01 0. -1.
</event>
<event>
 5   0  0.1164500E-08  0.3914487E+04  0.7818609E-02  0.8022023E-01
       -1   -1    0    0    0  501  0.00000000000E+00  0.00000000000E+00  0.19809905110E+04  0.19809905110E+04  0.50400001928E-02 0.  1.
        1   -1    0    0  501    0  0.00000000000E+00  0.00000000000E+00 -0.19337816103E+04  0.19337816103E+04  0.50400001928E-02 0. -1.
    10030    2    1    2    0    0  0.00000000000E+00  0.00000000000E+00  0.47208900744E+02  0.39147721213E+04  0.39144874609E+04 0.  0.
        4    1    3    3  502    0 -0.11187929873E+04  0.14810593099E+04  0.64459000438E+03  0.19648746308E+04  0.12699999809E+01 0.  1.
       -4    1    3    3    0  502  0.11187929873E+04 -0.14810593099E+04 -0.59738110363E+03  0.19498974906E+04  0.12699999809E+01 0. -1.
</event>
<event>
 5   0  0.1164500E-08  0.3906791E+04  0.7818609E-02  0.8023618E-01
       -1   -1    0    0    0  501  0.00000000000E+00  0.00000000000E+00  0.18822104015E+04  0.18822104015E+04  0.50400001928E-02 0. -1.
        1   -1    0    0  501    0  0.00000000000E+00  0.00000000000E+00 -0.20272725685E+04  0.20272725685E+04  0.50400001928E-02 0.  1.
    10030    2    1    2    0    0  0.00000000000E+00  0.00000000000E+00 -0.14506216699E+03  0.39094829700E+04  0.39067907623E+04 0.  0.
        2    1    3    3  502    0  0.17805700100E+04 -0.25982638749E+03  0.68813364687E+03  0.19265168643E+04  0.25500000920E-02 0. -1.
       -2    1    3    3    0  502 -0.17805700100E+04  0.25982638749E+03 -0.83319581385E+03  0.19829661057E+04  0.25500000920E-02 0.  1.
</event>
<event>
 5   0  0.3669347E-08  0.3899523E+04  0.7818609E-02  0.8025128E-01
       -2   -1    0    0    0  501  0.00000000000E+00  0.00000000000E+00  0.20879065824E+04  0.20879065824E+04  0.25500000920E-02 0.  1.
        2   -1    0    0  501    0  0.00000000000E+00  0.00000000000E+00 -0.18207570518E+04  0.18207570518E+04  0.25500000920E-02 0. -1.
    10030    2    1    2    0    0  0.00000000000E+00  0.00000000000E+00  0.26714953065E+03  0.39086636342E+04  0.38995233726E+04 0.  0.
        5    1    3    3  502    0  0.44745043529E+03  0.43196293769E+03 -0.17186593906E+04  0.18277352276E+04  0.46999998093E+01 0. -1.
       -5    1    3    3    0  502 -0.44745043529E+03 -0.43196293769E+03  0.19858089212E+04  0.20809284065E+04  0.46999998093E+01 0.  1.
</event>
<event>
 5   0  0.3669347E-08  0.3899840E+04  0.7818609E-02  0.8025062E-01
       -2   -1    0    0    0  501  0.00000000000E+00  0.00000000000E+00  0.15736695725E+04  0.15736695725E+04  0.25500000920E-02 0.  1.
        2   -1    0    0  501    0  0.00000000000E+00  0.00000000000E+00 -0.24161289902E+04  0.24161289902E+04  0.25500000920E-02 0. -1.
    10030    2    1    2    0    0  0.00000000000E+00  0.00000000000E+00 -0.84245941770E+03  0.39897985627E+04  0.38998403429E+04 0.  0.
        5    1    3    3  502    0  0.72900232093E+03  0.91097530543E+03 -0.20195887753E+04  0.23323981869E+04  0.46999998093E+01 0. -1.
       -5    1    3    3    0  502 -0.72900232093E+03 -0.91097530543E+03  0.11771293576E+04  0.16574003757E+04  0.46999998093E+01 0.  1.
</event>
<event>
 5   0  0.1164500E-08  0.3900127E+04  0.7818609E-02  0.8025003E-01
        1   -1    0    0  501    0  0.00000000000E+00  0.00000000000E+00  0.23237282648E+04  0.23237282648E+04  0.50400001928E-02 0.  1.
       -1   -1    0    0    0  501  0.00000000000E+00  0.00000000000E+00 -0.16364855187E+04  0.16364855187E+04  0.50400001928E-02 0. -1.
    10030    2    1    2    0    0  0.00000000000E+00  0.00000000000E+00  0.68724274612E+03  0.39602137835E+04  0.39001270003E+04 0.  0.
        5    1    3    3  502    0  0.87613150139E+03  0.16490768874E+04 -0.22687489259E+03  0.18811048071E+04  0.46999998093E+01 0. -1.
       -5    1    3    3    0  502 -0.87613150139E+03 -0.16490768874E+04  0.91411763871E+03  0.20791089764E+04  0.46999998093E+01 0.  1.
</event>
<event>
 5   0  0.3872969E-08  0.3893716E+04  0.7818609E-02  0.8026338E-01
        2   -1    0    0  501    0  0.00000000000E+00  0.00000000000E+00  0.13720115551E+04  0.13720115551E+04  0.25500000920E-02 0. -1.
       -2   -1    0    0    0  501  0.00000000000E+00  0.00000000000E+00 -0.27625534520E+04  0.27625534520E+04  0.25500000920E-02 0.  1.
    10030    2    1    2    0    0  0.00000000000E+00  0.00000000000E+00 -0.13905418969E+04  0.41345650071E+04  0.38937155817E+04 0.  0.
        2    1    3    3  502    0 -0.12324893646E+04 -0.13004121228E+04  0.11352146889E+03  0.17952684609E+04  0.25500000920E-02 0.  1.
       -2    1    3    3    0  502  0.12324893646E+04  0.13004121228E+04 -0.15040633658E+04  0.23392965462E+04  0.25500000920E-02 0. -1.
</event>
<event>
 5   0  0.1164500E-08  0.3904866E+04  0.7818609E-02  0.8024018E-01
       -1   -1    0    0    0  501  0.00000000000E+00  0.00000000000E+00  0.18448256546E+04  0.18448256546E+04  0.50400001928E-02 0.  1.
        1   -1    0    0  501    0  0.00000000000E+00  0.00000000000E+00 -0.20663172977E+04  0.20663172977E+04  0.50400001928E-02 0. -1.
    10030    2    1    2    0    0  0.00000000000E+00  0.00000000000E+00 -0.22149164313E+03  0.39111429524E+04  0.39048662776E+04 0.  0.
        1    1    3    3  502    0  0.13215977321E+04  0.13499108568E+04 -0.60460558795E+03  0.19835392116E+04  0.50400001928E-02 0. -1.
       -1    1    3    3    0  502 -0.13215977321E+04 -0.13499108568E+04  0.38311394483E+03  0.19276037408E+04  0.50400001928E-02 0.  1.
</event>
<event>
 5   0  0.3690572E-08  0.3898904E+04  0.7818609E-02  0.8025257E-01
        2   -1    0    0  501    0  0.00000000000E+00  0.00000000000E+00  0.27389477808E+04  0.27389477808E+04  0.25500000920E-02 0. -1.
       -2   -1    0    0    0  501  0.00000000000E+00  0.00000000000E+00 -0.13875265929E+04  0.13875265930E+04  0.25500000920E-02 0.  1.
    10030    2    1    2    0    0  0.00000000000E+00  0.00000000000E+00  0.13514211878E+04  0.41264743737E+04  0.38989038883E+04 0.  0.
        3    1    3    3  502    0 -0.69518560528E+03  0.92796559604E+03 -0.98291071587E+03  0.15200383741E+04  0.10100000352E+00 0.  1.
       -3    1    3    3    0  502  0.69518560528E+03 -0.92796559604E+03  0.23343319037E+04  0.26064359996E+04  0.10100000352E+00 0. -1.
</event>
<event>
 5   0  0.1164500E-08  0.3902698E+04  0.7818609E-02  0.8024468E-01
        1   -1    0    0  501    0  0.00000000000E+00  0.00000000000E+00  0.17696957203E+04  0.17696957204E+04  0.50400001928E-02 0. -1.
       -1   -1    0    0    0  501  0.00000000000E+00  0.00000000000E+00 -0.21516488646E+04  0.21516488646E+04  0.50400001928E-02 0.  1.
    10030    2    1    2    0    0  0.00000000000E+00  0.00000000000E+00 -0.38195314424E+03  0.39213445849E+04  0.39026984446E+04 0.  0.
        2    1    3    3  502    0 -0.11544807768E+04  0.13598320431E+03 -0.17657702627E+04  0.21140628932E+04  0.25500000920E-02 0.  1.
       -2    1    3    3    0  502  0.11544807768E+04 -0.13598320431E+03  0.13838171184E+04  0.18072816917E+04  0.25500000920E-02 0. -1.
</event>
<event>
 5   0  0.3872969E-08  0.3898712E+04  0.7818609E-02  0.8025297E-01
        2   -1    0    0  501    0  0.00000000000E+00  0.00000000000E+00  0.20530410787E+04  0.20530410787E+04  0.25500000920E-02 0. -1.
       -2   -1    0    0    0  501  0.00000000000E+00  0.00000000000E+00 -0.18509071666E+04  0.18509071666E+04  0.25500000920E-02 0.  1.
    10030    2    1    2    0    0  0.00000000000E+00  0.00000000000E+00  0.20213391212E+03  0.39039482453E+04  0.38987118108E+04 0.  0.
        2    1    3    3  502    0  0.38253717135E+03  0.15087385202E+04 -0.10741199410E+04  0.18911267164E+04  0.25500000920E-02 0.  1.
       -2    1    3    3    0  502 -0.38253717135E+03 -0.15087385202E+04  0.12762538531E+04  0.20128215289E+04  0.25500000920E-02 0. -1.
</event>
<event>
 5   0  0.1164500E-08  0.3901492E+04  0.7818609E-02  0.8024719E-01
       -1   -1    0    0    0  501  0.00000000000E+00  0.00000000000E+00  0.15311448771E+04  0.15311448771E+04  0.50400001928E-02 0.  1.
        1   -1    0    0  501    0  0.00000000000E+00  0.00000000000E+00 -0.24853361528E+04  0.24853361528E+04  0.50400001928E-02 0. -1.
    10030    2    1    2    0    0  0.00000000000E+00  0.00000000000E+00 -0.95419127570E+03  0.40164810298E+04  0.39014918778E+04 0.  0.
        3    1    3    3  502    0 -0.63120144505E+03 -0.15325522253E+04  0.58195059961E+03  0.17566439873E+04  0.10100000352E+00 0.  1.
       -3    1    3    3    0  502  0.63120144505E+03  0.15325522253E+04 -0.15361418753E+04  0.22598370425E+04  0.10100000352E+00 0. -1.
</event>
<event>
 5   0  0.3872969E-08  0.3896719E+04  0.7818609E-02  0.8025712E-01
       -2   -1    0    0    0  501  0.00000000000E+00  0.00000000000E+00  0.15878822660E+04  0.15878822660E+04  0.25500000920E-02 0.  1.
        2   -1    0    0  501    0  0.00000000000E+00  0.00000000000E+00 -0.23906713420E+04  0.23906713420E+04  0.25500000920E-02 0. -1.
    10030    2    1    2    0    0  0.00000000000E+00  0.00000000000E+00 -0.80278907601E+03  0.39785536080E+04  0.38967189418E+04 0.  0.
        2    1    3    3  502    0  0.58526475350E+03  0.43400654173E+03 -0.22463316430E+04  0.23615466035E+04  0.25500000920E-02 0. -1.
       -2    1    3    3    0  502 -0.58526475350E+03 -0.43400654173E+03  0.14435425670E+04  0.16170070045E+04  0.25500000920E-02 0.  1.
</event>
<event>
 5   0  0.1164500E-08  0.3912780E+04  0.7818609E-02  0.8022376E-01
       -1   -1    0    0    0  501  0.00000000000E+00  0.00000000000E+00  0.17623078230E+04  0.17623078230E+04  0.50400001928E-02 0.  1.
        1   -1    0    0  501    0  0.00000000000E+00  0.00000000000E+00 -0.21718467851E+04  0.21718467851E+04  0.50400001928E-02 0. -1.
    10030    2    1    2    0    0  0.00000000000E+00  0.00000000000E+00 -0.40953896216E+03  0.39341546081E+04  0.39127803821E+04 0.  0.
        5    1    3    3  502    0  0.26177406759E+03 -0.30231602703E+03  0.17207689335E+04  0.17666319524E+04  0.46999998093E+01 0.  1.
       -5    1    3    3    0  502 -0.26177406759E+03  0.30231602703E+03 -0.21303078957E+04  0.21675226557E+04  0.46999998093E+01 0. -1.
</event>
<event>
 5   0  0.1164500E-08  0.3892620E+04  0.7818609E-02  0.8026566E-01
        1   -1    0    0  501    0  0.00000000000E+00  0.00000000000E+00  0.26684849832E+04  0.26684849832E+04  0.50400001928E-02 0. -1.
       -1   -1    0    0    0  501  0.00000000000E+00  0.00000000000E+00 -0.14195781444E+04  0.14195781444E+04  0.50400001928E-02 0.  1.
    10030    2    1    2    0    0  0.00000000000E+00  0.00000000000E+00  0.12489068388E+04  0.40880631276E+04  0.38926201771E+04 0.  0.
        4    1    3    3  502    0 -0.11359168371E+04 -0.28159824542E+03  0.22576938066E+04  0.25429879217E+04  0.12699999809E+01 0. -1.
       -4    1    3    3    0  502  0.11359168371E+04  0.28159824542E+03 -0.10087869678E+04  0.15450752059E+04  0.12699999809E+01 0.  1.
</event>
<event>
 5   0  0.3690572E-08  0.3883251E+04  0.7818609E-02  0.8028522E-01
       -2   -1    0    0    0  501  0.00000000000E+00  0.00000000000E+00  0.11052879580E+04  0.11052879580E+04  0.25500000920E-02 0. -1.
        2   -1    0    0  501    0  0.00000000000E+00  0.00000000000E+00 -0.34107933589E+04  0.34107933589E+04  0.25500000920E-02 0.  1.
    10030    2    1    2    0    0  0.00000000000E+00  0.00000000000E+00 -0.23055054009E+04  0.45160813169E+04  0.38832506109E+04 0.  0.
        3    1    3    3  502    0 -0.12148873301E+04  0.12118679643E+04 -0.96224473347E+02  0.17186722629E+04  0.10100000352E+00 0. -1.
       -3    1    3    3    0  502  0.12148873301E+04 -0.12118679643E+04 -0.22092809276E+04  0.27974090540E+04  0.10100000352E+00 0.  1.
</event>
<event>
 5   0  0.1164500E-08  0.3907814E+04  0.7818609E-02  0.8023406E-01
       -1   -1    0    0    0  501  0.00000000000E+00  0.00000000000E+00  0.11395768980E+04  0.11395768980E+04  0.50400001928E-02 0.  1.
        1   -1    0    0  501    0  0.00000000000E+00  0.00000000000E+00 -0.33501493280E+04  0.33501493280E+04  0.50400001928E-02 0. -1.
    10030    2    1    2    0    0  0.00000000000E+00  0.00000000000E+00 -0.22105724300E+04  0.44897262260E+04  0.39078141098E+04 0.  0.
        3    1    3    3  502    0 -0.12479096817E+04 -0.14730809634E+04 -0.75964441568E+03  0.20746820833E+04  0.10100000352E+00 0.  1.
       -3    1    3    3    0  502  0.12479096817E+04  0.14730809634E+04 -0.14509280143E+04  0.24150441427E+04  0.10100000352E+00 0. -1.
</event>
<event>
 5   0  0.1164500E-08  0.3886403E+04  0.7818609E-02  0.8027863E-01
       -1   -1    0    0    0  501  0.00000000000E+00  0.00000000000E+00  0.19247476662E+04  0.19247476662E+04  0.50400001928E-02 0. -1.
        1   -1    0    0  501    0  0.00000000000E+00  0.00000000000E+00 -0.19618320211E+04  0.19618320211E+04  0.50400001928E-02 0.  1.
    10030    2    1    2    0    0  0.00000000000E+00  0.00000000000E+00 -0.37084354876E+02  0.38865796873E+04  0.38864027604E+04 0.  0.
        2    1    3    3  502    0 -0.83936533355E+03 -0.46721440556E+03 -0.17077632785E+04  0.19594077879E+04  0.25500000920E-02 0.  1.
       -2    1    3    3    0  502  0.83936533355E+03  0.46721440556E+03  0.16706789236E+04  0.19271718994E+04  0.25500000920E-02 0. -1.
</event>
<event>
 5   0  0.1164500E-08  0.3936661E+04  0.7818609E-02  0.8017447E-01
        1   -1    0    0  501    0  0.00000000000E+00  0.00000000000E+00  0.22751274357E+04  0.22751274357E+04  0.50400001928E-02 0. -1.
       -1   -1    0    0    0  501  0.00000000000E+00  0.00000000000E+00 -0.17029045464E+04  0.17029045464E+04  0.50400001928E-02 0.  1.
    10030    2    1    2    0    0  0.00000000000E+00  0.00000000000E+00  0.57222288925E+03  0.39780319821E+04  0.39366609475E+04 0.  0.
        2    1    3    3  502    0 -0.13930415578E+04  0.83134436775E+03  0.14125579810E+04  0.21510505082E+04  0.25500000920E-02 0. -1.
       -2    1    3    3    0  502  0.13930415578E+04 -0.83134436775E+03 -0.84033509172E+03  0.18269814739E+04  0.25500000920E-02 0.  1.
</event>
<event>
 5   0  0.3724293E-08  0.3896738E+04  0.7818609E-02  0.8025708E-01
       -2   -1    0    0    0  501  0.00000000000E+00  0.00000000000E+00  0.15292499039E+04  0.15292499039E+04  0.25500000920E-02 0.  1.
        2   -1    0    0  501    0  0.00000000000E+00  0.00000000000E+00 -0.24823552394E+04  0.24823552394E+04  0.25500000920E-02 0. -1.
    10030    2    1    2    0    0  0.00000000000E+00  0.00000000000E+00 -0.95310533546E+03  0.40116051433E+04  0.38967378723E+04 0.  0.
        4    1    3    3  502    0  0.19006179500E+04  0.25164073922E+03 -0.11923599697E+03  0.19209087665E+04  0.12699999809E+01 0.  1.
       -4    1    3    3    0  502 -0.19006179500E+04 -0.25164073922E+03 -0.83386933849E+03  0.20906963768E+04  0.12699999809E+01 0. -1.
</event>
<event>
 5   0  0.1164500E-08  0.3903984E+04  0.7818609E-02  0.8024201E-01
        1   -1    0    0  501    0  0.00000000000E+00  0.00000000000E+00  0.12779511825E+04  0.12779511825E+04  0.50400001928E-02 0. -1.
       -1   -1    0    0    0  501  0.00000000000E+00  0.00000000000E+00 -0.29815486566E+04  0.29815486566E+04  0.50400001928E-02 0.  1.
    10030    2    1    2    0    0  0.00000000000E+00  0.00000000000E+00 -0.17035974741E+04  0.42594998392E+04  0.39039844423E+04 0.  0.
        1    1    3    3  502    0 -0.88207199340E+03 -0.75360787657E+03  0.86096367084E+03  0.14447263671E+04  0.50400001928E-02 0. -1.
       -1    1    3    3    0  502  0.88207199340E+03  0.75360787657E+03 -0.25645611449E+04  0.28147734721E+04  0.50400001928E-02 0.  1.
</event>
<event>
 5   0  0.1164500E-08  0.3892574E+04  0.7818609E-02  0.8026575E-01
       -1   -1    0    0    0  501  0.00000000000E+00  0.00000000000E+00  0.21472363956E+04  0.21472363957E+04  0.50400001928E-02 0. -1.
        1   -1    0    0  501    0  0.00000000000E+00  0.00000000000E+00 -0.17641434074E+04  0.17641434074E+04  0.50400001928E-02 0.  1.
    10030    2    1    2    0    0  0.00000000000E+00  0.00000000000E+00  0.38309298829E+03  0.39113798030E+04  0.38925739204E+04 0.  0.
        1    1    3    3  502    0 -0.18325067640E+04  0.44267933512E+03  0.67760538300E+03  0.20032960563E+04  0.50400001928E-02 0. -1.
       -1    1    3    3    0  502  0.18325067640E+04 -0.44267933512E+03 -0.29451239470E+03  0.19080837467E+04  0.50400001928E-02 0.  1.
</event>
<event>
 5   0  0.3669347E-08  0.3868603E+04  0.7818609E-02  0.8031591E-01
        2   -1    0    0  501    0  0.00000000000E+00  0.00000000000E+00  0.22782867837E+04  0.22782867837E+04  0.25500000920E-02 0. -1.
       -2   -1    0    0    0  501  0.00000000000E+00  0.00000000000E+00 -0.16422523494E+04  0.16422523494E+04  0.25500000920E-02 0.  1.
    10030    2    1    2    0    0  0.00000000000E+00  0.00000000000E+00  0.63603443431E+03  0.39205391331E+04  0.38686027571E+04 0.  0.
        5    1    3    3  502    0  0.80539002824E+03  0.17305433316E+04  0.65749930847E+00  0.19087838648E+04  0.46999998093E+01 0. -1.
       -5    1    3    3    0  502 -0.80539002824E+03 -0.17305433316E+04  0.63537693500E+03  0.20117552683E+04  0.46999998093E+01 0.  1.
</event>
<event>
 5   0  0.3769985E-08  0.3882405E+04  0.7818609E-02  0.8028699E-01
       -2   -1    0    0    0  501  0.00000000000E+00  0.00000000000E+00  0.13868393899E+04  0.13868393899E+04  0.25500000920E-02 0. -1.
        2   -1    0    0  501    0  0.00000000000E+00  0.00000000000E+00 -0.27171620745E+04  0.27171620745E+04  0.25500000920E-02 0.  1.
    10030    2    1    2    0    0  0.00000000000E+00  0.00000000000E+00 -0.13303226846E+04  0.41040014644E+04  0.38824051276E+04 0.  0.
        1    1    3    3  502    0 -0.53362507461E+03  0.90031380788E+03 -0.23933924030E+04  0.26122112985E+04  0.50400001928E-02 0.  1.
       -1    1    3    3    0  502  0.53362507461E+03 -0.90031380788E+03  0.10630697184E+04  0.14917901659E+04  0.50400001928E-02 0. -1.
</event>
<event>
 5   0  0.3769985E-08  0.3894831E+04  0.7818609E-02  0.8026105E-01
       -2   -1    0    0    0  501  0.00000000000E+00  0.00000000000E+00  0.21081018893E+04  0.21081018893E+04  0.25500000920E-02 0. -1.
        2   -1    0    0  501    0  0.00000000000E+00  0.00000000000E+00 -0.17989768294E+04  0.17989768294E+04  0.25500000920E-02 0.  1.
    10030    2    1    2    0    0  0.00000000000E+00  0.00000000000E+00  0.30912505990E+03  0.39070787188E+04  0.38948306526E+04 0.  0.
        1    1    3    3  502    0  0.52560535408E+03  0.66857715989E+03 -0.16028513722E+04  0.18144941246E+04  0.50400001928E-02 0.  1.
       -1    1    3    3    0  502 -0.52560535408E+03 -0.66857715989E+03  0.19119764321E+04  0.20925845942E+04  0.50400001928E-02 0. -1.
</event>
<event>
 5   0  0.1164500E-08  0.3899931E+04  0.7818609E-02  0.8025044E-01
        1   -1    0    0  501    0  0.00000000000E+00  0.00000000000E+00  0.18824318471E+04  0.18824318471E+04  0.50400001928E-02 0.  1.
       -1   -1    0    0    0  501  0.00000000000E+00  0.00000000000E+00 -0.20199221808E+04  0.20199221808E+04  0.50400001928E-02 0. -1.
    10030    2    1    2    0    0  0.00000000000E+00  0.00000000000E+00 -0.13749033365E+03  0.39023540279E+04  0.38999312004E+04 0.  0.
        3    1    3    3  502    0  0.16932255917E+03  0.85796563899E+03 -0.18126964381E+04  0.20126210655E+04  0.10100000352E+00 0. -1.
       -3    1    3    3    0  502 -0.16932255917E+03 -0.85796563899E+03  0.16752061044E+04  0.18897329624E+04  0.10100000352E+00 0.  1.
</event>
<event>
 5   0  0.3669347E-08  0.3907345E+04  0.7818609E-02  0.8023503E-01
        2   -1    0    0  501    0  0.00000000000E+00  0.00000000000E+00  0.31733039369E+04  0.31733039369E+04  0.25500000920E-02 0. -1.
       -2   -1    0    0    0  501  0.00000000000E+00  0.00000000000E+00 -0.12027956240E+04  0.12027956240E+04  0.25500000920E-02 0.  1.
    10030    2    1    2    0    0  0.00000000000E+00  0.00000000000E+00  0.19705083129E+04  0.43760995609E+04  0.39073449240E+04 0.  0.
        5    1    3    3  502    0 -0.57699325152E+03  0.16685224930E+04  0.48271948212E+02  0.17661372520E+04  0.46999998093E+01 0.  1.
       -5    1    3    3    0  502  0.57699325152E+03 -0.16685224930E+04  0.19222363647E+04  0.26099623089E+04  0.46999998093E+01 0. -1.
</event>
<event>
 5   0  0.3872969E-08  0.3901472E+04  0.7818609E-02  0.8024723E-01
        2   -1    0    0  501    0  0.00000000000E+00  0.00000000000E+00  0.12198624890E+04  0.12198624890E+04  0.25500000920E-02 0. -1.
       -2   -1    0    0    0  501  0.00000000000E+00  0.00000000000E+00 -0.31195076699E+04  0.31195076699E+04  0.25500000920E-02 0.  1.
    10030    2    1    2    0    0  0.00000000000E+00  0.00000000000E+00 -0.18996451809E+04  0.43393701588E+04  0.39014717175E+04 0.  0.
        2    1    3    3  502    0 -0.20647542078E+03 -0.39795629298E+03  0.11617832904E+04  0.12452878078E+04  0.25500000920E-02 0. -1.
       -2    1    3    3    0  502  0.20647542078E+03  0.39795629298E+03 -0.30614284712E+04  0.30940823510E+04  0.25500000920E-02 0.  1.
</event>
<event>
 5   0  0.1164500E-08  0.3898197E+04  0.7818609E-02  0.8025404E-01
       -3   -1    0    0    0  501  0.00000000000E+00  0.00000000000E+00  0.15104817834E+04  0.15104817867E+04  0.10100000352E+00 0.  1.
        3   -1    0    0  501    0  0.00000000000E+00  0.00000000000E+00 -0.25150817673E+04  0.25150817693E+04  0.10100000352E+00 0. -1.
    10030    2    1    2    0    0  0.00000000000E+00  0.00000000000E+00 -0.10045999839E+04  0.40255635560E+04  0.38981971238E+04 0.  0.
        1    1    3    3  502    0 -0.15909163340E+04 -0.38532587044E+01  0.66052647918E+03  0.17225924821E+04  0.50400001928E-02 0.  1.
       -1    1    3    3    0  502  0.15909163340E+04  0.38532587044E+01 -0.16651264631E+04  0.23029710740E+04  0.50400001928E-02 0. -1.
</event>
<event>
 5   0  0.3769985E-08  0.3918279E+04  0.7818609E-02  0.8021238E-01
       -2   -1    0    0    0  501  0.00000000000E+00  0.00000000000E+00  0.18033218257E+04  0.18033218257E+04  0.25500000920E-02 0.  1.
        2   -1    0    0  501    0  0.00000000000E+00  0.00000000000E+00 -0.21284207121E+04  0.21284207121E+04  0.25500000920E-02 0. -1.
    10030    2    1    2    0    0  0.00000000000E+00  0.00000000000E+00 -0.32509888639E+03  0.39317425379E+04  0.39182789714E+04 0.  0.
        1    1    3    3  502    0  0.15560647309E+04 -0.83963223291E+02 -0.13539962871E+04  0.20643868860E+04  0.50400001928E-02 0. -1.
       -1    1    3    3    0  502 -0.15560647309E+04  0.83963223291E+02  0.10288974007E+04  0.18673556519E+04  0.50400001928E-02 0.  1.
</event>
<event>
 5   0  0.3724293E-08  0.3906490E+04  0.7818609E-02  0.8023681E-01
       -2   -1    0    0    0  501  0.00000000000E+00  0.00000000000E+00  0.17943385045E+04  0.17943385045E+04  0.25500000920E-02 0. -1.
        2   -1    0    0  501    0  0.00000000000E+00  0.00000000000E+00 -0.21262243443E+04  0.21262243443E+04  0.25500000920E-02 0.  1.
    10030    2    1    2    0    0  0.00000000000E+00  0.00000000000E+00 -0.33188583984E+03  0.39205628488E+04  0.39064900922E+04 0.  0.
        4    1    3    3  502    0 -0.11574142772E+04  0.12895094665E+04 -0.10707015498E+04  0.20368715951E+04  0.12699999809E+01 0.  1.
       -4    1    3    3    0  502  0.11574142772E+04 -0.12895094665E+04  0.73881570996E+03  0.18836912537E+04  0.12699999809E+01 0. -1.
</event>
<event>
 5   0  0.3769985E-08  0.3887250E+04  0.7818609E-02  0.8027686E-01
        2   -1    0    0  501    0  0.00000000000E+00  0.00000000000E+00  0.18505708765E+04  0.18505708765E+04  0.25500000920E-02 0. -1.
       -2   -1    0    0    0  501  0.00000000000E+00  0.00000000000E+00 -0.20413581353E+04  0.20413581353E+04  0.25500000920E-02 0.  1.
    10030    2    1    2    0    0  0.00000000000E+00  0.00000000000E+00 -0.19078725890E+03  0.38919290118E+04  0.38872498832E+04 0.  0.
        1    1    3    3  502    0 -0.86464728505E+03  0.17191903688E+04  0.17778542627E+03  0.19325729247E+04  0.50400001928E-02 0. -1.
       -1    1    3    3    0  502  0.86464728505E+03 -0.17191903688E+04 -0.36857268517E+03  0.19593560871E+04  0.50400001928E-02 0.  1.
</event>
<event>
 5   0  0.3872969E-08  0.3901882E+04  0.7818609E-02  0.8024638E-01
       -2   -1    0    0    0  501  0.00000000000E+00  0.00000000000E+00  0.16453168739E+04  0.16453168739E+04  0.25500000920E-02 0.  1.
        2   -1    0    0  501    0  0.00000000000E+00  0.00000000000E+00 -0.23133358912E+04  0.23133358912E+04  0.25500000920E-02 0. -1.
    10030    2    1    2    0    0  0.00000000000E+00  0.00000000000E+00 -0.66801901727E+03  0.39586527651E+04  0.39018818930E+04 0.  0.
        2    1    3    3  502    0 -0.24261726628E+03  0.13995745144E+04  0.10227959869E+04  0.17503667017E+04  0.25500000920E-02 0.  1.
       -2    1    3    3    0  502  0.24261726628E+03 -0.13995745144E+04 -0.16908150042E+04  0.22082860634E+04  0.25500000920E-02 0. -1.
</event>
<event>
 5   0  0.1164500E-08  0.3899403E+04  0.7818609E-02  0.8025153E-01
       -1   -1    0    0    0  501  0.00000000000E+00  0.00000000000E+00  0.17285165523E+04  0.17285165523E+04  0.50400001928E-02 0. -1.
        1   -1    0    0  501    0  0.00000000000E+00  0.00000000000E+00 -0.21991899275E+04  0.21991899275E+04  0.50400001928E-02 0.  1.
    10030    2    1    2    0    0  0.00000000000E+00  0.00000000000E+00 -0.47067337513E+03  0.39277064798E+04  0.38994031294E+04 0.  0.
        2    1    3    3  502    0  0.56928982002E+03 -0.92748438253E+03 -0.18647987187E+04  0.21591184406E+04  0.25500000920E-02 0.  1.
       -2    1    3    3    0  502 -0.56928982002E+03  0.92748438253E+03  0.13941253436E+04  0.17685880393E+04  0.25500000920E-02 0. -1.
</event>
<event>
 5   0  0.1164500E-08  0.3906014E+04  0.7818609E-02  0.8023780E-01
       -1   -1    0    0    0  501  0.00000000000E+00  0.00000000000E+00  0.16872968066E+04  0.16872968066E+04  0.50400001928E-02 0. -1.
        1   -1    0    0  501    0  0.00000000000E+00  0.00000000000E+00 -0.22605600797E+04  0.22605600797E+04  0.50400001928E-02 0.  1.
    10030    2    1    2    0    0  0.00000000000E+00  0.00000000000E+00 -0.57326327304E+03  0.39478568863E+04  0.39060137243E+04 0.  0.
        2    1    3    3  502    0  0.17207000516E+04  0.36570925176E+03  0.57079806426E+03  0.18494221678E+04  0.25500000920E-02 0. -1.
       -2    1    3    3    0  502 -0.17207000516E+04 -0.36570925176E+03 -0.11440613373E+04  0.20984347185E+04  0.25500000920E-02 0.  1.
</event>
<event>
 5   0  0.3769985E-08  0.3906537E+04  0.7818609E-02  0.8023671E-01
        2   -1    0    0  501    0  0.00000000000E+00  0.00000000000E+00  0.11614875214E+04  0.11614875214E+04  0.25500000920E-02 0.  1.
       -2   -1    0    0    0  501  0.00000000000E+00  0.00000000000E+00 -0.32848038318E+04  0.32848038318E+04  0.25500000920E-02 0. -1.
    10030    2    1    2    0    0  0.00000000000E+00  0.00000000000E+00 -0.21233163104E+04  0.44462913532E+04  0.39065374238E+04 0.  0.
        1    1    3    3  502    0 -0.11948089364E+04 -0.13954884672E+04 -0.30642445993E+03  0.18624855453E+04  0.50400001928E-02 0.  1.
       -1    1    3    3    0  502  0.11948089364E+04  0.13954884672E+04 -0.18168918504E+04  0.25838058079E+04  0.50400001928E-02 0. -1.
</event>
<event>
 5   0  0.1164500E-08  0.3936235E+04  0.7818609E-02  0.8017535E-01
        1   -1    0    0  501    0  0.00000000000E+00  0.00000000000E+00  0.26648566545E+04  0.26648566545E+04  0.50400001928E-02 0.  1.
       -1   -1    0    0    0  501  0.00000000000E+00  0.00000000000E+00 -0.14535442884E+04  0.14535442884E+04  0.50400001928E-02 0. -1.
    10030    2    1    2    0    0  0.00000000000E+00  0.00000000000E+00  0.12113123661E+04  0.41184009429E+04  0.39362353434E+04 0.  0.
        3    1    3    3  502    0 -0.19014925699E+04  0.16371114810E+03  0.11085365433E+04  0.22071086542E+04  0.10100000352E+00 0. -1.
       -3    1    3    3    0  502  0.19014925699E+04 -0.16371114810E+03  0.10277582277E+03  0.19112922888E+04  0.10100000352E+00 0.  1.
</event>
<event>
 5   0  0.1164500E-08  0.3889395E+04  0.7818609E-02  0.8027238E-01
        1   -1    0    0  501    0  0.00000000000E+00  0.00000000000E+00  0.11479882324E+04  0.11479882324E+04  0.50400001928E-02 0.  1.
       -1   -1    0    0    0  501  0.00000000000E+00  0.00000000000E+00 -0.32943271689E+04  0.32943271689E+04  0.50400001928E-02 0. -1.
    10030    2    1    2    0    0  0.00000000000E+00  0.00000000000E+00 -0.21463389365E+04  0.44423154013E+04  0.38893952350E+04 0.  0.
        5    1    3    3  502    0  0.10973496037E+04 -0.22984764418E+03 -0.28880271672E+04  0.30980201905E+04  0.46999998093E+01 0. -1.
       -5    1    3    3    0  502 -0.10973496037E+04  0.22984764418E+03  0.74168823067E+03  0.13442952108E+04  0.46999998093E+01 0.  1.
</event>
<event>
 5   0  0.3690572E-08  0.3897556E+04  0.7818609E-02  0.8025538E-01
        2   -1    0    0  501    0  0.00000000000E+00  0.00000000000E+00  0.18630559986E+04  0.18630559986E+04  0.25500000920E-02 0. -1.
       -2   -1    0    0    0  501  0.00000000000E+00  0.00000000000E+00 -0.20384442092E+04  0.20384442092E+04  0.25500000920E-02 0.  1.
    10030    2    1    2    0    0  0.00000000000E+00  0.00000000000E+00 -0.17538821064E+03  0.39015002078E+04  0.38975560095E+04 0.  0.
        3    1    3    3  502    0 -0.10976466131E+04 -0.15509632148E+04  0.34566514481E+03  0.19312688533E+04  0.10100000352E+00 0. -1.
       -3    1    3    3    0  502  0.10976466131E+04  0.15509632148E+04 -0.52105335545E+03  0.19702313545E+04  0.10100000352E+00 0.  1.
</event>
<event>
 5   0  0.1164500E-08  0.3892946E+04  0.7818609E-02  0.8026498E-01
       -1   -1    0    0    0  501  0.00000000000E+00  0.00000000000E+00  0.18955914410E+04  0.18955914410E+04  0.50400001928E-02 0. -1.
        1   -1    0    0  501    0  0.00000000000E+00  0.00000000000E+00 -0.19987198591E+04  0.19987198591E+04  0.50400001928E-02 0.  1.
    10030    2    1    2    0    0  0.00000000000E+00  0.00000000000E+00 -0.10312841812E+03  0.38943113001E+04  0.38929455470E+04 0.  0.
        4    1    3    3  502    0  0.31589646053E+03  0.19448356200E+03 -0.19630302713E+04  0.19977747342E+04  0.12699999809E+01 0.  1.
       -4    1    3    3    0  502 -0.31589646053E+03 -0.19448356200E+03  0.18599018532E+04  0.18965365659E+04  0.12699999809E+01 0. -1.
</event>
<event>
 5   0  0.3872969E-08  0.3902689E+04  0.7818609E-02  0.8024470E-01
       -2   -1    0    0    0  501  0.00000000000E+00  0.00000000000E+00  0.13598563402E+04  0.13598563402E+04  0.25500000920E-02 0.  1.
        2   -1    0    0  501    0  0.00000000000E+00  0.00000000000E+00 -0.28001091028E+04  0.28001091028E+04  0.25500000920E-02 0. -1.
    10030    2    1    2    0    0  0.00000000000E+00  0.00000000000E+00 -0.14402527626E+04  0.41599654430E+04  0.39026893890E+04 0.  0.
        2    1    3    3  502    0 -0.43361894526E+03 -0.18865695356E+04 -0.98247358636E+03  0.21708119104E+04  0.25500000920E-02 0. -1.
       -2    1    3    3    0  502  0.43361894526E+03  0.18865695356E+04 -0.45777917621E+03  0.19891535327E+04  0.25500000920E-02 0.  1.
</event>
<event>
 5   0  0.1164500E-08  0.3899780E+04  0.7818609E-02  0.8025075E-01
        1   -1    0    0  501    0  0.00000000000E+00  0.00000000000E+00  0.22486027882E+04  0.22486027883E+04  0.50400001928E-02 0. -1.
       -1   -1    0    0    0  501  0.00000000000E+00  0.00000000000E+00 -0.16908593010E+04  0.16908593010E+04  0.50400001928E-02 0.  1.
    10030    2    1    2    0    0  0.00000000000E+00  0.00000000000E+00  0.55774348725E+03  0.39394620893E+04  0.38997799624E+04 0.  0.
        1    1    3    3  502    0 -0.52670460908E+03  0.10802856485E+04  0.18299553560E+04  0.21893312752E+04  0.50400001928E-02 0. -1.
       -1    1    3    3    0  502  0.52670460908E+03 -0.10802856485E+04 -0.12722118687E+04  0.17501308141E+04  0.50400001928E-02 0.  1.
</event>
<event>
 5   0  0.1164500E-08  0.3900190E+04  0.7818609E-02  0.8024990E-01
       -1   -1    0    0    0  501  0.00000000000E+00  0.00000000000E+00  0.15721586221E+04  0.15721586221E+04  0.50400001928E-02 0. -1.
        1   -1    0    0  501    0  0.00000000000E+00  0.00000000000E+00 -0.24188842898E+04  0.24188842898E+04  0.50400001928E-02 0.  1.
    10030    2    1    2    0    0  0.00000000000E+00  0.00000000000E+00 -0.84672566773E+03  0.39910429119E+04  0.39001896323E+04 0.  0.
        1    1    3    3  502    0  0.10712901927E+04 -0.14732913859E+04 -0.11357255227E+04  0.21466538258E+04  0.50400001928E-02 0.  1.
       -1    1    3    3    0  502 -0.10712901927E+04  0.14732913859E+04  0.28899985502E+03  0.18443890861E+04  0.50400001928E-02 0. -1.
</event>
<event>
 5   0  0.3669347E-08  0.3910473E+04  0.7818609E-02  0.8022855E-01
       -2   -1    0    0    0  501  0.00000000000E+00  0.00000000000E+00  0.15165516701E+04  0.15165516701E+04  0.25500000920E-02 0. -1.
        2   -1    0    0  501    0  0.00000000000E+00  0.00000000000E+00 -0.25208167599E+04  0.25208167599E+04  0.25500000920E-02 0.  1.
    10030    2    1    2    0    0  0.00000000000E+00  0.00000000000E+00 -0.10042650898E+04  0.40373684300E+04  0.39104725378E+04 0.  0.
        5    1    3    3  502    0  0.15123903370E+03 -0.19262745789E+04 -0.81104018009E+03  0.20955226704E+04  0.46999998093E+01 0. -1.
       -5    1    3    3    0  502 -0.15123903370E+03  0.19262745789E+04 -0.19322490970E+03  0.19418457596E+04  0.46999998093E+01 0.  1.
</event>
<event>
 5   0  0.1164500E-08  0.3893646E+04  0.7818609E-02  0.8026352E-01
       -1   -1    0    0    0  501  0.00000000000E+00  0.00000000000E+00  0.26569594002E+04  0.26569594002E+04  0.50400001928E-02 0. -1.
        1   -1    0    0  501    0  0.00000000000E+00  0.00000000000E+00 -0.14264875426E+04  0.14264875426E+04  0.50400001928E-02 0.  1.
    10030    2    1    2    0    0  0.00000000000E+00  0.00000000000E+00  0.12304718576E+04  0.40834469428E+04  0.38936458419E+04 0.  0.
        3    1    3    3  502    0  0.74258473753E+03 -0.13984518113E+04  0.18031558606E+04  0.23996813598E+04  0.10100000352E+00 0. -1.
       -3    1    3    3    0  502 -0.74258473753E+03  0.13984518113E+04 -0.57268400305E+03  0.16837655830E+04  0.10100000352E+00 0.  1.
</event>
<event>
 5   0  0.1164500E-08  0.3895262E+04  0.7818609E-02  0.8026015E-01
        1   -1    0    0  501    0  0.00000000000E+00  0.00000000000E+00  0.21690646990E+04  0.21690646990E+04  0.50400001928E-02 0. -1.
       -1   -1    0    0    0  501  0.00000000000E+00  0.00000000000E+00 -0.17488027052E+04  0.17488027052E+04  0.50400001928E-02 0.  1.
    10030    2    1    2    0    0  0.00000000000E+00  0.00000000000E+00  0.42026199377E+03  0.39178674042E+04  0.38952618466E+04 0.  0.
        5    1    3    3  502    0  0.65285131170E+03  0.83461776667E+03  0.18537633827E+04  0.21352429419E+04  0.46999998093E+01 0. -1.
       -5    1    3    3    0  502 -0.65285131170E+03 -0.83461776667E+03 -0.14335013890E+04  0.17826244624E+04  0.46999998093E+01 0.  1.
</event>
<event>
 5   0  0.3872969E-08  0.3865493E+04  0.7818609E-02  0.8032244E-01
       -2   -1    0    0    0  501  0.00000000000E+00  0.00000000000E+00  0.33334426500E+04  0.33334426500E+04  0.25500000920E-02 0.  1.
        2   -1    0    0  501    0  0.00000000000E+00  0.00000000000E+00 -0.11206160948E+04  0.11206160948E+04  0.25500000920E-02 0. -1.
    10030    2    1    2    0    0  0.00000000000E+00  0.00000000000E+00  0.22128265551E+04  0.44540587448E+04  0.38654932336E+04 0.  0.
        2    1    3    3  502    0 -0.14204514411E+04 -0.81895777407E+02  0.26136840967E+04  0.29758584933E+04  0.25500000920E-02 0.  1.
       -2    1    3    3    0  502  0.14204514411E+04  0.81895777407E+02 -0.40085754152E+03  0.14782002515E+04  0.25500000920E-02 0. -1.
</event>
<event>
 5   0  0.3724293E-08  0.3894728E+04  0.7818609E-02  0.8026127E-01
       -2   -1    0    0    0  501  0.00000000000E+00  0.00000000000E+00  0.16001812962E+04  0.16001812962E+04  0.25500000920E-02 0.  1.
        2   -1    0    0  501    0  0.00000000000E+00  0.00000000000E+00 -0.23698728759E+04  0.23698728759E+04  0.25500000920E-02 0. -1.
    10030    2    1    2    0    0  0.00000000000E+00  0.00000000000E+00 -0.76969157963E+03  0.39700541721E+04  0.38947278469E+04 0.  0.
        4    1    3    3  502    0 -0.61032991971E+03 -0.43321309710E+03 -0.22174059787E+04  0.23403134588E+04  0.12699999809E+01 0. -1.
       -4    1    3    3    0  502  0.61032991971E+03  0.43321309710E+03  0.14477143990E+04  0.16297407133E+04  0.12699999809E+01 0.  1.
</event>
<event>
 5   0  0.1164500E-08  0.3918424E+04  0.7818609E-02  0.8021208E-01
       -1   -1    0    0    0  501  0.00000000000E+00  0.00000000000E+00  0.17717177950E+04  0.17717177950E+04  0.50400001928E-02 0. -1.
        1   -1    0    0  501    0  0.00000000000E+00  0.00000000000E+00 -0.21665478962E+04  0.21665478962E+04  0.50400001928E-02 0.  1.
    10030    2    1    2    0    0  0.00000000000E+00  0.00000000000E+00 -0.39483010125E+03  0.39382656912E+04  0.39184238981E+04 0.  0.
        3    1    3    3  502    0 -0.23044504205E+02 -0.17635881890E+04  0.65997976655E+03  0.18831748862E+04  0.10100000352E+00 0. -1.
       -3    1    3    3    0  502  0.23044504205E+02  0.17635881890E+04 -0.10548098678E+04  0.20550908050E+04  0.10100000352E+00 0.  1.
</event>
<event>
 5   0  0.3872969E-08  0.3898496E+04  0.7818609E-02  0.8025342E-01
       -2   -1    0    0    0  501  0.00000000000E+00  0.00000000000E+00  0.20681905718E+04  0.20681905718E+04  0.25500000920E-02 0.  1.
        2   -1    0    0  501    0  0.00000000000E+00  0.00000000000E+00 -0.18371460857E+04  0.18371460857E+04  0.25500000920E-02 0. -1.
    10030    2    1    2    0    0  0.00000000000E+00  0.00000000000E+00  0.23104448607E+03  0.39053366575E+04  0.38984962299E+04 0.  0.
        2    1    3    3  502    0 -0.13572245683E+04 -0.11122783662E+04  0.96574375837E+03  0.20029684720E+04  0.25500000920E-02 0.  1.
       -2    1    3    3    0  502  0.13572245683E+04  0.11122783662E+04 -0.73469927230E+03  0.19023681856E+04  0.25500000920E-02 0. -1.
</event>
<event>
 5   0  0.3724293E-08  0.3846620E+04  0.7818609E-02  0.8036224E-01
        2   -1    0    0  501    0  0.00000000000E+00  0.00000000000E+00  0.20930734161E+04  0.20930734161E+04  0.25500000920E-02 0.  1.
       -2   -1    0    0    0  501  0.00000000000E+00  0.00000000000E+00 -0.17673153470E+04  0.17673153470E+04  0.25500000920E-02 0. -1.
    10030    2    1    2    0    0  0.00000000000E+00  0.00000000000E+00  0.32575806908E+03  0.38603887632E+04  0.38466196957E+04 0.  0.
        4    1    3    3  502    0 -0.10121149454E+04 -0.15734864249E+04 -0.28468026518E+03  0.18924271871E+04  0.12699999809E+01 0.  1.
       -4    1    3    3    0  502  0.10121149454E+04  0.15734864249E+04  0.61043833426E+03  0.19679615761E+04  0.12699999809E+01 0. -1.
</event>
<event>
 5   0  0.3690572E-08  0.3907151E+04  0.7818609E-02  0.8023544E-01
        2   -1    0    0  501    0  0.00000000000E+00  0.00000000000E+00  0.15050044231E+04  0.15050044231E+04  0.25500000920E-02 0.  1.
       -2   -1    0    0    0  501  0.00000000000E+00  0.00000000000E+00 -0.25358443370E+04  0.25358443370E+04  0.25500000920E-02 0. -1.
    10030    2    1    2    0    0  0.00000000000E+00  0.00000000000E+00 -0.10308399139E+04  0.40408487601E+04  0.39071508511E+04 0.  0.
        3    1    3    3  502    0 -0.16914727691E+04  0.80405451911E+03  0.59361150568E+02  0.18737949607E+04  0.10100000352E+00 0.  1.
       -3    1    3    3    0  502  0.16914727691E+04 -0.80405451911E+03 -0.10902010645E+04  0.21670537994E+04  0.10100000352E+00 0. -1.
</event>
<event>
 5   0  0.1164500E-08  0.3879664E+04  0.7818609E-02  0.8029272E-01
       -1   -1    0    0    0  501  0.00000000000E+00  0.00000000000E+00  0.28137080661E+04  0.28137080661E+04  0.50400001928E-02 0.  1.
        1   -1    0    0  501    0  0.00000000000E+00  0.00000000000E+00 -0.13373625671E+04  0.13373625671E+04  0.50400001928E-02 0. -1.
    10030    2    1    2    0    0  0.00000000000E+00  0.00000000000E+00  0.14763454990E+04  0.41510706332E+04  0.38796638217E+04 0.  0.
        5    1    3    3  502    0 -0.16009406063E+04 -0.44311483263E+03  0.18100340784E+04  0.24567472468E+04  0.46999998093E+01 0. -1.
       -5    1    3    3    0  502  0.16009406063E+04  0.44311483263E+03 -0.33368857939E+03  0.16943233864E+04  0.46999998093E+01 0.  1.
</event>
<event>
 5   0  0.3872969E-08  0.3910589E+04  0.7818609E-02  0.8022831E-01
        2   -1    0    0  501    0  0.00000000000E+00  0.00000000000E+00  0.25925132836E+04  0.25925132836E+04  0.25500000920E-02 0.  1.
       -2   -1    0    0    0  501  0.00000000000E+00  0.00000000000E+00 -0.14746988455E+04  0.14746988455E+04  0.25500000920E-02 0. -1.
    10030    2    1    2    0    0  0.00000000000E+00  0.00000000000E+00  0.11178144382E+04  0.40672121291E+04  0.39105888795E+04 0.  0.
        2    1    3    3  502    0 -0.12705964768E+03 -0.18486362091E+04  0.12080660359E+04  0.22120179779E+04  0.25500000920E-02 0. -1.
       -2    1    3    3    0  502  0.12705964768E+03  0.18486362091E+04 -0.90251597746E+02  0.18551941511E+04  0.25500000920E-02 0.  1.
</event>
<event>
 5   0  0.1164500E-08  0.3898825E+04  0.7818609E-02  0.8025274E-01
        1   -1    0    0  501    0  0.00000000000E+00  0.00000000000E+00  0.23693847564E+04  0.23693847564E+04  0.50400001928E-02 0.  1.
       -1   -1    0    0    0  501  0.00000000000E+00  0.00000000000E+00 -0.16038800691E+04  0.16038800691E+04  0.50400001928E-02 0. -1.
    10030    2    1    2    0    0  0.00000000000E+00  0.00000000000E+00  0.76550468728E+03  0.39732648254E+04  0.38988249444E+04 0.  0.
        4    1    3    3  502    0 -0.81580946331E+03 -0.16079100327E+04 -0.37253756490E+03  0.18411153152E+04  0.12699999809E+01 0.  1.
       -4    1    3    3    0  502  0.81580946331E+03  0.16079100327E+04  0.11380422522E+04  0.21321495103E+04  0.12699999809E+01 0. -1.
</event>
<event>
 5   0  0.3872969E-08  0.3897056E+04  0.7818609E-02  0.8025642E-01
       -2   -1    0    0    0  501  0.00000000000E+00  0.00000000000E+00  0.30922706524E+04  0.30922706524E+04  0.25500000920E-02 0.  1.
        2   -1    0    0  501    0  0.00000000000E+00  0.00000000000E+00 -0.12278229978E+04  0.12278229978E+04  0.25500000920E-02 0. -1.
    10030    2    1    2    0    0  0.00000000000E+00  0.00000000000E+00  0.18644476546E+04  0.43200936501E+04  0.38970558232E+04 0.  0.
        2    1    3    3  502    0  0.15117115970E+04 -0.11996123860E+04  0.12305445174E+04  0.22887948004E+04  0.25500000920E-02 0. -1.
       -2    1    3    3    0  502 -0.15117115970E+04  0.11996123860E+04  0.63390313724E+03  0.20312988497E+04  0.25500000920E-02 0.  1.
</event>
<event>
 5   0  0.1164500E-08  0.3890836E+04  0.7818609E-02  0.8026938E-01
        1   -1    0    0  501    0  0.00000000000E+00  0.00000000000E+00  0.17776062163E+04  0.17776062163E+04  0.50400001928E-02 0.  1.
       -1   -1    0    0    0  501  0.00000000000E+00  0.00000000000E+00 -0.21290718519E+04  0.21290718519E+04  0.50400001928E-02 0. -1.
    10030    2    1    2    0    0  0.00000000000E+00  0.00000000000E+00 -0.35146563559E+03  0.39066780682E+04  0.38908360843E+04 0.  0.
        5    1    3    3  502    0  0.99472798859E+03  0.11087342488E+04 -0.14321686211E+04  0.20663747131E+04  0.46999998093E+01 0. -1.
       -5    1    3    3    0  502 -0.99472798859E+03 -0.11087342488E+04  0.10807029855E+04  0.18403033550E+04  0.46999998093E+01 0.  1.
</event>
<event>
 5   0  0.1164500E-08  0.3891843E+04  0.7818609E-02  0.8026728E-01
       -1   -1    0    0    0  501  0.00000000000E+00  0.00000000000E+00  0.18880142013E+04  0.18880142013E+04  0.50400001928E-02 0. -1.
        1   -1    0    0  501    0  0.00000000000E+00  0.00000000000E+00 -0.20056046514E+04  0.20056046514E+04  0.50400001928E-02 0.  1.
    10030    2    1    2    0    0  0.00000000000E+00  0.00000000000E+00 -0.11759045005E+03  0.38936188527E+04  0.38918427841E+04 0.  0.
        5    1    3    3  502    0  0.19678355925E+03  0.14215659493E+04  0.12559637208E+04  0.19071026389E+04  0.46999998093E+01 0. -1.
       -5    1    3    3    0  502 -0.19678355925E+03 -0.14215659493E+04 -0.13735541708E+04  0.19865162138E+04  0.46999998093E+01 0.  1.
</event>
<event>
 5   0  0.1164500E-08  0.3880826E+04  0.7818609E-02  0.8029029E-01
        1   -1    0    0  501    0  0.00000000000E+00  0.00000000000E+00  0.21967182116E+04  0.21967182116E+04  0.50400001928E-02 0. -1.
       -1   -1    0    0    0  501  0.00000000000E+00  0.00000000000E+00 -0.17140125851E+04  0.17140125851E+04  0.50400001928E-02 0.  1.
    10030    2    1    2    0    0  0.00000000000E+00  0.00000000000E+00  0.48270562649E+03  0.39107307967E+04  0.38808260258E+04 0.  0.
        3    1    3    3  502    0  0.39381112346E+03  0.19478563939E+03  0.21459364560E+04  0.21904501659E+04  0.10100000352E+00 0. -1.
       -3    1    3    3    0  502 -0.39381112346E+03 -0.19478563939E+03 -0.16632308295E+04  0.17202806308E+04  0.10100000352E+00 0.  1.
</event>
<event>
 5   0  0.1164500E-08  0.3893045E+04  0.7818609E-02  0.8026477E-01
        1   -1    0    0  501    0  0.00000000000E+00  0.00000000000E+00  0.17025479170E+04  0.17025479170E+04  0.50400001928E-02 0.  1.
       -1   -1    0    0    0  501  0.00000000000E+00  0.00000000000E+00 -0.22254587279E+04  0.22254587279E+04  0.50400001928E-02 0. -1.
    10030    2    1    2    0    0  0.00000000000E+00  0.00000000000E+00 -0.52291081089E+03  0.39280066448E+04  0.38930451430E+04 0.  0.
        2    1    3    3  502    0  0.18550501914E+03 -0.83426887343E+02  0.16917958510E+04  0.17039792719E+04  0.25500000920E-02 0.  1.
       -2    1    3    3    0  502 -0.18550501914E+03  0.83426887343E+02 -0.22147066618E+04  0.22240273730E+04  0.25500000920E-02 0. -1.
</event>
<event>
 5   0  0.3669347E-08  0.3894447E+04  0.7818609E-02  0.8026185E-01
        2   -1    0    0  501    0  0.00000000000E+00  0.00000000000E+00  0.21903828667E+04  0.21903828667E+04  0.25500000920E-02 0. -1.
       -2   -1    0    0    0  501  0.00000000000E+00  0.00000000000E+00 -0.17310577651E+04  0.17310577651E+04  0.25500000920E-02 0.  1.
    10030    2    1    2    0    0  0.00000000000E+00  0.00000000000E+00  0.45932510159E+03  0.39214406319E+04  0.38944469544E+04 0.  0.
        5    1    3    3  502    0 -0.65960957738E+02 -0.15720596451E+04 -0.92543067906E+03  0.18254222546E+04  0.46999998093E+01 0.  1.
       -5    1    3    3    0  502  0.65960957738E+02  0.15720596451E+04  0.13847557807E+04  0.20960183773E+04  0.46999998093E+01 0. -1.
</event>
<event>
 5   0  0.1164500E-08  0.3900823E+04  0.7818609E-02  0.8024858E-01
        1   -1    0    0  501    0  0.00000000000E+00  0.00000000000E+00  0.21378775794E+04  0.21378775794E+04  0.50400001928E-02 0. -1.
       -1   -1    0    0    0  501  0.00000000000E+00  0.00000000000E+00 -0.17793843001E+04  0.17793843001E+04  0.50400001928E-02 0.  1.
    10030    2    1    2    0    0  0.00000000000E+00  0.00000000000E+00  0.35849327933E+03  0.39172618795E+04  0.39008234005E+04 0.  0.
        1    1    3    3  502    0  0.15980131102E+04 -0.63935538189E+03 -0.74205322320E+03  0.18743169931E+04  0.50400001928E-02 0.  1.
       -1    1    3    3    0  502 -0.15980131102E+04  0.63935538189E+03  0.11005465025E+04  0.20429448864E+04  0.50400001928E-02 0. -1.
</event>
<event>
 5   0  0.1164500E-08  0.3888594E+04  0.7818609E-02  0.8027406E-01
        1   -1    0    0  501    0  0.00000000000E+00  0.00000000000E+00  0.10632998428E+04  0.10632998428E+04  0.50400001928E-02 0.  1.
       -1   -1    0    0    0  501  0.00000000000E+00  0.00000000000E+00 -0.35552449576E+04  0.35552449577E+04  0.50400001928E-02 0. -1.
    10030    2    1    2    0    0  0.00000000000E+00  0.00000000000E+00 -0.24919451149E+04  0.46185448005E+04  0.38885942985E+04 0.  0.
        5    1    3    3  502    0 -0.14897800692E+04  0.43395669753E+03  0.14548412289E+03  0.15585091562E+04  0.46999998093E+01 0.  1.
       -5    1    3    3    0  502  0.14897800692E+04 -0.43395669753E+03 -0.26374292377E+04  0.30600356443E+04  0.46999998093E+01 0. -1.
</event>
<event>
 5   0  0.3872969E-08  0.3786787E+04  0.7818609E-02  0.8048996E-01
        2   -1    0    0  501    0  0.00000000000E+00  0.00000000000E+00  0.22971645236E+04  0.22971645236E+04  0.25500000920E-02 0.  1.
       -2   -1    0    0    0  501  0.00000000000E+00  0.00000000000E+00 -0.15605926777E+04  0.15605926777E+04  0.25500000920E-02 0. -1.
    10030    2    1    2    0    0  0.00000000000E+00  0.00000000000E+00  0.73657184587E+03  0.38577572013E+04  0.37867865717E+04 0.  0.
        2    1    3    3  502    0 -0.31617534031E+03 -0.84107147574E+03 -0.13295533436E+04  0.16047056324E+04  0.25500000920E-02 0. -1.
       -2    1    3    3    0  502  0.31617534031E+03  0.84107147574E+03  0.20661251895E+04  0.22530515688E+04  0.25500000920E-02 0.  1.
</event>
<event>
 5   0  0.1164500E-08  0.3890403E+04  0.7818609E-02  0.8027028E-01
       -1   -1    0    0    0  501  0.00000000000E+00  0.00000000000E+00  0.18956120488E+04  0.18956120488E+04  0.50400001928E-02 0. -1.
        1   -1    0    0  501    0  0.00000000000E+00  0.00000000000E+00 -0.19960883753E+04  0.19960883753E+04  0.50400001928E-02 0.  1.
    10030    2    1    2    0    0  0.00000000000E+00  0.00000000000E+00 -0.10047632646E+03  0.38917004241E+04  0.38904031538E+04 0.  0.
        2    1    3    3  502    0 -0.44561430378E+03 -0.79664443260E+03 -0.17685404702E+04  0.19902135198E+04  0.25500000920E-02 0.  1.
       -2    1    3    3    0  502  0.44561430378E+03  0.79664443260E+03  0.16680641437E+04  0.19014869043E+04  0.25500000920E-02 0. -1.
</event>
<event>
 5   0  0.3669347E-08  0.3908087E+04  0.7818609E-02  0.8023349E-01
        2   -1    0    0  501    0  0.00000000000E+00  0.00000000000E+00  0.18830309343E+04  0.18830309343E+04  0.25500000920E-02 0.  1.
       -2   -1    0    0    0  501  0.00000000000E+00  0.00000000000E+00 -0.20277343996E+04  0.20277343996E+04  0.25500000920E-02 0. -1.
    10030    2    1    2    0    0  0.00000000000E+00  0.00000000000E+00 -0.14470346536E+03  0.39107653339E+04  0.39080873076E+04 0.  0.
        5    1    3    3  502    0 -0.13625176388E+04 -0.11599424995E+04  0.71326177550E+03  0.19263139330E+04  0.46999998093E+01 0.  1.
       -5    1    3    3    0  502  0.13625176388E+04  0.11599424995E+04 -0.85796524086E+03  0.19844514009E+04  0.46999998093E+01 0. -1.
</event>
<event>
 5   0  0.1164500E-08  0.3900827E+04  0.7818609E-02  0.8024857E-01
        1   -1    0    0  501    0  0.00000000000E+00  0.00000000000E+00  0.23339856056E+04  0.23339856056E+04  0.50400001928E-02 0.  1.
       -1   -1    0    0    0  501  0.00000000000E+00  0.00000000000E+00 -0.16298784217E+04  0.16298784217E+04  0.50400001928E-02 0. -1.
    10030    2    1    2    0    0  0.00000000000E+00  0.00000000000E+00  0.70410718388E+03  0.39638640274E+04  0.39008269766E+04 0.  0.
        1    1    3    3  502    0  0.11736030119E+04 -0.13405410869E+04 -0.45431802346E+03  0.18386949997E+04  0.50400001928E-02 0. -1.
       -1    1    3    3    0  502 -0.11736030119E+04  0.13405410869E+04  0.11584252073E+04  0.21251690277E+04  0.50400001928E-02 0.  1.
</event>
<event>
 5   0  0.3690572E-08  0.3900986E+04  0.7818609E-02  0.8024824E-01
        2   -1    0    0  501    0  0.00000000000E+00  0.00000000000E+00  0.21416965073E+04  0.21416965073E+04  0.25500000920E-02 0.  1.
       -2   -1    0    0    0  501  0.00000000000E+00  0.00000000000E+00 -0.17763598782E+04  0.17763598782E+04  0.25500000920E-02 0. -1.
    10030    2    1    2    0    0  0.00000000000E+00  0.00000000000E+00  0.36533662903E+03  0.39180563855E+04  0.39009864121E+04 0.  0.
        3    1    3    3  502    0 -0.95637369673E+03 -0.11314707444E+04 -0.10915624358E+04  0.18402133721E+04  0.10100000352E+00 0. -1.
       -3    1    3    3    0  502  0.95637369673E+03  0.11314707444E+04  0.14568990648E+04  0.20778430134E+04  0.10100000352E+00 0.  1.
</event>
<event>
 5   0  0.3669347E-08  0.3897970E+04  0.7818609E-02  0.8025452E-01
        2   -1    0    0  501    0  0.00000000000E+00  0.00000000000E+00  0.26867247708E+04  0.26867247708E+04  0.25500000920E-02 0.  1.
       -2   -1    0    0    0  501  0.00000000000E+00  0.00000000000E+00 -0.14138187157E+04  0.14138187157E+04  0.25500000920E-02 0. -1.
    10030    2    1    2    0    0  0.00000000000E+00  0.00000000000E+00  0.12729060551E+04  0.41005434865E+04  0.38979696074E+04 0.  0.
        5    1    3    3  502    0 -0.18608507967E+04  0.48767408487E+03  0.30725565615E+03  0.19480810632E+04  0.46999998093E+01 0. -1.
       -5    1    3    3    0  502  0.18608507967E+04 -0.48767408487E+03  0.96565039890E+03  0.21524624233E+04  0.46999998093E+01 0.  1.
</event>
<event>
 5   0  0.1164500E-08  0.3886257E+04  0.7818609E-02  0.8027894E-01
        1   -1    0    0  501    0  0.00000000000E+00  0.00000000000E+00  0.26460677455E+04  0.26460677455E+04  0.50400001928E-02 0.  1.
       -1   -1    0    0    0  501  0.00000000000E+00  0.00000000000E+00 -0.14269277952E+04  0.14269277952E+04  0.50400001928E-02 0. -1.
    10030    2    1    2    0    0  0.00000000000E+00  0.00000000000E+00  0.12191399502E+04  0.40729955407E+04  0.38862566123E+04 0.  0.
        1    1    3    3  502    0 -0.65853979784E+03  0.16825217011E+04 -0.13976360637E+03  0.18122052328E+04  0.50400001928E-02 0. -1.
       -1    1    3    3    0  502  0.65853979784E+03 -0.16825217011E+04  0.13589035566E+04  0.22607903079E+04  0.50400001928E-02 0.  1.
</event>
<event>
 5   0  0.3872969E-08  0.3899903E+04  0.7818609E-02  0.8025049E-01
        2   -1    0    0  501    0  0.00000000000E+00  0.00000000000E+00  0.17201136540E+04  0.17201136540E+04  0.25500000920E-02 0.  1.
       -2   -1    0    0    0  501  0.00000000000E+00  0.00000000000E+00 -0.22105002890E+04  0.22105002890E+04  0.25500000920E-02 0. -1.
    10030    2    1    2    0    0  0.00000000000E+00  0.00000000000E+00 -0.49038663497E+03  0.39306139430E+04  0.38999034497E+04 0.  0.
        2    1    3    3  502    0 -0.10925347762E+04  0.12580063028E+04  0.77574922569E+03  0.18379333384E+04  0.25500000920E-02 0.  1.
       -2    1    3    3    0  502  0.10925347762E+04 -0.12580063028E+04 -0.12661358607E+04  0.20926806046E+04  0.25500000920E-02 0. -1.
</event>
<event>
 5   0  0.3669347E-08  0.3903613E+04  0.7818609E-02  0.8024278E-01
        2   -1    0    0  501    0  0.00000000000E+00  0.00000000000E+00  0.26448506867E+04  0.26448506867E+04  0.25500000920E-02 0. -1.
       -2   -1    0    0    0  501  0.00000000000E+00  0.00000000000E+00 -0.14403644255E+04  0.14403644255E+04  0.25500000920E-02 0.  1.
    10030    2    1    2    0    0  0.00000000000E+00  0.00000000000E+00  0.12044862613E+04  0.40852151122E+04  0.39036131160E+04 0.  0.
        5    1    3    3  502    0 -0.14780478054E+04  0.77321859463E+03 -0.45833010905E+03  0.17299077689E+04  0.46999998093E+01 0.  1.
       -5    1    3    3    0  502  0.14780478054E+04 -0.77321859463E+03  0.16628163703E+04  0.23553073433E+04  0.46999998093E+01 0. -1.
</event>
<event>
 5   0  0.1164500E-08  0.3900419E+04  0.7818609E-02  0.8024942E-01
       -1   -1    0    0    0  501  0.00000000000E+00  0.00000000000E+00  0.22001356957E+04  0.22001356957E+04  0.50400001928E-02 0.  1.
        1   -1    0    0  501    0  0.00000000000E+00  0.00000000000E+00 -0.17286734645E+04  0.17286734646E+04  0.50400001928E-02 0. -1.
    10030    2    1    2    0    0  0.00000000000E+00  0.00000000000E+00  0.47146223119E+03  0.39288091603E+04  0.39004185394E+04 0.  0.
        4    1    3    3  502    0  0.86119822435E+03 -0.17087289582E+04  0.61516592261E+03  0.20099372526E+04  0.12699999809E+01 0.  1.
       -4    1    3    3    0  502 -0.86119822435E+03  0.17087289582E+04 -0.14370369142E+03  0.19188719077E+04  0.12699999809E+01 0. -1.
</event>
<event>
 5   0  0.3669347E-08  0.3879013E+04  0.7818609E-02  0.8029408E-01
       -2   -1    0    0    0  501  0.00000000000E+00  0.00000000000E+00  0.21964256240E+04  0.21964256240E+04  0.25500000920E-02 0.  1.
        2   -1    0    0  501    0  0.00000000000E+00  0.00000000000E+00 -0.17126398817E+04  0.17126398817E+04  0.25500000920E-02 0. -1.
    10030    2    1    2    0    0  0.00000000000E+00  0.00000000000E+00  0.48378574237E+03  0.39090655057E+04  0.38790133389E+04 0.  0.
        5    1    3    3  502    0  0.49148837250E+03  0.18085951581E+04  0.74484540549E+03  0.20167781322E+04  0.46999998093E+01 0.  1.
       -5    1    3    3    0  502 -0.49148837250E+03 -0.18085951581E+04 -0.26105966312E+03  0.18922873735E+04  0.46999998093E+01 0. -1.
</event>
<event>
 5   0  0.1164500E-08  0.3896272E+04  0.7818609E-02  0.8025805E-01
        1   -1    0    0  501    0  0.00000000000E+00  0.00000000000E+00  0.22976356155E+04  0.22976356155E+04  0.50400001928E-02 0. -1.
       -1   -1    0    0    0  501  0.00000000000E+00  0.00000000000E+00 -0.16518001078E+04  0.16518001078E+04  0.50400001928E-02 0.  1.
    10030    2    1    2    0    0  0.00000000000E+00  0.00000000000E+00  0.64583550774E+03  0.39494357234E+04  0.38962724532E+04 0.  0.
        4    1    3    3  502    0  0.81735467402E+02 -0.17929898269E+04 -0.44487369928E+03  0.18491639806E+04  0.12699999809E+01 0.  1.
       -4    1    3    3    0  502 -0.81735467402E+02  0.17929898269E+04  0.10907092070E+04  0.21002717427E+04  0.12699999809E+01 0. -1.
</event>
<event>
 5   0  0.1164500E-08  0.3887083E+04  0.7818609E-02  0.8027721E-01
        1   -1    0    0  501    0  0.00000000000E+00  0.00000000000E+00  0.21593594486E+04  0.21593594486E+04  0.50400001928E-02 0. -1.
       -1   -1    0    0    0  501  0.00000000000E+00  0.00000000000E+00 -0.17492933302E+04  0.17492933302E+04  0.50400001928E-02 0.  1.
    10030    2    1    2    0    0  0.00000000000E+00  0.00000000000E+00  0.41006611836E+03  0.39086527788E+04  0.38870827524E+04 0.  0.
        5    1    3    3  502    0  0.14232741487E+04 -0.88772582264E+03  0.11920934234E+04  0.20578812547E+04  0.46999998093E+01 0. -1.
       -5    1    3    3    0  502 -0.14232741487E+04  0.88772582264E+03 -0.78202730502E+03  0.18507715241E+04  0.46999998093E+01 0.  1.
</event>
<event>
 5   0  0.1164500E-08  0.3906466E+04  0.7818609E-02  0.8023686E-01
       -1   -1    0    0    0  501  0.00000000000E+00  0.00000000000E+00  0.25535366294E+04  0.25535366294E+04  0.50400001928E-02 0.  1.
        1   -1    0    0  501    0  0.00000000000E+00  0.00000000000E+00 -0.14940533395E+04  0.14940533395E+04  0.50400001928E-02 0. -1.
    10030    2    1    2    0    0  0.00000000000E+00  0.00000000000E+00  0.10594832899E+04  0.40475899689E+04  0.39064663975E+04 0.  0.
        5    1    3    3  502    0 -0.25456318263E+03 -0.16391580909E+04 -0.53875267349E+03  0.17441095706E+04  0.46999998093E+01 0. -1.
       -5    1    3    3    0  502  0.25456318263E+03  0.16391580909E+04  0.15982359634E+04  0.23034803984E+04  0.46999998093E+01 0.  1.
</event>
<event>
 5   0  0.3690572E-08  0.3925194E+04  0.7818609E-02  0.8019810E-01
       -2   -1    0    0    0  501  0.00000000000E+00  0.00000000000E+00  0.15399797285E+04  0.15399797285E+04  0.25500000920E-02 0. -1.
        2   -1    0    0  501    0  0.00000000000E+00  0.00000000000E+00 -0.25011931556E+04  0.25011931556E+04  0.25500000920E-02 0.  1.
    10030    2    1    2    0    0  0.00000000000E+00  0.00000000000E+00 -0.96121342705E+03  0.40411728841E+04  0.39251938840E+04 0.  0.
        3    1    3    3  502    0  0.49783475223E+03 -0.18973362736E+04 -0.41498673187E+03  0.20049783972E+04  0.10100000352E+00 0.  1.
       -3    1    3    3    0  502 -0.49783475223E+03  0.18973362736E+04 -0.54622669518E+03  0.20361944868E+04  0.10100000352E+00 0. -1.
</event>
<event>
 5   0  0.1164500E-08  0.3897667E+04  0.7818609E-02  0.8025515E-01
       -1   -1    0    0    0  501  0.00000000000E+00  0.00000000000E+00  0.20744154762E+04  0.20744154762E+04  0.50400001928E-02 0. -1.
        1   -1    0    0  501    0  0.00000000000E+00  0.00000000000E+00 -0.18308537414E+04  0.18308537414E+04  0.50400001928E-02 0.  1.
    10030    2    1    2    0    0  0.00000000000E+00  0.00000000000E+00  0.24356173483E+03  0.39052692175E+04  0.38976666536E+04 0.  0.
        5    1    3    3  502    0 -0.81020092303E+03 -0.66221631028E+02  0.18964268901E+04  0.20633147796E+04  0.46999998093E+01 0. -1.
       -5    1    3    3    0  502  0.81020092303E+03  0.66221631028E+02 -0.16528651553E+04  0.18419544380E+04  0.46999998093E+01 0.  1.
</event>
<event>
 5   0  0.1164500E-08  0.3922770E+04  0.7818609E-02  0.8020310E-01
        1   -1    0    0  501    0  0.00000000000E+00  0.00000000000E+00  0.31503159332E+04  0.31503159332E+04  0.50400001928E-02 0.  1.
       -1   -1    0    0    0  501  0.00000000000E+00  0.00000000000E+00 -0.12211572697E+04  0.12211572697E+04  0.50400001928E-02 0. -1.
    10030    2    1    2    0    0  0.00000000000E+00  0.00000000000E+00  0.19291586635E+04  0.43714732029E+04  0.39227700435E+04 0.  0.
        5    1    3    3  502    0  0.86071476509E+03 -0.78282143066E+03 -0.79507887415E+03  0.14091883498E+04  0.46999998093E+01 0. -1.
       -5    1    3    3    0  502 -0.86071476509E+03  0.78282143066E+03  0.27242375376E+04  0.29622848531E+04  0.46999998093E+01 0.  1.
</event>
<event>
 5   0  0.3690572E-08  0.3906179E+04  0.7818609E-02  0.8023745E-01
       -2   -1    0    0    0  501  0.00000000000E+00  0.00000000000E+00  0.17141442643E+04  0.17141442643E+04  0.25500000920E-02 0.  1.
        2   -1    0    0  501    0  0.00000000000E+00  0.00000000000E+00 -0.22253428149E+04  0.22253428149E+04  0.25500000920E-02 0. -1.
    10030    2    1    2    0    0  0.00000000000E+00  0.00000000000E+00 -0.51119855066E+03  0.39394870792E+04  0.39061790139E+04 0.  0.
        3    1    3    3  502    0  0.50758698264E+03  0.70361773434E+02  0.16451366014E+04  0.17230988862E+04  0.10100000352E+00 0.  1.
       -3    1    3    3    0  502 -0.50758698264E+03 -0.70361773434E+02 -0.21563351520E+04  0.22163881930E+04  0.10100000352E+00 0. -1.
</event>
<event>
 5   0  0.3769985E-08  0.3864952E+04  0.7818609E-02  0.8032358E-01
        2   -1    0    0  501    0  0.00000000000E+00  0.00000000000E+00  0.22131831165E+04  0.22131831165E+04  0.25500000920E-02 0. -1.
       -2   -1    0    0    0  501  0.00000000000E+00  0.00000000000E+00 -0.16873722898E+04  0.16873722898E+04  0.25500000920E-02 0.  1.
    10030    2    1    2    0    0  0.00000000000E+00  0.00000000000E+00  0.52581082677E+03  0.39005554063E+04  0.38649521927E+04 0.  0.
        1    1    3    3  502    0 -0.27841871860E+03  0.28483889057E+03  0.21713069877E+04  0.22075380430E+04  0.50400001928E-02 0. -1.
       -1    1    3    3    0  502  0.27841871860E+03 -0.28483889057E+03 -0.16454961610E+04  0.16930173632E+04  0.50400001928E-02 0.  1.
</event>
<event>
 5   0  0.3724293E-08  0.3896317E+04  0.7818609E-02  0.8025796E-01
        2   -1    0    0  501    0  0.00000000000E+00  0.00000000000E+00  0.16434466725E+04  0.16434466725E+04  0.25500000920E-02 0.  1.
       -2   -1    0    0    0  501  0.00000000000E+00  0.00000000000E+00 -0.23093675365E+04  0.23093675365E+04  0.25500000920E-02 0. -1.
    10030    2    1    2    0    0  0.00000000000E+00  0.00000000000E+00 -0.66592086399E+03  0.39528142090E+04  0.38963174375E+04 0.  0.
        4    1    3    3  502    0  0.12022316271E+04  0.12062230028E+04 -0.12927149867E+04  0.21380945880E+04  0.12699999809E+01 0. -1.
       -4    1    3    3    0  502 -0.12022316271E+04 -0.12062230028E+04  0.62679412269E+03  0.18147196210E+04  0.12699999809E+01 0.  1.
</event>
<event>
 5   0  0.1164500E-08  0.3872979E+04  0.7818609E-02  0.8030673E-01
        1   -1    0    0  501    0  0.00000000000E+00  0.00000000000E+00  0.11782537645E+04  0.11782537645E+04  0.50400001928E-02 0.  1.
       -1   -1    0    0    0  501  0.00000000000E+00  0.00000000000E+00 -0.31826682217E+04  0.31826682217E+04  0.50400001928E-02 0. -1.
    10030    2    1    2    0    0  0.00000000000E+00  0.00000000000E+00 -0.20044144573E+04  0.43609219862E+04  0.38729786022E+04 0.  0.
        2    1    3    3  502    0  0.11619660754E+04 -0.13093361954E+04 -0.19344427907E+04  0.26089452549E+04  0.25500000920E-02 0. -1.
       -2    1    3    3    0  502 -0.11619660754E+04  0.13093361954E+04 -0.69971666593E+02  0.17519767313E+04  0.25500000920E-02 0.  1.
</event>
<event>
 5   0  0.3669347E-08  0.3897858E+04  0.7818609E-02  0.8025475E-01
        2   -1    0    0  501    0  0.00000000000E+00  0.00000000000E+00  0.26789471522E+04  0.26789471522E+04  0.25500000920E-02 0.  1.
       -2   -1    0    0    0  501  0.00000000000E+00  0.00000000000E+00 -0.14178419630E+04  0.14178419630E+04  0.25500000920E-02 0. -1.
    10030    2    1    2    0    0  0.00000000000E+00  0.00000000000E+00  0.12611051892E+04  0.40967891151E+04  0.38978577136E+04 0.  0.
        5    1    3    3  502    0  0.29884550729E+03  0.12169921609E+04 -0.93824790808E+03  0.15654743000E+04  0.46999998093E+01 0. -1.
       -5    1    3    3    0  502 -0.29884550729E+03 -0.12169921609E+04  0.21993530973E+04  0.25313148152E+04  0.46999998093E+01 0.  1.
</event>
<event>
 5   0  0.1164500E-08  0.3896080E+04  0.7818609E-02  0.8025845E-01
        1   -1    0    0  501    0  0.00000000000E+00  0.00000000000E+00  0.24128275403E+04  0.24128275403E+04  0.50400001928E-02 0. -1.
       -1   -1    0    0    0  501  0.00000000000E+00  0.00000000000E+00 -0.15727851463E+04  0.15727851463E+04  0.50400001928E-02 0.  1.
    10030    2    1    2    0    0  0.00000000000E+00  0.00000000000E+00  0.84004239405E+03  0.39856126866E+04  0.38960797302E+04 0.  0.
        4    1    3    3  502    0  0.82453241280E+03 -0.10650655970E+04 -0.10196719930E+04  0.16893640851E+04  0.12699999809E+01 0.  1.
       -4    1    3    3    0  502 -0.82453241280E+03  0.10650655970E+04  0.18597143871E+04  0.22962486015E+04  0.12699999809E+01 0. -1.
</event>
<event>
 5   0  0.3769985E-08  0.3902164E+04  0.7818609E-02  0.8024579E-01
        2   -1    0    0  501    0  0.00000000000E+00  0.00000000000E+00  0.25140515896E+04  0.25140515896E+04  0.25500000920E-02 0. -1.
       -2   -1    0    0    0  501  0.00000000000E+00  0.00000000000E+00 -0.15141775362E+04  0.15141775362E+04  0.25500000920E-02 0.  1.
    10030    2    1    2    0    0  0.00000000000E+00  0.00000000000E+00  0.99987405337E+03  0.40282291258E+04  0.39021637289E+04 0.  0.
        1    1    3    3  502    0 -0.98648551636E+03  0.33292550195E+03 -0.12034398863E+04  0.15913078344E+04  0.50400001928E-02 0.  1.
       -1    1    3    3    0  502  0.98648551636E+03 -0.33292550195E+03  0.22033139396E+04  0.24369212914E+04  0.50400001928E-02 0. -1.
</event>
<event>
 5   0  0.3669347E-08  0.3901020E+04  0.7818609E-02  0.8024817E-01
        2   -1    0    0  501    0  0.00000000000E+00  0.00000000000E+00  0.33911399381E+04  0.33911399381E+04  0.25500000920E-02 0. -1.
       -2   -1    0    0    0  501  0.00000000000E+00  0.00000000000E+00 -0.11218911999E+04  0.11218911999E+04  0.25500000920E-02 0.  1.
    10030    2    1    2    0    0  0.00000000000E+00  0.00000000000E+00  0.22692487383E+04  0.45130311380E+04  0.39010204071E+04 0.  0.
        5    1    3    3  502    0  0.63804687459E+03  0.18413534512E+04  0.10393542401E+04  0.22086117071E+04  0.46999998093E+01 0. -1.
       -5    1    3    3    0  502 -0.63804687459E+03 -0.18413534512E+04  0.12298944982E+04  0.23044194309E+04  0.46999998093E+01 0.  1.
</event>
<event>
 5   0  0.3872969E-08  0.3901512E+04  0.7818609E-02  0.8024715E-01
        2   -1    0    0  501    0  0.00000000000E+00  0.00000000000E+00  0.20078647265E+04  0.20078647265E+04  0.25500000920E-02 0. -1.
       -2   -1    0    0    0  501  0.00000000000E+00  0.00000000000E+00 -0.18952714415E+04  0.18952714415E+04  0.25500000920E-02 0.  1.
    10030    2    1    2    0    0  0.00000000000E+00  0.00000000000E+00  0.11259328501E+03  0.39031361680E+04  0.39015118478E+04 0.  0.
        2    1    3    3  502    0  0.34480695724E+03  0.17397839830E+04  0.86885922962E+03  0.19750079762E+04  0.25500000920E-02 0. -1.
       -2    1    3    3    0  502 -0.34480695724E+03 -0.17397839830E+04 -0.75626594461E+03  0.19281281918E+04  0.25500000920E-02 0.  1.
</event>
<event>
 5   0  0.1164500E-08  0.3898254E+04  0.7818609E-02  0.8025392E-01
        1   -1    0    0  501    0  0.00000000000E+00  0.00000000000E+00  0.24157282679E+04  0.24157282679E+04  0.50400001928E-02 0. -1.
       -1   -1    0    0    0  501  0.00000000000E+00  0.00000000000E+00 -0.15726505690E+04  0.15726505690E+04  0.50400001928E-02 0.  1.
    10030    2    1    2    0    0  0.00000000000E+00  0.00000000000E+00  0.84307769889E+03  0.39883788369E+04  0.38982541914E+04 0.  0.
        3    1    3    3  502    0  0.89535094568E+02  0.11481176339E+04  0.20304424899E+04  0.23342851903E+04  0.10100000352E+00 0. -1.
       -3    1    3    3    0  502 -0.89535094568E+02 -0.11481176339E+04 -0.11873647911E+04  0.16540936466E+04  0.10100000352E+00 0.  1.
</event>
<event>
 5   0  0.1164500E-08  0.3983367E+04  0.7818609E-02  0.8007910E-01
       -1   -1    0    0    0  501  0.00000000000E+00  0.00000000000E+00  0.14910050844E+04  0.14910050844E+04  0.50400001928E-02 0.  1.
        1   -1    0    0  501    0  0.00000000000E+00  0.00000000000E+00 -0.26604890921E+04  0.26604890921E+04  0.50400001928E-02 0. -1.
    10030    2    1    2    0    0  0.00000000000E+00  0.00000000000E+00 -0.11694840077E+04  0.41514941764E+04  0.39833667987E+04 0.  0.
        4    1    3    3  502    0 -0.75416716337E+03 -0.12919887309E+03 -0.25011968854E+04  0.26156161667E+04  0.12699999809E+01 0. -1.
       -4    1    3    3    0  502  0.75416716337E+03  0.12919887309E+03  0.13317128777E+04  0.15358780097E+04  0.12699999809E+01 0.  1.
</event>
<event>
 5   0  0.3872969E-08  0.3902283E+04  0.7818609E-02  0.8024554E-01
        2   -1    0    0  501    0  0.00000000000E+00  0.00000000000E+00  0.21604336151E+04  0.21604336151E+04  0.25500000920E-02 0.  1.
       -2   -1    0    0    0  501  0.00000000000E+00  0.00000000000E+00 -0.17621248858E+04  0.17621248858E+04  0.25500000920E-02 0. -1.
    10030    2    1    2    0    0  0.00000000000E+00  0.00000000000E+00  0.39830872928E+03  0.39225585010E+04  0.39022833508E+04 0.  0.
        2    1    3    3  502    0 -0.12679445037E+04  0.61703227762E+03 -0.11563854102E+04  0.18236335468E+04  0.25500000920E-02 0. -1.
       -2    1    3    3    0  502  0.12679445037E+04 -0.61703227762E+03  0.15546941395E+04  0.20989249542E+04  0.25500000920E-02 0.  1.
</event>
<event>
 5   0  0.3669347E-08  0.3898356E+04  0.7818609E-02  0.8025371E-01
        2   -1    0    0  501    0  0.00000000000E+00  0.00000000000E+00  0.27353448571E+04  0.27353448571E+04  0.25500000920E-02 0.  1.
       -2   -1    0    0    0  501  0.00000000000E+00  0.00000000000E+00 -0.13889635933E+04  0.13889635933E+04  0.25500000920E-02 0. -1.
    10030    2    1    2    0    0  0.00000000000E+00  0.00000000000E+00  0.13463812638E+04  0.41243084504E+04  0.38983557671E+04 0.  0.
        5    1    3    3  502    0 -0.45893671897E+03 -0.14564396352E+04 -0.60839848074E+03  0.16437792201E+04  0.46999998093E+01 0. -1.
       -5    1    3    3    0  502  0.45893671897E+03  0.14564396352E+04  0.19547797445E+04  0.24805292304E+04  0.46999998093E+01 0.  1.
</event>
<event>
 5   0  0.1164500E-08  0.3906047E+04  0.7818609E-02  0.8023773E-01
       -1   -1    0    0    0  501  0.00000000000E+00  0.00000000000E+00  0.15189531706E+04  0.15189531706E+04  0.50400001928E-02 0.  1.
        1   -1    0    0  501    0  0.00000000000E+00  0.00000000000E+00 -0.25111382815E+04  0.25111382815E+04  0.50400001928E-02 0. -1.
    10030    2    1    2    0    0  0.00000000000E+00  0.00000000000E+00 -0.99218511089E+03  0.40300914521E+04  0.39060473395E+04 0.  0.
        1    1    3    3  502    0 -0.15444130725E+04 -0.11951925814E+04 -0.52145802736E+03  0.20212905579E+04  0.50400001928E-02 0.  1.
       -1    1    3    3    0  502  0.15444130725E+04  0.11951925814E+04 -0.47072708353E+03  0.20088008942E+04  0.50400001928E-02 0. -1.
</event>
<event>
 5   0  0.1164500E-08  0.3937178E+04  0.7818609E-02  0.8017341E-01
       -1   -1    0    0    0  501  0.00000000000E+00  0.00000000000E+00  0.25326768605E+04  0.25326768605E+04  0.50400001928E-02 0.  1.
        1   -1    0    0  501    0  0.00000000000E+00  0.00000000000E+00 -0.15301368956E+04  0.15301368956E+04  0.50400001928E-02 0. -1.
    10030    2    1    2    0    0  0.00000000000E+00  0.00000000000E+00  0.10025399649E+04  0.40628137561E+04  0.39371778263E+04 0.  0.
        2    1    3    3  502    0 -0.15588647568E+04  0.55555537404E+03  0.16014242346E+04  0.23028809528E+04  0.25500000920E-02 0.  1.
       -2    1    3    3    0  502  0.15588647568E+04 -0.55555537404E+03 -0.59888426970E+03  0.17599328033E+04  0.25500000920E-02 0. -1.
</event>
<event>
 5   0  0.3724293E-08  0.3954598E+04  0.7818609E-02  0.8013769E-01
        2   -1    0    0  501    0  0.00000000000E+00  0.00000000000E+00  0.13919241529E+04  0.13919241529E+04  0.25500000920E-02 0. -1.
       -2   -1    0    0    0  501  0.00000000000E+00  0.00000000000E+00 -0.28088539748E+04  0.28088539748E+04  0.25500000920E-02 0.  1.
    10030    2    1    2    0    0  0.00000000000E+00  0.00000000000E+00 -0.14169298218E+04  0.42007781277E+04  0.39545981791E+04 0.  0.
        4    1    3    3  502    0  0.44164325863E+03 -0.10621485288E+04 -0.24168421453E+04  0.26766276979E+04  0.12699999809E+01 0.  1.
       -4    1    3    3    0  502 -0.44164325863E+03  0.10621485288E+04  0.99991232343E+03  0.15241504298E+04  0.12699999809E+01 0. -1.
</event>
<event>
 5   0  0.3724293E-08  0.3796512E+04  0.7818609E-02  0.8046904E-01
        2   -1    0    0  501    0  0.00000000000E+00  0.00000000000E+00  0.18936586927E+04  0.18936586927E+04  0.25500000920E-02 0. -1.
       -2   -1    0    0    0  501  0.00000000000E+00  0.00000000000E+00 -0.19028645116E+04  0.19028645116E+04  0.25500000920E-02 0.  1.
    10030    2    1    2    0    0  0.00000000000E+00  0.00000000000E+00 -0.92058188399E+01  0.37965232043E+04  0.37965120431E+04 0.  0.
        4    1    3    3  502    0 -0.78574042039E+03 -0.25768497208E+03 -0.17132871762E+04  0.19024048240E+04  0.12699999809E+01 0.  1.
       -4    1    3    3    0  502  0.78574042039E+03  0.25768497208E+03  0.17040813574E+04  0.18941183803E+04  0.12699999809E+01 0. -1.
</event>
<event>
 5   0  0.3724293E-08  0.3898167E+04  0.7818609E-02  0.8025411E-01
        2   -1    0    0  501    0  0.00000000000E+00  0.00000000000E+00  0.18950426869E+04  0.18950426869E+04  0.25500000920E-02 0. -1.
       -2   -1    0    0    0  501  0.00000000000E+00  0.00000000000E+00 -0.20046654388E+04  0.20046654388E+04  0.25500000920E-02 0.  1.
    10030    2    1    2    0    0  0.00000000000E+00  0.00000000000E+00 -0.10962275184E+03  0.38997081257E+04  0.38981670459E+04 0.  0.
        4    1    3    3  502    0 -0.19124897368E+04 -0.31767164616E+03 -0.25587017835E+03  0.19555059266E+04  0.12699999809E+01 0.  1.
       -4    1    3    3    0  502  0.19124897368E+04  0.31767164616E+03  0.14624742651E+03  0.19442021990E+04  0.12699999809E+01 0. -1.
</event>
<event>
 5   0  0.3690572E-08  0.3899579E+04  0.7818609E-02  0.8025117E-01
        2   -1    0    0  501    0  0.00000000000E+00  0.00000000000E+00  0.27010482304E+04  0.27010482304E+04  0.25500000920E-02 0.  1.
       -2   -1    0    0    0  501  0.00000000000E+00  0.00000000000E+00 -0.14074825770E+04  0.14074825770E+04  0.25500000920E-02 0. -1.
    10030    2    1    2    0    0  0.00000000000E+00  0.00000000000E+00  0.12935656534E+04  0.41085308074E+04  0.38995786048E+04 0.  0.
        3    1    3    3  502    0 -0.39808092076E+03 -0.58511782869E+03 -0.12673918544E+04  0.14515899613E+04  0.10100000352E+00 0. -1.
       -3    1    3    3    0  502  0.39808092076E+03  0.58511782869E+03  0.25609575078E+04  0.26569408461E+04  0.10100000352E+00 0.  1.
</event>
<event>
 5   0  0.1164500E-08  0.3894031E+04  0.7818609E-02  0.8026272E-01
        1   -1    0    0  501    0  0.00000000000E+00  0.00000000000E+00  0.19068644376E+04  0.19068644376E+04  0.50400001928E-02 0. -1.
       -1   -1    0    0    0  501  0.00000000000E+00  0.00000000000E+00 -0.19880120025E+04  0.19880120025E+04  0.50400001928E-02 0.  1.
    10030    2    1    2    0    0  0.00000000000E+00  0.00000000000E+00 -0.81147564872E+02  0.38948764401E+04  0.38940310164E+04 0.  0.
        2    1    3    3  502    0  0.63767710822E+03  0.17439079352E+04  0.54523452255E+03  0.19352332328E+04  0.25500000920E-02 0. -1.
       -2    1    3    3    0  502 -0.63767710822E+03 -0.17439079352E+04 -0.62638208743E+03  0.19596432073E+04  0.25500000920E-02 0.  1.
</event>
<event>
 5   0  0.1164500E-08  0.3900472E+04  0.7818609E-02  0.8024931E-01
       -1   -1    0    0    0  501  0.00000000000E+00  0.00000000000E+00  0.17168635346E+04  0.17168635346E+04  0.50400001928E-02 0.  1.
        1   -1    0    0  501    0  0.00000000000E+00  0.00000000000E+00 -0.22153309651E+04  0.22153309651E+04  0.50400001928E-02 0. -1.
    10030    2    1    2    0    0  0.00000000000E+00  0.00000000000E+00 -0.49846743049E+03  0.39321944997E+04  0.39004722540E+04 0.  0.
        1    1    3    3  502    0 -0.13355866594E+04  0.23256189003E+03 -0.16626145725E+04  0.21452654788E+04  0.50400001928E-02 0. -1.
       -1    1    3    3    0  502  0.13355866594E+04 -0.23256189003E+03  0.11641471420E+04  0.17869290210E+04  0.50400001928E-02 0.  1.
</event>
<event>
 5   0  0.3769985E-08  0.3896303E+04  0.7818609E-02  0.8025799E-01
        2   -1    0    0  501    0  0.00000000000E+00  0.00000000000E+00  0.23815989385E+04  0.23815989385E+04  0.25500000920E-02 0.  1.
       -2   -1    0    0    0  501  0.00000000000E+00  0.00000000000E+00 -0.15935907084E+04  0.15935907084E+04  0.25500000920E-02 0. -1.
    10030    2    1    2    0    0  0.00000000000E+00  0.00000000000E+00  0.78800823010E+03  0.39751896469E+04  0.38963028320E+04 0.  0.
        1    1    3    3  502    0 -0.21783253831E+03 -0.14631693648E+04  0.16873365205E+04  0.22439741840E+04  0.50400001928E-02 0.  1.
       -1    1    3    3    0  502  0.21783253831E+03  0.14631693648E+04 -0.89932829045E+03  0.17312154629E+04  0.50400001928E-02 0. -1.
</event>
<event>
 5   0  0.3669347E-08  0.3895849E+04  0.7818609E-02  0.8025893E-01
       -2   -1    0    0    0  501  0.00000000000E+00  0.00000000000E+00  0.21692469440E+04  0.21692469440E+04  0.25500000920E-02 0. -1.
        2   -1    0    0  501    0  0.00000000000E+00  0.00000000000E+00 -0.17491826549E+04  0.17491826549E+04  0.25500000920E-02 0.  1.
    10030    2    1    2    0    0  0.00000000000E+00  0.00000000000E+00  0.42006428904E+03  0.39184295989E+04  0.38958486258E+04 0.  0.
        5    1    3    3  502    0  0.49065309067E+03  0.11897722813E+04 -0.12606635244E+04  0.18015529824E+04  0.46999998093E+01 0.  1.
       -5    1    3    3    0  502 -0.49065309067E+03 -0.11897722813E+04  0.16807278134E+04  0.21168766165E+04  0.46999998093E+01 0. -1.
</event>
<event>
 5   0  0.3724293E-08  0.3816342E+04  0.7818609E-02  0.8042657E-01
       -2   -1    0    0    0  501  0.00000000000E+00  0.00000000000E+00  0.15949593147E+04  0.15949593147E+04  0.25500000920E-02 0. -1.
        2   -1    0    0  501    0  0.00000000000E+00  0.00000000000E+00 -0.22828893779E+04  0.22828893779E+04  0.25500000920E-02 0.  1.
    10030    2    1    2    0    0  0.00000000000E+00  0.00000000000E+00 -0.68793006312E+03  0.38778486926E+04  0.38163415349E+04 0.  0.
        4    1    3    3  502    0  0.84396496925E+03  0.22642125309E+03 -0.20676449436E+04  0.22447050316E+04  0.12699999809E+01 0.  1.
       -4    1    3    3    0  502 -0.84396496925E+03 -0.22642125309E+03  0.13797148805E+04  0.16331436610E+04  0.12699999809E+01 0. -1.
</event>
<event>
 5   0  0.1164500E-08  0.3902717E+04  0.7818609E-02  0.8024464E-01
       -3   -1    0    0    0  501  0.00000000000E+00  0.00000000000E+00  0.18979274710E+04  0.18979274737E+04  0.10100000352E+00 0. -1.
        3   -1    0    0  501    0  0.00000000000E+00  0.00000000000E+00 -0.20062936262E+04  0.20062936287E+04  0.10100000352E+00 0.  1.
    10030    2    1    2    0    0  0.00000000000E+00  0.00000000000E+00 -0.10836615519E+03  0.39042211024E+04  0.39027168989E+04 0.  0.
        3    1    3    3  502    0  0.11893038765E+04 -0.14359039321E+04  0.52183045400E+03  0.19361226319E+04  0.10100000352E+00 0.  1.
       -3    1    3    3    0  502 -0.11893038765E+04  0.14359039321E+04 -0.63019660919E+03  0.19680984705E+04  0.10100000352E+00 0. -1.
</event>
<event>
 5   0  0.1164500E-08  0.3900218E+04  0.7818609E-02  0.8024984E-01
        1   -1    0    0  501    0  0.00000000000E+00  0.00000000000E+00  0.24253335820E+04  0.24253335820E+04  0.50400001928E-02 0. -1.
       -1   -1    0    0    0  501  0.00000000000E+00  0.00000000000E+00 -0.15680008191E+04  0.15680008191E+04  0.50400001928E-02 0.  1.
    10030    2    1    2    0    0  0.00000000000E+00  0.00000000000E+00  0.85733276295E+03  0.39933344011E+04  0.39002179647E+04 0.  0.
        3    1    3    3  502    0 -0.10146120901E+04 -0.40121081977E+03 -0.12262512454E+04  0.16413713603E+04  0.10100000352E+00 0.  1.
       -3    1    3    3    0  502  0.10146120901E+04  0.40121081977E+03  0.20835840084E+04  0.23519630408E+04  0.10100000352E+00 0. -1.
</event>
<event>
 5   0  0.1164500E-08  0.3893321E+04  0.7818609E-02  0.8026420E-01
        1   -1    0    0  501    0  0.00000000000E+00  0.00000000000E+00  0.19693012186E+04  0.19693012186E+04  0.50400001928E-02 0. -1.
       -1   -1    0    0    0  501  0.00000000000E+00  0.00000000000E+00 -0.19242805198E+04  0.19242805198E+04  0.50400001928E-02 0.  1.
    10030    2    1    2    0    0  0.00000000000E+00  0.00000000000E+00  0.45020698789E+02  0.38935817384E+04  0.38933214470E+04 0.  0.
        2    1    3    3  502    0  0.15228515591E+04  0.73192670208E+03 -0.94435023416E+03  0.19356112556E+04  0.25500000920E-02 0.  1.
       -2    1    3    3    0  502 -0.15228515591E+04 -0.73192670208E+03  0.98937093295E+03  0.19579704827E+04  0.25500000920E-02 0. -1.
</event>
<event>
 5   0  0.1164500E-08  0.3901089E+04  0.7818609E-02  0.8024803E-01
       -1   -1    0    0    0  501  0.00000000000E+00  0.00000000000E+00  0.18379573461E+04  0.18379573461E+04  0.50400001928E-02 0.  1.
        1   -1    0    0  501    0  0.00000000000E+00  0.00000000000E+00 -0.20700286278E+04  0.20700286278E+04  0.50400001928E-02 0. -1.
    10030    2    1    2    0    0  0.00000000000E+00  0.00000000000E+00 -0.23207128177E+03  0.39079859739E+04  0.39010892444E+04 0.  0.
        2    1    3    3  502    0  0.32438125720E+03 -0.17729935869E+04 -0.86293732956E+03  0.19983468903E+04  0.25500000920E-02 0. -1.
       -2    1    3    3    0  502 -0.32438125720E+03  0.17729935869E+04  0.63086604779E+03  0.19096390836E+04  0.25500000920E-02 0.  1.
</event>
<event>
 5   0  0.1164500E-08  0.3920840E+04  0.7818609E-02  0.8020709E-01
        1   -1    0    0  501    0  0.00000000000E+00  0.00000000000E+00  0.21632041300E+04  0.21632041300E+04  0.50400001928E-02 0.  1.
       -1   -1    0    0    0  501  0.00000000000E+00  0.00000000000E+00 -0.17766455652E+04  0.17766455653E+04  0.50400001928E-02 0. -1.
    10030    2    1    2    0    0  0.00000000000E+00  0.00000000000E+00  0.38655856480E+03  0.39398496953E+04  0.39208402285E+04 0.  0.
        5    1    3    3  502    0 -0.18594206293E+04 -0.60323297165E+03  0.44609810058E+02  0.19553381344E+04  0.46999998093E+01 0. -1.
       -5    1    3    3    0  502  0.18594206293E+04  0.60323297165E+03  0.34194875474E+03  0.19845115609E+04  0.46999998093E+01 0.  1.
</event>
<event>
 5   0  0.3769985E-08  0.3895183E+04  0.7818609E-02  0.8026032E-01
        2   -1    0    0  501    0  0.00000000000E+00  0.00000000000E+00  0.29157509919E+04  0.29157509919E+04  0.25500000920E-02 0. -1.
       -2   -1    0    0    0  501  0.00000000000E+00  0.00000000000E+00 -0.13009043626E+04  0.13009043626E+04  0.25500000920E-02 0.  1.
    10030    2    1    2    0    0  0.00000000000E+00  0.00000000000E+00  0.16148466293E+04  0.42166553545E+04  0.38951832746E+04 0.  0.
        1    1    3    3  502    0 -0.51429820573E+03  0.18759155904E+04  0.70162711603E+03  0.20678110544E+04  0.50400001928E-02 0. -1.
       -1    1    3    3    0  502  0.51429820573E+03 -0.18759155904E+04  0.91321951326E+03  0.21488443001E+04  0.50400001928E-02 0.  1.
</event>
<event>
 5   0  0.1164500E-08  0.3896067E+04  0.7818609E-02  0.8025848E-01
       -1   -1    0    0    0  501  0.00000000000E+00  0.00000000000E+00  0.17198161908E+04  0.17198161908E+04  0.50400001928E-02 0. -1.
        1   -1    0    0  501    0  0.00000000000E+00  0.00000000000E+00 -0.22065349673E+04  0.22065349673E+04  0.50400001928E-02 0.  1.
    10030    2    1    2    0    0  0.00000000000E+00  0.00000000000E+00 -0.48671877656E+03  0.39263511581E+04  0.38960670232E+04 0.  0.
        4    1    3    3  502    0 -0.16434176553E+04  0.74869083243E+03 -0.97942936347E+03  0.20544203667E+04  0.12699999809E+01 0. -1.
       -4    1    3    3    0  502  0.16434176553E+04 -0.74869083243E+03  0.49271058691E+03  0.18719307914E+04  0.12699999809E+01 0.  1.
</event>
<event>
 5   0  0.1164500E-08  0.3896911E+04  0.7818609E-02  0.8025672E-01
       -1   -1    0    0    0  501  0.00000000000E+00  0.00000000000E+00  0.20968163720E+04  0.20968163720E+04  0.50400001928E-02 0. -1.
        1   -1    0    0  501    0  0.00000000000E+00  0.00000000000E+00 -0.18105921638E+04  0.18105921638E+04  0.50400001928E-02 0.  1.
    10030    2    1    2    0    0  0.00000000000E+00  0.00000000000E+00  0.28622420822E+03  0.39074085358E+04  0.38969112343E+04 0.  0.
        1    1    3    3  502    0 -0.17655887395E+04 -0.36978366715E+03 -0.59537421402E+03  0.18996089104E+04  0.50400001928E-02 0.  1.
       -1    1    3    3    0  502  0.17655887395E+04  0.36978366715E+03  0.88159842224E+03  0.20077996254E+04  0.50400001928E-02 0. -1.
</event>
<event>
 5   0  0.3724293E-08  0.3912557E+04  0.7818609E-02  0.8022423E-01
        2   -1    0    0  501    0  0.00000000000E+00  0.00000000000E+00  0.27047415625E+04  0.27047415625E+04  0.25500000920E-02 0. -1.
       -2   -1    0    0    0  501  0.00000000000E+00  0.00000000000E+00 -0.14149321680E+04  0.14149321680E+04  0.25500000920E-02 0.  1.
    10030    2    1    2    0    0  0.00000000000E+00  0.00000000000E+00  0.12898093945E+04  0.41196737306E+04  0.39125571398E+04 0.  0.
        4    1    3    3  502    0  0.54911507780E+03  0.12146116442E+04 -0.86274996949E+03  0.15878123119E+04  0.12699999809E+01 0.  1.
       -4    1    3    3    0  502 -0.54911507780E+03 -0.12146116442E+04  0.21525593640E+04  0.25318614187E+04  0.12699999809E+01 0. -1.
</event>
<event>
 5   0  0.1164500E-08  0.3899670E+04  0.7818609E-02  0.8025098E-01
       -1   -1    0    0    0  501  0.00000000000E+00  0.00000000000E+00  0.28034117863E+04  0.28034117863E+04  0.50400001928E-02 0.  1.
        1   -1    0    0  501    0  0.00000000000E+00  0.00000000000E+00 -0.13561531471E+04  0.13561531471E+04  0.50400001928E-02 0. -1.
    10030    2    1    2    0    0  0.00000000000E+00  0.00000000000E+00  0.14472586393E+04  0.41595649334E+04  0.38996695843E+04 0.  0.
        5    1    3    3  502    0 -0.54690186138E+03  0.13736713729E+04  0.20794691278E+04  0.25515267254E+04  0.46999998093E+01 0.  1.
       -5    1    3    3    0  502  0.54690186138E+03 -0.13736713729E+04 -0.63221048854E+03  0.16080382081E+04  0.46999998093E+01 0. -1.
</event>
<event>
 5   0  0.1164500E-08  0.3900224E+04  0.7818609E-02  0.8024983E-01
       -1   -1    0    0    0  501  0.00000000000E+00  0.00000000000E+00  0.31083890134E+04  0.31083890134E+04  0.50400001928E-02 0. -1.
        1   -1    0    0  501    0  0.00000000000E+00  0.00000000000E+00 -0.12234427085E+04  0.12234427086E+04  0.50400001928E-02 0.  1.
    10030    2    1    2    0    0  0.00000000000E+00  0.00000000000E+00  0.18849463049E+04  0.43318317220E+04  0.39002235186E+04 0.  0.
        4    1    3    3  502    0  0.11581678185E+04 -0.11596794343E+03  0.26802723192E+04  0.29220990020E+04  0.12699999809E+01 0. -1.
       -4    1    3    3    0  502 -0.11581678185E+04  0.11596794343E+03 -0.79532601431E+03  0.14097327200E+04  0.12699999809E+01 0.  1.
</event>
<event>
 5   0  0.3769985E-08  0.3952167E+04  0.7818609E-02  0.8014266E-01
        2   -1    0    0  501    0  0.00000000000E+00  0.00000000000E+00  0.24656386389E+04  0.24656386389E+04  0.25500000920E-02 0. -1.
       -2   -1    0    0    0  501  0.00000000000E+00  0.00000000000E+00 -0.15837302345E+04  0.15837302345E+04  0.25500000920E-02 0.  1.
    10030    2    1    2    0    0  0.00000000000E+00  0.00000000000E+00  0.88190840438E+03  0.40493688734E+04  0.39521672332E+04 0.  0.
        1    1    3    3  502    0  0.10081022139E+04 -0.16411378906E+04  0.89375405096E+03  0.21232993084E+04  0.50400001928E-02 0. -1.
       -1    1    3    3    0  502 -0.10081022139E+04  0.16411378906E+04 -0.11845646581E+02  0.19260695649E+04  0.50400001928E-02 0.  1.
</event>
<event>
 5   0  0.1164500E-08  0.3899962E+04  0.7818609E-02  0.8025037E-01
       -1   -1    0    0    0  501  0.00000000000E+00  0.00000000000E+00  0.15485767928E+04  0.15485767928E+04  0.50400001928E-02 0. -1.
        1   -1    0    0  501    0  0.00000000000E+00  0.00000000000E+00 -0.24554331212E+04  0.24554331212E+04  0.50400001928E-02 0.  1.
    10030    2    1    2    0    0  0.00000000000E+00  0.00000000000E+00 -0.90685632840E+03  0.40040099141E+04  0.38999624347E+04 0.  0.
        4    1    3    3  502    0 -0.52896595563E+03  0.13445937967E+04 -0.17978242315E+04  0.23064932345E+04  0.12699999809E+01 0.  1.
       -4    1    3    3    0  502  0.52896595563E+03 -0.13445937967E+04  0.89096790305E+03  0.16975166796E+04  0.12699999809E+01 0. -1.
</event>
<event>
 5   0  0.3769985E-08  0.3894314E+04  0.7818609E-02  0.8026213E-01
       -2   -1    0    0    0  501  0.00000000000E+00  0.00000000000E+00  0.14399038895E+04  0.14399038895E+04  0.25500000920E-02 0. -1.
        2   -1    0    0  501    0  0.00000000000E+00  0.00000000000E+00 -0.26331067323E+04  0.26331067323E+04  0.25500000920E-02 0.  1.
    10030    2    1    2    0    0  0.00000000000E+00  0.00000000000E+00 -0.11932028428E+04  0.40730106219E+04  0.38943141247E+04 0.  0.
        1    1    3    3  502    0 -0.65742219362E+03  0.17850315828E+04 -0.16173527492E+03  0.19091097379E+04  0.50400001928E-02 0.  1.
       -1    1    3    3    0  502  0.65742219362E+03 -0.17850315828E+04 -0.10314675679E+04  0.21639008840E+04  0.50400001928E-02 0. -1.
</event>
<event>
 5   0  0.3690572E-08  0.3848081E+04  0.7818609E-02  0.8035915E-01
        2   -1    0    0  501    0  0.00000000000E+00  0.00000000000E+00  0.19087148233E+04  0.19087148233E+04  0.25500000920E-02 0.  1.
       -2   -1    0    0    0  501  0.00000000000E+00  0.00000000000E+00 -0.19394896464E+04  0.19394896465E+04  0.25500000920E-02 0. -1.
    10030    2    1    2    0    0  0.00000000000E+00  0.00000000000E+00 -0.30774823128E+02  0.38482044698E+04  0.38480814117E+04 0.  0.
        3    1    3    3  502    0 -0.10041848074E+04  0.12383851657E+03  0.16211885317E+04  0.19110142258E+04  0.10100000352E+00 0.  1.
       -3    1    3    3    0  502  0.10041848074E+04 -0.12383851657E+03 -0.16519633548E+04  0.19371902440E+04  0.10100000352E+00 0. -1.
</event>
<event>
 5   0  0.3690572E-08  0.3886112E+04  0.7818609E-02  0.8027924E-01
        2   -1    0    0  501    0  0.00000000000E+00  0.00000000000E+00  0.19165900675E+04  0.19165900675E+04  0.25500000920E-02 0.  1.
       -2   -1    0    0    0  501  0.00000000000E+00  0.00000000000E+00 -0.19698874574E+04  0.19698874574E+04  0.25500000920E-02 0. -1.
    10030    2    1    2    0    0  0.00000000000E+00  0.00000000000E+00 -0.53297389909E+02  0.38864775249E+04  0.38861120596E+04 0.  0.
        3    1    3    3  502    0 -0.94781119362E+03 -0.19495430498E+03  0.16584766751E+04  0.19201297175E+04  0.10100000352E+00 0.  1.
       -3    1    3    3    0  502  0.94781119362E+03  0.19495430498E+03 -0.17117740650E+04  0.19663478074E+04  0.10100000352E+00 0. -1.
</event>
<event>
 5   0  0.1164500E-08  0.4011881E+04  0.7818609E-02  0.8002154E-01
        1   -1    0    0  501    0  0.00000000000E+00  0.00000000000E+00  0.27153311602E+04  0.27153311602E+04  0.50400001928E-02 0.  1.
       -1   -1    0    0    0  501  0.00000000000E+00  0.00000000000E+00 -0.14818805515E+04  0.14818805515E+04  0.50400001928E-02 0. -1.
    10030    2    1    2    0    0  0.00000000000E+00  0.00000000000E+00  0.12334506087E+04  0.41972117117E+04  0.40118805751E+04 0.  0.
        1    1    3    3  502    0  0.90251221105E+03 -0.13004155376E+04 -0.67234200826E+03  0.17197827298E+04  0.50400001928E-02 0. -1.
       -1    1    3    3    0  502 -0.90251221105E+03  0.13004155376E+04  0.19057926170E+04  0.24774289819E+04  0.50400001928E-02 0.  1.
</event>
<event>
 5   0  0.1164500E-08  0.3904944E+04  0.7818609E-02  0.8024002E-01
        1   -1    0    0  501    0  0.00000000000E+00  0.00000000000E+00  0.15473493089E+04  0.15473493089E+04  0.50400001928E-02 0.  1.
       -1   -1    0    0    0  501  0.00000000000E+00  0.00000000000E+00 -0.24636622723E+04  0.24636622723E+04  0.50400001928E-02 0. -1.
    10030    2    1    2    0    0  0.00000000000E+00  0.00000000000E+00 -0.91631296334E+03  0.40110115812E+04  0.39049435921E+04 0.  0.
        5    1    3    3  502    0  0.57129204641E+03  0.94950187549E+03  0.11930517439E+04  0.16282883551E+04  0.46999998093E+01 0.  1.
       -5    1    3    3    0  502 -0.57129204641E+03 -0.94950187549E+03 -0.21093647072E+04  0.23827232261E+04  0.46999998093E+01 0. -1.
</event>
<event>
 5   0  0.3690572E-08  0.3908051E+04  0.7818609E-02  0.8023357E-01
       -2   -1    0    0    0  501  0.00000000000E+00  0.00000000000E+00  0.16925009001E+04  0.16925009001E+04  0.25500000920E-02 0.  1.
        2   -1    0    0  501    0  0.00000000000E+00  0.00000000000E+00 -0.22559607077E+04  0.22559607077E+04  0.25500000920E-02 0. -1.
    10030    2    1    2    0    0  0.00000000000E+00  0.00000000000E+00 -0.56345980761E+03  0.39484616078E+04  0.39080509354E+04 0.  0.
        3    1    3    3  502    0  0.59949502950E+03  0.11975190363E+04  0.11559277705E+04  0.17690718339E+04  0.10100000352E+00 0.  1.
       -3    1    3    3    0  502 -0.59949502950E+03 -0.11975190363E+04 -0.17193875781E+04  0.21793897739E+04  0.10100000352E+00 0. -1.
</event>
<event>
 5   0  0.1164500E-08  0.3883437E+04  0.7818609E-02  0.8028483E-01
        1   -1    0    0  501    0  0.00000000000E+00  0.00000000000E+00  0.12828223634E+04  0.12828223634E+04  0.50400001928E-02 0. -1.
       -1   -1    0    0    0  501  0.00000000000E+00  0.00000000000E+00 -0.29390430563E+04  0.29390430563E+04  0.50400001928E-02 0.  1.
    10030    2    1    2    0    0  0.00000000000E+00  0.00000000000E+00 -0.16562206929E+04  0.42218654197E+04  0.38834367046E+04 0.  0.
        5    1    3    3  502    0  0.22453275049E+03  0.13124718869E+04 -0.23645108498E+04  0.27136564002E+04  0.46999998093E+01 0.  1.
       -5    1    3    3    0  502 -0.22453275049E+03 -0.13124718869E+04  0.70829015687E+03  0.15082090194E+04  0.46999998093E+01 0. -1.
</event>
<event>
 5   0  0.3872969E-08  0.3915715E+04  0.7818609E-02  0.8021769E-01
       -2   -1    0    0    0  501  0.00000000000E+00  0.00000000000E+00  0.16514291776E+04  0.16514291776E+04  0.25500000920E-02 0. -1.
        2   -1    0    0  501    0  0.00000000000E+00  0.00000000000E+00 -0.23211444308E+04  0.23211444308E+04  0.25500000920E-02 0.  1.
    10030    2    1    2    0    0  0.00000000000E+00  0.00000000000E+00 -0.66971525311E+03  0.39725736084E+04  0.39157148203E+04 0.  0.
        2    1    3    3  502    0 -0.15280472615E+04 -0.45806895402E+02 -0.15758030049E+04  0.21954912470E+04  0.25500000920E-02 0.  1.
       -2    1    3    3    0  502  0.15280472615E+04  0.45806895402E+02  0.90608775184E+03  0.17770823614E+04  0.25500000920E-02 0. -1.
</event>
<event>
 5   0  0.1164500E-08  0.3894327E+04  0.7818609E-02  0.8026210E-01
        1   -1    0    0  501    0  0.00000000000E+00  0.00000000000E+00  0.29065875633E+04  0.29065875633E+04  0.50400001928E-02 0.  1.
       -1   -1    0    0    0  501  0.00000000000E+00  0.00000000000E+00 -0.13044322297E+04  0.13044322297E+04  0.50400001928E-02 0. -1.
    10030    2    1    2    0    0  0.00000000000E+00  0.00000000000E+00  0.16021553336E+04  0.42110197930E+04  0.38943274110E+04 0.  0.
        3    1    3    3  502    0 -0.18291720883E+03 -0.74300395803E+02 -0.12935810600E+04  0.13085607449E+04  0.10100000352E+00 0. -1.
       -3    1    3    3    0  502  0.18291720883E+03  0.74300395803E+02  0.28957363936E+04  0.29024590481E+04  0.10100000352E+00 0.  1.
</event>
<event>
 5   0  0.1164500E-08  0.3898398E+04  0.7818609E-02  0.8025362E-01
        1   -1    0    0  501    0  0.00000000000E+00  0.00000000000E+00  0.17982324831E+04  0.17982324831E+04  0.50400001928E-02 0. -1.
       -1   -1    0    0    0  501  0.00000000000E+00  0.00000000000E+00 -0.21128394890E+04  0.21128394890E+04  0.50400001928E-02 0.  1.
    10030    2    1    2    0    0  0.00000000000E+00  0.00000000000E+00 -0.31460700585E+03  0.39110719721E+04  0.38983979277E+04 0.  0.
        3    1    3    3  502    0  0.51589457052E+03 -0.90926936023E+02  0.17262885099E+04  0.18040196632E+04  0.10100000352E+00 0. -1.
       -3    1    3    3    0  502 -0.51589457052E+03  0.90926936023E+02 -0.20408955158E+04  0.21070523088E+04  0.10100000352E+00 0.  1.
</event>
<event>
 5   0  0.1164500E-08  0.3899805E+04  0.7818609E-02  0.8025070E-01
        1   -1    0    0  501    0  0.00000000000E+00  0.00000000000E+00  0.22282488047E+04  0.22282488047E+04  0.50400001928E-02 0.  1.
       -1   -1    0    0    0  501  0.00000000000E+00  0.00000000000E+00 -0.17063260451E+04  0.17063260451E+04  0.50400001928E-02 0. -1.
    10030    2    1    2    0    0  0.00000000000E+00  0.00000000000E+00  0.52192275961E+03  0.39345748499E+04  0.38998045954E+04 0.  0.
        4    1    3    3  502    0 -0.28051769477E+03 -0.12005266340E+04  0.17851134249E+04  0.21694667383E+04  0.12699999809E+01 0.  1.
       -4    1    3    3    0  502  0.28051769477E+03  0.12005266340E+04 -0.12631906652E+04  0.17651081116E+04  0.12699999809E+01 0. -1.
</event>
<event>
 5   0  0.3724293E-08  0.3903490E+04  0.7818609E-02  0.8024304E-01
        2   -1    0    0  501    0  0.00000000000E+00  0.00000000000E+00  0.23656369441E+04  0.23656369441E+04  0.25500000920E-02 0.  1.
       -2   -1    0    0    0  501  0.00000000000E+00  0.00000000000E+00 -0.16102677983E+04  0.16102677983E+04  0.25500000920E-02 0. -1.
    10030    2    1    2    0    0  0.00000000000E+00  0.00000000000E+00  0.75536914584E+03  0.39759047424E+04  0.39034902298E+04 0.  0.
        4    1    3    3  502    0  0.14283978846E+04 -0.11918699751E+04 -0.22354786794E+03  0.18737261850E+04  0.12699999809E+01 0. -1.
       -4    1    3    3    0  502 -0.14283978846E+04  0.11918699751E+04  0.97891701377E+03  0.21021785574E+04  0.12699999809E+01 0.  1.
</event>
<event>
 5   0  0.1164500E-08  0.3898313E+04  0.7818609E-02  0.8025380E-01
       -1   -1    0    0    0  501  0.00000000000E+00  0.00000000000E+00  0.18333210367E+04  0.18333210367E+04  0.50400001928E-02 0.  1.
        1   -1    0    0  501    0  0.00000000000E+00  0.00000000000E+00 -0.20723112829E+04  0.20723112830E+04  0.50400001928E-02 0. -1.
    10030    2    1    2    0    0  0.00000000000E+00  0.00000000000E+00 -0.23899024626E+03  0.39056323196E+04  0.38983134146E+04 0.  0.
        5    1    3    3  502    0 -0.59886605236E+03  0.11857524670E+04  0.13095559613E+04  0.18653708392E+04  0.46999998093E+01 0.  1.
       -5    1    3    3    0  502  0.59886605236E+03 -0.11857524670E+04 -0.15485462076E+04  0.20402614805E+04  0.46999998093E+01 0. -1.
</event>
<event>
 5   0  0.1164500E-08  0.3906925E+04  0.7818609E-02  0.8023590E-01
        3   -1    0    0  501    0  0.00000000000E+00  0.00000000000E+00  0.17379612189E+04  0.17379612219E+04  0.10100000352E+00 0. -1.
       -3   -1    0    0    0  501  0.00000000000E+00  0.00000000000E+00 -0.21956851803E+04  0.21956851826E+04  0.10100000352E+00 0.  1.
    10030    2    1    2    0    0  0.00000000000E+00  0.00000000000E+00 -0.45772396137E+03  0.39336464045E+04  0.39069249814E+04 0.  0.
        4    1    3    3  502    0  0.14131430307E+04 -0.35360143254E+03  0.10815801064E+04  0.18143385400E+04  0.12699999809E+01 0. -1.
       -4    1    3    3    0  502 -0.14131430307E+04  0.35360143254E+03 -0.15393040678E+04  0.21193078644E+04  0.12699999809E+01 0.  1.
</event>
<event>
 5   0  0.1164500E-08  0.3892767E+04  0.7818609E-02  0.8026535E-01
       -1   -1    0    0    0  501  0.00000000000E+00  0.00000000000E+00  0.28005096455E+04  0.28005096455E+04  0.50400001928E-02 0. -1.
        1   -1    0    0  501    0  0.00000000000E+00  0.00000000000E+00 -0.13527569765E+04  0.13527569765E+04  0.50400001928E-02 0.  1.
    10030    2    1    2    0    0  0.00000000000E+00  0.00000000000E+00  0.14477526690E+04  0.41532666221E+04  0.38927671191E+04 0.  0.
        4    1    3    3  502    0 -0.22778826240E+03 -0.13391414512E+04 -0.76340243208E+03  0.15581951755E+04  0.12699999809E+01 0.  1.
       -4    1    3    3    0  502  0.22778826240E+03  0.13391414512E+04  0.22111551011E+04  0.25950714465E+04  0.12699999809E+01 0. -1.
</event>
<event>
 5   0  0.3872969E-08  0.3892860E+04  0.7818609E-02  0.8026516E-01
       -2   -1    0    0    0  501  0.00000000000E+00  0.00000000000E+00  0.22677058207E+04  0.22677058207E+04  0.25500000920E-02 0.  1.
        2   -1    0    0  501    0  0.00000000000E+00  0.00000000000E+00 -0.16706703568E+04  0.16706703568E+04  0.25500000920E-02 0. -1.
    10030    2    1    2    0    0  0.00000000000E+00  0.00000000000E+00  0.59703546396E+03  0.39383761775E+04  0.38928595621E+04 0.  0.
        2    1    3    3  502    0 -0.29031850729E+03 -0.75033836672E+03 -0.14945756890E+04  0.16973653084E+04  0.25500000920E-02 0. -1.
       -2    1    3    3    0  502  0.29031850729E+03  0.75033836672E+03  0.20916111529E+04  0.22410108691E+04  0.25500000920E-02 0.  1.
</event>
<event>
 5   0  0.3724293E-08  0.3897778E+04  0.7818609E-02  0.8025491E-01
        2   -1    0    0  501    0  0.00000000000E+00  0.00000000000E+00  0.23629569031E+04  0.23629569031E+04  0.25500000920E-02 0. -1.
       -2   -1    0    0    0  501  0.00000000000E+00  0.00000000000E+00 -0.16073794628E+04  0.16073794628E+04  0.25500000920E-02 0.  1.
    10030    2    1    2    0    0  0.00000000000E+00  0.00000000000E+00  0.75557744030E+03  0.39703363659E+04  0.38977780325E+04 0.  0.
        4    1    3    3  502    0  0.31356370976E+03 -0.24488876791E+03 -0.15655718086E+04  0.16153356956E+04  0.12699999809E+01 0.  1.
       -4    1    3    3    0  502 -0.31356370976E+03  0.24488876791E+03  0.23211492489E+04  0.23550006703E+04  0.12699999809E+01 0. -1.
</event>
<event>
 5   0  0.3724293E-08  0.3899231E+04  0.7818609E-02  0.8025189E-01
        2   -1    0    0  501    0  0.00000000000E+00  0.00000000000E+00  0.13177712795E+04  0.13177712795E+04  0.25500000920E-02 0. -1.
       -2   -1    0    0    0  501  0.00000000000E+00  0.00000000000E+00 -0.28844158614E+04  0.28844158615E+04  0.25500000920E-02 0.  1.
    10030    2    1    2    0    0  0.00000000000E+00  0.00000000000E+00 -0.15666445820E+04  0.42021871409E+04  0.38992308884E+04 0.  0.
        4    1    3    3  502    0  0.15167779734E+04  0.34853082349E+03  0.48218408244E+03  0.16292919498E+04  0.12699999809E+01 0.  1.
       -4    1    3    3    0  502 -0.15167779734E+04 -0.34853082349E+03 -0.20488286644E+04  0.25728951911E+04  0.12699999809E+01 0. -1.
</event>
<event>
 5   0  0.1164500E-08  0.3909321E+04  0.7818609E-02  0.8023093E-01
        1   -1    0    0  501    0  0.00000000000E+00  0.00000000000E+00  0.22393961305E+04  0.22393961305E+04  0.50400001928E-02 0. -1.
       -1   -1    0    0    0  501  0.00000000000E+00  0.00000000000E+00 -0.17061283046E+04  0.17061283046E+04  0.50400001928E-02 0.  1.
    10030    2    1    2    0    0  0.00000000000E+00  0.00000000000E+00  0.53326782591E+03  0.39455244351E+04  0.39093207202E+04 0.  0.
        4    1    3    3  502    0  0.58302065367E+03  0.99822948766E+03  0.18574033250E+04  0.21877668791E+04  0.12699999809E+01 0.  1.
       -4    1    3    3    0  502 -0.58302065367E+03 -0.99822948766E+03 -0.13241354991E+04  0.17577575560E+04  0.12699999809E+01 0. -1.
</event>
<event>
 5   0  0.3872969E-08  0.3894574E+04  0.7818609E-02  0.8026159E-01
        2   -1    0    0  501    0  0.00000000000E+00  0.00000000000E+00  0.23926947353E+04  0.23926947353E+04  0.25500000920E-02 0. -1.
       -2   -1    0    0    0  501  0.00000000000E+00  0.00000000000E+00 -0.15847935914E+04  0.15847935914E+04  0.25500000920E-02 0.  1.
    10030    2    1    2    0    0  0.00000000000E+00  0.00000000000E+00  0.80790114387E+03  0.39774883267E+04  0.38945743196E+04 0.  0.
        2    1    3    3  502    0 -0.93755839263E+03 -0.31617877250E+03 -0.13089389289E+04  0.16408247546E+04  0.25500000920E-02 0.  1.
       -2    1    3    3    0  502  0.93755839263E+03  0.31617877250E+03  0.21168400727E+04  0.23366635721E+04  0.25500000920E-02 0. -1.
</event>
<event>
 5   0  0.3724293E-08  0.3874713E+04  0.7818609E-02  0.8030309E-01
       -2   -1    0    0    0  501  0.00000000000E+00  0.00000000000E+00  0.20154607893E+04  0.20154607893E+04  0.25500000920E-02 0.  1.
        2   -1    0    0  501    0  0.00000000000E+00  0.00000000000E+00 -0.18622785740E+04  0.18622785740E+04  0.25500000920E-02 0. -1.
    10030    2    1    2    0    0  0.00000000000E+00  0.00000000000E+00  0.15318221533E+03  0.38777393632E+04  0.38747126059E+04 0.  0.
        4    1    3    3  502    0 -0.65200367886E+02 -0.60521906179E+03 -0.17640864031E+04  0.18661574562E+04  0.12699999809E+01 0. -1.
       -4    1    3    3    0  502  0.65200367886E+02  0.60521906179E+03  0.19172686184E+04  0.20115819071E+04  0.12699999809E+01 0.  1.
</event>
<event>
 5   0  0.3669347E-08  0.3901801E+04  0.7818609E-02  0.8024655E-01
       -2   -1    0    0    0  501  0.00000000000E+00  0.00000000000E+00  0.32459596479E+04  0.32459596479E+04  0.25500000920E-02 0. -1.
        2   -1    0    0  501    0  0.00000000000E+00  0.00000000000E+00 -0.11725387164E+04  0.11725387164E+04  0.25500000920E-02 0.  1.
    10030    2    1    2    0    0  0.00000000000E+00  0.00000000000E+00  0.20734209315E+04  0.44184983643E+04  0.39018013065E+04 0.  0.
        5    1    3    3  502    0  0.49663219714E+03 -0.16971310996E+04  0.10351113464E+03  0.17713368266E+04  0.46999998093E+01 0.  1.
       -5    1    3    3    0  502 -0.49663219714E+03  0.16971310996E+04  0.19699097969E+04  0.26471615376E+04  0.46999998093E+01 0. -1.
</event>
<event>
 5   0  0.1164500E-08  0.3893896E+04  0.7818609E-02  0.8026300E-01
        1   -1    0    0  501    0  0.00000000000E+00  0.00000000000E+00  0.27495024456E+04  0.27495024456E+04  0.50400001928E-02 0. -1.
       -1   -1    0    0    0  501  0.00000000000E+00  0.00000000000E+00 -0.13786514801E+04  0.13786514801E+04  0.50400001928E-02 0.  1.
    10030    2    1    2    0    0  0.00000000000E+00  0.00000000000E+00  0.13708509654E+04  0.41281539257E+04  0.38938955385E+04 0.  0.
        2    1    3    3  502    0  0.62234615097E+03 -0.17746182944E+04  0.15109958972E+03  0.18866414361E+04  0.25500000920E-02 0. -1.
       -2    1    3    3    0  502 -0.62234615097E+03  0.17746182944E+04  0.12197513757E+04  0.22415124896E+04  0.25500000920E-02 0.  1.
</event>
<event>
 5   0  0.3669347E-08  0.3898044E+04  0.7818609E-02  0.8025436E-01
        2   -1    0    0  501    0  0.00000000000E+00  0.00000000000E+00  0.17527830594E+04  0.17527830594E+04  0.25500000920E-02 0. -1.
       -2   -1    0    0    0  501  0.00000000000E+00  0.00000000000E+00 -0.21672316974E+04  0.21672316974E+04  0.25500000920E-02 0.  1.
    10030    2    1    2    0    0  0.00000000000E+00  0.00000000000E+00 -0.41444863794E+03  0.39200147568E+04  0.38980441275E+04 0.  0.
        5    1    3    3  502    0  0.12617291624E+04  0.36105915037E+03  0.12418486724E+04  0.18068022593E+04  0.46999998093E+01 0. -1.
       -5    1    3    3    0  502 -0.12617291624E+04 -0.36105915037E+03 -0.16562973103E+04  0.21132124975E+04  0.46999998093E+01 0.  1.
</event>
<event>
 5   0  0.1164500E-08  0.3800945E+04  0.7818609E-02  0.8045952E-01
       -1   -1    0    0    0  501  0.00000000000E+00  0.00000000000E+00  0.15825822699E+04  0.15825822699E+04  0.50400001928E-02 0.  1.
        1   -1    0    0  501    0  0.00000000000E+00  0.00000000000E+00 -0.22822166007E+04  0.22822166007E+04  0.50400001928E-02 0. -1.
    10030    2    1    2    0    0  0.00000000000E+00  0.00000000000E+00 -0.69963433084E+03  0.38647988706E+04  0.38009448974E+04 0.  0.
        2    1    3    3  502    0  0.12552902998E+04  0.25600616114E+03 -0.17771453253E+04  0.21907848818E+04  0.25500000920E-02 0. -1.
       -2    1    3    3    0  502 -0.12552902998E+04 -0.25600616114E+03  0.10775109944E+04  0.16740139887E+04  0.25500000920E-02 0.  1.
</event>
<event>
 5   0  0.3769985E-08  0.3904905E+04  0.7818609E-02  0.8024010E-01
       -2   -1    0    0    0  501  0.00000000000E+00  0.00000000000E+00  0.25082746022E+04  0.25082746022E+04  0.25500000920E-02 0. -1.
        2   -1    0    0  501    0  0.00000000000E+00  0.00000000000E+00 -0.15197982096E+04  0.15197982096E+04  0.25500000920E-02 0.  1.
    10030    2    1    2    0    0  0.00000000000E+00  0.00000000000E+00  0.98847639255E+03  0.40280728118E+04  0.39049052483E+04 0.  0.
        1    1    3    3  502    0 -0.62890197527E+03 -0.15439651363E+04 -0.55404639471E+03  0.17567906660E+04  0.50400001928E-02 0.  1.
       -1    1    3    3    0  502  0.62890197527E+03  0.15439651363E+04  0.15425227873E+04  0.22712821458E+04  0.50400001928E-02 0. -1.
</event>
<event>
 5   0  0.1164500E-08  0.3899558E+04  0.7818609E-02  0.8025121E-01
        1   -1    0    0  501    0  0.00000000000E+00  0.00000000000E+00  0.24927126435E+04  0.24927126435E+04  0.50400001928E-02 0. -1.
       -1   -1    0    0    0  501  0.00000000000E+00  0.00000000000E+00 -0.15251010085E+04  0.15251010085E+04  0.50400001928E-02 0.  1.
    10030    2    1    2    0    0  0.00000000000E+00  0.00000000000E+00  0.96761163497E+03  0.40178136520E+04  0.38995582142E+04 0.  0.
        1    1    3    3  502    0 -0.19182642246E+04 -0.32956811860E+03  0.36504641192E+03  0.19803059519E+04  0.50400001928E-02 0. -1.
       -1    1    3    3    0  502  0.19182642246E+04  0.32956811860E+03  0.60256522305E+03  0.20375077001E+04  0.50400001928E-02 0.  1.
</event>
<event>
 5   0  0.3690572E-08  0.3892681E+04  0.7818609E-02  0.8026553E-01
        2   -1    0    0  501    0  0.00000000000E+00  0.00000000000E+00  0.31113154741E+04  0.31113154741E+04  0.25500000920E-02 0.  1.
       -2   -1    0    0    0  501  0.00000000000E+00  0.00000000000E+00 -0.12175690760E+04  0.12175690760E+04  0.25500000920E-02 0. -1.
    10030    2    1    2    0    0  0.00000000000E+00  0.00000000000E+00  0.18937463982E+04  0.43288845501E+04  0.38926810847E+04 0.  0.
        3    1    3    3  502    0  0.67246827339E+02  0.19040545058E+04  0.50442556764E+03  0.19708858060E+04  0.10100000352E+00 0.  1.
       -3    1    3    3    0  502 -0.67246827339E+02 -0.19040545058E+04  0.13893208305E+04  0.23579987441E+04  0.10100000352E+00 0. -1.
</event>
<event>
 5   0  0.1164500E-08  0.3895871E+04  0.7818609E-02  0.8025888E-01
        1   -1    0    0  501    0  0.00000000000E+00  0.00000000000E+00  0.18013511805E+04  0.18013511805E+04  0.50400001928E-02 0. -1.
       -1   -1    0    0    0  501  0.00000000000E+00  0.00000000000E+00 -0.21064485541E+04  0.21064485541E+04  0.50400001928E-02 0.  1.
    10030    2    1    2    0    0  0.00000000000E+00  0.00000000000E+00 -0.30509737363E+03  0.39077997346E+04  0.38958714504E+04 0.  0.
        5    1    3    3  502    0 -0.12051390816E+04  0.86690493278E+03 -0.14175790573E+04  0.20526657893E+04  0.46999998093E+01 0.  1.
       -5    1    3    3    0  502  0.12051390816E+04 -0.86690493278E+03  0.11124816837E+04  0.18551339453E+04  0.46999998093E+01 0. -1.
</event>
<event>
 5   0  0.1164500E-08  0.3900900E+04  0.7818609E-02  0.8024842E-01
        1   -1    0    0  501    0  0.00000000000E+00  0.00000000000E+00  0.14647310451E+04  0.14647310451E+04  0.50400001928E-02 0.  1.
       -1   -1    0    0    0  501  0.00000000000E+00  0.00000000000E+00 -0.25972379834E+04  0.25972379834E+04  0.50400001928E-02 0. -1.
    10030    2    1    2    0    0  0.00000000000E+00  0.00000000000E+00 -0.11325069383E+04  0.40619690284E+04  0.39008999504E+04 0.  0.
        3    1    3    3  502    0 -0.97377757626E+03  0.15634097848E+03 -0.23184605612E+04  0.25195127810E+04  0.10100000352E+00 0. -1.
       -3    1    3    3    0  502  0.97377757626E+03 -0.15634097848E+03  0.11859536229E+04  0.15424562475E+04  0.10100000352E+00 0.  1.
</event>
<event>
 5   0  0.3872969E-08  0.3896724E+04  0.7818609E-02  0.8025711E-01
        2   -1    0    0  501    0  0.00000000000E+00  0.00000000000E+00  0.10940941823E+04  0.10940941823E+04  0.25500000920E-02 0.  1.
       -2   -1    0    0    0  501  0.00000000000E+00  0.00000000000E+00 -0.34696407474E+04  0.34696407474E+04  0.25500000920E-02 0. -1.
    10030    2    1    2    0    0  0.00000000000E+00  0.00000000000E+00 -0.23755465651E+04  0.45637349298E+04  0.38967236272E+04 0.  0.
        2    1    3    3  502    0 -0.72085691286E+03 -0.18029573096E+04 -0.13759789197E+04  0.23798335523E+04  0.25500000920E-02 0. -1.
       -2    1    3    3    0  502  0.72085691286E+03  0.18029573096E+04 -0.99956764540E+03  0.21839013775E+04  0.25500000920E-02 0.  1.
</event>
<event>
 5   0  0.3669347E-08  0.3904158E+04  0.7818609E-02  0.8024165E-01
        2   -1    0    0  501    0  0.00000000000E+00  0.00000000000E+00  0.26049764240E+04  0.26049764240E+04  0.25500000920E-02 0. -1.
       -2   -1    0    0    0  501  0.00000000000E+00  0.00000000000E+00 -0.14628204261E+04  0.14628204261E+04  0.25500000920E-02 0.  1.
    10030    2    1    2    0    0  0.00000000000E+00  0.00000000000E+00  0.11421559979E+04  0.40677968502E+04  0.39041581539E+04 0.  0.
        5    1    3    3  502    0  0.18562854086E+04  0.49064730992E+03  0.20409299119E+03  0.19308563748E+04  0.46999998093E+01 0. -1.
       -5    1    3    3    0  502 -0.18562854086E+04 -0.49064730992E+03  0.93806300673E+03  0.21369404754E+04  0.46999998093E+01 0.  1.
</event>
<event>
 5   0  0.1164500E-08  0.3900158E+04  0.7818609E-02  0.8024996E-01
       -1   -1    0    0    0  501  0.00000000000E+00  0.00000000000E+00  0.24216108615E+04  0.24216108615E+04  0.50400001928E-02 0. -1.
        1   -1    0    0  501    0  0.00000000000E+00  0.00000000000E+00 -0.15703627050E+04  0.15703627050E+04  0.50400001928E-02 0.  1.
    10030    2    1    2    0    0  0.00000000000E+00  0.00000000000E+00  0.85124815651E+03  0.39919735665E+04  0.39001576290E+04 0.  0.
        1    1    3    3  502    0  0.17735202301E+04  0.23440764214E+03 -0.36884890480E+03  0.18265734214E+04  0.50400001928E-02 0.  1.
       -1    1    3    3    0  502 -0.17735202301E+04 -0.23440764214E+03  0.12200970613E+04  0.21654001451E+04  0.50400001928E-02 0. -1.
</event>
<event>
 5   0  0.3724293E-08  0.3899933E+04  0.7818609E-02  0.8025043E-01
       -2   -1    0    0    0  501  0.00000000000E+00  0.00000000000E+00  0.19831341641E+04  0.19831341641E+04  0.25500000920E-02 0.  1.
        2   -1    0    0  501    0  0.00000000000E+00  0.00000000000E+00 -0.19173531701E+04  0.19173531701E+04  0.25500000920E-02 0. -1.
    10030    2    1    2    0    0  0.00000000000E+00  0.00000000000E+00  0.65780993973E+02  0.39004873342E+04  0.38999326026E+04 0.  0.
        4    1    3    3  502    0  0.66051450730E+03 -0.58214508711E+02  0.18669175735E+04  0.19811741929E+04  0.12699999809E+01 0.  1.
       -4    1    3    3    0  502 -0.66051450730E+03  0.58214508711E+02 -0.18011365795E+04  0.19193131413E+04  0.12699999809E+01 0. -1.
</event>
<event>
 5   0  0.1164500E-08  0.3904520E+04  0.7818609E-02  0.8024090E-01
       -1   -1    0    0    0  501  0.00000000000E+00  0.00000000000E+00  0.19083014849E+04  0.19083014849E+04  0.50400001928E-02 0.  1.
        1   -1    0    0  501    0  0.00000000000E+00  0.00000000000E+00 -0.19972313960E+04  0.19972313960E+04  0.50400001928E-02 0. -1.
    10030    2    1    2    0    0  0.00000000000E+00  0.00000000000E+00 -0.88929911097E+02  0.39055328810E+04  0.39045202721E+04 0.  0.
        5    1    3    3  502    0 -0.14791323048E+02 -0.19210185195E+04 -0.39206999183E+03  0.19606814897E+04  0.46999998093E+01 0. -1.
       -5    1    3    3    0  502  0.14791323048E+02  0.19210185195E+04  0.30314008074E+03  0.19448513913E+04  0.46999998093E+01 0.  1.
</event>
<event>
 5   0  0.3872969E-08  0.3903384E+04  0.7818609E-02  0.8024326E-01
        2   -1    0    0  501    0  0.00000000000E+00  0.00000000000E+00  0.20338367486E+04  0.20338367486E+04  0.25500000920E-02 0.  1.
       -2   -1    0    0    0  501  0.00000000000E+00  0.00000000000E+00 -0.18728648642E+04  0.18728648642E+04  0.25500000920E-02 0. -1.
    10030    2    1    2    0    0  0.00000000000E+00  0.00000000000E+00  0.16097188442E+03  0.39067016128E+04  0.39033838581E+04 0.  0.
        2    1    3    3  502    0  0.16122000428E+04  0.82854707053E+03  0.80458008182E+03  0.19831864093E+04  0.25500000920E-02 0.  1.
       -2    1    3    3    0  502 -0.16122000428E+04 -0.82854707053E+03 -0.64360819740E+03  0.19235152034E+04  0.25500000920E-02 0. -1.
</event>
<event>
 5   0  0.3690572E-08  0.3901897E+04  0.7818609E-02  0.8024635E-01
       -2   -1    0    0    0  501  0.00000000000E+00  0.00000000000E+00  0.30193172345E+04  0.30193172345E+04  0.25500000920E-02 0.  1.
        2   -1    0    0  501    0  0.00000000000E+00  0.00000000000E+00 -0.12606159777E+04  0.12606159777E+04  0.25500000920E-02 0. -1.
    10030    2    1    2    0    0  0.00000000000E+00  0.00000000000E+00  0.17587012568E+04  0.42799332121E+04  0.39018967426E+04 0.  0.
        3    1    3    3  502    0  0.13471789343E+04 -0.43593775780E+03  0.23514944245E+04  0.27448968739E+04  0.10100000352E+00 0.  1.
       -3    1    3    3    0  502 -0.13471789343E+04  0.43593775780E+03 -0.59279316770E+03  0.15350363382E+04  0.10100000352E+00 0. -1.
</event>
<event>
 5   0  0.1164500E-08  0.3907301E+04  0.7818609E-02  0.8023512E-01
       -1   -1    0    0    0  501  0.00000000000E+00  0.00000000000E+00  0.19070217464E+04  0.19070217464E+04  0.50400001928E-02 0. -1.
        1   -1    0    0  501    0  0.00000000000E+00  0.00000000000E+00 -0.20014195946E+04  0.20014195946E+04  0.50400001928E-02 0.  1.
    10030    2    1    2    0    0  0.00000000000E+00  0.00000000000E+00 -0.94397848188E+02  0.39084413410E+04  0.39073012121E+04 0.  0.
        4    1    3    3  502    0 -0.17073394497E+04 -0.49660969907E+03  0.76243201925E+03  0.19346662210E+04  0.12699999809E+01 0. -1.
       -4    1    3    3    0  502  0.17073394497E+04  0.49660969907E+03 -0.85682986743E+03  0.19737751200E+04  0.12699999809E+01 0.  1.
</event>
<event>
 5   0  0.1164500E-08  0.3900462E+04  0.7818609E-02  0.8024933E-01
       -1   -1    0    0    0  501  0.00000000000E+00  0.00000000000E+00  0.18563197363E+04  0.18563197363E+04  0.50400001928E-02 0.  1.
        1   -1    0    0  501    0  0.00000000000E+00  0.00000000000E+00 -0.20488935295E+04  0.20488935296E+04  0.50400001928E-02 0. -1.
    10030    2    1    2    0    0  0.00000000000E+00  0.00000000000E+00 -0.19257379329E+03  0.39052132658E+04  0.39004622784E+04 0.  0.
        5    1    3    3  502    0  0.11036425320E+03 -0.14301240452E+04 -0.14192382430E+04  0.20178439815E+04  0.46999998093E+01 0. -1.
       -5    1    3    3    0  502 -0.11036425320E+03  0.14301240452E+04  0.12266644497E+04  0.18873692843E+04  0.46999998093E+01 0.  1.
</event>
<event>
 5   0  0.3690572E-08  0.3985914E+04  0.7818609E-02  0.8007394E-01
        2   -1    0    0  501    0  0.00000000000E+00  0.00000000000E+00  0.18467379004E+04  0.18467379004E+04  0.25500000920E-02 0. -1.
       -2   -1    0    0    0  501  0.00000000000E+00  0.00000000000E+00 -0.21507530011E+04  0.21507530011E+04  0.25500000920E-02 0.  1.
    10030    2    1    2    0    0  0.00000000000E+00  0.00000000000E+00 -0.30401510074E+03  0.39974909015E+04  0.39859137379E+04 0.  0.
        3    1    3    3  502    0  0.78498051769E+03  0.41568823439E+03 -0.19412538468E+04  0.21348202803E+04  0.10100000352E+00 0.  1.
       -3    1    3    3    0  502 -0.78498051769E+03 -0.41568823439E+03  0.16372387460E+04  0.18626706212E+04  0.10100000352E+00 0. -1.
</event>
<event>
 5   0  0.3690572E-08  0.3898959E+04  0.7818609E-02  0.8025246E-01
        2   -1    0    0  501    0  0.00000000000E+00  0.00000000000E+00  0.32485833900E+04  0.32485833900E+04  0.25500000920E-02 0.  1.
       -2   -1    0    0    0  501  0.00000000000E+00  0.00000000000E+00 -0.11698853757E+04  0.11698853757E+04  0.25500000920E-02 0. -1.
    10030    2    1    2    0    0  0.00000000000E+00  0.00000000000E+00  0.20786980143E+04  0.44184687657E+04  0.38989589377E+04 0.  0.
        3    1    3    3  502    0  0.63043658219E+03  0.17782125132E+04  0.48304296769E+03  0.19475165070E+04  0.10100000352E+00 0.  1.
       -3    1    3    3    0  502 -0.63043658219E+03 -0.17782125132E+04  0.15956550467E+04  0.24709522586E+04  0.10100000352E+00 0. -1.
</event>
<event>
 5   0  0.3872969E-08  0.3904086E+04  0.7818609E-02  0.8024180E-01
       -2   -1    0    0    0  501  0.00000000000E+00  0.00000000000E+00  0.31828936467E+04  0.31828936467E+04  0.25500000920E-02 0.  1.
        2   -1    0    0  501    0  0.00000000000E+00  0.00000000000E+00 -0.11971722863E+04  0.11971722863E+04  0.25500000920E-02 0. -1.
    10030    2    1    2    0    0  0.00000000000E+00  0.00000000000E+00  0.19857213604E+04  0.43800659330E+04  0.39040860974E+04 0.  0.
        2    1    3    3  502    0 -0.17871244422E+04  0.77713388005E+03  0.11194000653E+04  0.22474001303E+04  0.25500000920E-02 0.  1.
       -2    1    3    3    0  502  0.17871244422E+04 -0.77713388005E+03  0.86632129517E+03  0.21326658027E+04  0.25500000920E-02 0. -1.
</event>
<event>
 5   0  0.1164500E-08  0.3898022E+04  0.7818609E-02  0.8025441E-01
        1   -1    0    0  501    0  0.00000000000E+00  0.00000000000E+00  0.14660860810E+04  0.14660860810E+04  0.50400001928E-02 0.  1.
       -1   -1    0    0    0  501  0.00000000000E+00  0.00000000000E+00 -0.25910100579E+04  0.25910100579E+04  0.50400001928E-02 0. -1.
    10030    2    1    2    0    0  0.00000000000E+00  0.00000000000E+00 -0.11249239769E+04  0.40570961389E+04  0.38980219505E+04 0.  0.
        1    1    3    3  502    0  0.15743327105E+04 -0.19597812290E+03 -0.17407905152E+04  0.23552669755E+04  0.50400001928E-02 0. -1.
       -1    1    3    3    0  502 -0.15743327105E+04  0.19597812290E+03  0.61586653836E+03  0.17018291633E+04  0.50400001928E-02 0.  1.
</event>
<event>
 5   0  0.3724293E-08  0.3892932E+04  0.7818609E-02  0.8026501E-01
        2   -1    0    0  501    0  0.00000000000E+00  0.00000000000E+00  0.26791093221E+04  0.26791093221E+04  0.25500000920E-02 0.  1.
       -2   -1    0    0    0  501  0.00000000000E+00  0.00000000000E+00 -0.14141750433E+04  0.14141750433E+04  0.25500000920E-02 0. -1.
    10030    2    1    2    0    0  0.00000000000E+00  0.00000000000E+00  0.12649342788E+04  0.40932843654E+04  0.38929318214E+04 0.  0.
        4    1    3    3  502    0  0.12019108402E+04 -0.68495753895E+03  0.20722349054E+04  0.24915689061E+04  0.12699999809E+01 0.  1.
       -4    1    3    3    0  502 -0.12019108402E+04  0.68495753895E+03 -0.80730062658E+03  0.16017154593E+04  0.12699999809E+01 0. -1.
</event>
<event>
 5   0  0.3690572E-08  0.3902756E+04  0.7818609E-02  0.8024456E-01
       -2   -1    0    0    0  501  0.00000000000E+00  0.00000000000E+00  0.11283113352E+04  0.11283113352E+04  0.25500000920E-02 0. -1.
        2   -1    0    0  501    0  0.00000000000E+00  0.00000000000E+00 -0.33748445928E+04  0.33748445928E+04  0.25500000920E-02 0.  1.
    10030    2    1    2    0    0  0.00000000000E+00  0.00000000000E+00 -0.22465332576E+04  0.45031559280E+04  0.39027556463E+04 0.  0.
        3    1    3    3  502    0  0.80005100252E+03 -0.12921253259E+04  0.28904775089E+03  0.15470029338E+04  0.10100000352E+00 0. -1.
       -3    1    3    3    0  502 -0.80005100252E+03  0.12921253259E+04 -0.25355810085E+04  0.29561529942E+04  0.10100000352E+00 0.  1.
</event>
<event>
 5   0  0.1164500E-08  0.3903805E+04  0.7818609E-02  0.8024238E-01
        1   -1    0    0  501    0  0.00000000000E+00  0.00000000000E+00  0.17546514399E+04  0.17546514399E+04  0.50400001928E-02 0.  1.
       -1   -1    0    0    0  501  0.00000000000E+00  0.00000000000E+00 -0.21713279320E+04  0.21713279320E+04  0.50400001928E-02 0. -1.
    10030    2    1    2    0    0  0.00000000000E+00  0.00000000000E+00 -0.41667649209E+03  0.39259793719E+04  0.39038051603E+04 0.  0.
        2    1    3    3  502    0  0.21965899440E+03  0.12257213125E+04 -0.17199664707E+04  0.21234235258E+04  0.25500000920E-02 0. -1.
       -2    1    3    3    0  502 -0.21965899440E+03 -0.12257213125E+04  0.13032899786E+04  0.18025558460E+04  0.25500000920E-02 0.  1.
</event>
<event>
 5   0  0.1164500E-08  0.3902363E+04  0.7818609E-02  0.8024538E-01
        1   -1    0    0  501    0  0.00000000000E+00  0.00000000000E+00  0.27415553838E+04  0.27415553838E+04  0.50400001928E-02 0. -1.
       -1   -1    0    0    0  501  0.00000000000E+00  0.00000000000E+00 -0.13886677556E+04  0.13886677556E+04  0.50400001928E-02 0.  1.
    10030    2    1    2    0    0  0.00000000000E+00  0.00000000000E+00  0.13528876282E+04  0.41302231395E+04  0.39023631619E+04 0.  0.
        1    1    3    3  502    0 -0.76240967649E+02 -0.91291938649E+03 -0.11469003028E+04  0.14678606187E+04  0.50400001928E-02 0.  1.
       -1    1    3    3    0  502  0.76240967649E+02  0.91291938649E+03  0.24997879311E+04  0.26623625207E+04  0.50400001928E-02 0. -1.
</event>
<event>
 5   0  0.3769985E-08  0.3928219E+04  0.7818609E-02  0.8019186E-01
       -2   -1    0    0    0  501  0.00000000000E+00  0.00000000000E+00  0.15789514135E+04  0.15789514135E+04  0.25500000920E-02 0.  1.
        2   -1    0    0  501    0  0.00000000000E+00  0.00000000000E+00 -0.24432202848E+04  0.24432202848E+04  0.25500000920E-02 0. -1.
    10030    2    1    2    0    0  0.00000000000E+00  0.00000000000E+00 -0.86426887131E+03  0.40221716984E+04  0.39282189971E+04 0.  0.
        1    1    3    3  502    0  0.11501554396E+04 -0.91522758486E+03  0.90180123848E+03  0.17244548533E+04  0.50400001928E-02 0.  1.
       -1    1    3    3    0  502 -0.11501554396E+04  0.91522758486E+03 -0.17660701098E+04  0.22977168451E+04  0.50400001928E-02 0. -1.
</event>
<event>
 5   0  0.1164500E-08  0.3898579E+04  0.7818609E-02  0.8025325E-01
       -1   -1    0    0    0  501  0.00000000000E+00  0.00000000000E+00  0.12915120236E+04  0.12915120236E+04  0.50400001928E-02 0. -1.
        1   -1    0    0  501    0  0.00000000000E+00  0.00000000000E+00 -0.29420788704E+04  0.29420788704E+04  0.50400001928E-02 0.  1.
    10030    2    1    2    0    0  0.00000000000E+00  0.00000000000E+00 -0.16505668467E+04  0.42335908940E+04  0.38985793492E+04 0.  0.
        5    1    3    3  502    0 -0.18418105885E+04 -0.20655743491E+03 -0.14811501453E+04  0.23725008031E+04  0.46999998093E+01 0. -1.
       -5    1    3    3    0  502  0.18418105885E+04  0.20655743491E+03 -0.16941670139E+03  0.18610900909E+04  0.46999998093E+01 0.  1.
</event>
<event>
 5   0  0.1164500E-08  0.3906319E+04  0.7818609E-02  0.8023716E-01
       -1   -1    0    0    0  501  0.00000000000E+00  0.00000000000E+00  0.16165520454E+04  0.16165520454E+04  0.50400001928E-02 0.  1.
        1   -1    0    0  501    0  0.00000000000E+00  0.00000000000E+00 -0.23598566782E+04  0.23598566782E+04  0.50400001928E-02 0. -1.
    10030    2    1    2    0    0  0.00000000000E+00  0.00000000000E+00 -0.74330463278E+03  0.39764087237E+04  0.39063185432E+04 0.  0.
        1    1    3    3  502    0  0.77712606559E+02  0.21422568248E+03  0.16029728047E+04  0.16190903943E+04  0.50400001928E-02 0.  1.
       -1    1    3    3    0  502 -0.77712606559E+02 -0.21422568248E+03 -0.23462774375E+04  0.23573183294E+04  0.50400001928E-02 0. -1.
</event>
<event>
 5   0  0.3690572E-08  0.3895384E+04  0.7818609E-02  0.8025990E-01
       -2   -1    0    0    0  501  0.00000000000E+00  0.00000000000E+00  0.13133654423E+04  0.13133654423E+04  0.25500000920E-02 0.  1.
        2   -1    0    0  501    0  0.00000000000E+00  0.00000000000E+00 -0.28883850276E+04  0.28883850276E+04  0.25500000920E-02 0. -1.
    10030    2    1    2    0    0  0.00000000000E+00  0.00000000000E+00 -0.15750195853E+04  0.42017504698E+04  0.38953844889E+04 0.  0.
        3    1    3    3  502    0  0.14368614330E+04  0.10871973652E+04  0.10206116369E+02  0.18018526753E+04  0.10100000352E+00 0.  1.
       -3    1    3    3    0  502 -0.14368614330E+04 -0.10871973652E+04 -0.15852257017E+04  0.23998977945E+04  0.10100000352E+00 0. -1.
</event>
<event>
 5   0  0.1164500E-08  0.3906610E+04  0.7818609E-02  0.8023656E-01
        1   -1    0    0  501    0  0.00000000000E+00  0.00000000000E+00  0.11284681296E+04  0.11284681296E+04  0.50400001928E-02 0.  1.
       -1   -1    0    0    0  501  0.00000000000E+00  0.00000000000E+00 -0.33810446828E+04  0.33810446828E+04  0.50400001928E-02 0. -1.
    10030    2    1    2    0    0  0.00000000000E+00  0.00000000000E+00 -0.22525765532E+04  0.45095128124E+04  0.39066103821E+04 0.  0.
        1    1    3    3  502    0 -0.91814512718E+03 -0.66437638150E+03  0.71015221790E+03  0.13374238758E+04  0.50400001928E-02 0.  1.
       -1    1    3    3    0  502  0.91814512718E+03  0.66437638150E+03 -0.29627287711E+04  0.31720889367E+04  0.50400001928E-02 0. -1.
</event>
<event>
 5   0  0.1164500E-08  0.3890231E+04  0.7818609E-02  0.8027064E-01
        1   -1    0    0  501    0  0.00000000000E+00  0.00000000000E+00  0.25524811301E+04  0.25524811301E+04  0.50400001928E-02 0. -1.
       -1   -1    0    0    0  501  0.00000000000E+00  0.00000000000E+00 -0.14822733276E+04  0.14822733276E+04  0.50400001928E-02 0.  1.
    10030    2    1    2    0    0  0.00000000000E+00  0.00000000000E+00  0.10702078025E+04  0.40347544577E+04  0.38902312005E+04 0.  0.
        1    1    3    3  502    0 -0.18101071708E+04 -0.93176003243E+02  0.12672357552E+04  0.22115732402E+04  0.50400001928E-02 0. -1.
       -1    1    3    3    0  502  0.18101071708E+04  0.93176003243E+02 -0.19702795276E+03  0.18231812175E+04  0.50400001928E-02 0.  1.
</event>
<event>
 5   0  0.1164500E-08  0.3933163E+04  0.7818609E-02  0.8018167E-01
       -1   -1    0    0    0  501  0.00000000000E+00  0.00000000000E+00  0.17372876310E+04  0.17372876310E+04  0.50400001928E-02 0. -1.
        1   -1    0    0  501    0  0.00000000000E+00  0.00000000000E+00 -0.22261385398E+04  0.22261385398E+04  0.50400001928E-02 0.  1.
    10030    2    1    2    0    0  0.00000000000E+00  0.00000000000E+00 -0.48885090875E+03  0.39634261708E+04  0.39331630783E+04 0.  0.
        2    1    3    3  502    0  0.17689349678E+04 -0.10070780383E+03  0.61546910421E+03  0.18756532729E+04  0.25500000920E-02 0. -1.
       -2    1    3    3    0  502 -0.17689349678E+04  0.10070780383E+03 -0.11043200130E+04  0.20877728979E+04  0.25500000920E-02 0.  1.
</event>
<event>
 5   0  0.3769985E-08  0.3890062E+04  0.7818609E-02  0.8027099E-01
        2   -1    0    0  501    0  0.00000000000E+00  0.00000000000E+00  0.18914955434E+04  0.18914955434E+04  0.25500000920E-02 0. -1.
       -2   -1    0    0    0  501  0.00000000000E+00  0.00000000000E+00 -0.20000821905E+04  0.20000821905E+04  0.25500000920E-02 0.  1.
    10030    2    1    2    0    0  0.00000000000E+00  0.00000000000E+00 -0.10858664715E+03  0.38915777339E+04  0.38900624929E+04 0.  0.
        1    1    3    3  502    0 -0.16049409560E+04  0.27833097924E+03  0.10090614142E+04  0.19161180924E+04  0.50400001928E-02 0. -1.
       -1    1    3    3    0  502  0.16049409560E+04 -0.27833097924E+03 -0.11176480613E+04  0.19754596415E+04  0.50400001928E-02 0.  1.
</event>
<event>
 5   0  0.3690572E-08  0.3908400E+04  0.7818609E-02  0.8023284E-01
        2   -1    0    0  501    0  0.00000000000E+00  0.00000000000E+00  0.19806596179E+04  0.19806596179E+04  0.25500000920E-02 0. -1.
       -2   -1    0    0    0  501  0.00000000000E+00  0.00000000000E+00 -0.19280940421E+04  0.19280940421E+04  0.25500000920E-02 0.  1.
    10030    2    1    2    0    0  0.00000000000E+00  0.00000000000E+00  0.52565575721E+02  0.39087536600E+04  0.39084001887E+04 0.  0.
        3    1    3    3  502    0  0.11193120721E+04 -0.99605151732E+03 -0.12283903004E+04  0.19375037756E+04  0.10100000352E+00 0.  1.
       -3    1    3    3    0  502 -0.11193120721E+04  0.99605151732E+03  0.12809558761E+04  0.19712498844E+04  0.10100000352E+00 0. -1.
</event>
<event>
 5   0  0.3872969E-08  0.3897442E+04  0.7818609E-02  0.8025561E-01
       -2   -1    0    0    0  501  0.00000000000E+00  0.00000000000E+00  0.17202830105E+04  0.17202830105E+04  0.25500000920E-02 0.  1.
        2   -1    0    0  501    0  0.00000000000E+00  0.00000000000E+00 -0.22074935837E+04  0.22074935837E+04  0.25500000920E-02 0. -1.
    10030    2    1    2    0    0  0.00000000000E+00  0.00000000000E+00 -0.48721057323E+03  0.39277765942E+04  0.38974420882E+04 0.  0.
        2    1    3    3  502    0 -0.34568602549E+03 -0.94513260807E+03 -0.19253472995E+04  0.21724955003E+04  0.25500000920E-02 0. -1.
       -2    1    3    3    0  502  0.34568602549E+03  0.94513260807E+03  0.14381367263E+04  0.17552810939E+04  0.25500000920E-02 0.  1.
</event>
<event>
 5   0  0.3769985E-08  0.3892265E+04  0.7818609E-02  0.8026640E-01
       -2   -1    0    0    0  501  0.00000000000E+00  0.00000000000E+00  0.16763242878E+04  0.16763242878E+04  0.25500000920E-02 0. -1.
        2   -1    0    0  501    0  0.00000000000E+00  0.00000000000E+00 -0.22593674058E+04  0.22593674058E+04  0.25500000920E-02 0.  1.
    10030    2    1    2    0    0  0.00000000000E+00  0.00000000000E+00 -0.58304311800E+03  0.39356916936E+04  0.38922653853E+04 0.  0.
        1    1    3    3  502    0  0.19818729807E+03 -0.16741118953E+04 -0.12747404695E+04  0.21135023321E+04  0.50400001928E-02 0.  1.
       -1    1    3    3    0  502 -0.19818729807E+03  0.16741118953E+04  0.69169735145E+03  0.18221893615E+04  0.50400001928E-02 0. -1.
</event>
<event>
 5   0  0.3690572E-08  0.3901039E+04  0.7818609E-02  0.8024813E-01
        2   -1    0    0  501    0  0.00000000000E+00  0.00000000000E+00  0.18451509851E+04  0.18451509851E+04  0.25500000920E-02 0. -1.
       -2   -1    0    0    0  501  0.00000000000E+00  0.00000000000E+00 -0.20619056637E+04  0.20619056637E+04  0.25500000920E-02 0.  1.
    10030    2    1    2    0    0  0.00000000000E+00  0.00000000000E+00 -0.21675467853E+03  0.39070566488E+04  0.39010394854E+04 0.  0.
        3    1    3    3  502    0 -0.26989674859E+03  0.17645653975E+04  0.67895986589E+03  0.19098486345E+04  0.10100000352E+00 0. -1.
       -3    1    3    3    0  502  0.26989674859E+03 -0.17645653975E+04 -0.89571454442E+03  0.19972080143E+04  0.10100000352E+00 0.  1.
</event>
<event>
 5   0  0.1164500E-08  0.3907164E+04  0.7818609E-02  0.8023541E-01
        1   -1    0    0  501    0  0.00000000000E+00  0.00000000000E+00  0.29622924307E+04  0.29622924307E+04  0.50400001928E-02 0.  1.
       -1   -1    0    0    0  501  0.00000000000E+00  0.00000000000E+00 -0.12883541714E+04  0.12883541714E+04  0.50400001928E-02 0. -1.
    10030    2    1    2    0    0  0.00000000000E+00  0.00000000000E+00  0.16739382593E+04  0.42506466021E+04  0.39071635799E+04 0.  0.
        3    1    3    3  502    0  0.62566062302E+03  0.14970138505E+03  0.28437508460E+04  0.29156098168E+04  0.10100000352E+00 0.  1.
       -3    1    3    3    0  502 -0.62566062302E+03 -0.14970138505E+03 -0.11698125867E+04  0.13350367853E+04  0.10100000352E+00 0. -1.
</event>
<event>
 5   0  0.3724293E-08  0.3909163E+04  0.7818609E-02  0.8023126E-01
        2   -1    0    0  501    0  0.00000000000E+00  0.00000000000E+00  0.22459935204E+04  0.22459935204E+04  0.25500000920E-02 0. -1.
       -2   -1    0    0    0  501  0.00000000000E+00  0.00000000000E+00 -0.17009797597E+04  0.17009797597E+04  0.25500000920E-02 0.  1.
    10030    2    1    2    0    0  0.00000000000E+00  0.00000000000E+00  0.54501376068E+03  0.39469732801E+04  0.39091633472E+04 0.  0.
        4    1    3    3  502    0  0.16225473930E+04  0.29269992700E+03 -0.78743469479E+03  0.18271256939E+04  0.12699999809E+01 0.  1.
       -4    1    3    3    0  502 -0.16225473930E+04 -0.29269992700E+03  0.13324484555E+04  0.21198475863E+04  0.12699999809E+01 0. -1.
</event>
<event>
 5   0  0.3872969E-08  0.3899411E+04  0.7818609E-02  0.8025152E-01
       -2   -1    0    0    0  501  0.00000000000E+00  0.00000000000E+00  0.15860130335E+04  0.15860130335E+04  0.25500000920E-02 0.  1.
        2   -1    0    0  501    0  0.00000000000E+00  0.00000000000E+00 -0.23967968560E+04  0.23967968560E+04  0.25500000920E-02 0. -1.
    10030    2    1    2    0    0  0.00000000000E+00  0.00000000000E+00 -0.81078382251E+03  0.39828098895E+04  0.38994107515E+04 0.  0.
        2    1    3    3  502    0 -0.71979989684E+03  0.11601135843E+04  0.10162738642E+04  0.17019952958E+04  0.25500000920E-02 0.  1.
       -2    1    3    3    0  502  0.71979989684E+03 -0.11601135843E+04 -0.18270576867E+04  0.22808145937E+04  0.25500000920E-02 0. -1.
</event>
<event>
 5   0  0.1164500E-08  0.3911549E+04  0.7818609E-02  0.8022631E-01
       -1   -1    0    0    0  501  0.00000000000E+00  0.00000000000E+00  0.19064384696E+04  0.19064384696E+04  0.50400001928E-02 0. -1.
        1   -1    0    0  501    0  0.00000000000E+00  0.00000000000E+00 -0.20063876531E+04  0.20063876531E+04  0.50400001928E-02 0.  1.
    10030    2    1    2    0    0  0.00000000000E+00  0.00000000000E+00 -0.99949183526E+02  0.39128261227E+04  0.39115493640E+04 0.  0.
        2    1    3    3  502    0 -0.90070803814E+03 -0.80059045219E+03  0.14909289870E+04  0.19170522388E+04  0.25500000920E-02 0. -1.
       -2    1    3    3    0  502  0.90070803814E+03  0.80059045219E+03 -0.15908781705E+04  0.19957738839E+04  0.25500000920E-02 0.  1.
</event>
<event>
 5   0  0.1164500E-08  0.3923465E+04  0.7818609E-02  0.8020167E-01
       -1   -1    0    0    0  501  0.00000000000E+00  0.00000000000E+00  0.33855605968E+04  0.33855605968E+04  0.50400001928E-02 0. -1.
        1   -1    0    0  501    0  0.00000000000E+00  0.00000000000E+00 -0.11367082676E+04  0.11367082676E+04  0.50400001928E-02 0.  1.
    10030    2    1    2    0    0  0.00000000000E+00  0.00000000000E+00  0.22488523292E+04  0.45222688643E+04  0.39234651627E+04 0.  0.
        2    1    3    3  502    0  0.61393901823E+03  0.18628874162E+04  0.10857819359E+04  0.22419172723E+04  0.25500000920E-02 0. -1.
       -2    1    3    3    0  502 -0.61393901823E+03 -0.18628874162E+04  0.11630703933E+04  0.22803515920E+04  0.25500000920E-02 0.  1.
</event>
<event>
 5   0  0.3769985E-08  0.3902726E+04  0.7818609E-02  0.8024463E-01
       -2   -1    0    0    0  501  0.00000000000E+00  0.00000000000E+00  0.20894592199E+04  0.20894592199E+04  0.25500000920E-02 0.  1.
        2   -1    0    0  501    0  0.00000000000E+00  0.00000000000E+00 -0.18223936465E+04  0.18223936465E+04  0.25500000920E-02 0. -1.
    10030    2    1    2    0    0  0.00000000000E+00  0.00000000000E+00  0.26706557342E+03  0.39118528665E+04  0.39027258203E+04 0.  0.
        1    1    3    3  502    0 -0.11846777330E+04 -0.23483380938E+03  0.16698301814E+04  0.20608107831E+04  0.50400001928E-02 0.  1.
       -1    1    3    3    0  502  0.11846777330E+04  0.23483380938E+03 -0.14027646079E+04  0.18510420834E+04  0.50400001928E-02 0. -1.
</event>
<event>
 5   0  0.1164500E-08  0.3889951E+04  0.7818609E-02  0.8027122E-01
       -1   -1    0    0    0  501  0.00000000000E+00  0.00000000000E+00  0.14835325138E+04  0.14835325138E+04  0.50400001928E-02 0. -1.
        1   -1    0    0  501    0  0.00000000000E+00  0.00000000000E+00 -0.25499476022E+04  0.25499476022E+04  0.50400001928E-02 0.  1.
    10030    2    1    2    0    0  0.00000000000E+00  0.00000000000E+00 -0.10664150884E+04  0.40334801160E+04  0.38899512472E+04 0.  0.
        1    1    3    3  502    0 -0.53282526872E+03 -0.45894700147E+03  0.13470950944E+04  0.15196053141E+04  0.50400001928E-02 0. -1.
       -1    1    3    3    0  502  0.53282526872E+03  0.45894700147E+03 -0.24135101828E+04  0.25138748019E+04  0.50400001928E-02 0.  1.
</event>
<event>
 5   0  0.1164500E-08  0.3937036E+04  0.7818609E-02  0.8017370E-01
        3   -1    0    0  501    0  0.00000000000E+00  0.00000000000E+00  0.13344455014E+04  0.13344455052E+04  0.10100000352E+00 0.  1.
       -3   -1    0    0    0  501  0.00000000000E+00  0.00000000000E+00 -0.29038747389E+04  0.29038747406E+04  0.10100000352E+00 0. -1.
    10030    2    1    2    0    0  0.00000000000E+00  0.00000000000E+00 -0.15694292375E+04  0.42383202458E+04  0.39370357345E+04 0.  0.
        2    1    3    3  502    0  0.13443574291E+04 -0.93021506870E+03  0.39577112480E+03  0.16820320314E+04  0.25500000920E-02 0.  1.
       -2    1    3    3    0  502 -0.13443574291E+04  0.93021506870E+03 -0.19652003623E+04  0.25562882144E+04  0.25500000920E-02 0. -1.
</event>
<event>
 5   0  0.1164500E-08  0.3915841E+04  0.7818609E-02  0.8021743E-01
        1   -1    0    0  501    0  0.00000000000E+00  0.00000000000E+00  0.18286645287E+04  0.18286645287E+04  0.50400001928E-02 0. -1.
       -1   -1    0    0    0  501  0.00000000000E+00  0.00000000000E+00 -0.20963127717E+04  0.20963127717E+04  0.50400001928E-02 0.  1.
    10030    2    1    2    0    0  0.00000000000E+00  0.00000000000E+00 -0.26764824298E+03  0.39249773005E+04  0.39158410626E+04 0.  0.
        1    1    3    3  502    0  0.76920566017E+03 -0.12728034136E+04  0.11426253721E+04  0.18754462451E+04  0.50400001928E-02 0. -1.
       -1    1    3    3    0  502 -0.76920566017E+03  0.12728034136E+04 -0.14102736151E+04  0.20495310553E+04  0.50400001928E-02 0.  1.
</event>
<event>
 5   0  0.1164500E-08  0.3812100E+04  0.7818609E-02  0.8043563E-01
        1   -1    0    0  501    0  0.00000000000E+00  0.00000000000E+00  0.26333764436E+04  0.26333764436E+04  0.50400001928E-02 0. -1.
       -1   -1    0    0    0  501  0.00000000000E+00  0.00000000000E+00 -0.13796078003E+04  0.13796078003E+04  0.50400001928E-02 0.  1.
    10030    2    1    2    0    0  0.00000000000E+00  0.00000000000E+00  0.12537686433E+04  0.40129842439E+04  0.38121000421E+04 0.  0.
        3    1    3    3  502    0 -0.41259593801E+03 -0.14273028116E+04 -0.63001848496E+03  0.16138004913E+04  0.10100000352E+00 0.  1.
       -3    1    3    3    0  502  0.41259593801E+03  0.14273028116E+04  0.18837871282E+04  0.23991837526E+04  0.10100000352E+00 0. -1.
</event>
<event>
 5   0  0.3690572E-08  0.3888313E+04  0.7818609E-02  0.8027464E-01
       -2   -1    0    0    0  501  0.00000000000E+00  0.00000000000E+00  0.15514968741E+04  0.15514968741E+04  0.25500000920E-02 0. -1.
        2   -1    0    0  501    0  0.00000000000E+00  0.00000000000E+00 -0.24361927101E+04  0.24361927101E+04  0.25500000920E-02 0.  1.
    10030    2    1    2    0    0  0.00000000000E+00  0.00000000000E+00 -0.88469583595E+03  0.39876895842E+04  0.38883134516E+04 0.  0.
        3    1    3    3  502    0 -0.53243573786E+03 -0.38700936700E+03 -0.23184405480E+04  0.24100685985E+04  0.10100000352E+00 0.  1.
       -3    1    3    3    0  502  0.53243573786E+03  0.38700936700E+03  0.14337447120E+04  0.15776209857E+04  0.10100000352E+00 0. -1.
</event>
<event>
 5   0  0.3769985E-08  0.3899998E+04  0.7818609E-02  0.8025030E-01
        2   -1    0    0  501    0  0.00000000000E+00  0.00000000000E+00  0.14516294222E+04  0.14516294222E+04  0.25500000920E-02 0.  1.
       -2   -1    0    0    0  501  0.00000000000E+00  0.00000000000E+00 -0.26194681173E+04  0.26194681173E+04  0.25500000920E-02 0. -1.
    10030    2    1    2    0    0  0.00000000000E+00  0.00000000000E+00 -0.11678386951E+04  0.40710975395E+04  0.38999984562E+04 0.  0.
        1    1    3    3  502    0 -0.11080901183E+04 -0.24976909502E+03  0.10706248995E+04  0.15609247216E+04  0.50400001928E-02 0.  1.
       -1    1    3    3    0  502  0.11080901183E+04  0.24976909502E+03 -0.22384635946E+04  0.25101728179E+04  0.50400001928E-02 0. -1.
</event>
<event>
 5   0  0.3724293E-08  0.3899786E+04  0.7818609E-02  0.8025074E-01
        2   -1    0    0  501    0  0.00000000000E+00  0.00000000000E+00  0.14356934811E+04  0.14356934811E+04  0.25500000920E-02 0.  1.
       -2   -1    0    0    0  501  0.00000000000E+00  0.00000000000E+00 -0.26482550021E+04  0.26482550021E+04  0.25500000920E-02 0. -1.
    10030    2    1    2    0    0  0.00000000000E+00  0.00000000000E+00 -0.12125615209E+04  0.40839484832E+04  0.38997858622E+04 0.  0.
        4    1    3    3  502    0 -0.12849673229E+04 -0.10306950403E+04  0.48635438077E+03  0.17175609112E+04  0.12699999809E+01 0.  1.
       -4    1    3    3    0  502  0.12849673229E+04  0.10306950403E+04 -0.16989159017E+04  0.23663875720E+04  0.12699999809E+01 0. -1.
</event>
<event>
 5   0  0.1164500E-08  0.3908329E+04  0.7818609E-02  0.8023299E-01
        1   -1    0    0  501    0  0.00000000000E+00  0.00000000000E+00  0.24060138706E+04  0.24060138706E+04  0.50400001928E-02 0. -1.
       -1   -1    0    0    0  501  0.00000000000E+00  0.00000000000E+00 -0.15871723673E+04  0.15871723673E+04  0.50400001928E-02 0.  1.
    10030    2    1    2    0    0  0.00000000000E+00  0.00000000000E+00  0.81884150334E+03  0.39931862379E+04  0.39083289170E+04 0.  0.
        2    1    3    3  502    0  0.86916088851E+03 -0.12588831381E+04  0.16517700667E+04  0.22513488754E+04  0.25500000920E-02 0. -1.
       -2    1    3    3    0  502 -0.86916088851E+03  0.12588831381E+04 -0.83292856341E+03  0.17418373625E+04  0.25500000920E-02 0.  1.
</event>
<event>
 5   0  0.3669347E-08  0.3898273E+04  0.7818609E-02  0.8025389E-01
       -2   -1    0    0    0  501  0.00000000000E+00  0.00000000000E+00  0.22388067991E+04  0.22388067991E+04  0.25500000920E-02 0.  1.
        2   -1    0    0  501    0  0.00000000000E+00  0.00000000000E+00 -0.16969451817E+04  0.16969451817E+04  0.25500000920E-02 0. -1.
    10030    2    1    2    0    0  0.00000000000E+00  0.00000000000E+00  0.54186161747E+03  0.39357519808E+04  0.38982726485E+04 0.  0.
        5    1    3    3  502    0  0.60302581588E+03 -0.43265143731E+03  0.20905580761E+04  0.22183963939E+04  0.46999998093E+01 0.  1.
       -5    1    3    3    0  502 -0.60302581588E+03  0.43265143731E+03 -0.15486964587E+04  0.17173555869E+04  0.46999998093E+01 0. -1.
</event>
<event>
 5   0  0.3669347E-08  0.3901789E+04  0.7818609E-02  0.8024657E-01
        2   -1    0    0  501    0  0.00000000000E+00  0.00000000000E+00  0.21102563227E+04  0.21102563227E+04  0.25500000920E-02 0. -1.
       -2   -1    0    0    0  501  0.00000000000E+00  0.00000000000E+00 -0.18035672998E+04  0.18035672998E+04  0.25500000920E-02 0.  1.
    10030    2    1    2    0    0  0.00000000000E+00  0.00000000000E+00  0.30668902286E+03  0.39138236225E+04  0.39017889732E+04 0.  0.
        5    1    3    3  502    0  0.15499863373E+04 -0.13256261983E+03 -0.10275447489E+04  0.18643767846E+04  0.46999998093E+01 0.  1.
       -5    1    3    3    0  502 -0.15499863373E+04  0.13256261983E+03  0.13342337717E+04  0.20494468379E+04  0.46999998093E+01 0. -1.
</event>
<event>
 5   0  0.3690572E-08  0.3808875E+04  0.7818609E-02  0.8044253E-01
       -2   -1    0    0    0  501  0.00000000000E+00  0.00000000000E+00  0.17806033727E+04  0.17806033727E+04  0.25500000920E-02 0. -1.
        2   -1    0    0  501    0  0.00000000000E+00  0.00000000000E+00 -0.20368842399E+04  0.20368842399E+04  0.25500000920E-02 0.  1.
    10030    2    1    2    0    0  0.00000000000E+00  0.00000000000E+00 -0.25628086719E+03  0.38174876126E+04  0.38088753970E+04 0.  0.
        3    1    3    3  502    0 -0.68451488861E+03 -0.11218751754E+04  0.12532787576E+04  0.18160044593E+04  0.10100000352E+00 0. -1.
       -3    1    3    3    0  502  0.68451488861E+03  0.11218751754E+04 -0.15095596248E+04  0.20014831533E+04  0.10100000352E+00 0.  1.
</event>
<event>
 5   0  0.3669347E-08  0.3901091E+04  0.7818609E-02  0.8024802E-01
       -2   -1    0    0    0  501  0.00000000000E+00  0.00000000000E+00  0.16713422091E+04  0.16713422091E+04  0.25500000920E-02 0.  1.
        2   -1    0    0  501    0  0.00000000000E+00  0.00000000000E+00 -0.22763909057E+04  0.22763909057E+04  0.25500000920E-02 0. -1.
    10030    2    1    2    0    0  0.00000000000E+00  0.00000000000E+00 -0.60504869653E+03  0.39477331148E+04  0.39010912346E+04 0.  0.
        5    1    3    3  502    0  0.28122374571E+03 -0.12994263727E+04 -0.17468273135E+04  0.21952274248E+04  0.46999998093E+01 0. -1.
       -5    1    3    3    0  502 -0.28122374571E+03  0.12994263727E+04  0.11417786170E+04  0.17525056900E+04  0.46999998093E+01 0.  1.
</event>
<event>
 5   0  0.3872969E-08  0.3898646E+04  0.7818609E-02  0.8025311E-01
       -2   -1    0    0    0  501  0.00000000000E+00  0.00000000000E+00  0.15959014634E+04  0.15959014634E+04  0.25500000920E-02 0.  1.
        2   -1    0    0  501    0  0.00000000000E+00  0.00000000000E+00 -0.23810115406E+04  0.23810115406E+04  0.25500000920E-02 0. -1.
    10030    2    1    2    0    0  0.00000000000E+00  0.00000000000E+00 -0.78511007720E+03  0.39769130040E+04  0.38986458172E+04 0.  0.
        2    1    3    3  502    0 -0.13486659876E+03 -0.10872025121E+04 -0.20372702523E+04  0.23131511803E+04  0.25500000920E-02 0. -1.
       -2    1    3    3    0  502  0.13486659876E+03  0.10872025121E+04  0.12521601751E+04  0.16637618237E+04  0.25500000920E-02 0.  1.
</event>
<event>
 5   0  0.3669347E-08  0.3897497E+04  0.7818609E-02  0.8025550E-01
       -2   -1    0    0    0  501  0.00000000000E+00  0.00000000000E+00  0.23425705545E+04  0.23425705545E+04  0.25500000920E-02 0. -1.
        2   -1    0    0  501    0  0.00000000000E+00  0.00000000000E+00 -0.16211340027E+04  0.16211340027E+04  0.25500000920E-02 0.  1.
    10030    2    1    2    0    0  0.00000000000E+00  0.00000000000E+00  0.72143655176E+03  0.39637045572E+04  0.38974970326E+04 0.  0.
        5    1    3    3  502    0 -0.11345239275E+03  0.11817501514E+04 -0.12109115722E+04  0.16957988652E+04  0.46999998093E+01 0.  1.
       -5    1    3    3    0  502  0.11345239275E+03 -0.11817501514E+04  0.19323481239E+04  0.22679056920E+04  0.46999998093E+01 0. -1.
</event>
<event>
 5   0  0.3872969E-08  0.3901548E+04  0.7818609E-02  0.8024707E-01
        2   -1    0    0  501    0  0.00000000000E+00  0.00000000000E+00  0.20532376552E+04  0.20532376552E+04  0.25500000920E-02 0. -1.
       -2   -1    0    0    0  501  0.00000000000E+00  0.00000000000E+00 -0.18534238112E+04  0.18534238112E+04  0.25500000920E-02 0.  1.
    10030    2    1    2    0    0  0.00000000000E+00  0.00000000000E+00  0.19981384403E+03  0.39066614664E+04  0.39015481851E+04 0.  0.
        2    1    3    3  502    0  0.14670370526E+04 -0.11476909594E+04  0.68043162217E+03  0.19830228048E+04  0.25500000920E-02 0. -1.
       -2    1    3    3    0  502 -0.14670370526E+04  0.11476909594E+04 -0.48061777813E+03  0.19236386616E+04  0.25500000920E-02 0.  1.
</event>
<event>
 5   0  0.3724293E-08  0.3900404E+04  0.7818609E-02  0.8024945E-01
        2   -1    0    0  501    0  0.00000000000E+00  0.00000000000E+00  0.22022948736E+04  0.22022948736E+04  0.25500000920E-02 0.  1.
       -2   -1    0    0    0  501  0.00000000000E+00  0.00000000000E+00 -0.17269658162E+04  0.17269658162E+04  0.25500000920E-02 0. -1.
    10030    2    1    2    0    0  0.00000000000E+00  0.00000000000E+00  0.47532905739E+03  0.39292606899E+04  0.39004040632E+04 0.  0.
        4    1    3    3  502    0  0.12939669158E+04 -0.61009489533E+03 -0.10975545818E+04  0.18031067171E+04  0.12699999809E+01 0. -1.
       -4    1    3    3    0  502 -0.12939669158E+04  0.61009489533E+03  0.15728836392E+04  0.21261539727E+04  0.12699999809E+01 0.  1.
</event>
<event>
 5   0  0.3769985E-08  0.3894454E+04  0.7818609E-02  0.8026184E-01
        2   -1    0    0  501    0  0.00000000000E+00  0.00000000000E+00  0.26066924817E+04  0.26066924817E+04  0.25500000920E-02 0. -1.
       -2   -1    0    0    0  501  0.00000000000E+00  0.00000000000E+00 -0.14545989974E+04  0.14545989974E+04  0.25500000920E-02 0.  1.
    10030    2    1    2    0    0  0.00000000000E+00  0.00000000000E+00  0.11520934843E+04  0.40612914791E+04  0.38944536307E+04 0.  0.
        1    1    3    3  502    0  0.54199670294E+03 -0.10310560745E+04  0.22032964174E+04  0.24922584452E+04  0.50400001928E-02 0. -1.
       -1    1    3    3    0  502 -0.54199670294E+03  0.10310560745E+04 -0.10512029331E+04  0.15690330339E+04  0.50400001928E-02 0.  1.
</event>
<event>
 5   0  0.1164500E-08  0.3896128E+04  0.7818609E-02  0.8025835E-01
       -1   -1    0    0    0  501  0.00000000000E+00  0.00000000000E+00  0.23698988646E+04  0.23698988646E+04  0.50400001928E-02 0. -1.
        1   -1    0    0  501    0  0.00000000000E+00  0.00000000000E+00 -0.16013145109E+04  0.16013145109E+04  0.50400001928E-02 0.  1.
    10030    2    1    2    0    0  0.00000000000E+00  0.00000000000E+00  0.76858435371E+03  0.39712133756E+04  0.38961280479E+04 0.  0.
        1    1    3    3  502    0 -0.16164405354E+04 -0.63844863329E+03  0.12812842267E+04  0.21592095617E+04  0.50400001928E-02 0. -1.
       -1    1    3    3    0  502  0.16164405354E+04  0.63844863329E+03 -0.51269987298E+03  0.18120038139E+04  0.50400001928E-02 0.  1.
</event>
<event>
 5   0  0.1164500E-08  0.3901321E+04  0.7818609E-02  0.8024755E-01
       -1   -1    0    0    0  501  0.00000000000E+00  0.00000000000E+00  0.24956354050E+04  0.24956354050E+04  0.50400001928E-02 0. -1.
        1   -1    0    0  501    0  0.00000000000E+00  0.00000000000E+00 -0.15246923384E+04  0.15246923384E+04  0.50400001928E-02 0.  1.
    10030    2    1    2    0    0  0.00000000000E+00  0.00000000000E+00  0.97094306663E+03  0.40203277433E+04  0.39013208949E+04 0.  0.
        5    1    3    3  502    0  0.58738320746E+03 -0.10059935356E+04 -0.11268682206E+04  0.16207702190E+04  0.46999998093E+01 0.  1.
       -5    1    3    3    0  502 -0.58738320746E+03  0.10059935356E+04  0.20978112872E+04  0.23995575244E+04  0.46999998093E+01 0. -1.
</event>
<event>
 5   0  0.1164500E-08  0.3897925E+04  0.7818609E-02  0.8025461E-01
       -1   -1    0    0    0  501  0.00000000000E+00  0.00000000000E+00  0.17135249070E+04  0.17135249070E+04  0.50400001928E-02 0.  1.
        1   -1    0    0  501    0  0.00000000000E+00  0.00000000000E+00 -0.22167487125E+04  0.22167487125E+04  0.50400001928E-02 0. -1.
    10030    2    1    2    0    0  0.00000000000E+00  0.00000000000E+00 -0.50322380552E+03  0.39302736195E+04  0.38979246434E+04 0.  0.
        2    1    3    3  502    0 -0.10017506029E+04 -0.98439022819E+03  0.11108705032E+04  0.17906874844E+04  0.25500000920E-02 0.  1.
       -2    1    3    3    0  502  0.10017506029E+04  0.98439022819E+03 -0.16140943088E+04  0.21395861351E+04  0.25500000920E-02 0. -1.
</event>
<event>
 5   0  0.1164500E-08  0.3908075E+04  0.7818609E-02  0.8023352E-01
       -3   -1    0    0    0  501  0.00000000000E+00  0.00000000000E+00  0.18554746242E+04  0.18554746269E+04  0.10100000352E+00 0.  1.
        3   -1    0    0  501    0  0.00000000000E+00  0.00000000000E+00 -0.20578362466E+04  0.20578362491E+04  0.10100000352E+00 0. -1.
    10030    2    1    2    0    0  0.00000000000E+00  0.00000000000E+00 -0.20236162242E+03  0.39133108760E+04  0.39080752022E+04 0.  0.
        5    1    3    3  502    0  0.14710531119E+04  0.12796703195E+04 -0.23053387249E+03  0.19633444275E+04  0.46999998093E+01 0.  1.
       -5    1    3    3    0  502 -0.14710531119E+04 -0.12796703195E+04  0.28172250064E+02  0.19499664485E+04  0.46999998093E+01 0. -1.
</event>
<event>
 5   0  0.3769985E-08  0.3905845E+04  0.7818609E-02  0.8023815E-01
        2   -1    0    0  501    0  0.00000000000E+00  0.00000000000E+00  0.29793058325E+04  0.29793058325E+04  0.25500000920E-02 0.  1.
       -2   -1    0    0    0  501  0.00000000000E+00  0.00000000000E+00 -0.12801326888E+04  0.12801326888E+04  0.25500000920E-02 0. -1.
    10030    2    1    2    0    0  0.00000000000E+00  0.00000000000E+00  0.16991731437E+04  0.42594385213E+04  0.39058452535E+04 0.  0.
        1    1    3    3  502    0  0.44164583979E+02 -0.19202729159E+04  0.46478547087E+03  0.19762145926E+04  0.50400001928E-02 0. -1.
       -1    1    3    3    0  502 -0.44164583979E+02  0.19202729159E+04  0.12343876728E+04  0.22832239287E+04  0.50400001928E-02 0.  1.
</event>
<event>
 5   0  0.3724293E-08  0.3895338E+04  0.7818609E-02  0.8026000E-01
       -2   -1    0    0    0  501  0.00000000000E+00  0.00000000000E+00  0.26142098598E+04  0.26142098598E+04  0.25500000920E-02 0. -1.
        2   -1    0    0  501    0  0.00000000000E+00  0.00000000000E+00 -0.14510746530E+04  0.14510746530E+04  0.25500000920E-02 0.  1.
    10030    2    1    2    0    0  0.00000000000E+00  0.00000000000E+00  0.11631352068E+04  0.40652845128E+04  0.38953375542E+04 0.  0.
        4    1    3    3  502    0  0.13828331042E+04  0.73715821339E+03 -0.62551944746E+03  0.16872776350E+04  0.12699999809E+01 0.  1.
       -4    1    3    3    0  502 -0.13828331042E+04 -0.73715821339E+03  0.17886546543E+04  0.23780068778E+04  0.12699999809E+01 0. -1.
</event>
<event>
 5   0  0.1164500E-08  0.3894997E+04  0.7818609E-02  0.8026071E-01
        1   -1    0    0  501    0  0.00000000000E+00  0.00000000000E+00  0.16922377448E+04  0.16922377448E+04  0.50400001928E-02 0.  1.
       -1   -1    0    0    0  501  0.00000000000E+00  0.00000000000E+00 -0.22412635213E+04  0.22412635213E+04  0.50400001928E-02 0. -1.
    10030    2    1    2    0    0  0.00000000000E+00  0.00000000000E+00 -0.54902577658E+03  0.39335012661E+04  0.38949971639E+04 0.  0.
        4    1    3    3  502    0 -0.54094242695E+03  0.18206382528E+04  0.16033255896E+03  0.19060562686E+04  0.12699999809E+01 0. -1.
       -4    1    3    3    0  502  0.54094242695E+03 -0.18206382528E+04 -0.70935833554E+03  0.20274449975E+04  0.12699999809E+01 0.  1.
</event>
<event>
 5   0  0.1164500E-08  0.3906934E+04  0.7818609E-02  0.8023589E-01
       -1   -1    0    0    0  501  0.00000000000E+00  0.00000000000E+00  0.17956645496E+04  0.17956645496E+04  0.50400001928E-02 0.  1.
        1   -1    0    0  501    0  0.00000000000E+00  0.00000000000E+00 -0.21251374391E+04  0.21251374391E+04  0.50400001928E-02 0. -1.
    10030    2    1    2    0    0  0.00000000000E+00  0.00000000000E+00 -0.32947288954E+03  0.39208019887E+04  0.39069343289E+04 0.  0.
        2    1    3    3  502    0  0.10078206088E+04  0.16611419811E+04  0.38315377422E+02  0.19433381407E+04  0.25500000920E-02 0.  1.
       -2    1    3    3    0  502 -0.10078206088E+04 -0.16611419811E+04 -0.36778826696E+03  0.19774638480E+04  0.25500000920E-02 0. -1.
</event>
<event>
 5   0  0.1164500E-08  0.3896041E+04  0.7818609E-02  0.8025853E-01
        1   -1    0    0  501    0  0.00000000000E+00  0.00000000000E+00  0.23224428770E+04  0.23224428770E+04  0.50400001928E-02 0. -1.
       -1   -1    0    0    0  501  0.00000000000E+00  0.00000000000E+00 -0.16339622754E+04  0.16339622754E+04  0.50400001928E-02 0.  1.
    10030    2    1    2    0    0  0.00000000000E+00  0.00000000000E+00  0.68848060154E+03  0.39564051524E+04  0.38960410921E+04 0.  0.
        2    1    3    3  502    0  0.13861525319E+04  0.13465983037E+04  0.95416961441E+02  0.19349031577E+04  0.25500000920E-02 0.  1.
       -2    1    3    3    0  502 -0.13861525319E+04 -0.13465983037E+04  0.59306364010E+03  0.20215019947E+04  0.25500000920E-02 0. -1.
</event>
<event>
 5   0  0.3872969E-08  0.3902039E+04  0.7818609E-02  0.8024605E-01
        2   -1    0    0  501    0  0.00000000000E+00  0.00000000000E+00  0.19244288791E+04  0.19244288791E+04  0.25500000920E-02 0.  1.
       -2   -1    0    0    0  501  0.00000000000E+00  0.00000000000E+00 -0.19779775416E+04  0.19779775416E+04  0.25500000920E-02 0. -1.
    10030    2    1    2    0    0  0.00000000000E+00  0.00000000000E+00 -0.53548662550E+02  0.39024064207E+04  0.39020390071E+04 0.  0.
        2    1    3    3  502    0 -0.13545099855E+04 -0.35109690102E+03  0.13329531761E+04  0.19325450847E+04  0.25500000920E-02 0.  1.
       -2    1    3    3    0  502  0.13545099855E+04  0.35109690102E+03 -0.13865018386E+04  0.19698613360E+04  0.25500000920E-02 0. -1.
</event>
<event>
 5   0  0.1164500E-08  0.3908558E+04  0.7818609E-02  0.8023252E-01
        1   -1    0    0  501    0  0.00000000000E+00  0.00000000000E+00  0.13399006977E+04  0.13399006977E+04  0.50400001928E-02 0. -1.
       -1   -1    0    0    0  501  0.00000000000E+00  0.00000000000E+00 -0.28503653744E+04  0.28503653744E+04  0.50400001928E-02 0.  1.
    10030    2    1    2    0    0  0.00000000000E+00  0.00000000000E+00 -0.15104646767E+04  0.41902660721E+04  0.39085580737E+04 0.  0.
        1    1    3    3  502    0  0.10149540705E+04 -0.16280752328E+04 -0.11541331896E+04  0.22389247750E+04  0.50400001928E-02 0.  1.
       -1    1    3    3    0  502 -0.10149540705E+04  0.16280752328E+04 -0.35633148715E+03  0.19513412971E+04  0.50400001928E-02 0. -1.
</event>
<event>
 5   0  0.1164500E-08  0.3905434E+04  0.7818609E-02  0.8023900E-01
       -1   -1    0    0    0  501  0.00000000000E+00  0.00000000000E+00  0.15381543462E+04  0.15381543462E+04  0.50400001928E-02 0. -1.
        1   -1    0    0  501    0  0.00000000000E+00  0.00000000000E+00 -0.24790125378E+04  0.24790125378E+04  0.50400001928E-02 0.  1.
    10030    2    1    2    0    0  0.00000000000E+00  0.00000000000E+00 -0.94085819160E+03  0.40171668840E+04  0.39054341163E+04 0.  0.
        4    1    3    3  502    0 -0.91583422783E+03 -0.11686697778E+04 -0.17750048834E+04  0.23141273369E+04  0.12699999809E+01 0.  1.
       -4    1    3    3    0  502  0.91583422783E+03  0.11686697778E+04  0.83414669182E+03  0.17030395470E+04  0.12699999809E+01 0. -1.
</event>
<event>
 5   0  0.1164500E-08  0.3902723E+04  0.7818609E-02  0.8024463E-01
       -1   -1    0    0    0  501  0.00000000000E+00  0.00000000000E+00  0.21951683873E+04  0.21951683873E+04  0.50400001928E-02 0. -1.
        1   -1    0    0  501    0  0.00000000000E+00  0.00000000000E+00 -0.17346333327E+04  0.17346333327E+04  0.50400001928E-02 0.  1.
    10030    2    1    2    0    0  0.00000000000E+00  0.00000000000E+00  0.46053505457E+03  0.39298017199E+04  0.39027232827E+04 0.  0.
        3    1    3    3  502    0  0.11568021177E+04  0.10519202857E+03  0.18091249340E+04  0.21499277987E+04  0.10100000352E+00 0. -1.
       -3    1    3    3    0  502 -0.11568021177E+04 -0.10519202857E+03 -0.13485898794E+04  0.17798739213E+04  0.10100000352E+00 0.  1.
</event>
<event>
 5   0  0.1164500E-08  0.3897753E+04  0.7818609E-02  0.8025497E-01
        1   -1    0    0  501    0  0.00000000000E+00  0.00000000000E+00  0.27887335383E+04  0.27887335383E+04  0.50400001928E-02 0. -1.
       -1   -1    0    0    0  501  0.00000000000E+00  0.00000000000E+00 -0.13619516690E+04  0.13619516690E+04  0.50400001928E-02 0.  1.
    10030    2    1    2    0    0  0.00000000000E+00  0.00000000000E+00  0.14267818693E+04  0.41506852073E+04  0.38977533513E+04 0.  0.
        4    1    3    3  502    0  0.80998900550E+03  0.10587788005E+04  0.22272699649E+04  0.25957326224E+04  0.12699999809E+01 0. -1.
       -4    1    3    3    0  502 -0.80998900550E+03 -0.10587788005E+04 -0.80048809557E+03  0.15549525850E+04  0.12699999809E+01 0.  1.
</event>
<event>
 5   0  0.3724293E-08  0.3971939E+04  0.7818609E-02  0.8010231E-01
        2   -1    0    0  501    0  0.00000000000E+00  0.00000000000E+00  0.26733688145E+04  0.26733688145E+04  0.25500000920E-02 0. -1.
       -2   -1    0    0    0  501  0.00000000000E+00  0.00000000000E+00 -0.14753204137E+04  0.14753204137E+04  0.25500000920E-02 0.  1.
    10030    2    1    2    0    0  0.00000000000E+00  0.00000000000E+00  0.11980484007E+04  0.41486892282E+04  0.39719393678E+04 0.  0.
        4    1    3    3  502    0  0.15786174408E+04 -0.71147796192E+03 -0.41679670200E+03  0.17809983207E+04  0.12699999809E+01 0.  1.
       -4    1    3    3    0  502 -0.15786174408E+04  0.71147796192E+03  0.16148451027E+04  0.23676909075E+04  0.12699999809E+01 0. -1.
</event>
<event>
 5   0  0.3872969E-08  0.3858850E+04  0.7818609E-02  0.8033642E-01
       -2   -1    0    0    0  501  0.00000000000E+00  0.00000000000E+00  0.19430400149E+04  0.19430400149E+04  0.25500000920E-02 0. -1.
        2   -1    0    0  501    0  0.00000000000E+00  0.00000000000E+00 -0.19159057723E+04  0.19159057723E+04  0.25500000920E-02 0.  1.
    10030    2    1    2    0    0  0.00000000000E+00  0.00000000000E+00  0.27134242613E+02  0.38589457872E+04  0.38588503886E+04 0.  0.
        2    1    3    3  502    0 -0.16239087387E+04 -0.79489195432E+03 -0.66005829773E+03  0.19247362851E+04  0.25500000920E-02 0.  1.
       -2    1    3    3    0  502  0.16239087387E+04  0.79489195432E+03  0.68719254034E+03  0.19342095021E+04  0.25500000920E-02 0. -1.
</event>
<event>
 5   0  0.3669347E-08  0.3901362E+04  0.7818609E-02  0.8024746E-01
        2   -1    0    0  501    0  0.00000000000E+00  0.00000000000E+00  0.22741499976E+04  0.22741499976E+04  0.25500000920E-02 0.  1.
       -2   -1    0    0    0  501  0.00000000000E+00  0.00000000000E+00 -0.16732216341E+04  0.16732216341E+04  0.25500000920E-02 0. -1.
    10030    2    1    2    0    0  0.00000000000E+00  0.00000000000E+00  0.60092836350E+03  0.39473716317E+04  0.39013623134E+04 0.  0.
        5    1    3    3  502    0  0.95249945993E+03 -0.20227186079E+03 -0.14097253702E+04  0.17133350041E+04  0.46999998093E+01 0. -1.
       -5    1    3    3    0  502 -0.95249945993E+03  0.20227186079E+03  0.20106537337E+04  0.22340366276E+04  0.46999998093E+01 0.  1.
</event>
<event>
 5   0  0.3690572E-08  0.3900000E+04  0.7818609E-02  0.8025029E-01
       -2   -1    0    0    0  501  0.00000000000E+00  0.00000000000E+00  0.19694308177E+04  0.19694308177E+04  0.25500000920E-02 0.  1.
        2   -1    0    0  501    0  0.00000000000E+00  0.00000000000E+00 -0.19307612031E+04  0.19307612031E+04  0.25500000920E-02 0. -1.
    10030    2    1    2    0    0  0.00000000000E+00  0.00000000000E+00  0.38669614624E+02  0.39001920209E+04  0.39000003155E+04 0.  0.
        3    1    3    3  502    0  0.65436756982E+03 -0.17746830924E+04 -0.45482308967E+03  0.19453948308E+04  0.10100000352E+00 0. -1.
       -3    1    3    3    0  502 -0.65436756982E+03  0.17746830924E+04  0.49349270430E+03  0.19547971900E+04  0.10100000352E+00 0.  1.
</event>
<event>
 5   0  0.3769985E-08  0.3900779E+04  0.7818609E-02  0.8024867E-01
       -2   -1    0    0    0  501  0.00000000000E+00  0.00000000000E+00  0.12035978681E+04  0.12035978681E+04  0.25500000920E-02 0.  1.
        2   -1    0    0  501    0  0.00000000000E+00  0.00000000000E+00 -0.31605396344E+04  0.31605396344E+04  0.25500000920E-02 0. -1.
    10030    2    1    2    0    0  0.00000000000E+00  0.00000000000E+00 -0.19569417663E+04  0.43641375025E+04  0.39007787766E+04 0.  0.
        1    1    3    3  502    0 -0.11671494887E+04  0.24521875982E+03  0.74810609684E+03  0.14078469026E+04  0.50400001928E-02 0.  1.
       -1    1    3    3    0  502  0.11671494887E+04 -0.24521875982E+03 -0.27050478631E+04  0.29562905999E+04  0.50400001928E-02 0. -1.
</event>
<event>
 5   0  0.1164500E-08  0.3901798E+04  0.7818609E-02  0.8024655E-01
       -1   -1    0    0    0  501  0.00000000000E+00  0.00000000000E+00  0.19913943635E+04  0.19913943635E+04  0.50400001928E-02 0. -1.
        1   -1    0    0  501    0  0.00000000000E+00  0.00000000000E+00 -0.19112270695E+04  0.19112270695E+04  0.50400001928E-02 0.  1.
    10030    2    1    2    0    0  0.00000000000E+00  0.00000000000E+00  0.80167293982E+02  0.39026214330E+04  0.39017979515E+04 0.  0.
        5    1    3    3  502    0 -0.62271051081E+03 -0.18328754342E+04  0.28258890823E+03  0.19562922375E+04  0.46999998093E+01 0. -1.
       -5    1    3    3    0  502  0.62271051081E+03  0.18328754342E+04 -0.20242161425E+03  0.19463291955E+04  0.46999998093E+01 0.  1.
</event>
<event>
 5   0  0.1164500E-08  0.3899242E+04  0.7818609E-02  0.8025187E-01
        1   -1    0    0  501    0  0.00000000000E+00  0.00000000000E+00  0.19567536411E+04  0.19567536411E+04  0.50400001928E-02 0. -1.
       -1   -1    0    0    0  501  0.00000000000E+00  0.00000000000E+00 -0.19425140109E+04  0.19425140109E+04  0.50400001928E-02 0.  1.
    10030    2    1    2    0    0  0.00000000000E+00  0.00000000000E+00  0.14239630205E+02  0.38992676519E+04  0.38992416512E+04 0.  0.
        3    1    3    3  502    0  0.87303544796E+03  0.54131274982E+03 -0.16499401072E+04  0.19435824536E+04  0.10100000352E+00 0.  1.
       -3    1    3    3    0  502 -0.87303544796E+03 -0.54131274982E+03  0.16641797374E+04  0.19556851983E+04  0.10100000352E+00 0. -1.
</event>
<event>
 5   0  0.3669347E-08  0.3900437E+04  0.7818609E-02  0.8024938E-01
        2   -1    0    0  501    0  0.00000000000E+00  0.00000000000E+00  0.17597716676E+04  0.17597716676E+04  0.25500000920E-02 0.  1.
       -2   -1    0    0    0  501  0.00000000000E+00  0.00000000000E+00 -0.21612757730E+04  0.21612757730E+04  0.25500000920E-02 0. -1.
    10030    2    1    2    0    0  0.00000000000E+00  0.00000000000E+00 -0.40150410540E+03  0.39210474407E+04  0.39004368326E+04 0.  0.
        5    1    3    3  502    0 -0.14536008449E+04 -0.65444846240E+03  0.92860388788E+03  0.18448808842E+04  0.46999998093E+01 0.  1.
       -5    1    3    3    0  502  0.14536008449E+04  0.65444846240E+03 -0.13301079933E+04  0.20761665565E+04  0.46999998093E+01 0. -1.
</event>
<event>
 5   0  0.1164500E-08  0.3903100E+04  0.7818609E-02  0.8024385E-01
        1   -1    0    0  501    0  0.00000000000E+00  0.00000000000E+00  0.17329508115E+04  0.17329508115E+04  0.50400001928E-02 0.  1.
       -1   -1    0    0    0  501  0.00000000000E+00  0.00000000000E+00 -0.21977233725E+04  0.21977233725E+04  0.50400001928E-02 0. -1.
    10030    2    1    2    0    0  0.00000000000E+00  0.00000000000E+00 -0.46477256106E+03  0.39306741840E+04  0.39030995385E+04 0.  0.
        4    1    3    3  502    0  0.87223780666E+03  0.83104531931E+03 -0.17785209686E+04  0.21481558516E+04  0.12699999809E+01 0. -1.
       -4    1    3    3    0  502 -0.87223780666E+03 -0.83104531931E+03  0.13137484075E+04  0.17825183324E+04  0.12699999809E+01 0.  1.
</event>
<event>
 5   0  0.3769985E-08  0.3896120E+04  0.7818609E-02  0.8025837E-01
       -2   -1    0    0    0  501  0.00000000000E+00  0.00000000000E+00  0.19686829494E+04  0.19686829494E+04  0.25500000920E-02 0. -1.
        2   -1    0    0  501    0  0.00000000000E+00  0.00000000000E+00 -0.19276532140E+04  0.19276532140E+04  0.25500000920E-02 0.  1.
    10030    2    1    2    0    0  0.00000000000E+00  0.00000000000E+00  0.41029735440E+02  0.38963361634E+04  0.38961201289E+04 0.  0.
        1    1    3    3  502    0  0.12696081146E+04  0.45050393399E+03 -0.13867161179E+04  0.19333494643E+04  0.50400001928E-02 0.  1.
       -1    1    3    3    0  502 -0.12696081146E+04 -0.45050393399E+03  0.14277458533E+04  0.19629866991E+04  0.50400001928E-02 0. -1.
</event>
<event>
 5   0  0.3690572E-08  0.3897294E+04  0.7818609E-02  0.8025592E-01
        2   -1    0    0  501    0  0.00000000000E+00  0.00000000000E+00  0.19708147979E+04  0.19708147979E+04  0.25500000920E-02 0. -1.
       -2   -1    0    0    0  501  0.00000000000E+00  0.00000000000E+00 -0.19267289367E+04  0.19267289367E+04  0.25500000920E-02 0.  1.
    10030    2    1    2    0    0  0.00000000000E+00  0.00000000000E+00  0.44085861237E+02  0.38975437346E+04  0.38972943949E+04 0.  0.
        3    1    3    3  502    0 -0.63318424113E+03  0.39096258445E+03 -0.17790308864E+04  0.19283995775E+04  0.10100000352E+00 0.  1.
       -3    1    3    3    0  502  0.63318424113E+03 -0.39096258445E+03  0.18231167476E+04  0.19691441571E+04  0.10100000352E+00 0. -1.
</event>
<event>
 5   0  0.1164500E-08  0.3907146E+04  0.7818609E-02  0.8023545E-01
        1   -1    0    0  501    0  0.00000000000E+00  0.00000000000E+00  0.25214908931E+04  0.25214908931E+04  0.50400001928E-02 0.  1.
       -1   -1    0    0    0  501  0.00000000000E+00  0.00000000000E+00 -0.15135678575E+04  0.15135678575E+04  0.50400001928E-02 0. -1.
    10030    2    1    2    0    0  0.00000000000E+00  0.00000000000E+00  0.10079230356E+04  0.40350587506E+04  0.39071460524E+04 0.  0.
        3    1    3    3  502    0  0.60072436096E+03 -0.12151791995E+04  0.19567555284E+04  0.23804248471E+04  0.10100000352E+00 0.  1.
       -3    1    3    3    0  502 -0.60072436096E+03  0.12151791995E+04 -0.94883249276E+03  0.16546339034E+04  0.10100000352E+00 0. -1.
</event>
<event>
 5   0  0.3690572E-08  0.3886793E+04  0.7818609E-02  0.8027782E-01
        2   -1    0    0  501    0  0.00000000000E+00  0.00000000000E+00  0.20158559603E+04  0.20158559603E+04  0.25500000920E-02 0. -1.
       -2   -1    0    0    0  501  0.00000000000E+00  0.00000000000E+00 -0.18735416994E+04  0.18735416994E+04  0.25500000920E-02 0.  1.
    10030    2    1    2    0    0  0.00000000000E+00  0.00000000000E+00  0.14231426085E+03  0.38893976597E+04  0.38867931263E+04 0.  0.
        3    1    3    3  502    0  0.20397937319E+03 -0.27061963089E+03 -0.18437467826E+04  0.18746319046E+04  0.10100000352E+00 0.  1.
       -3    1    3    3    0  502 -0.20397937319E+03  0.27061963089E+03  0.19860610434E+04  0.20147657551E+04  0.10100000352E+00 0. -1.
</event>
<event>
 5   0  0.3769985E-08  0.3900321E+04  0.7818609E-02  0.8024962E-01
       -2   -1    0    0    0  501  0.00000000000E+00  0.00000000000E+00  0.18449773021E+04  0.18449773021E+04  0.25500000920E-02 0. -1.
        2   -1    0    0  501    0  0.00000000000E+00  0.00000000000E+00 -0.20613407779E+04  0.20613407779E+04  0.25500000920E-02 0.  1.
    10030    2    1    2    0    0  0.00000000000E+00  0.00000000000E+00 -0.21636347584E+03  0.39063180800E+04  0.39003214981E+04 0.  0.
        1    1    3    3  502    0  0.13306763746E+04  0.59333006251E+02  0.13184052532E+04  0.18741431192E+04  0.50400001928E-02 0. -1.
       -1    1    3    3    0  502 -0.13306763746E+04 -0.59333006251E+02 -0.15347687291E+04  0.20321749608E+04  0.50400001928E-02 0.  1.
</event>
<event>
 5   0  0.1164500E-08  0.3900176E+04  0.7818609E-02  0.8024993E-01
        1   -1    0    0  501    0  0.00000000000E+00  0.00000000000E+00  0.27936347357E+04  0.27936347357E+04  0.50400001928E-02 0. -1.
       -1   -1    0    0    0  501  0.00000000000E+00  0.00000000000E+00 -0.13612526154E+04  0.13612526154E+04  0.50400001928E-02 0.  1.
    10030    2    1    2    0    0  0.00000000000E+00  0.00000000000E+00  0.14323821204E+04  0.41548873511E+04  0.39001756834E+04 0.  0.
        4    1    3    3  502    0  0.80496963959E+03  0.22908287400E+03 -0.11601984301E+04  0.14305653057E+04  0.12699999809E+01 0.  1.
       -4    1    3    3    0  502 -0.80496963959E+03 -0.22908287400E+03  0.25925805504E+04  0.27243220454E+04  0.12699999809E+01 0. -1.
</event>
<event>
 5   0  0.3724293E-08  0.3907752E+04  0.7818609E-02  0.8023419E-01
        2   -1    0    0  501    0  0.00000000000E+00  0.00000000000E+00  0.26323593711E+04  0.26323593711E+04  0.25500000920E-02 0. -1.
       -2   -1    0    0    0  501  0.00000000000E+00  0.00000000000E+00 -0.14502700696E+04  0.14502700696E+04  0.25500000920E-02 0.  1.
    10030    2    1    2    0    0  0.00000000000E+00  0.00000000000E+00  0.11820893015E+04  0.40826294407E+04  0.39077522993E+04 0.  0.
        4    1    3    3  502    0 -0.92242895364E+03 -0.49924423358E+03  0.23133039740E+04  0.25399796984E+04  0.12699999809E+01 0. -1.
       -4    1    3    3    0  502  0.92242895364E+03  0.49924423358E+03 -0.11312146725E+04  0.15426497423E+04  0.12699999809E+01 0.  1.
</event>
<event>
 5   0  0.3872969E-08  0.3888530E+04  0.7818609E-02  0.8027419E-01
       -2   -1    0    0    0  501  0.00000000000E+00  0.00000000000E+00  0.14479499862E+04  0.14479499862E+04  0.25500000920E-02 0.  1.
        2   -1    0    0  501    0  0.00000000000E+00  0.00000000000E+00 -0.26107021282E+04  0.26107021282E+04  0.25500000920E-02 0. -1.
    10030    2    1    2    0    0  0.00000000000E+00  0.00000000000E+00 -0.11627521420E+04  0.40586521144E+04  0.38885298561E+04 0.  0.
        2    1    3    3  502    0  0.11234037687E+04  0.75074232981E+03  0.87782792018E+03  0.16112826973E+04  0.25500000920E-02 0.  1.
       -2    1    3    3    0  502 -0.11234037687E+04 -0.75074232981E+03 -0.20405800622E+04  0.24473694171E+04  0.25500000920E-02 0. -1.
</event>
<event>
 5   0  0.1164500E-08  0.3909928E+04  0.7818609E-02  0.8022968E-01
       -1   -1    0    0    0  501  0.00000000000E+00  0.00000000000E+00  0.26571676251E+04  0.26571676251E+04  0.50400001928E-02 0.  1.
        1   -1    0    0  501    0  0.00000000000E+00  0.00000000000E+00 -0.14383298112E+04  0.14383298112E+04  0.50400001928E-02 0. -1.
    10030    2    1    2    0    0  0.00000000000E+00  0.00000000000E+00  0.12188378139E+04  0.40954974363E+04  0.39099275740E+04 0.  0.
        3    1    3    3  502    0 -0.59610704651E+03  0.18618315533E+04  0.62103839543E+03  0.20512067283E+04  0.10100000352E+00 0. -1.
       -3    1    3    3    0  502  0.59610704651E+03 -0.18618315533E+04  0.59779941843E+03  0.20442907079E+04  0.10100000352E+00 0.  1.
</event>
<event>
 5   0  0.1164500E-08  0.3901482E+04  0.7818609E-02  0.8024721E-01
        1   -1    0    0  501    0  0.00000000000E+00  0.00000000000E+00  0.14355687611E+04  0.14355687611E+04  0.50400001928E-02 0.  1.
       -1   -1    0    0    0  501  0.00000000000E+00  0.00000000000E+00 -0.26507896785E+04  0.26507896785E+04  0.50400001928E-02 0. -1.
    10030    2    1    2    0    0  0.00000000000E+00  0.00000000000E+00 -0.12152209174E+04  0.40863584396E+04  0.39014822079E+04 0.  0.
        4    1    3    3  502    0 -0.58121726208E+02 -0.14622877960E+04  0.74336563973E+03  0.16414194530E+04  0.12699999809E+01 0.  1.
       -4    1    3    3    0  502  0.58121726208E+02  0.14622877960E+04 -0.19585865571E+04  0.24449389866E+04  0.12699999809E+01 0. -1.
</event>
<event>
 5   0  0.1164500E-08  0.3911221E+04  0.7818609E-02  0.8022699E-01
       -3   -1    0    0    0  501  0.00000000000E+00  0.00000000000E+00  0.23764728752E+04  0.23764728773E+04  0.10100000352E+00 0.  1.
        3   -1    0    0  501    0  0.00000000000E+00  0.00000000000E+00 -0.16092810722E+04  0.16092810754E+04  0.10100000352E+00 0. -1.
    10030    2    1    2    0    0  0.00000000000E+00  0.00000000000E+00  0.76719180300E+03  0.39857539527E+04  0.39112212043E+04 0.  0.
        2    1    3    3  502    0 -0.15154956021E+04  0.62630292702E+03  0.14694673010E+04  0.22018892853E+04  0.25500000920E-02 0. -1.
       -2    1    3    3    0  502  0.15154956021E+04 -0.62630292702E+03 -0.70227549796E+03  0.17838646673E+04  0.25500000920E-02 0.  1.
</event>
<event>
 5   0  0.1164500E-08  0.3904616E+04  0.7818609E-02  0.8024070E-01
        1   -1    0    0  501    0  0.00000000000E+00  0.00000000000E+00  0.24763417557E+04  0.24763417557E+04  0.50400001928E-02 0. -1.
       -1   -1    0    0    0  501  0.00000000000E+00  0.00000000000E+00 -0.15391680243E+04  0.15391680243E+04  0.50400001928E-02 0.  1.
    10030    2    1    2    0    0  0.00000000000E+00  0.00000000000E+00  0.93717373134E+03  0.40155097800E+04  0.39046157545E+04 0.  0.
        4    1    3    3  502    0  0.14231240040E+04  0.45494044243E+03 -0.82378668702E+03  0.17061297886E+04  0.12699999809E+01 0.  1.
       -4    1    3    3    0  502 -0.14231240040E+04 -0.45494044243E+03  0.17609604184E+04  0.23093799914E+04  0.12699999809E+01 0. -1.
</event>
<event>
 5   0  0.1164500E-08  0.3893261E+04  0.7818609E-02  0.8026432E-01
       -1   -1    0    0    0  501  0.00000000000E+00  0.00000000000E+00  0.27129766416E+04  0.27129766417E+04  0.50400001928E-02 0. -1.
        1   -1    0    0  501    0  0.00000000000E+00  0.00000000000E+00 -0.13967571825E+04  0.13967571825E+04  0.50400001928E-02 0.  1.
    10030    2    1    2    0    0  0.00000000000E+00  0.00000000000E+00  0.13162194591E+04  0.41097338242E+04  0.38932606439E+04 0.  0.
        1    1    3    3  502    0 -0.42440494963E+03  0.15629770916E+04 -0.48191732333E+03  0.16897518328E+04  0.50400001928E-02 0.  1.
       -1    1    3    3    0  502  0.42440494963E+03 -0.15629770916E+04  0.17981367825E+04  0.24199819914E+04  0.50400001928E-02 0. -1.
</event>
<event>
 5   0  0.3669347E-08  0.3904326E+04  0.7818609E-02  0.8024130E-01
       -2   -1    0    0    0  501  0.00000000000E+00  0.00000000000E+00  0.20990845194E+04  0.20990845194E+04  0.25500000920E-02 0.  1.
        2   -1    0    0  501    0  0.00000000000E+00  0.00000000000E+00 -0.18155247615E+04  0.18155247615E+04  0.25500000920E-02 0. -1.
    10030    2    1    2    0    0  0.00000000000E+00  0.00000000000E+00  0.28355975794E+03  0.39146092809E+04  0.39043257658E+04 0.  0.
        5    1    3    3  502    0  0.44412910935E+03  0.12531096106E+04 -0.12914548149E+04  0.18534864421E+04  0.46999998093E+01 0. -1.
       -5    1    3    3    0  502 -0.44412910935E+03 -0.12531096106E+04  0.15750145729E+04  0.20611228388E+04  0.46999998093E+01 0.  1.
</event>
<event>
 5   0  0.1164500E-08  0.3897023E+04  0.7818609E-02  0.8025649E-01
        1   -1    0    0  501    0  0.00000000000E+00  0.00000000000E+00  0.23959921212E+04  0.23959921212E+04  0.50400001928E-02 0.  1.
       -1   -1    0    0    0  501  0.00000000000E+00  0.00000000000E+00 -0.15846030051E+04  0.15846030051E+04  0.50400001928E-02 0. -1.
    10030    2    1    2    0    0  0.00000000000E+00  0.00000000000E+00  0.81138911612E+03  0.39805951263E+04  0.38970226150E+04 0.  0.
        4    1    3    3  502    0 -0.78965008888E+03 -0.16349324151E+04  0.11280689939E+04  0.21375435745E+04  0.12699999809E+01 0.  1.
       -4    1    3    3    0  502  0.78965008888E+03  0.16349324151E+04 -0.31667987776E+03  0.18430515519E+04  0.12699999809E+01 0. -1.
</event>
<event>
 5   0  0.1164500E-08  0.3780513E+04  0.7818609E-02  0.8050350E-01
        1   -1    0    0  501    0  0.00000000000E+00  0.00000000000E+00  0.27431460654E+04  0.27431460654E+04  0.50400001928E-02 0.  1.
       -1   -1    0    0    0  501  0.00000000000E+00  0.00000000000E+00 -0.13025447099E+04  0.13025447099E+04  0.50400001928E-02 0. -1.
    10030    2    1    2    0    0  0.00000000000E+00  0.00000000000E+00  0.14406013555E+04  0.40456907752E+04  0.37805134021E+04 0.  0.
        2    1    3    3  502    0  0.15458143483E+04 -0.23619948907E+03 -0.41613811109E+03  0.16181789535E+04  0.25500000920E-02 0. -1.
       -2    1    3    3    0  502 -0.15458143483E+04  0.23619948907E+03  0.18567394666E+04  0.24275118218E+04  0.25500000920E-02 0.  1.
</event>
<event>
 5   0  0.3690572E-08  0.3902048E+04  0.7818609E-02  0.8024603E-01
       -2   -1    0    0    0  501  0.00000000000E+00  0.00000000000E+00  0.12617050935E+04  0.12617050935E+04  0.25500000920E-02 0. -1.
        2   -1    0    0  501    0  0.00000000000E+00  0.00000000000E+00 -0.30169442940E+04  0.30169442940E+04  0.25500000920E-02 0.  1.
    10030    2    1    2    0    0  0.00000000000E+00  0.00000000000E+00 -0.17552392005E+04  0.42786493875E+04  0.39020476586E+04 0.  0.
        3    1    3    3  502    0 -0.12228988772E+04 -0.19584215553E+03 -0.25306513249E+04  0.28174513220E+04  0.10100000352E+00 0.  1.
       -3    1    3    3    0  502  0.12228988772E+04  0.19584215553E+03  0.77541212436E+03  0.14611980655E+04  0.10100000352E+00 0. -1.
</event>
<event>
 5   0  0.3690572E-08  0.3899668E+04  0.7818609E-02  0.8025098E-01
        2   -1    0    0  501    0  0.00000000000E+00  0.00000000000E+00  0.28126783029E+04  0.28126783029E+04  0.25500000920E-02 0. -1.
       -2   -1    0    0    0  501  0.00000000000E+00  0.00000000000E+00 -0.13516839130E+04  0.13516839130E+04  0.25500000920E-02 0.  1.
    10030    2    1    2    0    0  0.00000000000E+00  0.00000000000E+00  0.14609943900E+04  0.41643622159E+04  0.38996676856E+04 0.  0.
        3    1    3    3  502    0 -0.19139571405E+04 -0.35925891544E+03  0.83487137138E+03  0.21187989808E+04  0.10100000352E+00 0. -1.
       -3    1    3    3    0  502  0.19139571405E+04  0.35925891544E+03  0.62612301859E+03  0.20455632351E+04  0.10100000352E+00 0.  1.
</event>
<event>
 5   0  0.1164500E-08  0.3894398E+04  0.7818609E-02  0.8026195E-01
        1   -1    0    0  501    0  0.00000000000E+00  0.00000000000E+00  0.24823873148E+04  0.24823873148E+04  0.50400001928E-02 0.  1.
       -1   -1    0    0    0  501  0.00000000000E+00  0.00000000000E+00 -0.15273938267E+04  0.15273938267E+04  0.50400001928E-02 0. -1.
    10030    2    1    2    0    0  0.00000000000E+00  0.00000000000E+00  0.95499348815E+03  0.40097811415E+04  0.38943975452E+04 0.  0.
        5    1    3    3  502    0  0.13322713894E+04  0.95383855722E+03  0.15607153803E+04  0.22628764077E+04  0.46999998093E+01 0.  1.
       -5    1    3    3    0  502 -0.13322713894E+04 -0.95383855722E+03 -0.60572189219E+03  0.17469047338E+04  0.46999998093E+01 0. -1.
</event>
<event>
 5   0  0.3669347E-08  0.3899656E+04  0.7818609E-02  0.8025101E-01
       -2   -1    0    0    0  501  0.00000000000E+00  0.00000000000E+00  0.18892986186E+04  0.18892986186E+04  0.25500000920E-02 0. -1.
        2   -1    0    0  501    0  0.00000000000E+00  0.00000000000E+00 -0.20122962624E+04  0.20122962624E+04  0.25500000920E-02 0.  1.
    10030    2    1    2    0    0  0.00000000000E+00  0.00000000000E+00 -0.12299764378E+03  0.39015948810E+04  0.38996556508E+04 0.  0.
        5    1    3    3  502    0 -0.18164051525E+04  0.70113698317E+03  0.42887675595E+02  0.19475066598E+04  0.46999998093E+01 0. -1.
       -5    1    3    3    0  502  0.18164051525E+04 -0.70113698317E+03 -0.16588531938E+03  0.19540882212E+04  0.46999998093E+01 0.  1.
</event>
<event>
 5   0  0.3690572E-08  0.3899344E+04  0.7818609E-02  0.8025166E-01
        2   -1    0    0  501    0  0.00000000000E+00  0.00000000000E+00  0.27005810263E+04  0.27005810263E+04  0.25500000920E-02 0. -1.
       -2   -1    0    0    0  501  0.00000000000E+00  0.00000000000E+00 -0.14075564640E+04  0.14075564640E+04  0.25500000920E-02 0.  1.
    10030    2    1    2    0    0  0.00000000000E+00  0.00000000000E+00  0.12930245623E+04  0.41081374903E+04  0.38993436782E+04 0.  0.
        3    1    3    3  502    0  0.11967220593E+04  0.34930277314E+03  0.22257997580E+04  0.25511449757E+04  0.10100000352E+00 0. -1.
       -3    1    3    3    0  502 -0.11967220593E+04 -0.34930277314E+03 -0.93277519566E+03  0.15569925146E+04  0.10100000352E+00 0.  1.
</event>
<event>
 5   0  0.1164500E-08  0.3900084E+04  0.7818609E-02  0.8025012E-01
       -1   -1    0    0    0  501  0.00000000000E+00  0.00000000000E+00  0.18068466525E+04  0.18068466525E+04  0.50400001928E-02 0. -1.
        1   -1    0    0  501    0  0.00000000000E+00  0.00000000000E+00 -0.21045860360E+04  0.21045860360E+04  0.50400001928E-02 0.  1.
    10030    2    1    2    0    0  0.00000000000E+00  0.00000000000E+00 -0.29773938350E+03  0.39114326886E+04  0.39000842218E+04 0.  0.
        3    1    3    3  502    0 -0.17375401089E+04  0.87508780900E+03 -0.14914876259E+02  0.19455196651E+04  0.10100000352E+00 0. -1.
       -3    1    3    3    0  502  0.17375401089E+04 -0.87508780900E+03 -0.28282450724E+03  0.19659130234E+04  0.10100000352E+00 0.  1.
</event>
<event>
 5   0  0.1164500E-08  0.3900820E+04  0.7818609E-02  0.8024859E-01
        1   -1    0    0  501    0  0.00000000000E+00  0.00000000000E+00  0.14966828771E+04  0.14966828771E+04  0.50400001928E-02 0.  1.
       -1   -1    0    0    0  501  0.00000000000E+00  0.00000000000E+00 -0.25416863743E+04  0.25416863743E+04  0.50400001928E-02 0. -1.
    10030    2    1    2    0    0  0.00000000000E+00  0.00000000000E+00 -0.10450034971E+04  0.40383692514E+04  0.39008196448E+04 0.  0.
        3    1    3    3  502    0  0.67025055832E+03  0.16998159766E+04 -0.12288266867E+04  0.22019594005E+04  0.10100000352E+00 0. -1.
       -3    1    3    3    0  502 -0.67025055832E+03 -0.16998159766E+04  0.18382318956E+03  0.18364098509E+04  0.10100000352E+00 0.  1.
</event>
<event>
 5   0  0.1164500E-08  0.3901051E+04  0.7818609E-02  0.8024811E-01
       -1   -1    0    0    0  501  0.00000000000E+00  0.00000000000E+00  0.19992251134E+04  0.19992251134E+04  0.50400001928E-02 0.  1.
        1   -1    0    0  501    0  0.00000000000E+00  0.00000000000E+00 -0.19030122946E+04  0.19030122946E+04  0.50400001928E-02 0. -1.
    10030    2    1    2    0    0  0.00000000000E+00  0.00000000000E+00  0.96212818826E+02  0.39022374080E+04  0.39010511253E+04 0.  0.
        4    1    3    3  502    0 -0.43775132792E+03  0.14848229145E+04  0.12351530122E+04  0.19803862979E+04  0.12699999809E+01 0.  1.
       -4    1    3    3    0  502  0.43775132792E+03 -0.14848229145E+04 -0.11389401933E+04  0.19218511101E+04  0.12699999809E+01 0. -1.
</event>
<event>
 5   0  0.3769985E-08  0.3893854E+04  0.7818609E-02  0.8026309E-01
        2   -1    0    0  501    0  0.00000000000E+00  0.00000000000E+00  0.19534157258E+04  0.19534157258E+04  0.25500000920E-02 0. -1.
       -2   -1    0    0    0  501  0.00000000000E+00  0.00000000000E+00 -0.19404595285E+04  0.19404595285E+04  0.25500000920E-02 0.  1.
    10030    2    1    2    0    0  0.00000000000E+00  0.00000000000E+00  0.12956197317E+02  0.38938752543E+04  0.38938536995E+04 0.  0.
        1    1    3    3  502    0 -0.10403335241E+03 -0.18294489213E+04 -0.65141448821E+03  0.19447486032E+04  0.50400001928E-02 0.  1.
       -1    1    3    3    0  502  0.10403335241E+03  0.18294489213E+04  0.66437068552E+03  0.19491266511E+04  0.50400001928E-02 0. -1.
</event>
<event>
 5   0  0.1164500E-08  0.3909321E+04  0.7818609E-02  0.8023093E-01
        1   -1    0    0  501    0  0.00000000000E+00  0.00000000000E+00  0.26023040752E+04  0.26023040752E+04  0.50400001928E-02 0.  1.
       -1   -1    0    0    0  501  0.00000000000E+00  0.00000000000E+00 -0.14681980738E+04  0.14681980738E+04  0.50400001928E-02 0. -1.
    10030    2    1    2    0    0  0.00000000000E+00  0.00000000000E+00  0.11341060013E+04  0.40705021490E+04  0.39093210821E+04 0.  0.
        2    1    3    3  502    0 -0.40942926643E+03  0.18998535540E+04  0.34958301117E+03  0.19746605107E+04  0.25500000920E-02 0. -1.
       -2    1    3    3    0  502  0.40942926643E+03 -0.18998535540E+04  0.78452299017E+03  0.20958416383E+04  0.25500000920E-02 0.  1.
</event>
<event>
 5   0  0.3872969E-08  0.3926564E+04  0.7818609E-02  0.8019527E-01
        2   -1    0    0  501    0  0.00000000000E+00  0.00000000000E+00  0.29963659218E+04  0.29963659218E+04  0.25500000920E-02 0. -1.
       -2   -1    0    0    0  501  0.00000000000E+00  0.00000000000E+00 -0.12863838065E+04  0.12863838065E+04  0.25500000920E-02 0.  1.
    10030    2    1    2    0    0  0.00000000000E+00  0.00000000000E+00  0.17099821153E+04  0.42827497282E+04  0.39265641979E+04 0.  0.
        2    1    3    3  502    0 -0.54824403870E+03 -0.84568315045E+03  0.26926785583E+04  0.28751120561E+04  0.25500000920E-02 0. -1.
       -2    1    3    3    0  502  0.54824403870E+03  0.84568315045E+03 -0.98269644299E+03  0.14076376721E+04  0.25500000920E-02 0.  1.
</event>
<event>
 5   0  0.3690572E-08  0.3900233E+04  0.7818609E-02  0.8024981E-01
        2   -1    0    0  501    0  0.00000000000E+00  0.00000000000E+00  0.18068087094E+04  0.18068087094E+04  0.25500000920E-02 0. -1.
       -2   -1    0    0    0  501  0.00000000000E+00  0.00000000000E+00 -0.21047911055E+04  0.21047911055E+04  0.25500000920E-02 0.  1.
    10030    2    1    2    0    0  0.00000000000E+00  0.00000000000E+00 -0.29798239607E+03  0.39115998149E+04  0.39002332755E+04 0.  0.
        3    1    3    3  502    0  0.13543219359E+04 -0.13704504495E+03  0.12514972803E+04  0.18491118687E+04  0.10100000352E+00 0. -1.
       -3    1    3    3    0  502 -0.13543219359E+04  0.13704504495E+03 -0.15494796764E+04  0.20624879461E+04  0.10100000352E+00 0.  1.
</event>
<event>
 5   0  0.1164500E-08  0.3818757E+04  0.7818609E-02  0.8042142E-01
        1   -1    0    0  501    0  0.00000000000E+00  0.00000000000E+00  0.20839219473E+04  0.20839219473E+04  0.50400001928E-02 0. -1.
       -1   -1    0    0    0  501  0.00000000000E+00  0.00000000000E+00 -0.17494544934E+04  0.17494544934E+04  0.50400001928E-02 0.  1.
    10030    2    1    2    0    0  0.00000000000E+00  0.00000000000E+00  0.33446745392E+03  0.38333764408E+04  0.38187571877E+04 0.  0.
        4    1    3    3  502    0 -0.12762832213E+03  0.10299449342E+04  0.17760699785E+04  0.20570614327E+04  0.12699999809E+01 0. -1.
       -4    1    3    3    0  502  0.12762832213E+03 -0.10299449342E+04 -0.14416025246E+04  0.17763150081E+04  0.12699999809E+01 0.  1.
</event>
<event>
 5   0  0.1164500E-08  0.3873500E+04  0.7818609E-02  0.8030563E-01
       -1   -1    0    0    0  501  0.00000000000E+00  0.00000000000E+00  0.16990107342E+04  0.16990107342E+04  0.50400001928E-02 0.  1.
        1   -1    0    0  501    0  0.00000000000E+00  0.00000000000E+00 -0.22077551982E+04  0.22077551983E+04  0.50400001928E-02 0. -1.
    10030    2    1    2    0    0  0.00000000000E+00  0.00000000000E+00 -0.50874446401E+03  0.39067659325E+04  0.38734995962E+04 0.  0.
        1    1    3    3  502    0 -0.24238830939E+03 -0.18270595825E+04 -0.85454658783E+03  0.20315385011E+04  0.50400001928E-02 0. -1.
       -1    1    3    3    0  502  0.24238830939E+03  0.18270595825E+04  0.34580212382E+03  0.18752274314E+04  0.50400001928E-02 0.  1.
</event>
<event>
 5   0  0.3690572E-08  0.3904671E+04  0.7818609E-02  0.8024058E-01
        2   -1    0    0  501    0  0.00000000000E+00  0.00000000000E+00  0.19412552118E+04  0.19412552118E+04  0.25500000920E-02 0. -1.
       -2   -1    0    0    0  501  0.00000000000E+00  0.00000000000E+00 -0.19634790299E+04  0.19634790299E+04  0.25500000920E-02 0.  1.
    10030    2    1    2    0    0  0.00000000000E+00  0.00000000000E+00 -0.22223818133E+02  0.39047342417E+04  0.39046709977E+04 0.  0.
        3    1    3    3  502    0  0.17841098809E+04  0.18098782118E+03 -0.78301121082E+03  0.19567603903E+04  0.10100000352E+00 0.  1.
       -3    1    3    3    0  502 -0.17841098809E+04 -0.18098782118E+03  0.76078739268E+03  0.19479738514E+04  0.10100000352E+00 0. -1.
</event>
<event>
 5   0  0.3669347E-08  0.3895985E+04  0.7818609E-02  0.8025865E-01
       -2   -1    0    0    0  501  0.00000000000E+00  0.00000000000E+00  0.15913420829E+04  0.15913420829E+04  0.25500000920E-02 0. -1.
        2   -1    0    0  501    0  0.00000000000E+00  0.00000000000E+00 -0.23845755184E+04  0.23845755184E+04  0.25500000920E-02 0.  1.
    10030    2    1    2    0    0  0.00000000000E+00  0.00000000000E+00 -0.79323343557E+03  0.39759176013E+04  0.38959853040E+04 0.  0.
        5    1    3    3  502    0 -0.95928802391E+03 -0.65519945010E+03  0.11991571497E+04  0.16695867129E+04  0.46999998093E+01 0. -1.
       -5    1    3    3    0  502  0.95928802391E+03  0.65519945010E+03 -0.19923905853E+04  0.23063308884E+04  0.46999998093E+01 0.  1.
</event>
<event>
 5   0  0.1164500E-08  0.3900211E+04  0.7818609E-02  0.8024985E-01
        1   -1    0    0  501    0  0.00000000000E+00  0.00000000000E+00  0.22000116007E+04  0.22000116007E+04  0.50400001928E-02 0.  1.
       -1   -1    0    0    0  501  0.00000000000E+00  0.00000000000E+00 -0.17285869244E+04  0.17285869244E+04  0.50400001928E-02 0. -1.
    10030    2    1    2    0    0  0.00000000000E+00  0.00000000000E+00  0.47142467629E+03  0.39285985251E+04  0.39002109105E+04 0.  0.
        3    1    3    3  502    0 -0.61813845436E+03 -0.17898992008E+04 -0.23359402277E+03  0.19079833530E+04  0.10100000352E+00 0.  1.
       -3    1    3    3    0  502  0.61813845436E+03  0.17898992008E+04  0.70501869906E+03  0.20206151721E+04  0.10100000352E+00 0. -1.
</event>
<event>
 5   0  0.1164500E-08  0.3885813E+04  0.7818609E-02  0.8027986E-01
        1   -1    0    0  501    0  0.00000000000E+00  0.00000000000E+00  0.21947504551E+04  0.21947504552E+04  0.50400001928E-02 0. -1.
       -1   -1    0    0    0  501  0.00000000000E+00  0.00000000000E+00 -0.17199615843E+04  0.17199615843E+04  0.50400001928E-02 0.  1.
    10030    2    1    2    0    0  0.00000000000E+00  0.00000000000E+00  0.47478887085E+03  0.39147120395E+04  0.38858134129E+04 0.  0.
        4    1    3    3  502    0 -0.81538407235E+03  0.40602023264E+03 -0.14915215564E+04  0.17476675258E+04  0.12699999809E+01 0.  1.
       -4    1    3    3    0  502  0.81538407235E+03 -0.40602023264E+03  0.19663104273E+04  0.21670445136E+04  0.12699999809E+01 0. -1.
</event>
<event>
 5   0  0.1164500E-08  0.3901480E+04  0.7818609E-02  0.8024721E-01
        1   -1    0    0  501    0  0.00000000000E+00  0.00000000000E+00  0.14179392402E+04  0.14179392402E+04  0.50400001928E-02 0.  1.
       -1   -1    0    0    0  501  0.00000000000E+00  0.00000000000E+00 -0.26837447371E+04  0.26837447371E+04  0.50400001928E-02 0. -1.
    10030    2    1    2    0    0  0.00000000000E+00  0.00000000000E+00 -0.12658054969E+04  0.41016839773E+04  0.39014802183E+04 0.  0.
        2    1    3    3  502    0  0.97532842043E+03  0.16844861048E+04 -0.76846941092E+03  0.20926787141E+04  0.25500000920E-02 0. -1.
       -2    1    3    3    0  502 -0.97532842043E+03 -0.16844861048E+04 -0.49733608593E+03  0.20090052632E+04  0.25500000920E-02 0.  1.
</event>
<event>
 5   0  0.3724293E-08  0.3874520E+04  0.7818609E-02  0.8030350E-01
        2   -1    0    0  501    0  0.00000000000E+00  0.00000000000E+00  0.25469184659E+04  0.25469184659E+04  0.25500000920E-02 0.  1.
       -2   -1    0    0    0  501  0.00000000000E+00  0.00000000000E+00 -0.14735360509E+04  0.14735360509E+04  0.25500000920E-02 0. -1.
    10030    2    1    2    0    0  0.00000000000E+00  0.00000000000E+00  0.10733824150E+04  0.40204545168E+04  0.38745199332E+04 0.  0.
        4    1    3    3  502    0 -0.80605111626E+03 -0.73328797150E+03 -0.11253701976E+04  0.15664894975E+04  0.12699999809E+01 0. -1.
       -4    1    3    3    0  502  0.80605111626E+03  0.73328797150E+03  0.21987526127E+04  0.24539650193E+04  0.12699999809E+01 0.  1.
</event>
<event>
 5   0  0.1164500E-08  0.3901072E+04  0.7818609E-02  0.8024806E-01
        1   -1    0    0  501    0  0.00000000000E+00  0.00000000000E+00  0.19424042430E+04  0.19424042430E+04  0.50400001928E-02 0. -1.
       -1   -1    0    0    0  501  0.00000000000E+00  0.00000000000E+00 -0.19587020593E+04  0.19587020593E+04  0.50400001928E-02 0.  1.
    10030    2    1    2    0    0  0.00000000000E+00  0.00000000000E+00 -0.16297816356E+02  0.39011063023E+04  0.39010722581E+04 0.  0.
        5    1    3    3  502    0 -0.75302404208E+03 -0.22964683964E+03 -0.17927614176E+04  0.19580088021E+04  0.46999998093E+01 0.  1.
       -5    1    3    3    0  502  0.75302404208E+03  0.22964683964E+03  0.17764636012E+04  0.19430975002E+04  0.46999998093E+01 0. -1.
</event>
<event>
 5   0  0.3669347E-08  0.3898026E+04  0.7818609E-02  0.8025440E-01
       -2   -1    0    0    0  501  0.00000000000E+00  0.00000000000E+00  0.29413330095E+04  0.29413330095E+04  0.25500000920E-02 0.  1.
        2   -1    0    0  501    0  0.00000000000E+00  0.00000000000E+00 -0.12914725489E+04  0.12914725489E+04  0.25500000920E-02 0. -1.
    10030    2    1    2    0    0  0.00000000000E+00  0.00000000000E+00  0.16498604606E+04  0.42328055584E+04  0.38980255715E+04 0.  0.
        5    1    3    3  502    0 -0.10748753281E+04 -0.44750303745E+03  0.25221829258E+04  0.27779569364E+04  0.46999998093E+01 0.  1.
       -5    1    3    3    0  502  0.10748753281E+04  0.44750303745E+03 -0.87232246520E+03  0.14548486220E+04  0.46999998093E+01 0. -1.
</event>
<event>
 5   0  0.1164500E-08  0.4008995E+04  0.7818609E-02  0.8002734E-01
        1   -1    0    0  501    0  0.00000000000E+00  0.00000000000E+00  0.16902033910E+04  0.16902033910E+04  0.50400001928E-02 0. -1.
       -1   -1    0    0    0  501  0.00000000000E+00  0.00000000000E+00 -0.23772350794E+04  0.23772350794E+04  0.50400001928E-02 0.  1.
    10030    2    1    2    0    0  0.00000000000E+00  0.00000000000E+00 -0.68703168848E+03  0.40674384704E+04  0.40089952818E+04 0.  0.
        2    1    3    3  502    0  0.83260594748E+03  0.71962024689E+03 -0.20433276368E+04  0.23208347194E+04  0.25500000920E-02 0.  1.
       -2    1    3    3    0  502 -0.83260594748E+03 -0.71962024689E+03  0.13562959483E+04  0.17466037510E+04  0.25500000920E-02 0. -1.
</event>
<event>
 5   0  0.3769985E-08  0.3901979E+04  0.7818609E-02  0.8024618E-01
       -2   -1    0    0    0  501  0.00000000000E+00  0.00000000000E+00  0.20189816189E+04  0.20189816189E+04  0.25500000920E-02 0.  1.
        2   -1    0    0  501    0  0.00000000000E+00  0.00000000000E+00 -0.18852873397E+04  0.18852873397E+04  0.25500000920E-02 0. -1.
    10030    2    1    2    0    0  0.00000000000E+00  0.00000000000E+00  0.13369427917E+03  0.39042689586E+04  0.39019792338E+04 0.  0.
        1    1    3    3  502    0  0.17182635189E+04  0.53774627510E+03  0.81879322652E+03  0.19778834457E+04  0.50400001928E-02 0.  1.
       -1    1    3    3    0  502 -0.17182635189E+04 -0.53774627510E+03 -0.68509894735E+03  0.19263855129E+04  0.50400001928E-02 0. -1.
</event>
<event>
 5   0  0.1164500E-08  0.3897342E+04  0.7818609E-02  0.8025582E-01
        1   -1    0    0  501    0  0.00000000000E+00  0.00000000000E+00  0.17676574060E+04  0.17676574060E+04  0.50400001928E-02 0.  1.
       -1   -1    0    0    0  501  0.00000000000E+00  0.00000000000E+00 -0.21482209678E+04  0.21482209678E+04  0.50400001928E-02 0. -1.
    10030    2    1    2    0    0  0.00000000000E+00  0.00000000000E+00 -0.38056356175E+03  0.39158783738E+04  0.38973420191E+04 0.  0.
        5    1    3    3  502    0 -0.17762704368E+03 -0.40513811219E+03  0.17165347885E+04  0.17726257435E+04  0.46999998093E+01 0.  1.
       -5    1    3    3    0  502  0.17762704368E+03  0.40513811219E+03 -0.20970983502E+04  0.21432526303E+04  0.46999998093E+01 0. -1.
</event>
<event>
 5   0  0.1164500E-08  0.3914986E+04  0.7818609E-02  0.8021920E-01
       -1   -1    0    0    0  501  0.00000000000E+00  0.00000000000E+00  0.21386187024E+04  0.21386187024E+04  0.50400001928E-02 0.  1.
        1   -1    0    0  501    0  0.00000000000E+00  0.00000000000E+00 -0.17917078025E+04  0.17917078025E+04  0.50400001928E-02 0. -1.
    10030    2    1    2    0    0  0.00000000000E+00  0.00000000000E+00  0.34691089984E+03  0.39303265049E+04  0.39149864959E+04 0.  0.
        2    1    3    3  502    0  0.18656291223E+04 -0.57076880597E+03  0.13360341107E+02  0.19510324320E+04  0.25500000920E-02 0.  1.
       -2    1    3    3    0  502 -0.18656291223E+04  0.57076880597E+03  0.33355055873E+03  0.19792940729E+04  0.25500000920E-02 0. -1.
</event>
<event>
 5   0  0.3872969E-08  0.3906515E+04  0.7818609E-02  0.8023676E-01
       -2   -1    0    0    0  501  0.00000000000E+00  0.00000000000E+00  0.23487639271E+04  0.23487639272E+04  0.25500000920E-02 0.  1.
        2   -1    0    0  501    0  0.00000000000E+00  0.00000000000E+00 -0.16243499384E+04  0.16243499384E+04  0.25500000920E-02 0. -1.
    10030    2    1    2    0    0  0.00000000000E+00  0.00000000000E+00  0.72441398879E+03  0.39731138655E+04  0.39065148356E+04 0.  0.
        2    1    3    3  502    0  0.51385235582E+03 -0.50469754064E+03  0.22087729549E+04  0.23232395093E+04  0.25500000920E-02 0.  1.
       -2    1    3    3    0  502 -0.51385235582E+03  0.50469754064E+03 -0.14843589661E+04  0.16498743562E+04  0.25500000920E-02 0. -1.
</event>
<event>
 5   0  0.3872969E-08  0.3890041E+04  0.7818609E-02  0.8027104E-01
       -2   -1    0    0    0  501  0.00000000000E+00  0.00000000000E+00  0.19627212230E+04  0.19627212230E+04  0.25500000920E-02 0. -1.
        2   -1    0    0  501    0  0.00000000000E+00  0.00000000000E+00 -0.19274798834E+04  0.19274798834E+04  0.25500000920E-02 0.  1.
    10030    2    1    2    0    0  0.00000000000E+00  0.00000000000E+00  0.35241339629E+02  0.38902011063E+04  0.38900414774E+04 0.  0.
        2    1    3    3  502    0 -0.57597941490E+03 -0.17317554359E+04  0.69023766731E+03  0.19511937919E+04  0.25500000920E-02 0. -1.
       -2    1    3    3    0  502  0.57597941490E+03  0.17317554359E+04 -0.65499632768E+03  0.19390073144E+04  0.25500000920E-02 0.  1.
</event>
<event>
 5   0  0.3724293E-08  0.3898803E+04  0.7818609E-02  0.8025278E-01
        2   -1    0    0  501    0  0.00000000000E+00  0.00000000000E+00  0.27184553662E+04  0.27184553662E+04  0.25500000920E-02 0.  1.
       -2   -1    0    0    0  501  0.00000000000E+00  0.00000000000E+00 -0.13979138138E+04  0.13979138138E+04  0.25500000920E-02 0. -1.
    10030    2    1    2    0    0  0.00000000000E+00  0.00000000000E+00  0.13205415524E+04  0.41163691800E+04  0.38988030515E+04 0.  0.
        4    1    3    3  502    0 -0.53247471221E+02  0.11149231334E+04  0.23476663896E+04  0.25995053330E+04  0.12699999809E+01 0.  1.
       -4    1    3    3    0  502  0.53247471221E+02 -0.11149231334E+04 -0.10271248371E+04  0.15168638470E+04  0.12699999809E+01 0. -1.
</event>
<event>
 5   0  0.3872969E-08  0.3902182E+04  0.7818609E-02  0.8024575E-01
       -2   -1    0    0    0  501  0.00000000000E+00  0.00000000000E+00  0.21083766795E+04  0.21083766795E+04  0.25500000920E-02 0.  1.
        2   -1    0    0  501    0  0.00000000000E+00  0.00000000000E+00 -0.18055391931E+04  0.18055391931E+04  0.25500000920E-02 0. -1.
    10030    2    1    2    0    0  0.00000000000E+00  0.00000000000E+00  0.30283748639E+03  0.39139158725E+04  0.39021823271E+04 0.  0.
        2    1    3    3  502    0 -0.17486623525E+04  0.73301346543E+03  0.61283241294E+03  0.19926596122E+04  0.25500000920E-02 0.  1.
       -2    1    3    3    0  502  0.17486623525E+04 -0.73301346543E+03 -0.30999492655E+03  0.19212562604E+04  0.25500000920E-02 0. -1.
</event>
<event>
 5   0  0.3872969E-08  0.3901016E+04  0.7818609E-02  0.8024818E-01
        2   -1    0    0  501    0  0.00000000000E+00  0.00000000000E+00  0.23428874153E+04  0.23428874153E+04  0.25500000920E-02 0.  1.
       -2   -1    0    0    0  501  0.00000000000E+00  0.00000000000E+00 -0.16238430052E+04  0.16238430052E+04  0.25500000920E-02 0. -1.
    10030    2    1    2    0    0  0.00000000000E+00  0.00000000000E+00  0.71904441008E+03  0.39667304205E+04  0.39010159401E+04 0.  0.
        2    1    3    3  502    0  0.10859082367E+04 -0.71661555860E+03 -0.11181424406E+04  0.17155107329E+04  0.25500000920E-02 0. -1.
       -2    1    3    3    0  502 -0.10859082367E+04  0.71661555860E+03  0.18371868506E+04  0.22512196875E+04  0.25500000920E-02 0.  1.
</event>
<event>
 5   0  0.3690572E-08  0.3888854E+04  0.7818609E-02  0.8027351E-01
       -2   -1    0    0    0  501  0.00000000000E+00  0.00000000000E+00  0.17604331700E+04  0.17604331700E+04  0.25500000920E-02 0.  1.
        2   -1    0    0  501    0  0.00000000000E+00  0.00000000000E+00 -0.21476508730E+04  0.21476508730E+04  0.25500000920E-02 0. -1.
    10030    2    1    2    0    0  0.00000000000E+00  0.00000000000E+00 -0.38721770297E+03  0.39080840430E+04  0.38888537306E+04 0.  0.
        3    1    3    3  502    0 -0.68353748008E+03 -0.16466667389E+04  0.58615397941E+03  0.18767821753E+04  0.10100000352E+00 0. -1.
       -3    1    3    3    0  502  0.68353748008E+03  0.16466667389E+04 -0.97337168238E+03  0.20313018677E+04  0.10100000352E+00 0.  1.
</event>
<event>
 5   0  0.1164500E-08  0.3887253E+04  0.7818609E-02  0.8027685E-01
       -1   -1    0    0    0  501  0.00000000000E+00  0.00000000000E+00  0.20108821901E+04  0.20108821901E+04  0.50400001928E-02 0. -1.
        1   -1    0    0  501    0  0.00000000000E+00  0.00000000000E+00 -0.18786206294E+04  0.18786206294E+04  0.50400001928E-02 0.  1.
    10030    2    1    2    0    0  0.00000000000E+00  0.00000000000E+00  0.13226156065E+03  0.38895028195E+04  0.38872534086E+04 0.  0.
        4    1    3    3  502    0 -0.58189062614E+03  0.14584079302E+04  0.12122772660E+04  0.19837258314E+04  0.12699999809E+01 0. -1.
       -4    1    3    3    0  502  0.58189062614E+03 -0.14584079302E+04 -0.10800157053E+04  0.19057769881E+04  0.12699999809E+01 0.  1.
</event>
<event>
 5   0  0.1164500E-08  0.3901675E+04  0.7818609E-02  0.8024681E-01
       -1   -1    0    0    0  501  0.00000000000E+00  0.00000000000E+00  0.14205520885E+04  0.14205520885E+04  0.50400001928E-02 0. -1.
        1   -1    0    0  501    0  0.00000000000E+00  0.00000000000E+00 -0.26790765601E+04  0.26790765601E+04  0.50400001928E-02 0.  1.
    10030    2    1    2    0    0  0.00000000000E+00  0.00000000000E+00 -0.12585244716E+04  0.40996286486E+04  0.39016754364E+04 0.  0.
        1    1    3    3  502    0  0.74159805289E+03  0.14198105414E+04 -0.17992825236E+04  0.24089929941E+04  0.50400001928E-02 0.  1.
       -1    1    3    3    0  502 -0.74159805289E+03 -0.14198105414E+04  0.54075805208E+03  0.16906356546E+04  0.50400001928E-02 0. -1.
</event>
<event>
 5   0  0.1164500E-08  0.3899231E+04  0.7818609E-02  0.8025189E-01
       -1   -1    0    0    0  501  0.00000000000E+00  0.00000000000E+00  0.22796933578E+04  0.22796933578E+04  0.50400001928E-02 0.  1.
        1   -1    0    0  501    0  0.00000000000E+00  0.00000000000E+00 -0.16673299123E+04  0.16673299123E+04  0.50400001928E-02 0. -1.
    10030    2    1    2    0    0  0.00000000000E+00  0.00000000000E+00  0.61236344546E+03  0.39470232702E+04  0.38992311686E+04 0.  0.
        3    1    3    3  502    0 -0.38211830391E+02 -0.55787019962E+03  0.21967787157E+04  0.22668295127E+04  0.10100000352E+00 0.  1.
       -3    1    3    3    0  502  0.38211830391E+02  0.55787019962E+03 -0.15844152703E+04  0.16801937574E+04  0.10100000352E+00 0. -1.
</event>
<event>
 5   0  0.1164500E-08  0.3909600E+04  0.7818609E-02  0.8023035E-01
       -1   -1    0    0    0  501  0.00000000000E+00  0.00000000000E+00  0.16600232894E+04  0.16600232894E+04  0.50400001928E-02 0. -1.
        1   -1    0    0  501    0  0.00000000000E+00  0.00000000000E+00 -0.23019217406E+04  0.23019217406E+04  0.50400001928E-02 0.  1.
    10030    2    1    2    0    0  0.00000000000E+00  0.00000000000E+00 -0.64189845122E+03  0.39619450300E+04  0.39096003375E+04 0.  0.
        2    1    3    3  502    0 -0.14667179872E+03  0.18786582836E+04 -0.84788617773E+03  0.20663447276E+04  0.25500000920E-02 0.  1.
       -2    1    3    3    0  502  0.14667179872E+03 -0.18786582836E+04  0.20598772651E+03  0.18956003024E+04  0.25500000920E-02 0. -1.
</event>
<event>
 5   0  0.1164500E-08  0.3902556E+04  0.7818609E-02  0.8024498E-01
        1   -1    0    0  501    0  0.00000000000E+00  0.00000000000E+00  0.16786628838E+04  0.16786628838E+04  0.50400001928E-02 0.  1.
       -1   -1    0    0    0  501  0.00000000000E+00  0.00000000000E+00 -0.22681663766E+04  0.22681663766E+04  0.50400001928E-02 0. -1.
    10030    2    1    2    0    0  0.00000000000E+00  0.00000000000E+00 -0.58950349283E+03  0.39468292605E+04  0.39025564497E+04 0.  0.
        3    1    3    3  502    0  0.12544644151E+03 -0.36729668963E+03  0.16392297071E+04  0.16845526738E+04  0.10100000352E+00 0.  1.
       -3    1    3    3    0  502 -0.12544644151E+03  0.36729668963E+03 -0.22287331999E+04  0.22622765867E+04  0.10100000352E+00 0. -1.
</event>
<event>
 5   0  0.3724293E-08  0.3902227E+04  0.7818609E-02  0.8024566E-01
        2   -1    0    0  501    0  0.00000000000E+00  0.00000000000E+00  0.22749104470E+04  0.22749104470E+04  0.25500000920E-02 0.  1.
       -2   -1    0    0    0  501  0.00000000000E+00  0.00000000000E+00 -0.16734036655E+04  0.16734036655E+04  0.25500000920E-02 0. -1.
    10030    2    1    2    0    0  0.00000000000E+00  0.00000000000E+00  0.60150678154E+03  0.39483141125E+04  0.39022267902E+04 0.  0.
        4    1    3    3  502    0 -0.55781446050E+03  0.18694659462E+04  0.32904740631E+03  0.19784675143E+04  0.12699999809E+01 0. -1.
       -4    1    3    3    0  502  0.55781446050E+03 -0.18694659462E+04  0.27245937523E+03  0.19698465982E+04  0.12699999809E+01 0.  1.
</event>
<event>
 5   0  0.3724293E-08  0.3904330E+04  0.7818609E-02  0.8024129E-01
        2   -1    0    0  501    0  0.00000000000E+00  0.00000000000E+00  0.22531362963E+04  0.22531362963E+04  0.25500000920E-02 0.  1.
       -2   -1    0    0    0  501  0.00000000000E+00  0.00000000000E+00 -0.16913972056E+04  0.16913972056E+04  0.25500000920E-02 0. -1.
    10030    2    1    2    0    0  0.00000000000E+00  0.00000000000E+00  0.56173909069E+03  0.39445335019E+04  0.39043301271E+04 0.  0.
        4    1    3    3  502    0  0.10942141303E+03 -0.16673647150E+04  0.13006536163E+04  0.21174937027E+04  0.12699999809E+01 0.  1.
       -4    1    3    3    0  502 -0.10942141303E+03  0.16673647150E+04 -0.73891452566E+03  0.18270397991E+04  0.12699999809E+01 0. -1.
</event>
<event>
 5   0  0.3872969E-08  0.3900638E+04  0.7818609E-02  0.8024897E-01
       -2   -1    0    0    0  501  0.00000000000E+00  0.00000000000E+00  0.19213278714E+04  0.19213278714E+04  0.25500000920E-02 0.  1.
        2   -1    0    0  501    0  0.00000000000E+00  0.00000000000E+00 -0.19797471957E+04  0.19797471957E+04  0.25500000920E-02 0. -1.
    10030    2    1    2    0    0  0.00000000000E+00  0.00000000000E+00 -0.58419324282E+02  0.39010750671E+04  0.39006376225E+04 0.  0.
        2    1    3    3  502    0 -0.26299603570E+03  0.18957526972E+04  0.34593007324E+03  0.19449197463E+04  0.25500000920E-02 0.  1.
       -2    1    3    3    0  502  0.26299603570E+03 -0.18957526972E+04 -0.40434939752E+03  0.19561553208E+04  0.25500000920E-02 0. -1.
</event>
<event>
 5   0  0.1164500E-08  0.3929467E+04  0.7818609E-02  0.8018928E-01
       -1   -1    0    0    0  501  0.00000000000E+00  0.00000000000E+00  0.16990197057E+04  0.16990197057E+04  0.50400001928E-02 0.  1.
        1   -1    0    0  501    0  0.00000000000E+00  0.00000000000E+00 -0.22720034847E+04  0.22720034847E+04  0.50400001928E-02 0. -1.
    10030    2    1    2    0    0  0.00000000000E+00  0.00000000000E+00 -0.57298377901E+03  0.39710231904E+04  0.39294674916E+04 0.  0.
        1    1    3    3  502    0 -0.17303131974E+04 -0.76291414379E+03 -0.82519298257E+03  0.20632414329E+04  0.50400001928E-02 0.  1.
       -1    1    3    3    0  502  0.17303131974E+04  0.76291414379E+03  0.25220920356E+03  0.19077817575E+04  0.50400001928E-02 0. -1.
</event>
<event>
 5   0  0.1164500E-08  0.3897427E+04  0.7818609E-02  0.8025564E-01
       -1   -1    0    0    0  501  0.00000000000E+00  0.00000000000E+00  0.16980307278E+04  0.16980307278E+04  0.50400001928E-02 0. -1.
        1   -1    0    0  501    0  0.00000000000E+00  0.00000000000E+00 -0.22364053070E+04  0.22364053070E+04  0.50400001928E-02 0.  1.
    10030    2    1    2    0    0  0.00000000000E+00  0.00000000000E+00 -0.53837457923E+03  0.39344360348E+04  0.38974273212E+04 0.  0.
        3    1    3    3  502    0  0.16638379923E+04 -0.17425148330E+03 -0.12780591469E+04  0.21052685428E+04  0.10100000352E+00 0. -1.
       -3    1    3    3    0  502 -0.16638379923E+04  0.17425148330E+03  0.73968456766E+03  0.18291674920E+04  0.10100000352E+00 0.  1.
</event>
<event>
 5   0  0.1164500E-08  0.3879973E+04  0.7818609E-02  0.8029207E-01
       -1   -1    0    0    0  501  0.00000000000E+00  0.00000000000E+00  0.15266000216E+04  0.15266000216E+04  0.50400001928E-02 0.  1.
        1   -1    0    0  501    0  0.00000000000E+00  0.00000000000E+00 -0.24653135103E+04  0.24653135103E+04  0.50400001928E-02 0. -1.
    10030    2    1    2    0    0  0.00000000000E+00  0.00000000000E+00 -0.93871348872E+03  0.39919135319E+04  0.38799730195E+04 0.  0.
        4    1    3    3  502    0 -0.60549825749E+03  0.18408357157E+04 -0.37595333182E+03  0.19739926020E+04  0.12699999809E+01 0.  1.
       -4    1    3    3    0  502  0.60549825749E+03 -0.18408357157E+04 -0.56276015691E+03  0.20179209299E+04  0.12699999809E+01 0. -1.
</event>
<event>
 5   0  0.1164500E-08  0.3892043E+04  0.7818609E-02  0.8026686E-01
       -1   -1    0    0    0  501  0.00000000000E+00  0.00000000000E+00  0.15450037321E+04  0.15450037321E+04  0.50400001928E-02 0. -1.
        1   -1    0    0  501    0  0.00000000000E+00  0.00000000000E+00 -0.24511267400E+04  0.24511267400E+04  0.50400001928E-02 0.  1.
    10030    2    1    2    0    0  0.00000000000E+00  0.00000000000E+00 -0.90612300791E+03  0.39961304721E+04  0.38920431453E+04 0.  0.
        4    1    3    3  502    0  0.17164476802E+04 -0.49734652596E+03  0.33789912109E+03  0.18187148305E+04  0.12699999809E+01 0. -1.
       -4    1    3    3    0  502 -0.17164476802E+04  0.49734652596E+03 -0.12440221290E+04  0.21774156416E+04  0.12699999809E+01 0.  1.
</event>
<event>
 5   0  0.3769985E-08  0.3899938E+04  0.7818609E-02  0.8025042E-01
        2   -1    0    0  501    0  0.00000000000E+00  0.00000000000E+00  0.18032715645E+04  0.18032715645E+04  0.25500000920E-02 0.  1.
       -2   -1    0    0    0  501  0.00000000000E+00  0.00000000000E+00 -0.21086008968E+04  0.21086008968E+04  0.25500000920E-02 0. -1.
    10030    2    1    2    0    0  0.00000000000E+00  0.00000000000E+00 -0.30532933233E+03  0.39118724613E+04  0.38999384806E+04 0.  0.
        1    1    3    3  502    0 -0.10640980620E+04  0.14275921901E+04 -0.95011688831E+03  0.20181789436E+04  0.50400001928E-02 0. -1.
       -1    1    3    3    0  502  0.10640980620E+04 -0.14275921901E+04  0.64478755598E+03  0.18936935177E+04  0.50400001928E-02 0.  1.
</event>
<event>
 5   0  0.3872969E-08  0.3898034E+04  0.7818609E-02  0.8025438E-01
        2   -1    0    0  501    0  0.00000000000E+00  0.00000000000E+00  0.32161255471E+04  0.32161255471E+04  0.25500000920E-02 0.  1.
       -2   -1    0    0    0  501  0.00000000000E+00  0.00000000000E+00 -0.11811313138E+04  0.11811313138E+04  0.25500000920E-02 0. -1.
    10030    2    1    2    0    0  0.00000000000E+00  0.00000000000E+00  0.20349942334E+04  0.43972568609E+04  0.38980336544E+04 0.  0.
        2    1    3    3  502    0 -0.66370445970E+03  0.94443746730E+03  0.27890351173E+04  0.30184735588E+04  0.25500000920E-02 0.  1.
       -2    1    3    3    0  502  0.66370445970E+03 -0.94443746730E+03 -0.75404088396E+03  0.13787833021E+04  0.25500000920E-02 0. -1.
</event>
<event>
 5   0  0.3690572E-08  0.3896729E+04  0.7818609E-02  0.8025710E-01
        2   -1    0    0  501    0  0.00000000000E+00  0.00000000000E+00  0.17102727627E+04  0.17102727627E+04  0.25500000920E-02 0.  1.
       -2   -1    0    0    0  501  0.00000000000E+00  0.00000000000E+00 -0.22196014642E+04  0.22196014642E+04  0.25500000920E-02 0. -1.
    10030    2    1    2    0    0  0.00000000000E+00  0.00000000000E+00 -0.50932870144E+03  0.39298742269E+04  0.38967288478E+04 0.  0.
        3    1    3    3  502    0  0.21851976888E+03 -0.94826403760E+03 -0.19569699193E+04  0.21855632797E+04  0.10100000352E+00 0. -1.
       -3    1    3    3    0  502 -0.21851976888E+03  0.94826403760E+03  0.14476412179E+04  0.17443109472E+04  0.10100000352E+00 0.  1.
</event>
<event>
 5   0  0.3669347E-08  0.3926394E+04  0.7818609E-02  0.8019562E-01
       -2   -1    0    0    0  501  0.00000000000E+00  0.00000000000E+00  0.19224388895E+04  0.19224388895E+04  0.25500000920E-02 0.  1.
        2   -1    0    0  501    0  0.00000000000E+00  0.00000000000E+00 -0.20048194933E+04  0.20048194933E+04  0.25500000920E-02 0. -1.
    10030    2    1    2    0    0  0.00000000000E+00  0.00000000000E+00 -0.82380603761E+02  0.39272583828E+04  0.39263942545E+04 0.  0.
        5    1    3    3  502    0  0.67553107624E+03 -0.18428774985E+04 -0.14177350795E+01  0.19627948974E+04  0.46999998093E+01 0.  1.
       -5    1    3    3    0  502 -0.67553107624E+03  0.18428774985E+04 -0.80962868682E+02  0.19644634854E+04  0.46999998093E+01 0. -1.
</event>
<event>
 5   0  0.1164500E-08  0.3869802E+04  0.7818609E-02  0.8031339E-01
        1   -1    0    0  501    0  0.00000000000E+00  0.00000000000E+00  0.21765468667E+04  0.21765468667E+04  0.50400001928E-02 0.  1.
       -1   -1    0    0    0  501  0.00000000000E+00  0.00000000000E+00 -0.17200837032E+04  0.17200837032E+04  0.50400001928E-02 0. -1.
    10030    2    1    2    0    0  0.00000000000E+00  0.00000000000E+00  0.45646316350E+03  0.38966305700E+04  0.38698024729E+04 0.  0.
        5    1    3    3  502    0  0.76547404053E+03 -0.11534604335E+04 -0.11329534161E+04  0.17888619319E+04  0.46999998093E+01 0. -1.
       -5    1    3    3    0  502 -0.76547404053E+03  0.11534604335E+04  0.15894165796E+04  0.21077686381E+04  0.46999998093E+01 0.  1.
</event>
<event>
 5   0  0.1164500E-08  0.3893952E+04  0.7818609E-02  0.8026288E-01
        1   -1    0    0  501    0  0.00000000000E+00  0.00000000000E+00  0.27322402996E+04  0.27322402997E+04  0.50400001928E-02 0.  1.
       -1   -1    0    0    0  501  0.00000000000E+00  0.00000000000E+00 -0.13874016900E+04  0.13874016900E+04  0.50400001928E-02 0. -1.
    10030    2    1    2    0    0  0.00000000000E+00  0.00000000000E+00  0.13448386097E+04  0.41196419896E+04  0.38939516223E+04 0.  0.
        2    1    3    3  502    0  0.19014402081E+04  0.27736044991E+03  0.10041382362E+04  0.21681091489E+04  0.25500000920E-02 0.  1.
       -2    1    3    3    0  502 -0.19014402081E+04 -0.27736044991E+03  0.34070037350E+03  0.19515328408E+04  0.25500000920E-02 0. -1.
</event>
<event>
 5   0  0.1164500E-08  0.3893443E+04  0.7818609E-02  0.8026394E-01
        1   -1    0    0  501    0  0.00000000000E+00  0.00000000000E+00  0.21603870166E+04  0.21603870166E+04  0.50400001928E-02 0.  1.
       -1   -1    0    0    0  501  0.00000000000E+00  0.00000000000E+00 -0.17541875293E+04  0.17541875293E+04  0.50400001928E-02 0. -1.
    10030    2    1    2    0    0  0.00000000000E+00  0.00000000000E+00  0.40619948731E+03  0.39145745459E+04  0.38934426735E+04 0.  0.
        5    1    3    3  502    0 -0.12228213106E+04  0.17320566449E+03 -0.13098631882E+04  0.18002932599E+04  0.46999998093E+01 0.  1.
       -5    1    3    3    0  502  0.12228213106E+04 -0.17320566449E+03  0.17160626756E+04  0.21142812860E+04  0.46999998093E+01 0. -1.
</event>
<event>
 5   0  0.3872969E-08  0.3989633E+04  0.7818609E-02  0.8006641E-01
        2   -1    0    0  501    0  0.00000000000E+00  0.00000000000E+00  0.22423650172E+04  0.22423650172E+04  0.25500000920E-02 0.  1.
       -2   -1    0    0    0  501  0.00000000000E+00  0.00000000000E+00 -0.17745962269E+04  0.17745962269E+04  0.25500000920E-02 0. -1.
    10030    2    1    2    0    0  0.00000000000E+00  0.00000000000E+00  0.46776879027E+03  0.40169612442E+04  0.39896328147E+04 0.  0.
        2    1    3    3  502    0  0.10022663882E+04  0.12553688469E+04 -0.95692730171E+03  0.18698124814E+04  0.25500000920E-02 0. -1.
       -2    1    3    3    0  502 -0.10022663882E+04 -0.12553688469E+04  0.14246960920E+04  0.21471487628E+04  0.25500000920E-02 0.  1.
</event>
<event>
 5   0  0.3769985E-08  0.3902531E+04  0.7818609E-02  0.8024503E-01
        2   -1    0    0  501    0  0.00000000000E+00  0.00000000000E+00  0.18757839029E+04  0.18757839029E+04  0.25500000920E-02 0. -1.
       -2   -1    0    0    0  501  0.00000000000E+00  0.00000000000E+00 -0.20297843935E+04  0.20297843935E+04  0.25500000920E-02 0.  1.
    10030    2    1    2    0    0  0.00000000000E+00  0.00000000000E+00 -0.15400049060E+03  0.39055682964E+04  0.39025309182E+04 0.  0.
        1    1    3    3  502    0 -0.57784904613E+03  0.70761988861E+03  0.16485230919E+04  0.18847450255E+04  0.50400001928E-02 0. -1.
       -1    1    3    3    0  502  0.57784904613E+03 -0.70761988861E+03 -0.18025235825E+04  0.20208232709E+04  0.50400001928E-02 0.  1.
</event>
<event>
 5   0  0.3769985E-08  0.3893670E+04  0.7818609E-02  0.8026347E-01
        2   -1    0    0  501    0  0.00000000000E+00  0.00000000000E+00  0.20074155337E+04  0.20074155337E+04  0.25500000920E-02 0.  1.
       -2   -1    0    0    0  501  0.00000000000E+00  0.00000000000E+00 -0.18880827324E+04  0.18880827324E+04  0.25500000920E-02 0. -1.
    10030    2    1    2    0    0  0.00000000000E+00  0.00000000000E+00  0.11933280131E+03  0.38954982661E+04  0.38936700455E+04 0.  0.
        1    1    3    3  502    0  0.18502997030E+04 -0.21587328118E+02 -0.54567273539E+03  0.19292054680E+04  0.50400001928E-02 0. -1.
       -1    1    3    3    0  502 -0.18502997030E+04  0.21587328118E+02  0.66500553670E+03  0.19662927980E+04  0.50400001928E-02 0.  1.
</event>
<event>
 5   0  0.3690572E-08  0.3895422E+04  0.7818609E-02  0.8025982E-01
        2   -1    0    0  501    0  0.00000000000E+00  0.00000000000E+00  0.15232097786E+04  0.15232097786E+04  0.25500000920E-02 0.  1.
       -2   -1    0    0    0  501  0.00000000000E+00  0.00000000000E+00 -0.24905158469E+04  0.24905158469E+04  0.25500000920E-02 0. -1.
    10030    2    1    2    0    0  0.00000000000E+00  0.00000000000E+00 -0.96730606832E+03  0.40137256255E+04  0.38954219754E+04 0.  0.
        3    1    3    3  502    0 -0.15573158975E+04 -0.74863906560E+03 -0.14097743857E+04  0.22300576414E+04  0.10100000352E+00 0. -1.
       -3    1    3    3    0  502  0.15573158975E+04  0.74863906560E+03  0.44246831735E+03  0.17836679841E+04  0.10100000352E+00 0.  1.
</event>
<event>
 5   0  0.1164500E-08  0.3899092E+04  0.7818609E-02  0.8025218E-01
        1   -1    0    0  501    0  0.00000000000E+00  0.00000000000E+00  0.11795502028E+04  0.11795502028E+04  0.50400001928E-02 0.  1.
       -1   -1    0    0    0  501  0.00000000000E+00  0.00000000000E+00 -0.32221848345E+04  0.32221848345E+04  0.50400001928E-02 0. -1.
    10030    2    1    2    0    0  0.00000000000E+00  0.00000000000E+00 -0.20426346317E+04  0.44017350373E+04  0.38990915737E+04 0.  0.
        4    1    3    3  502    0  0.18036295681E+04  0.56790925358E+03 -0.15569584118E+04  0.24494329238E+04  0.12699999809E+01 0. -1.
       -4    1    3    3    0  502 -0.18036295681E+04 -0.56790925358E+03 -0.48567621996E+03  0.19523021136E+04  0.12699999809E+01 0.  1.
</event>
<event>
 5   0  0.3690572E-08  0.3897003E+04  0.7818609E-02  0.8025653E-01
       -2   -1    0    0    0  501  0.00000000000E+00  0.00000000000E+00  0.17238406727E+04  0.17238406727E+04  0.25500000920E-02 0.  1.
        2   -1    0    0  501    0  0.00000000000E+00  0.00000000000E+00 -0.22024410333E+04  0.22024410333E+04  0.25500000920E-02 0. -1.
    10030    2    1    2    0    0  0.00000000000E+00  0.00000000000E+00 -0.47860036061E+03  0.39262817061E+04  0.38970026598E+04 0.  0.
        3    1    3    3  502    0  0.83807059213E+03 -0.87630644036E+03  0.12974075666E+04  0.17758214152E+04  0.10100000352E+00 0.  1.
       -3    1    3    3    0  502 -0.83807059213E+03  0.87630644036E+03 -0.17760079272E+04  0.21504602908E+04  0.10100000352E+00 0. -1.
</event>
<event>
 5   0  0.1164500E-08  0.3890268E+04  0.7818609E-02  0.8027056E-01
       -1   -1    0    0    0  501  0.00000000000E+00  0.00000000000E+00  0.15931786746E+04  0.15931786746E+04  0.50400001928E-02 0. -1.
        1   -1    0    0  501    0  0.00000000000E+00  0.00000000000E+00 -0.23748411293E+04  0.23748411293E+04  0.50400001928E-02 0.  1.
    10030    2    1    2    0    0  0.00000000000E+00  0.00000000000E+00 -0.78166245466E+03  0.39680198039E+04  0.38902679819E+04 0.  0.
        2    1    3    3  502    0 -0.14506535154E+04  0.11959310322E+04  0.11803824805E+03  0.18837674176E+04  0.25500000920E-02 0. -1.
       -2    1    3    3    0  502  0.14506535154E+04 -0.11959310322E+04 -0.89970070271E+03  0.20842523863E+04  0.25500000920E-02 0.  1.
</event>
<event>
 5   0  0.3669347E-08  0.3908952E+04  0.7818609E-02  0.8023170E-01
       -2   -1    0    0    0  501  0.00000000000E+00  0.00000000000E+00  0.15487879599E+04  0.15487879599E+04  0.25500000920E-02 0. -1.
        2   -1    0    0  501    0  0.00000000000E+00  0.00000000000E+00 -0.24664297850E+04  0.24664297850E+04  0.25500000920E-02 0.  1.
    10030    2    1    2    0    0  0.00000000000E+00  0.00000000000E+00 -0.91764182507E+03  0.40152177449E+04  0.39089521639E+04 0.  0.
        5    1    3    3  502    0  0.99412874097E+03  0.10039208109E+04 -0.18460175665E+04  0.23246401644E+04  0.46999998093E+01 0.  1.
       -5    1    3    3    0  502 -0.99412874097E+03 -0.10039208109E+04  0.92837574145E+03  0.16905775804E+04  0.46999998093E+01 0. -1.
</event>
<event>
 5   0  0.3690572E-08  0.3900405E+04  0.7818609E-02  0.8024945E-01
       -2   -1    0    0    0  501  0.00000000000E+00  0.00000000000E+00  0.17810186532E+04  0.17810186532E+04  0.25500000920E-02 0. -1.
        2   -1    0    0  501    0  0.00000000000E+00  0.00000000000E+00 -0.21354570619E+04  0.21354570619E+04  0.25500000920E-02 0.  1.
    10030    2    1    2    0    0  0.00000000000E+00  0.00000000000E+00 -0.35443840868E+03  0.39164757151E+04  0.39004045228E+04 0.  0.
        3    1    3    3  502    0 -0.31210554166E+01  0.12162963774E+03 -0.21316423271E+04  0.21351118310E+04  0.10100000352E+00 0.  1.
       -3    1    3    3    0  502  0.31210554166E+01 -0.12162963774E+03  0.17772039185E+04  0.17813638841E+04  0.10100000352E+00 0. -1.
</event>
<event>
 5   0  0.1164500E-08  0.3895269E+04  0.7818609E-02  0.8026014E-01
        1   -1    0    0  501    0  0.00000000000E+00  0.00000000000E+00  0.27056188469E+04  0.27056188469E+04  0.50400001928E-02 0.  1.
       -1   -1    0    0    0  501  0.00000000000E+00  0.00000000000E+00 -0.14020012483E+04  0.14020012483E+04  0.50400001928E-02 0. -1.
    10030    2    1    2    0    0  0.00000000000E+00  0.00000000000E+00  0.13036175986E+04  0.41076200952E+04  0.38952694391E+04 0.  0.
        2    1    3    3  502    0 -0.11567308250E+04 -0.14792547491E+04  0.10685794181E+03  0.18808613543E+04  0.25500000920E-02 0.  1.
       -2    1    3    3    0  502  0.11567308250E+04  0.14792547491E+04  0.11967596568E+04  0.22267587410E+04  0.25500000920E-02 0. -1.
</event>
<event>
 5   0  0.1164500E-08  0.3900977E+04  0.7818609E-02  0.8024826E-01
       -1   -1    0    0    0  501  0.00000000000E+00  0.00000000000E+00  0.16093814140E+04  0.16093814140E+04  0.50400001928E-02 0.  1.
        1   -1    0    0  501    0  0.00000000000E+00  0.00000000000E+00 -0.23638928736E+04  0.23638928736E+04  0.50400001928E-02 0. -1.
    10030    2    1    2    0    0  0.00000000000E+00  0.00000000000E+00 -0.75451145959E+03  0.39732742876E+04  0.39009769318E+04 0.  0.
        2    1    3    3  502    0 -0.16421935846E+04  0.69500953613E+03 -0.11821980512E+04  0.21394929906E+04  0.25500000920E-02 0. -1.
       -2    1    3    3    0  502  0.16421935846E+04 -0.69500953613E+03  0.42768659162E+03  0.18337812970E+04  0.25500000920E-02 0.  1.
</event>
<event>
 5   0  0.3872969E-08  0.3901986E+04  0.7818609E-02  0.8024616E-01
        2   -1    0    0  501    0  0.00000000000E+00  0.00000000000E+00  0.27460961439E+04  0.27460961439E+04  0.25500000920E-02 0. -1.
       -2   -1    0    0    0  501  0.00000000000E+00  0.00000000000E+00 -0.13861032974E+04  0.13861032974E+04  0.25500000920E-02 0.  1.
    10030    2    1    2    0    0  0.00000000000E+00  0.00000000000E+00  0.13599928465E+04  0.41321994413E+04  0.39019856074E+04 0.  0.
        2    1    3    3  502    0 -0.16173896709E+04 -0.69889391397E+03 -0.20727226724E+03  0.17740811264E+04  0.25500000920E-02 0.  1.
       -2    1    3    3    0  502  0.16173896709E+04  0.69889391397E+03  0.15672651137E+04  0.23581183149E+04  0.25500000920E-02 0. -1.
</event>
<event>
 5   0  0.3872969E-08  0.3911345E+04  0.7818609E-02  0.8022674E-01
        2   -1    0    0  501    0  0.00000000000E+00  0.00000000000E+00  0.18086095074E+04  0.18086095074E+04  0.25500000920E-02 0. -1.
       -2   -1    0    0    0  501  0.00000000000E+00  0.00000000000E+00 -0.21146933398E+04  0.21146933398E+04  0.25500000920E-02 0.  1.
    10030    2    1    2    0    0  0.00000000000E+00  0.00000000000E+00 -0.30608383239E+03  0.39233028472E+04  0.39113447711E+04 0.  0.
        2    1    3    3  502    0  0.51998214320E+03 -0.12743490842E+03 -0.20397586362E+04  0.21088471683E+04  0.25500000920E-02 0.  1.
       -2    1    3    3    0  502 -0.51998214320E+03  0.12743490842E+03  0.17336748039E+04  0.18144556789E+04  0.25500000920E-02 0. -1.
</event>
<event>
 5   0  0.1164500E-08  0.3897371E+04  0.7818609E-02  0.8025576E-01
       -1   -1    0    0    0  501  0.00000000000E+00  0.00000000000E+00  0.16484156950E+04  0.16484156950E+04  0.50400001928E-02 0.  1.
        1   -1    0    0  501    0  0.00000000000E+00  0.00000000000E+00 -0.23036516478E+04  0.23036516478E+04  0.50400001928E-02 0. -1.
    10030    2    1    2    0    0  0.00000000000E+00  0.00000000000E+00 -0.65523595281E+03  0.39520673428E+04  0.38973711817E+04 0.  0.
        3    1    3    3  502    0  0.31945667317E+03  0.75842270497E+03  0.14635572471E+04  0.16790644392E+04  0.10100000352E+00 0.  1.
       -3    1    3    3    0  502 -0.31945667317E+03 -0.75842270497E+03 -0.21187931999E+04  0.22730029035E+04  0.10100000352E+00 0. -1.
</event>
<event>
 5   0  0.3724293E-08  0.3900377E+04  0.7818609E-02  0.8024951E-01
        2   -1    0    0  501    0  0.00000000000E+00  0.00000000000E+00  0.26351454450E+04  0.26351454450E+04  0.25500000920E-02 0.  1.
       -2   -1    0    0    0  501  0.00000000000E+00  0.00000000000E+00 -0.14432733693E+04  0.14432733693E+04  0.25500000920E-02 0. -1.
    10030    2    1    2    0    0  0.00000000000E+00  0.00000000000E+00  0.11918720758E+04  0.40784188143E+04  0.39003770305E+04 0.  0.
        4    1    3    3  502    0  0.16176465003E+04  0.69287909140E+03  0.14747601588E+04  0.22960358825E+04  0.12699999809E+01 0.  1.
       -4    1    3    3    0  502 -0.16176465003E+04 -0.69287909140E+03 -0.28288808300E+03  0.17823829318E+04  0.12699999809E+01 0. -1.
</event>
<event>
 5   0  0.1164500E-08  0.3910748E+04  0.7818609E-02  0.8022798E-01
        1   -1    0    0  501    0  0.00000000000E+00  0.00000000000E+00  0.23520192310E+04  0.23520192310E+04  0.50400001928E-02 0.  1.
       -1   -1    0    0    0  501  0.00000000000E+00  0.00000000000E+00 -0.16256187926E+04  0.16256187926E+04  0.50400001928E-02 0. -1.
    10030    2    1    2    0    0  0.00000000000E+00  0.00000000000E+00  0.72640043835E+03  0.39776380236E+04  0.39107475820E+04 0.  0.
        1    1    3    3  502    0 -0.16822455002E+04 -0.15629288976E+01  0.13770109993E+04  0.21739622025E+04  0.50400001928E-02 0.  1.
       -1    1    3    3    0  502  0.16822455002E+04  0.15629288976E+01 -0.65061056095E+03  0.18036758211E+04  0.50400001928E-02 0. -1.
</event>
<event>
 5   0  0.3872969E-08  0.3905714E+04  0.7818609E-02  0.8023842E-01
       -2   -1    0    0    0  501  0.00000000000E+00  0.00000000000E+00  0.24333614581E+04  0.24333614581E+04  0.25500000920E-02 0. -1.
        2   -1    0    0  501    0  0.00000000000E+00  0.00000000000E+00 -0.15672354603E+04  0.15672354603E+04  0.25500000920E-02 0.  1.
    10030    2    1    2    0    0  0.00000000000E+00  0.00000000000E+00  0.86612599775E+03  0.40005969184E+04  0.39057139501E+04 0.  0.
        2    1    3    3  502    0  0.19117228147E+04  0.31949074306E+03  0.67737771108E+03  0.20531923968E+04  0.25500000920E-02 0. -1.
       -2    1    3    3    0  502 -0.19117228147E+04 -0.31949074306E+03  0.18874828667E+03  0.19474045216E+04  0.25500000920E-02 0.  1.
</event>
<event>
 5   0  0.1164500E-08  0.3914159E+04  0.7818609E-02  0.8022091E-01
       -1   -1    0    0    0  501  0.00000000000E+00  0.00000000000E+00  0.18586958795E+04  0.18586958795E+04  0.50400001928E-02 0. -1.
        1   -1    0    0  501    0  0.00000000000E+00  0.00000000000E+00 -0.20606706169E+04  0.20606706169E+04  0.50400001928E-02 0.  1.
    10030    2    1    2    0    0  0.00000000000E+00  0.00000000000E+00 -0.20197473745E+03  0.39193664964E+04  0.39141589056E+04 0.  0.
        5    1    3    3  502    0 -0.75747077688E+03 -0.12833345159E+04  0.11693329894E+04  0.18942204697E+04  0.46999998093E+01 0. -1.
       -5    1    3    3    0  502  0.75747077688E+03  0.12833345159E+04 -0.13713077269E+04  0.20251460267E+04  0.46999998093E+01 0.  1.
</event>
<event>
 5   0  0.3769985E-08  0.3901741E+04  0.7818609E-02  0.8024667E-01
       -2   -1    0    0    0  501  0.00000000000E+00  0.00000000000E+00  0.21045473155E+04  0.21045473155E+04  0.25500000920E-02 0.  1.
        2   -1    0    0  501    0  0.00000000000E+00  0.00000000000E+00 -0.18084157583E+04  0.18084157584E+04  0.25500000920E-02 0. -1.
    10030    2    1    2    0    0  0.00000000000E+00  0.00000000000E+00  0.29613155719E+03  0.39129630739E+04  0.39017414213E+04 0.  0.
        1    1    3    3  502    0 -0.16666314010E+04  0.97814699425E+03 -0.12003201321E+03  0.19361919980E+04  0.50400001928E-02 0. -1.
       -1    1    3    3    0  502  0.16666314010E+04 -0.97814699425E+03  0.41616357041E+03  0.19767710759E+04  0.50400001928E-02 0.  1.
</event>
<event>
 5   0  0.1164500E-08  0.3902009E+04  0.7818609E-02  0.8024612E-01
       -4   -1    0    0    0  501  0.00000000000E+00  0.00000000000E+00  0.16449162494E+04  0.16449167397E+04  0.12699999809E+01 0. -1.
        4   -1    0    0  501    0  0.00000000000E+00  0.00000000000E+00 -0.23140489470E+04  0.23140492955E+04  0.12699999809E+01 0.  1.
    10030    2    1    2    0    0  0.00000000000E+00  0.00000000000E+00 -0.66913269761E+03  0.39589660352E+04  0.39020089058E+04 0.  0.
        1    1    3    3  502    0  0.17153339274E+04 -0.26409451638E+03  0.56967912151E+03  0.18266501301E+04  0.50400001928E-02 0. -1.
       -1    1    3    3    0  502 -0.17153339274E+04  0.26409451638E+03 -0.12388118191E+04  0.21323159051E+04  0.50400001928E-02 0.  1.
</event>
<event>
 5   0  0.1164500E-08  0.3905760E+04  0.7818609E-02  0.8023832E-01
        1   -1    0    0  501    0  0.00000000000E+00  0.00000000000E+00  0.21729505991E+04  0.21729505991E+04  0.50400001928E-02 0.  1.
       -1   -1    0    0    0  501  0.00000000000E+00  0.00000000000E+00 -0.17550979034E+04  0.17550979034E+04  0.50400001928E-02 0. -1.
    10030    2    1    2    0    0  0.00000000000E+00  0.00000000000E+00  0.41785269573E+03  0.39280485026E+04  0.39057603822E+04 0.  0.
        3    1    3    3  502    0 -0.59627683580E+03  0.33269677728E+03 -0.16311339123E+04  0.17682847792E+04  0.10100000352E+00 0. -1.
       -3    1    3    3    0  502  0.59627683580E+03 -0.33269677728E+03  0.20489866080E+04  0.21597637233E+04  0.10100000352E+00 0.  1.
</event>
<event>
 5   0  0.1164500E-08  0.3900574E+04  0.7818609E-02  0.8024910E-01
        1   -1    0    0  501    0  0.00000000000E+00  0.00000000000E+00  0.22638606310E+04  0.22638606310E+04  0.50400001928E-02 0. -1.
       -1   -1    0    0    0  501  0.00000000000E+00  0.00000000000E+00 -0.16801472095E+04  0.16801472095E+04  0.50400001928E-02 0.  1.
    10030    2    1    2    0    0  0.00000000000E+00  0.00000000000E+00  0.58371342152E+03  0.39440078405E+04  0.39005738664E+04 0.  0.
        4    1    3    3  502    0 -0.98368803121E+03  0.92021669184E+03 -0.11342300053E+04  0.17609429919E+04  0.12699999809E+01 0.  1.
       -4    1    3    3    0  502  0.98368803121E+03 -0.92021669184E+03  0.17179434268E+04  0.21830648486E+04  0.12699999809E+01 0. -1.
</event>
<event>
 5   0  0.1164500E-08  0.3891247E+04  0.7818609E-02  0.8026852E-01
       -1   -1    0    0    0  501  0.00000000000E+00  0.00000000000E+00  0.13041730223E+04  0.13041730223E+04  0.50400001928E-02 0.  1.
        1   -1    0    0  501    0  0.00000000000E+00  0.00000000000E+00 -0.29025672406E+04  0.29025672406E+04  0.50400001928E-02 0. -1.
    10030    2    1    2    0    0  0.00000000000E+00  0.00000000000E+00 -0.15983942182E+04  0.42067402629E+04  0.38912465307E+04 0.  0.
        4    1    3    3  502    0  0.11046570039E+04  0.87548567666E+03 -0.22490937535E+04  0.26542732699E+04  0.12699999809E+01 0. -1.
       -4    1    3    3    0  502 -0.11046570039E+04 -0.87548567666E+03  0.65069953532E+03  0.15524669930E+04  0.12699999809E+01 0.  1.
</event>
<event>
 5   0  0.3872969E-08  0.3885218E+04  0.7818609E-02  0.8028111E-01
       -2   -1    0    0    0  501  0.00000000000E+00  0.00000000000E+00  0.18403214866E+04  0.18403214866E+04  0.25500000920E-02 0.  1.
        2   -1    0    0  501    0  0.00000000000E+00  0.00000000000E+00 -0.20505821432E+04  0.20505821432E+04  0.25500000920E-02 0. -1.
    10030    2    1    2    0    0  0.00000000000E+00  0.00000000000E+00 -0.21026065656E+03  0.38909036299E+04  0.38852183353E+04 0.  0.
        2    1    3    3  502    0  0.68343840582E+03 -0.12724818655E+04 -0.14060432099E+04  0.20157518847E+04  0.25500000920E-02 0.  1.
       -2    1    3    3    0  502 -0.68343840582E+03  0.12724818655E+04  0.11957825533E+04  0.18751517452E+04  0.25500000920E-02 0. -1.
</event>
<event>
 5   0  0.3872969E-08  0.3900077E+04  0.7818609E-02  0.8025013E-01
       -2   -1    0    0    0  501  0.00000000000E+00  0.00000000000E+00  0.24236443186E+04  0.24236443186E+04  0.25500000920E-02 0. -1.
        2   -1    0    0  501    0  0.00000000000E+00  0.00000000000E+00 -0.15689804536E+04  0.15689804536E+04  0.25500000920E-02 0.  1.
    10030    2    1    2    0    0  0.00000000000E+00  0.00000000000E+00  0.85466386501E+03  0.39926247721E+04  0.39000772106E+04 0.  0.
        2    1    3    3  502    0 -0.13683598666E+04 -0.11179576358E+04 -0.41711323305E+03  0.18155499027E+04  0.25500000920E-02 0.  1.
       -2    1    3    3    0  502  0.13683598666E+04  0.11179576358E+04  0.12717770981E+04  0.21770748694E+04  0.25500000920E-02 0. -1.
</event>
<event>
 5   0  0.3724293E-08  0.3890949E+04  0.7818609E-02  0.8026914E-01
        2   -1    0    0  501    0  0.00000000000E+00  0.00000000000E+00  0.24561261109E+04  0.24561261109E+04  0.25500000920E-02 0.  1.
       -2   -1    0    0    0  501  0.00000000000E+00  0.00000000000E+00 -0.15409922005E+04  0.15409922005E+04  0.25500000920E-02 0. -1.
    10030    2    1    2    0    0  0.00000000000E+00  0.00000000000E+00  0.91513391040E+03  0.39971183115E+04  0.38909490773E+04 0.  0.
        4    1    3    3  502    0 -0.25791329504E+03  0.19187726625E+04  0.65426415008E+03  0.20435926672E+04  0.12699999809E+01 0.  1.
       -4    1    3    3    0  502  0.25791329504E+03 -0.19187726625E+04  0.26086976033E+03  0.19535256443E+04  0.12699999809E+01 0. -1.
</event>
<event>
 5   0  0.3669347E-08  0.3884022E+04  0.7818609E-02  0.8028361E-01
       -2   -1    0    0    0  501  0.00000000000E+00  0.00000000000E+00  0.15782134673E+04  0.15782134673E+04  0.25500000920E-02 0.  1.
        2   -1    0    0  501    0  0.00000000000E+00  0.00000000000E+00 -0.23896679801E+04  0.23896679801E+04  0.25500000920E-02 0. -1.
    10030    2    1    2    0    0  0.00000000000E+00  0.00000000000E+00 -0.81145451277E+03  0.39678814474E+04  0.38840217242E+04 0.  0.
        5    1    3    3  502    0  0.88423580212E+03 -0.11485270863E+04  0.91461598320E+03  0.17139229587E+04  0.46999998093E+01 0.  1.
       -5    1    3    3    0  502 -0.88423580212E+03  0.11485270863E+04 -0.17260704960E+04  0.22539584887E+04  0.46999998093E+01 0. -1.
</event>
<event>
 5   0  0.3872969E-08  0.3893553E+04  0.7818609E-02  0.8026371E-01
       -2   -1    0    0    0  501  0.00000000000E+00  0.00000000000E+00  0.19551960704E+04  0.19551960704E+04  0.25500000920E-02 0. -1.
        2   -1    0    0  501    0  0.00000000000E+00  0.00000000000E+00 -0.19383927548E+04  0.19383927548E+04  0.25500000920E-02 0.  1.
    10030    2    1    2    0    0  0.00000000000E+00  0.00000000000E+00  0.16803315569E+02  0.38935888252E+04  0.38935525665E+04 0.  0.
        2    1    3    3  502    0 -0.81674250152E+03 -0.81838251567E+03 -0.15578567279E+04  0.19400350101E+04  0.25500000920E-02 0.  1.
       -2    1    3    3    0  502  0.81674250152E+03  0.81838251567E+03  0.15746600435E+04  0.19535538151E+04  0.25500000920E-02 0. -1.
</event>
<event>
 5   0  0.3769985E-08  0.3901386E+04  0.7818609E-02  0.8024741E-01
       -2   -1    0    0    0  501  0.00000000000E+00  0.00000000000E+00  0.21466383153E+04  0.21466383153E+04  0.25500000920E-02 0. -1.
        2   -1    0    0  501    0  0.00000000000E+00  0.00000000000E+00 -0.17726339383E+04  0.17726339383E+04  0.25500000920E-02 0.  1.
    10030    2    1    2    0    0  0.00000000000E+00  0.00000000000E+00  0.37400437695E+03  0.39192722536E+04  0.39013863849E+04 0.  0.
        1    1    3    3  502    0  0.56589765475E+03  0.59630931277E+03 -0.15901128801E+04  0.17900513746E+04  0.50400001928E-02 0.  1.
       -1    1    3    3    0  502 -0.56589765475E+03 -0.59630931277E+03  0.19641172571E+04  0.21292208790E+04  0.50400001928E-02 0. -1.
</event>
<event>
 5   0  0.3724293E-08  0.3885701E+04  0.7818609E-02  0.8028010E-01
       -2   -1    0    0    0  501  0.00000000000E+00  0.00000000000E+00  0.12128107819E+04  0.12128107819E+04  0.25500000920E-02 0.  1.
        2   -1    0    0  501    0  0.00000000000E+00  0.00000000000E+00 -0.31123310356E+04  0.31123310356E+04  0.25500000920E-02 0. -1.
    10030    2    1    2    0    0  0.00000000000E+00  0.00000000000E+00 -0.18995202537E+04  0.43251418175E+04  0.38857012941E+04 0.  0.
        4    1    3    3  502    0 -0.10258712472E+03 -0.16839273064E+04 -0.20223391902E+04  0.26336272904E+04  0.12699999809E+01 0. -1.
       -4    1    3    3    0  502  0.10258712472E+03  0.16839273064E+04  0.12281893652E+03  0.16915145271E+04  0.12699999809E+01 0.  1.
</event>
<event>
 5   0  0.3724293E-08  0.3898728E+04  0.7818609E-02  0.8025294E-01
        2   -1    0    0  501    0  0.00000000000E+00  0.00000000000E+00  0.11262390563E+04  0.11262390563E+04  0.25500000920E-02 0.  1.
       -2   -1    0    0    0  501  0.00000000000E+00  0.00000000000E+00 -0.33740802457E+04  0.33740802457E+04  0.25500000920E-02 0. -1.
    10030    2    1    2    0    0  0.00000000000E+00  0.00000000000E+00 -0.22478411894E+04  0.45003193020E+04  0.38987284859E+04 0.  0.
        4    1    3    3  502    0  0.17698818238E+03  0.17935533727E+04 -0.19814225496E+04  0.26784688630E+04  0.12699999809E+01 0. -1.
       -4    1    3    3    0  502 -0.17698818238E+03 -0.17935533727E+04 -0.26641863980E+03  0.18218504389E+04  0.12699999809E+01 0.  1.
</event>
<event>
 5   0  0.3669347E-08  0.3904863E+04  0.7818609E-02  0.8024019E-01
        2   -1    0    0  501    0  0.00000000000E+00  0.00000000000E+00  0.21910978927E+04  0.21910978927E+04  0.25500000920E-02 0. -1.
       -2   -1    0    0    0  501  0.00000000000E+00  0.00000000000E+00 -0.17397621943E+04  0.17397621943E+04  0.25500000920E-02 0.  1.
    10030    2    1    2    0    0  0.00000000000E+00  0.00000000000E+00  0.45133569842E+03  0.39308600870E+04  0.39048632641E+04 0.  0.
        5    1    3    3  502    0  0.94468662375E+03 -0.10725563052E+04 -0.11132840785E+04  0.18116935100E+04  0.46999998093E+01 0.  1.
       -5    1    3    3    0  502 -0.94468662375E+03  0.10725563052E+04  0.15646197769E+04  0.21191665770E+04  0.46999998093E+01 0. -1.
</event>
<event>
 5   0  0.1164500E-08  0.3902707E+04  0.7818609E-02  0.8024467E-01
        1   -1    0    0  501    0  0.00000000000E+00  0.00000000000E+00  0.14616675781E+04  0.14616675781E+04  0.50400001928E-02 0.  1.
       -1   -1    0    0    0  501  0.00000000000E+00  0.00000000000E+00 -0.26050929175E+04  0.26050929175E+04  0.50400001928E-02 0. -1.
    10030    2    1    2    0    0  0.00000000000E+00  0.00000000000E+00 -0.11434253394E+04  0.40667604957E+04  0.39027066790E+04 0.  0.
        4    1    3    3  502    0  0.96559631291E+03  0.64367064111E+03  0.10630188710E+04  0.15737531149E+04  0.12699999809E+01 0.  1.
       -4    1    3    3    0  502 -0.96559631291E+03 -0.64367064111E+03 -0.22064442104E+04  0.24930073807E+04  0.12699999809E+01 0. -1.
</event>
<event>
 5   0  0.3669347E-08  0.3890649E+04  0.7818609E-02  0.8026977E-01
        2   -1    0    0  501    0  0.00000000000E+00  0.00000000000E+00  0.22751438322E+04  0.22751438322E+04  0.25500000920E-02 0. -1.
       -2   -1    0    0    0  501  0.00000000000E+00  0.00000000000E+00 -0.16633179622E+04  0.16633179622E+04  0.25500000920E-02 0.  1.
    10030    2    1    2    0    0  0.00000000000E+00  0.00000000000E+00  0.61182586998E+03  0.39384617945E+04  0.38906490990E+04 0.  0.
        5    1    3    3  502    0 -0.73061527679E+03  0.12540121665E+04 -0.10053513728E+04  0.17655307047E+04  0.46999998093E+01 0.  1.
       -5    1    3    3    0  502  0.73061527679E+03 -0.12540121665E+04  0.16171772428E+04  0.21729310898E+04  0.46999998093E+01 0. -1.
</event>
<event>
 5   0  0.3690572E-08  0.3896085E+04  0.7818609E-02  0.8025844E-01
        2   -1    0    0  501    0  0.00000000000E+00  0.00000000000E+00  0.22365240887E+04  0.22365240887E+04  0.25500000920E-02 0.  1.
       -2   -1    0    0    0  501  0.00000000000E+00  0.00000000000E+00 -0.16967712890E+04  0.16967712890E+04  0.25500000920E-02 0. -1.
    10030    2    1    2    0    0  0.00000000000E+00  0.00000000000E+00  0.53975279963E+03  0.39332953777E+04  0.38960851433E+04 0.  0.
        3    1    3    3  502    0  0.14925514781E+04 -0.76435991848E+03  0.12707652473E+04  0.21039962746E+04  0.10100000352E+00 0.  1.
       -3    1    3    3    0  502 -0.14925514781E+04  0.76435991848E+03 -0.73101244767E+03  0.18292991031E+04  0.10100000352E+00 0. -1.
</event>
<event>
 5   0  0.1164500E-08  0.3902592E+04  0.7818609E-02  0.8024490E-01
        1   -1    0    0  501    0  0.00000000000E+00  0.00000000000E+00  0.17837713460E+04  0.17837713460E+04  0.50400001928E-02 0.  1.
       -1   -1    0    0    0  501  0.00000000000E+00  0.00000000000E+00 -0.21345543431E+04  0.21345543431E+04  0.50400001928E-02 0. -1.
    10030    2    1    2    0    0  0.00000000000E+00  0.00000000000E+00 -0.35078299714E+03  0.39183256891E+04  0.39025924069E+04 0.  0.
        2    1    3    3  502    0 -0.76777062972E+02 -0.11682590905E+04 -0.17427206340E+04  0.20994759413E+04  0.25500000920E-02 0. -1.
       -2    1    3    3    0  502  0.76777062972E+02  0.11682590905E+04  0.13919376369E+04  0.18188497478E+04  0.25500000920E-02 0.  1.
</event>
<event>
 5   0  0.1164500E-08  0.3927967E+04  0.7818609E-02  0.8019238E-01
        1   -1    0    0  501    0  0.00000000000E+00  0.00000000000E+00  0.23150221803E+04  0.23150221803E+04  0.50400001928E-02 0.  1.
       -1   -1    0    0    0  501  0.00000000000E+00  0.00000000000E+00 -0.16661747443E+04  0.16661747443E+04  0.50400001928E-02 0. -1.
    10030    2    1    2    0    0  0.00000000000E+00  0.00000000000E+00  0.64884743601E+03  0.39811969246E+04  0.39279671533E+04 0.  0.
        1    1    3    3  502    0  0.68387015537E+02  0.19626256913E+04  0.29848192159E+03  0.19863705207E+04  0.50400001928E-02 0. -1.
       -1    1    3    3    0  502 -0.68387015537E+02 -0.19626256913E+04  0.35036551442E+03  0.19948264039E+04  0.50400001928E-02 0.  1.
</event>
<event>
 5   0  0.1164500E-08  0.3909432E+04  0.7818609E-02  0.8023070E-01
       -3   -1    0    0    0  501  0.00000000000E+00  0.00000000000E+00  0.16303751325E+04  0.16303751356E+04  0.10100000352E+00 0. -1.
        3   -1    0    0  501    0  0.00000000000E+00  0.00000000000E+00 -0.23435795354E+04  0.23435795375E+04  0.10100000352E+00 0.  1.
    10030    2    1    2    0    0  0.00000000000E+00  0.00000000000E+00 -0.71320440287E+03  0.39739546732E+04  0.39094315730E+04 0.  0.
        4    1    3    3  502    0  0.10824731457E+04 -0.16251361742E+04 -0.44806782056E+03  0.20033926426E+04  0.12699999809E+01 0. -1.
       -4    1    3    3    0  502 -0.10824731457E+04  0.16251361742E+04 -0.26513658231E+03  0.19705620305E+04  0.12699999809E+01 0.  1.
</event>
<event>
 5   0  0.1164500E-08  0.3872359E+04  0.7818609E-02  0.8030803E-01
       -1   -1    0    0    0  501  0.00000000000E+00  0.00000000000E+00  0.28522826943E+04  0.28522826943E+04  0.50400001928E-02 0. -1.
        1   -1    0    0  501    0  0.00000000000E+00  0.00000000000E+00 -0.13143125288E+04  0.13143125288E+04  0.50400001928E-02 0.  1.
    10030    2    1    2    0    0  0.00000000000E+00  0.00000000000E+00  0.15379701654E+04  0.41665952231E+04  0.38723589094E+04 0.  0.
        5    1    3    3  502    0  0.21575375256E+03 -0.96538875538E+03  0.25598576888E+04  0.27443430193E+04  0.46999998093E+01 0. -1.
       -5    1    3    3    0  502 -0.21575375256E+03  0.96538875538E+03 -0.10218875234E+04  0.14222522038E+04  0.46999998093E+01 0.  1.
</event>
<event>
 5   0  0.3769985E-08  0.3909730E+04  0.7818609E-02  0.8023009E-01
       -2   -1    0    0    0  501  0.00000000000E+00  0.00000000000E+00  0.14017262674E+04  0.14017262674E+04  0.25500000920E-02 0. -1.
        2   -1    0    0  501    0  0.00000000000E+00  0.00000000000E+00 -0.27262793799E+04  0.27262793799E+04  0.25500000920E-02 0.  1.
    10030    2    1    2    0    0  0.00000000000E+00  0.00000000000E+00 -0.13245531126E+04  0.41280056473E+04  0.39097301283E+04 0.  0.
        1    1    3    3  502    0  0.63848582505E+03 -0.75582795516E+03 -0.24423918085E+04  0.26351883790E+04  0.50400001928E-02 0.  1.
       -1    1    3    3    0  502 -0.63848582505E+03  0.75582795516E+03  0.11178386959E+04  0.14928172684E+04  0.50400001928E-02 0. -1.
</event>
<event>
 5   0  0.3769985E-08  0.3901492E+04  0.7818609E-02  0.8024719E-01
       -2   -1    0    0    0  501  0.00000000000E+00  0.00000000000E+00  0.18092253969E+04  0.18092253969E+04  0.25500000920E-02 0.  1.
        2   -1    0    0  501    0  0.00000000000E+00  0.00000000000E+00 -0.21033366345E+04  0.21033366345E+04  0.25500000920E-02 0. -1.
    10030    2    1    2    0    0  0.00000000000E+00  0.00000000000E+00 -0.29411123758E+03  0.39125620314E+04  0.39014920517E+04 0.  0.
        1    1    3    3  502    0 -0.17234814631E+03  0.24413566931E+03 -0.20802451583E+04  0.21016008249E+04  0.50400001928E-02 0. -1.
       -1    1    3    3    0  502  0.17234814631E+03 -0.24413566931E+03  0.17861339207E+04  0.18109612065E+04  0.50400001928E-02 0.  1.
</event>
<event>
 5   0  0.1164500E-08  0.3830893E+04  0.7818609E-02  0.8039558E-01
       -1   -1    0    0    0  501  0.00000000000E+00  0.00000000000E+00  0.27350529439E+04  0.27350529439E+04  0.50400001928E-02 0. -1.
        1   -1    0    0  501    0  0.00000000000E+00  0.00000000000E+00 -0.13414493778E+04  0.13414493778E+04  0.50400001928E-02 0.  1.
    10030    2    1    2    0    0  0.00000000000E+00  0.00000000000E+00  0.13936035661E+04  0.40765023217E+04  0.38308928828E+04 0.  0.
        1    1    3    3  502    0  0.14879543462E+04  0.38041799651E+03 -0.52122822516E+03  0.16218522902E+04  0.50400001928E-02 0.  1.
       -1    1    3    3    0  502 -0.14879543462E+04 -0.38041799651E+03  0.19148317913E+04  0.24546500315E+04  0.50400001928E-02 0. -1.
</event>
<event>
 5   0  0.3872969E-08  0.3898052E+04  0.7818609E-02  0.8025434E-01
       -2   -1    0    0    0  501  0.00000000000E+00  0.00000000000E+00  0.24965499167E+04  0.24965499167E+04  0.25500000920E-02 0. -1.
        2   -1    0    0  501    0  0.00000000000E+00  0.00000000000E+00 -0.15215808074E+04  0.15215808074E+04  0.25500000920E-02 0.  1.
    10030    2    1    2    0    0  0.00000000000E+00  0.00000000000E+00  0.97496910937E+03  0.40181307241E+04  0.38980520458E+04 0.  0.
        2    1    3    3  502    0 -0.16228652651E+03  0.22924608970E+03 -0.15006094216E+04  0.15266693559E+04  0.25500000920E-02 0.  1.
       -2    1    3    3    0  502  0.16228652651E+03 -0.22924608970E+03  0.24755785309E+04  0.24914613682E+04  0.25500000920E-02 0. -1.
</event>
<event>
 5   0  0.3669347E-08  0.3898055E+04  0.7818609E-02  0.8025434E-01
        2   -1    0    0  501    0  0.00000000000E+00  0.00000000000E+00  0.12921939456E+04  0.12921939456E+04  0.25500000920E-02 0. -1.
       -2   -1    0    0    0  501  0.00000000000E+00  0.00000000000E+00 -0.29397356580E+04  0.29397356580E+04  0.25500000920E-02 0.  1.
    10030    2    1    2    0    0  0.00000000000E+00  0.00000000000E+00 -0.16475417123E+04  0.42319296036E+04  0.38980552171E+04 0.  0.
        5    1    3    3  502    0  0.14282789116E+04  0.55430401870E+03  0.48418150714E+03  0.16067630243E+04  0.46999998093E+01 0. -1.
       -5    1    3    3    0  502 -0.14282789116E+04 -0.55430401870E+03 -0.21317232195E+04  0.26251665793E+04  0.46999998093E+01 0.  1.
</event>
<event>
 5   0  0.3669347E-08  0.3899813E+04  0.7818609E-02  0.8025068E-01
       -2   -1    0    0    0  501  0.00000000000E+00  0.00000000000E+00  0.17005187235E+04  0.17005187235E+04  0.25500000920E-02 0. -1.
        2   -1    0    0  501    0  0.00000000000E+00  0.00000000000E+00 -0.22358680079E+04  0.22358680079E+04  0.25500000920E-02 0.  1.
    10030    2    1    2    0    0  0.00000000000E+00  0.00000000000E+00 -0.53534928438E+03  0.39363867314E+04  0.38998130267E+04 0.  0.
        5    1    3    3  502    0  0.42154698090E+03  0.96485371037E+03  0.13888959474E+04  0.17428994756E+04  0.46999998093E+01 0. -1.
       -5    1    3    3    0  502 -0.42154698090E+03 -0.96485371037E+03 -0.19242452317E+04  0.21934872558E+04  0.46999998093E+01 0.  1.
</event>
<event>
 5   0  0.1164500E-08  0.3822866E+04  0.7818609E-02  0.8041266E-01
        1   -1    0    0  501    0  0.00000000000E+00  0.00000000000E+00  0.17518189339E+04  0.17518189339E+04  0.50400001928E-02 0.  1.
       -1   -1    0    0    0  501  0.00000000000E+00  0.00000000000E+00 -0.20855900000E+04  0.20855900000E+04  0.50400001928E-02 0. -1.
    10030    2    1    2    0    0  0.00000000000E+00  0.00000000000E+00 -0.33377106613E+03  0.38374089339E+04  0.38228659669E+04 0.  0.
        1    1    3    3  502    0 -0.15569881507E+04 -0.28429784915E+03 -0.12426614657E+04  0.20122735616E+04  0.50400001928E-02 0. -1.
       -1    1    3    3    0  502  0.15569881507E+04  0.28429784915E+03  0.90889039953E+03  0.18251353722E+04  0.50400001928E-02 0.  1.
</event>
<event>
 5   0  0.1164500E-08  0.3886892E+04  0.7818609E-02  0.8027761E-01
       -1   -1    0    0    0  501  0.00000000000E+00  0.00000000000E+00  0.12340952312E+04  0.12340952312E+04  0.50400001928E-02 0. -1.
        1   -1    0    0  501    0  0.00000000000E+00  0.00000000000E+00 -0.30605269626E+04  0.30605269627E+04  0.50400001928E-02 0.  1.
    10030    2    1    2    0    0  0.00000000000E+00  0.00000000000E+00 -0.18264317314E+04  0.42946221939E+04  0.38868916782E+04 0.  0.
        4    1    3    3  502    0  0.14715522966E+04 -0.24041729005E+03  0.46401895206E+03  0.15615959259E+04  0.12699999809E+01 0. -1.
       -4    1    3    3    0  502 -0.14715522966E+04  0.24041729005E+03 -0.22904506835E+04  0.27330262680E+04  0.12699999809E+01 0.  1.
</event>
<event>
 5   0  0.3690572E-08  0.3889274E+04  0.7818609E-02  0.8027264E-01
        2   -1    0    0  501    0  0.00000000000E+00  0.00000000000E+00  0.19717519642E+04  0.19717519642E+04  0.25500000920E-02 0.  1.
       -2   -1    0    0    0  501  0.00000000000E+00  0.00000000000E+00 -0.19178950079E+04  0.19178950079E+04  0.25500000920E-02 0. -1.
    10030    2    1    2    0    0  0.00000000000E+00  0.00000000000E+00  0.53856956295E+02  0.38896469721E+04  0.38892740962E+04 0.  0.
        3    1    3    3  502    0 -0.98721917164E+03  0.33389776043E+03 -0.16150339792E+04  0.19220884921E+04  0.10100000352E+00 0. -1.
       -3    1    3    3    0  502  0.98721917164E+03 -0.33389776043E+03  0.16688909355E+04  0.19675584800E+04  0.10100000352E+00 0.  1.
</event>
<event>
 5   0  0.3769985E-08  0.3914530E+04  0.7818609E-02  0.8022014E-01
        2   -1    0    0  501    0  0.00000000000E+00  0.00000000000E+00  0.25691307647E+04  0.25691307647E+04  0.25500000920E-02 0.  1.
       -2   -1    0    0    0  501  0.00000000000E+00  0.00000000000E+00 -0.14911211821E+04  0.14911211821E+04  0.25500000920E-02 0. -1.
    10030    2    1    2    0    0  0.00000000000E+00  0.00000000000E+00  0.10780095826E+04  0.40602519467E+04  0.39145295006E+04 0.  0.
        1    1    3    3  502    0 -0.51806458820E+03 -0.16641938288E+04  0.14626330553E+04  0.22753521644E+04  0.50400001928E-02 0.  1.
       -1    1    3    3    0  502  0.51806458820E+03  0.16641938288E+04 -0.38462347264E+03  0.17848997824E+04  0.50400001928E-02 0. -1.
</event>
<event>
 5   0  0.3669347E-08  0.3901071E+04  0.7818609E-02  0.8024807E-01
        2   -1    0    0  501    0  0.00000000000E+00  0.00000000000E+00  0.15968120439E+04  0.15968120439E+04  0.25500000920E-02 0. -1.
       -2   -1    0    0    0  501  0.00000000000E+00  0.00000000000E+00 -0.23826148526E+04  0.23826148526E+04  0.25500000920E-02 0.  1.
    10030    2    1    2    0    0  0.00000000000E+00  0.00000000000E+00 -0.78580280877E+03  0.39794268965E+04  0.39010706698E+04 0.  0.
        5    1    3    3  502    0 -0.67370135170E+03  0.19296641736E+03  0.14639508393E+04  0.16230476578E+04  0.46999998093E+01 0. -1.
       -5    1    3    3    0  502  0.67370135170E+03 -0.19296641736E+03 -0.22497536481E+04  0.23563792387E+04  0.46999998093E+01 0.  1.
</event>
<event>
 5   0  0.1164500E-08  0.3939915E+04  0.7818609E-02  0.8016778E-01
        1   -1    0    0  501    0  0.00000000000E+00  0.00000000000E+00  0.16122003836E+04  0.16122003836E+04  0.50400001928E-02 0. -1.
       -1   -1    0    0    0  501  0.00000000000E+00  0.00000000000E+00 -0.24071030013E+04  0.24071030013E+04  0.50400001928E-02 0.  1.
    10030    2    1    2    0    0  0.00000000000E+00  0.00000000000E+00 -0.79490261767E+03  0.40193033849E+04  0.39399149139E+04 0.  0.
        2    1    3    3  502    0  0.97449661095E+03 -0.13437455147E+04  0.68479095021E+03  0.17956152980E+04  0.25500000920E-02 0. -1.
       -2    1    3    3    0  502 -0.97449661095E+03  0.13437455147E+04 -0.14796935679E+04  0.22236880869E+04  0.25500000920E-02 0.  1.
</event>
<event>
 5   0  0.3690572E-08  0.3899554E+04  0.7818609E-02  0.8025122E-01
       -2   -1    0    0    0  501  0.00000000000E+00  0.00000000000E+00  0.13774759954E+04  0.13774759954E+04  0.25500000920E-02 0. -1.
        2   -1    0    0  501    0  0.00000000000E+00  0.00000000000E+00 -0.27598522511E+04  0.27598522511E+04  0.25500000920E-02 0.  1.
    10030    2    1    2    0    0  0.00000000000E+00  0.00000000000E+00 -0.13823762557E+04  0.41373282465E+04  0.38995539370E+04 0.  0.
        3    1    3    3  502    0  0.12196169274E+04 -0.15169909809E+04 -0.81170631749E+03  0.21089320145E+04  0.10100000352E+00 0.  1.
       -3    1    3    3    0  502 -0.12196169274E+04  0.15169909809E+04 -0.57066993822E+03  0.20283962321E+04  0.10100000352E+00 0. -1.
</event>
<event>
 5   0  0.3724293E-08  0.3996732E+04  0.7818609E-02  0.8005206E-01
       -2   -1    0    0    0  501  0.00000000000E+00  0.00000000000E+00  0.12750506304E+04  0.12750506304E+04  0.25500000920E-02 0.  1.
        2   -1    0    0  501    0  0.00000000000E+00  0.00000000000E+00 -0.31320058198E+04  0.31320058198E+04  0.25500000920E-02 0. -1.
    10030    2    1    2    0    0  0.00000000000E+00  0.00000000000E+00 -0.18569551894E+04  0.44070564502E+04  0.39967316622E+04 0.  0.
        4    1    3    3  502    0  0.10558603371E+04 -0.12638192911E+04 -0.21766750501E+04  0.27294681055E+04  0.12699999809E+01 0. -1.
       -4    1    3    3    0  502 -0.10558603371E+04  0.12638192911E+04  0.31971986068E+03  0.16775883447E+04  0.12699999809E+01 0.  1.
</event>
<event>
 5   0  0.3690572E-08  0.3897291E+04  0.7818609E-02  0.8025593E-01
       -2   -1    0    0    0  501  0.00000000000E+00  0.00000000000E+00  0.22476566623E+04  0.22476566623E+04  0.25500000920E-02 0.  1.
        2   -1    0    0  501    0  0.00000000000E+00  0.00000000000E+00 -0.16894126575E+04  0.16894126575E+04  0.25500000920E-02 0. -1.
    10030    2    1    2    0    0  0.00000000000E+00  0.00000000000E+00  0.55824400484E+03  0.39370693198E+04  0.38972911695E+04 0.  0.
        3    1    3    3  502    0  0.17536919227E+04 -0.62702276251E+03 -0.29998875313E+03  0.18864215241E+04  0.10100000352E+00 0. -1.
       -3    1    3    3    0  502 -0.17536919227E+04  0.62702276251E+03  0.85823275797E+03  0.20506477956E+04  0.10100000352E+00 0.  1.
</event>
<event>
 5   0  0.3724293E-08  0.3804151E+04  0.7818609E-02  0.8045265E-01
       -2   -1    0    0    0  501  0.00000000000E+00  0.00000000000E+00  0.12839082842E+04  0.12839082842E+04  0.25500000920E-02 0.  1.
        2   -1    0    0  501    0  0.00000000000E+00  0.00000000000E+00 -0.28178739313E+04  0.28178739313E+04  0.25500000920E-02 0. -1.
    10030    2    1    2    0    0  0.00000000000E+00  0.00000000000E+00 -0.15339656471E+04  0.41017822155E+04  0.38041512506E+04 0.  0.
        4    1    3    3  502    0  0.78115184556E+03 -0.15906938924E+04 -0.21995096710E+02  0.17722840242E+04  0.12699999809E+01 0.  1.
       -4    1    3    3    0  502 -0.78115184556E+03  0.15906938924E+04 -0.15119705504E+04  0.23294981913E+04  0.12699999809E+01 0. -1.
</event>
<event>
 5   0  0.3769985E-08  0.3832126E+04  0.7818609E-02  0.8039296E-01
        2   -1    0    0  501    0  0.00000000000E+00  0.00000000000E+00  0.17785310961E+04  0.17785310961E+04  0.25500000920E-02 0.  1.
       -2   -1    0    0    0  501  0.00000000000E+00  0.00000000000E+00 -0.20642301959E+04  0.20642301959E+04  0.25500000920E-02 0. -1.
    10030    2    1    2    0    0  0.00000000000E+00  0.00000000000E+00 -0.28569909972E+03  0.38427612920E+04  0.38321260903E+04 0.  0.
        1    1    3    3  502    0 -0.76432554629E+03 -0.17569113770E+04 -0.16204596580E+03  0.19228078486E+04  0.50400001928E-02 0. -1.
       -1    1    3    3    0  502  0.76432554629E+03  0.17569113770E+04 -0.12365313392E+03  0.19199534434E+04  0.50400001928E-02 0.  1.
</event>
<event>
 5   0  0.1164500E-08  0.3898596E+04  0.7818609E-02  0.8025321E-01
        1   -1    0    0  501    0  0.00000000000E+00  0.00000000000E+00  0.23819460274E+04  0.23819460274E+04  0.50400001928E-02 0.  1.
       -1   -1    0    0    0  501  0.00000000000E+00  0.00000000000E+00 -0.15952342888E+04  0.15952342888E+04  0.50400001928E-02 0. -1.
    10030    2    1    2    0    0  0.00000000000E+00  0.00000000000E+00  0.78671173860E+03  0.39771803162E+04  0.38985956327E+04 0.  0.
        4    1    3    3  502    0  0.73803357633E+03 -0.11969594252E+04  0.17705132482E+04  0.22610007077E+04  0.12699999809E+01 0.  1.
       -4    1    3    3    0  502 -0.73803357633E+03  0.11969594252E+04 -0.98380150959E+03  0.17161796085E+04  0.12699999809E+01 0. -1.
</event>
<event>
 5   0  0.3690572E-08  0.3908689E+04  0.7818609E-02  0.8023224E-01
       -2   -1    0    0    0  501  0.00000000000E+00  0.00000000000E+00  0.24188679871E+04  0.24188679871E+04  0.25500000920E-02 0. -1.
        2   -1    0    0  501    0  0.00000000000E+00  0.00000000000E+00 -0.15790291486E+04  0.15790291486E+04  0.25500000920E-02 0.  1.
    10030    2    1    2    0    0  0.00000000000E+00  0.00000000000E+00  0.83983883851E+03  0.39978971357E+04  0.39086893242E+04 0.  0.
        3    1    3    3  502    0 -0.24065042163E+03  0.60358072345E+03  0.23051463036E+04  0.23949784564E+04  0.10100000352E+00 0. -1.
       -3    1    3    3    0  502  0.24065042163E+03 -0.60358072345E+03 -0.14653074651E+04  0.16029186794E+04  0.10100000352E+00 0.  1.
</event>
<event>
 5   0  0.3669347E-08  0.3902285E+04  0.7818609E-02  0.8024554E-01
       -2   -1    0    0    0  501  0.00000000000E+00  0.00000000000E+00  0.19368517670E+04  0.19368517670E+04  0.25500000920E-02 0.  1.
        2   -1    0    0  501    0  0.00000000000E+00  0.00000000000E+00 -0.19655382475E+04  0.19655382475E+04  0.25500000920E-02 0. -1.
    10030    2    1    2    0    0  0.00000000000E+00  0.00000000000E+00 -0.28686480535E+02  0.39023900145E+04  0.39022845758E+04 0.  0.
        5    1    3    3  502    0  0.12464036160E+04  0.50723625941E+03  0.13985372967E+04  0.19408089182E+04  0.46999998093E+01 0.  1.
       -5    1    3    3    0  502 -0.12464036160E+04 -0.50723625941E+03 -0.14272237772E+04  0.19615810962E+04  0.46999998093E+01 0. -1.
</event>
<event>
 5   0  0.1164500E-08  0.3898320E+04  0.7818609E-02  0.8025379E-01
       -1   -1    0    0    0  501  0.00000000000E+00  0.00000000000E+00  0.17067884113E+04  0.17067884113E+04  0.50400001928E-02 0.  1.
        1   -1    0    0  501    0  0.00000000000E+00  0.00000000000E+00 -0.22259497213E+04  0.22259497213E+04  0.50400001928E-02 0. -1.
    10030    2    1    2    0    0  0.00000000000E+00  0.00000000000E+00 -0.51916131001E+03  0.39327381327E+04  0.38983202478E+04 0.  0.
        3    1    3    3  502    0  0.10186660014E+04  0.31736900889E+03 -0.19051849033E+04  0.21836055129E+04  0.10100000352E+00 0. -1.
       -3    1    3    3    0  502 -0.10186660014E+04 -0.31736900889E+03  0.13860235933E+04  0.17491326198E+04  0.10100000352E+00 0.  1.
</event>
<event>
 5   0  0.1164500E-08  0.3959812E+04  0.7818609E-02  0.8012703E-01
        1   -1    0    0  501    0  0.00000000000E+00  0.00000000000E+00  0.18918087424E+04  0.18918087424E+04  0.50400001928E-02 0.  1.
       -1   -1    0    0    0  501  0.00000000000E+00  0.00000000000E+00 -0.20721056963E+04  0.20721056963E+04  0.50400001928E-02 0. -1.
    10030    2    1    2    0    0  0.00000000000E+00  0.00000000000E+00 -0.18029695388E+03  0.39639144387E+04  0.39598119508E+04 0.  0.
        4    1    3    3  502    0 -0.13178908366E+04  0.11156210574E+04  0.87965833881E+03  0.19378459709E+04  0.12699999809E+01 0.  1.
       -4    1    3    3    0  502  0.13178908366E+04 -0.11156210574E+04 -0.10599552927E+04  0.20260684678E+04  0.12699999809E+01 0. -1.
</event>
<event>
 5   0  0.3724293E-08  0.3908314E+04  0.7818609E-02  0.8023302E-01
        2   -1    0    0  501    0  0.00000000000E+00  0.00000000000E+00  0.13340552358E+04  0.13340552358E+04  0.25500000920E-02 0. -1.
       -2   -1    0    0    0  501  0.00000000000E+00  0.00000000000E+00 -0.28624967516E+04  0.28624967516E+04  0.25500000920E-02 0.  1.
    10030    2    1    2    0    0  0.00000000000E+00  0.00000000000E+00 -0.15284415158E+04  0.41965519875E+04  0.39083135898E+04 0.  0.
        4    1    3    3  502    0  0.85852769789E+03 -0.15320774607E+04 -0.16843913721E+04  0.24334146916E+04  0.12699999809E+01 0.  1.
       -4    1    3    3    0  502 -0.85852769789E+03  0.15320774607E+04  0.15594985632E+03  0.17631372959E+04  0.12699999809E+01 0. -1.
</event>
<event>
 5   0  0.1164500E-08  0.3907563E+04  0.7818609E-02  0.8023458E-01
       -1   -1    0    0    0  501  0.00000000000E+00  0.00000000000E+00  0.16659512648E+04  0.16659512648E+04  0.50400001928E-02 0. -1.
        1   -1    0    0  501    0  0.00000000000E+00  0.00000000000E+00 -0.22913407240E+04  0.22913407240E+04  0.50400001928E-02 0.  1.
    10030    2    1    2    0    0  0.00000000000E+00  0.00000000000E+00 -0.62538945923E+03  0.39572919887E+04  0.39075629116E+04 0.  0.
        3    1    3    3  502    0 -0.10245050760E+04  0.13772157002E+04  0.63241732219E+03  0.18292854931E+04  0.10100000352E+00 0. -1.
       -3    1    3    3    0  502  0.10245050760E+04 -0.13772157002E+04 -0.12578067814E+04  0.21280064956E+04  0.10100000352E+00 0.  1.
</event>
<event>
 5   0  0.3669347E-08  0.3898326E+04  0.7818609E-02  0.8025378E-01
       -2   -1    0    0    0  501  0.00000000000E+00  0.00000000000E+00  0.15736339131E+04  0.15736339131E+04  0.25500000920E-02 0. -1.
        2   -1    0    0  501    0  0.00000000000E+00  0.00000000000E+00 -0.24143073722E+04  0.24143073722E+04  0.25500000920E-02 0.  1.
    10030    2    1    2    0    0  0.00000000000E+00  0.00000000000E+00 -0.84067345907E+03  0.39879412854E+04  0.38983257728E+04 0.  0.
        5    1    3    3  502    0 -0.52301906256E+03 -0.18588956148E+04 -0.14934713218E+03  0.19368449866E+04  0.46999998093E+01 0.  1.
       -5    1    3    3    0  502  0.52301906256E+03  0.18588956148E+04 -0.69132632689E+03  0.20510962987E+04  0.46999998093E+01 0. -1.
</event>
<event>
 5   0  0.3872969E-08  0.3914816E+04  0.7818609E-02  0.8021955E-01
        2   -1    0    0  501    0  0.00000000000E+00  0.00000000000E+00  0.11945574712E+04  0.11945574712E+04  0.25500000920E-02 0.  1.
       -2   -1    0    0    0  501  0.00000000000E+00  0.00000000000E+00 -0.32074192676E+04  0.32074192676E+04  0.25500000920E-02 0. -1.
    10030    2    1    2    0    0  0.00000000000E+00  0.00000000000E+00 -0.20128617964E+04  0.44019767388E+04  0.39148162916E+04 0.  0.
        2    1    3    3  502    0  0.17125965330E+04 -0.53870430960E+03 -0.18833914704E+04  0.26019901324E+04  0.25500000920E-02 0. -1.
       -2    1    3    3    0  502 -0.17125965330E+04  0.53870430960E+03 -0.12947032593E+03  0.17999866064E+04  0.25500000920E-02 0.  1.
</event>
<event>
 5   0  0.3669347E-08  0.3886425E+04  0.7818609E-02  0.8027859E-01
       -2   -1    0    0    0  501  0.00000000000E+00  0.00000000000E+00  0.18350177827E+04  0.18350177827E+04  0.25500000920E-02 0. -1.
        2   -1    0    0  501    0  0.00000000000E+00  0.00000000000E+00 -0.20577862025E+04  0.20577862025E+04  0.25500000920E-02 0.  1.
    10030    2    1    2    0    0  0.00000000000E+00  0.00000000000E+00 -0.22276841979E+03  0.38928039853E+04  0.38864247193E+04 0.  0.
        5    1    3    3  502    0 -0.51115423874E+03  0.82792124054E+03 -0.17962034262E+04  0.20428169459E+04  0.46999998093E+01 0.  1.
       -5    1    3    3    0  502  0.51115423874E+03 -0.82792124054E+03  0.15734350064E+04  0.18499870393E+04  0.46999998093E+01 0. -1.
</event>
<event>
 5   0  0.1164500E-08  0.3897522E+04  0.7818609E-02  0.8025545E-01
        1   -1    0    0  501    0  0.00000000000E+00  0.00000000000E+00  0.19015996366E+04  0.19015996366E+04  0.50400001928E-02 0. -1.
       -1   -1    0    0    0  501  0.00000000000E+00  0.00000000000E+00 -0.19970918365E+04  0.19970918365E+04  0.50400001928E-02 0.  1.
    10030    2    1    2    0    0  0.00000000000E+00  0.00000000000E+00 -0.95492199902E+02  0.38986914732E+04  0.38975218335E+04 0.  0.
        5    1    3    3  502    0  0.13002019132E+04 -0.45230216372E+03  0.13319954811E+04  0.19155511776E+04  0.46999998093E+01 0. -1.
       -5    1    3    3    0  502 -0.13002019132E+04  0.45230216372E+03 -0.14274876810E+04  0.19831402956E+04  0.46999998093E+01 0.  1.
</event>
<event>
 5   0  0.1164500E-08  0.3903320E+04  0.7818609E-02  0.8024339E-01
       -1   -1    0    0    0  501  0.00000000000E+00  0.00000000000E+00  0.13635128920E+04  0.13635128921E+04  0.50400001928E-02 0.  1.
        1   -1    0    0  501    0  0.00000000000E+00  0.00000000000E+00 -0.27935020023E+04  0.27935020023E+04  0.50400001928E-02 0. -1.
    10030    2    1    2    0    0  0.00000000000E+00  0.00000000000E+00 -0.14299891102E+04  0.41570148944E+04  0.39033196098E+04 0.  0.
        4    1    3    3  502    0  0.86248672873E+03 -0.98064040523E+03 -0.22595804284E+04  0.26098360651E+04  0.12699999809E+01 0. -1.
       -4    1    3    3    0  502 -0.86248672873E+03  0.98064040523E+03  0.82959131813E+03  0.15471788292E+04  0.12699999809E+01 0.  1.
</event>
<event>
 5   0  0.3690572E-08  0.3901298E+04  0.7818609E-02  0.8024759E-01
       -2   -1    0    0    0  501  0.00000000000E+00  0.00000000000E+00  0.18582628530E+04  0.18582628530E+04  0.25500000920E-02 0.  1.
        2   -1    0    0  501    0  0.00000000000E+00  0.00000000000E+00 -0.20476281908E+04  0.20476281908E+04  0.25500000920E-02 0. -1.
    10030    2    1    2    0    0  0.00000000000E+00  0.00000000000E+00 -0.18936533778E+03  0.39058910438E+04  0.39012979397E+04 0.  0.
        3    1    3    3  502    0 -0.23253424930E+03 -0.38268344260E+03  0.18061079499E+04  0.18607914260E+04  0.10100000352E+00 0.  1.
       -3    1    3    3    0  502  0.23253424930E+03  0.38268344260E+03 -0.19954732877E+04  0.20450996177E+04  0.10100000352E+00 0. -1.
</event>
<event>
 5   0  0.1164500E-08  0.3880993E+04  0.7818609E-02  0.8028994E-01
       -1   -1    0    0    0  501  0.00000000000E+00  0.00000000000E+00  0.14923536578E+04  0.14923536578E+04  0.50400001928E-02 0.  1.
        1   -1    0    0  501    0  0.00000000000E+00  0.00000000000E+00 -0.25232129380E+04  0.25232129380E+04  0.50400001928E-02 0. -1.
    10030    2    1    2    0    0  0.00000000000E+00  0.00000000000E+00 -0.10308592802E+04  0.40155665958E+04  0.38809926861E+04 0.  0.
        2    1    3    3  502    0  0.14159770987E+03 -0.74081594195E+03  0.13344895927E+04  0.15328798532E+04  0.25500000920E-02 0.  1.
       -2    1    3    3    0  502 -0.14159770987E+03  0.74081594195E+03 -0.23653488729E+04  0.24826867426E+04  0.25500000920E-02 0. -1.
</event>
<event>
 5   0  0.3724293E-08  0.3914368E+04  0.7818609E-02  0.8022047E-01
        2   -1    0    0  501    0  0.00000000000E+00  0.00000000000E+00  0.19501484980E+04  0.19501484981E+04  0.25500000920E-02 0. -1.
       -2   -1    0    0    0  501  0.00000000000E+00  0.00000000000E+00 -0.19642451891E+04  0.19642451891E+04  0.25500000920E-02 0.  1.
    10030    2    1    2    0    0  0.00000000000E+00  0.00000000000E+00 -0.14096691075E+02  0.39143936872E+04  0.39143683043E+04 0.  0.
        4    1    3    3  502    0 -0.16797149014E+04 -0.57917027350E+03 -0.82783855863E+03  0.19601527103E+04  0.12699999809E+01 0.  1.
       -4    1    3    3    0  502  0.16797149014E+04  0.57917027350E+03  0.81374186756E+03  0.19542409769E+04  0.12699999809E+01 0. -1.
</event>
<event>
 5   0  0.1164500E-08  0.3898700E+04  0.7818609E-02  0.8025300E-01
       -1   -1    0    0    0  501  0.00000000000E+00  0.00000000000E+00  0.19714626123E+04  0.19714626123E+04  0.50400001928E-02 0.  1.
        1   -1    0    0  501    0  0.00000000000E+00  0.00000000000E+00 -0.19274857646E+04  0.19274857646E+04  0.50400001928E-02 0. -1.
    10030    2    1    2    0    0  0.00000000000E+00  0.00000000000E+00  0.43976847661E+02  0.38989483769E+04  0.38987003582E+04 0.  0.
        4    1    3    3  502    0 -0.65202259176E+03 -0.13638761263E+04 -0.12088103736E+04  0.19355918166E+04  0.12699999809E+01 0. -1.
       -4    1    3    3    0  502  0.65202259176E+03  0.13638761263E+04  0.12527872213E+04  0.19633565603E+04  0.12699999809E+01 0.  1.
</event>
<event>
 5   0  0.1164500E-08  0.3915694E+04  0.7818609E-02  0.8021773E-01
        1   -1    0    0  501    0  0.00000000000E+00  0.00000000000E+00  0.17955846194E+04  0.17955846194E+04  0.50400001928E-02 0.  1.
       -1   -1    0    0    0  501  0.00000000000E+00  0.00000000000E+00 -0.21347728686E+04  0.21347728686E+04  0.50400001928E-02 0. -1.
    10030    2    1    2    0    0  0.00000000000E+00  0.00000000000E+00 -0.33918824916E+03  0.39303574880E+04  0.39156942316E+04 0.  0.
        1    1    3    3  502    0 -0.60140757250E+03  0.16282398262E+04 -0.10786950664E+04  0.20436337847E+04  0.50400001928E-02 0. -1.
       -1    1    3    3    0  502  0.60140757250E+03 -0.16282398262E+04  0.73950681720E+03  0.18867237033E+04  0.50400001928E-02 0.  1.
</event>
<event>
 5   0  0.1164500E-08  0.3899897E+04  0.7818609E-02  0.8025051E-01
        1   -1    0    0  501    0  0.00000000000E+00  0.00000000000E+00  0.23582633297E+04  0.23582633297E+04  0.50400001928E-02 0. -1.
       -1   -1    0    0    0  501  0.00000000000E+00  0.00000000000E+00 -0.16123302092E+04  0.16123302092E+04  0.50400001928E-02 0.  1.
    10030    2    1    2    0    0  0.00000000000E+00  0.00000000000E+00  0.74593312047E+03  0.39705935389E+04  0.38998970282E+04 0.  0.
        5    1    3    3  502    0  0.16106113191E+04  0.10407191625E+04  0.12842914232E+02  0.19176423615E+04  0.46999998093E+01 0.  1.
       -5    1    3    3    0  502 -0.16106113191E+04 -0.10407191625E+04  0.73309020624E+03  0.20529511774E+04  0.46999998093E+01 0. -1.
</event>
<event>
 5   0  0.1164500E-08  0.3905669E+04  0.7818609E-02  0.8023851E-01
       -1   -1    0    0    0  501  0.00000000000E+00  0.00000000000E+00  0.13923921586E+04  0.13923921586E+04  0.50400001928E-02 0.  1.
        1   -1    0    0  501    0  0.00000000000E+00  0.00000000000E+00 -0.27388566658E+04  0.27388566658E+04  0.50400001928E-02 0. -1.
    10030    2    1    2    0    0  0.00000000000E+00  0.00000000000E+00 -0.13464645072E+04  0.41312488244E+04  0.39056689799E+04 0.  0.
        3    1    3    3  502    0  0.37941857971E+03 -0.61648250613E+03  0.12452350015E+04  0.14403539003E+04  0.10100000352E+00 0.  1.
       -3    1    3    3    0  502 -0.37941857971E+03  0.61648250613E+03 -0.25916995087E+04  0.26908949241E+04  0.10100000352E+00 0. -1.
</event>
<event>
 5   0  0.3872969E-08  0.3897055E+04  0.7818609E-02  0.8025642E-01
        2   -1    0    0  501    0  0.00000000000E+00  0.00000000000E+00  0.19244480689E+04  0.19244480689E+04  0.25500000920E-02 0.  1.
       -2   -1    0    0    0  501  0.00000000000E+00  0.00000000000E+00 -0.19729082203E+04  0.19729082203E+04  0.25500000920E-02 0. -1.
    10030    2    1    2    0    0  0.00000000000E+00  0.00000000000E+00 -0.48460151342E+02  0.38973562892E+04  0.38970549981E+04 0.  0.
        2    1    3    3  502    0  0.37847264188E+03  0.13546610314E+03  0.18825286711E+04  0.19249692993E+04  0.25500000920E-02 0.  1.
       -2    1    3    3    0  502 -0.37847264188E+03 -0.13546610314E+03 -0.19309888224E+04  0.19723869899E+04  0.25500000920E-02 0. -1.
</event>
<event>
 5   0  0.1164500E-08  0.3897820E+04  0.7818609E-02  0.8025483E-01
        1   -1    0    0  501    0  0.00000000000E+00  0.00000000000E+00  0.16873478726E+04  0.16873478726E+04  0.50400001928E-02 0. -1.
       -1   -1    0    0    0  501  0.00000000000E+00  0.00000000000E+00 -0.22510181559E+04  0.22510181559E+04  0.50400001928E-02 0.  1.
    10030    2    1    2    0    0  0.00000000000E+00  0.00000000000E+00 -0.56367028328E+03  0.39383660286E+04  0.38978202610E+04 0.  0.
        4    1    3    3  502    0  0.16028341907E+04 -0.10144863789E+04 -0.73368833174E+03  0.20338535436E+04  0.12699999809E+01 0.  1.
       -4    1    3    3    0  502 -0.16028341907E+04  0.10144863789E+04  0.17001804847E+03  0.19045124850E+04  0.12699999809E+01 0. -1.
</event>
<event>
 5   0  0.3669347E-08  0.3902701E+04  0.7818609E-02  0.8024468E-01
       -2   -1    0    0    0  501  0.00000000000E+00  0.00000000000E+00  0.28094729130E+04  0.28094729130E+04  0.25500000920E-02 0. -1.
        2   -1    0    0  501    0  0.00000000000E+00  0.00000000000E+00 -0.13553323731E+04  0.13553323731E+04  0.25500000920E-02 0.  1.
    10030    2    1    2    0    0  0.00000000000E+00  0.00000000000E+00  0.14541405399E+04  0.41648052861E+04  0.39027014184E+04 0.  0.
        5    1    3    3  502    0 -0.10563087273E+04 -0.12847649678E+04  0.18160638192E+04  0.24626244203E+04  0.46999998093E+01 0. -1.
       -5    1    3    3    0  502  0.10563087273E+04  0.12847649678E+04 -0.36192327924E+03  0.17021808658E+04  0.46999998093E+01 0.  1.
</event>
<event>
 5   0  0.3724293E-08  0.3898277E+04  0.7818609E-02  0.8025388E-01
       -2   -1    0    0    0  501  0.00000000000E+00  0.00000000000E+00  0.16386289563E+04  0.16386289563E+04  0.25500000920E-02 0. -1.
        2   -1    0    0  501    0  0.00000000000E+00  0.00000000000E+00 -0.23184873954E+04  0.23184873954E+04  0.25500000920E-02 0.  1.
    10030    2    1    2    0    0  0.00000000000E+00  0.00000000000E+00 -0.67985843906E+03  0.39571163517E+04  0.38982768404E+04 0.  0.
        4    1    3    3  502    0 -0.26378102955E+03 -0.16264365986E+04  0.71706683597E+03  0.17969593487E+04  0.12699999809E+01 0. -1.
       -4    1    3    3    0  502  0.26378102955E+03  0.16264365986E+04 -0.13969252750E+04  0.21601570030E+04  0.12699999809E+01 0.  1.
</event>
<event>
 5   0  0.1164500E-08  0.3890625E+04  0.7818609E-02  0.8026982E-01
        1   -1    0    0  501    0  0.00000000000E+00  0.00000000000E+00  0.19990839785E+04  0.19990839785E+04  0.50400001928E-02 0.  1.
       -1   -1    0    0    0  501  0.00000000000E+00  0.00000000000E+00 -0.18929873361E+04  0.18929873361E+04  0.50400001928E-02 0. -1.
    10030    2    1    2    0    0  0.00000000000E+00  0.00000000000E+00  0.10609664236E+03  0.38920713147E+04  0.38906249653E+04 0.  0.
        3    1    3    3  502    0 -0.17971168243E+04  0.66767657869E+03  0.38304934286E+03  0.19550313816E+04  0.10100000352E+00 0.  1.
       -3    1    3    3    0  502  0.17971168243E+04 -0.66767657869E+03 -0.27695270050E+03  0.19370399331E+04  0.10100000352E+00 0. -1.
</event>
<event>
 5   0  0.3669347E-08  0.3902847E+04  0.7818609E-02  0.8024437E-01
        2   -1    0    0  501    0  0.00000000000E+00  0.00000000000E+00  0.23503284958E+04  0.23503284958E+04  0.25500000920E-02 0.  1.
       -2   -1    0    0    0  501  0.00000000000E+00  0.00000000000E+00 -0.16202218644E+04  0.16202218644E+04  0.25500000920E-02 0. -1.
    10030    2    1    2    0    0  0.00000000000E+00  0.00000000000E+00  0.73010663138E+03  0.39705503602E+04  0.39028469698E+04 0.  0.
        5    1    3    3  502    0  0.94368014481E+03  0.14782372790E+04 -0.50554497937E+03  0.18251891641E+04  0.46999998093E+01 0. -1.
       -5    1    3    3    0  502 -0.94368014481E+03 -0.14782372790E+04  0.12356516108E+04  0.21453611961E+04  0.46999998093E+01 0.  1.
</event>
<event>
 5   0  0.3769985E-08  0.3898030E+04  0.7818609E-02  0.8025439E-01
       -2   -1    0    0    0  501  0.00000000000E+00  0.00000000000E+00  0.21625327805E+04  0.21625327805E+04  0.25500000920E-02 0.  1.
        2   -1    0    0  501    0  0.00000000000E+00  0.00000000000E+00 -0.17565785291E+04  0.17565785291E+04  0.25500000920E-02 0. -1.
    10030    2    1    2    0    0  0.00000000000E+00  0.00000000000E+00  0.40595425134E+03  0.39191113096E+04  0.38980295795E+04 0.  0.
        1    1    3    3  502    0  0.17863836547E+04 -0.74613824924E+03 -0.23563034368E+02  0.19360898908E+04  0.50400001928E-02 0. -1.
       -1    1    3    3    0  502 -0.17863836547E+04  0.74613824924E+03  0.42951728571E+03  0.19830214188E+04  0.50400001928E-02 0.  1.
</event>
<event>
 5   0  0.3690572E-08  0.3899159E+04  0.7818609E-02  0.8025204E-01
        2   -1    0    0  501    0  0.00000000000E+00  0.00000000000E+00  0.19007813794E+04  0.19007813794E+04  0.25500000920E-02 0. -1.
       -2   -1    0    0    0  501  0.00000000000E+00  0.00000000000E+00 -0.19996302969E+04  0.19996302969E+04  0.25500000920E-02 0.  1.
    10030    2    1    2    0    0  0.00000000000E+00  0.00000000000E+00 -0.98848917542E+02  0.39004116763E+04  0.38991589011E+04 0.  0.
        3    1    3    3  502    0 -0.20070526829E+02 -0.86341935270E+03 -0.17978316241E+04  0.19945160725E+04  0.10100000352E+00 0.  1.
       -3    1    3    3    0  502  0.20070526829E+02  0.86341935270E+03  0.16989827066E+04  0.19058956037E+04  0.10100000352E+00 0. -1.
</event>
<event>
 5   0  0.1164500E-08  0.3906125E+04  0.7818609E-02  0.8023757E-01
       -1   -1    0    0    0  501  0.00000000000E+00  0.00000000000E+00  0.16119152961E+04  0.16119152961E+04  0.50400001928E-02 0.  1.
        1   -1    0    0  501    0  0.00000000000E+00  0.00000000000E+00 -0.23664102849E+04  0.23664102849E+04  0.50400001928E-02 0. -1.
    10030    2    1    2    0    0  0.00000000000E+00  0.00000000000E+00 -0.75449498886E+03  0.39783255810E+04  0.39061249007E+04 0.  0.
        1    1    3    3  502    0  0.17196168731E+03  0.96593756671E+03 -0.20972032963E+04  0.23153548045E+04  0.50400001928E-02 0. -1.
       -1    1    3    3    0  502 -0.17196168731E+03 -0.96593756671E+03  0.13427083074E+04  0.16629707765E+04  0.50400001928E-02 0.  1.
</event>
<event>
 5   0  0.1164500E-08  0.3881281E+04  0.7818609E-02  0.8028934E-01
        1   -1    0    0  501    0  0.00000000000E+00  0.00000000000E+00  0.23557877199E+04  0.23557877199E+04  0.50400001928E-02 0. -1.
       -1   -1    0    0    0  501  0.00000000000E+00  0.00000000000E+00 -0.15986525153E+04  0.15986525153E+04  0.50400001928E-02 0.  1.
    10030    2    1    2    0    0  0.00000000000E+00  0.00000000000E+00  0.75713520453E+03  0.39544402352E+04  0.38812812132E+04 0.  0.
        2    1    3    3  502    0 -0.18024322315E+04 -0.68893183531E+03  0.58909483732E+03  0.20175286244E+04  0.25500000920E-02 0. -1.
       -2    1    3    3    0  502  0.18024322315E+04  0.68893183531E+03  0.16804036721E+03  0.19369116108E+04  0.25500000920E-02 0.  1.
</event>
<event>
 5   0  0.3769985E-08  0.3901824E+04  0.7818609E-02  0.8024650E-01
       -2   -1    0    0    0  501  0.00000000000E+00  0.00000000000E+00  0.18280237528E+04  0.18280237528E+04  0.25500000920E-02 0. -1.
        2   -1    0    0  501    0  0.00000000000E+00  0.00000000000E+00 -0.20820609470E+04  0.20820609470E+04  0.25500000920E-02 0.  1.
    10030    2    1    2    0    0  0.00000000000E+00  0.00000000000E+00 -0.25403719416E+03  0.39100846998E+04  0.39018236074E+04 0.  0.
        1    1    3    3  502    0 -0.80237442168E+02 -0.19400930925E+04  0.62213435863E+02  0.19427479935E+04  0.50400001928E-02 0.  1.
       -1    1    3    3    0  502  0.80237442168E+02  0.19400930925E+04 -0.31625063002E+03  0.19673367063E+04  0.50400001928E-02 0. -1.
</event>
<event>
 5   0  0.3690572E-08  0.3907362E+04  0.7818609E-02  0.8023500E-01
       -2   -1    0    0    0  501  0.00000000000E+00  0.00000000000E+00  0.16183765494E+04  0.16183765494E+04  0.25500000920E-02 0.  1.
        2   -1    0    0  501    0  0.00000000000E+00  0.00000000000E+00 -0.23584562213E+04  0.23584562213E+04  0.25500000920E-02 0. -1.
    10030    2    1    2    0    0  0.00000000000E+00  0.00000000000E+00 -0.74007967185E+03  0.39768327707E+04  0.39073624051E+04 0.  0.
        3    1    3    3  502    0  0.15042238483E+04 -0.10828193793E+04  0.25874935138E+03  0.18714001258E+04  0.10100000352E+00 0.  1.
       -3    1    3    3    0  502 -0.15042238483E+04  0.10828193793E+04 -0.99882902323E+03  0.21054326448E+04  0.10100000352E+00 0. -1.
</event>
<event>
 5   0  0.1164500E-08  0.3900438E+04  0.7818609E-02  0.8024938E-01
       -1   -1    0    0    0  501  0.00000000000E+00  0.00000000000E+00  0.25573872153E+04  0.25573872153E+04  0.50400001928E-02 0. -1.
        1   -1    0    0  501    0  0.00000000000E+00  0.00000000000E+00 -0.14872028155E+04  0.14872028155E+04  0.50400001928E-02 0.  1.
    10030    2    1    2    0    0  0.00000000000E+00  0.00000000000E+00  0.10701843998E+04  0.40445900308E+04  0.39004376508E+04 0.  0.
        5    1    3    3  502    0  0.89400562420E+03 -0.13320634457E+03  0.23270628566E+04  0.24964441942E+04  0.46999998093E+01 0. -1.
       -5    1    3    3    0  502 -0.89400562420E+03  0.13320634457E+03 -0.12568784568E+04  0.15481458366E+04  0.46999998093E+01 0.  1.
</event>
<event>
 5   0  0.3690572E-08  0.3919524E+04  0.7818609E-02  0.8020981E-01
        2   -1    0    0  501    0  0.00000000000E+00  0.00000000000E+00  0.18913680780E+04  0.18913680780E+04  0.25500000920E-02 0.  1.
       -2   -1    0    0    0  501  0.00000000000E+00  0.00000000000E+00 -0.20306291794E+04  0.20306291794E+04  0.25500000920E-02 0. -1.
    10030    2    1    2    0    0  0.00000000000E+00  0.00000000000E+00 -0.13926110144E+03  0.39219972574E+04  0.39195240569E+04 0.  0.
        3    1    3    3  502    0  0.34279941906E+02 -0.18819766799E+04  0.47629217011E+03  0.19416141686E+04  0.10100000352E+00 0.  1.
       -3    1    3    3    0  502 -0.34279941906E+02  0.18819766799E+04 -0.61555327155E+03  0.19803830888E+04  0.10100000352E+00 0. -1.
</event>
<event>
 5   0  0.1164500E-08  0.3904548E+04  0.7818609E-02  0.8024084E-01
        1   -1    0    0  501    0  0.00000000000E+00  0.00000000000E+00  0.13527881283E+04  0.13527881283E+04  0.50400001928E-02 0. -1.
       -1   -1    0    0    0  501  0.00000000000E+00  0.00000000000E+00 -0.28174207931E+04  0.28174207931E+04  0.50400001928E-02 0.  1.
    10030    2    1    2    0    0  0.00000000000E+00  0.00000000000E+00 -0.14646326648E+04  0.41702089213E+04  0.39045478105E+04 0.  0.
        4    1    3    3  502    0  0.12991053299E+04 -0.10996096334E+04  0.28907500065E+03  0.17263782822E+04  0.12699999809E+01 0. -1.
       -4    1    3    3    0  502 -0.12991053299E+04  0.10996096334E+04 -0.17537076654E+04  0.24438306392E+04  0.12699999809E+01 0.  1.
</event>
<event>
 5   0  0.1164500E-08  0.3862676E+04  0.7818609E-02  0.8032837E-01
        1   -1    0    0  501    0  0.00000000000E+00  0.00000000000E+00  0.22621494054E+04  0.22621494054E+04  0.50400001928E-02 0. -1.
       -1   -1    0    0    0  501  0.00000000000E+00  0.00000000000E+00 -0.16489035109E+04  0.16489035109E+04  0.50400001928E-02 0.  1.
    10030    2    1    2    0    0  0.00000000000E+00  0.00000000000E+00  0.61324589451E+03  0.39110529162E+04  0.38626758065E+04 0.  0.
        4    1    3    3  502    0 -0.10140571742E+04  0.68405761704E+03 -0.12066919146E+04  0.17182414748E+04  0.12699999809E+01 0.  1.
       -4    1    3    3    0  502  0.10140571742E+04 -0.68405761704E+03  0.18199378091E+04  0.21928114415E+04  0.12699999809E+01 0. -1.
</event>
<event>
 5   0  0.3690572E-08  0.3902287E+04  0.7818609E-02  0.8024554E-01
        2   -1    0    0  501    0  0.00000000000E+00  0.00000000000E+00  0.22341100568E+04  0.22341100568E+04  0.25500000920E-02 0.  1.
       -2   -1    0    0    0  501  0.00000000000E+00  0.00000000000E+00 -0.17040163726E+04  0.17040163726E+04  0.25500000920E-02 0. -1.
    10030    2    1    2    0    0  0.00000000000E+00  0.00000000000E+00  0.53009368426E+03  0.39381264294E+04  0.39022865681E+04 0.  0.
        3    1    3    3  502    0 -0.17860889389E+04 -0.96947738438E+02 -0.52150053190E+03  0.18631895708E+04  0.10100000352E+00 0. -1.
       -3    1    3    3    0  502  0.17860889389E+04  0.96947738438E+02  0.10515942162E+04  0.20749368586E+04  0.10100000352E+00 0.  1.
</event>
<event>
 5   0  0.1164500E-08  0.4009305E+04  0.7818609E-02  0.8002672E-01
        1   -1    0    0  501    0  0.00000000000E+00  0.00000000000E+00  0.21031489966E+04  0.21031489966E+04  0.50400001928E-02 0.  1.
       -1   -1    0    0    0  501  0.00000000000E+00  0.00000000000E+00 -0.19107686135E+04  0.19107686136E+04  0.50400001928E-02 0. -1.
    10030    2    1    2    0    0  0.00000000000E+00  0.00000000000E+00  0.19238038301E+03  0.40139176101E+04  0.40093047239E+04 0.  0.
        5    1    3    3  502    0 -0.18945280241E+04  0.64682813427E+03  0.20112458616E+03  0.20119881357E+04  0.46999998093E+01 0. -1.
       -5    1    3    3    0  502  0.18945280241E+04 -0.64682813427E+03 -0.87442031508E+01  0.20019294744E+04  0.46999998093E+01 0.  1.
</event>
<event>
 5   0  0.1164500E-08  0.3901964E+04  0.7818609E-02  0.8024621E-01
       -1   -1    0    0    0  501  0.00000000000E+00  0.00000000000E+00  0.12788713917E+04  0.12788713918E+04  0.50400001928E-02 0. -1.
        1   -1    0    0  501    0  0.00000000000E+00  0.00000000000E+00 -0.29763208942E+04  0.29763208942E+04  0.50400001928E-02 0.  1.
    10030    2    1    2    0    0  0.00000000000E+00  0.00000000000E+00 -0.16974495024E+04  0.42551922859E+04  0.39019644510E+04 0.  0.
        1    1    3    3  502    0 -0.52014961210E+03 -0.36178820572E+03  0.11635492961E+04  0.13248748202E+04  0.50400001928E-02 0. -1.
       -1    1    3    3    0  502  0.52014961210E+03  0.36178820572E+03 -0.28609987985E+04  0.29303174657E+04  0.50400001928E-02 0.  1.
</event>
<event>
 5   0  0.1164500E-08  0.3895030E+04  0.7818609E-02  0.8026064E-01
       -1   -1    0    0    0  501  0.00000000000E+00  0.00000000000E+00  0.29159553315E+04  0.29159553315E+04  0.50400001928E-02 0.  1.
        1   -1    0    0  501    0  0.00000000000E+00  0.00000000000E+00 -0.13007109163E+04  0.13007109163E+04  0.50400001928E-02 0. -1.
    10030    2    1    2    0    0  0.00000000000E+00  0.00000000000E+00  0.16152444152E+04  0.42166662479E+04  0.38950301315E+04 0.  0.
        4    1    3    3  502    0 -0.15745824489E+04  0.42129816760E+03 -0.34622878667E+03  0.16663367066E+04  0.12699999809E+01 0. -1.
       -4    1    3    3    0  502  0.15745824489E+04 -0.42129816760E+03  0.19614732019E+04  0.25503295412E+04  0.12699999809E+01 0.  1.
</event>
<event>
 5   0  0.3872969E-08  0.3898289E+04  0.7818609E-02  0.8025385E-01
        2   -1    0    0  501    0  0.00000000000E+00  0.00000000000E+00  0.25842543727E+04  0.25842543727E+04  0.25500000920E-02 0. -1.
       -2   -1    0    0    0  501  0.00000000000E+00  0.00000000000E+00 -0.14701198748E+04  0.14701198748E+04  0.25500000920E-02 0.  1.
    10030    2    1    2    0    0  0.00000000000E+00  0.00000000000E+00  0.11141344978E+04  0.40543742475E+04  0.38982887091E+04 0.  0.
        2    1    3    3  502    0  0.38603833384E+03 -0.15833072883E+04 -0.55498554770E+03  0.17215970848E+04  0.25500000920E-02 0.  1.
       -2    1    3    3    0  502 -0.38603833384E+03  0.15833072883E+04  0.16691200455E+04  0.23327771627E+04  0.25500000920E-02 0. -1.
</event>
<event>
 5   0  0.3872969E-08  0.3901512E+04  0.7818609E-02  0.8024715E-01
        2   -1    0    0  501    0  0.00000000000E+00  0.00000000000E+00  0.12608895044E+04  0.12608895044E+04  0.25500000920E-02 0.  1.
       -2   -1    0    0    0  501  0.00000000000E+00  0.00000000000E+00 -0.30180670188E+04  0.30180670188E+04  0.25500000920E-02 0. -1.
    10030    2    1    2    0    0  0.00000000000E+00  0.00000000000E+00 -0.17571775144E+04  0.42789565231E+04  0.39015120287E+04 0.  0.
        2    1    3    3  502    0  0.12390491857E+04 -0.96662377878E+03  0.38901318324E+03  0.16189304096E+04  0.25500000920E-02 0.  1.
       -2    1    3    3    0  502 -0.12390491857E+04  0.96662377878E+03 -0.21461906976E+04  0.26600261136E+04  0.25500000920E-02 0. -1.
</event>
<event>
 5   0  0.3872969E-08  0.3898617E+04  0.7818609E-02  0.8025317E-01
       -2   -1    0    0    0  501  0.00000000000E+00  0.00000000000E+00  0.24692114126E+04  0.24692114126E+04  0.25500000920E-02 0. -1.
        2   -1    0    0  501    0  0.00000000000E+00  0.00000000000E+00 -0.15388730307E+04  0.15388730307E+04  0.25500000920E-02 0.  1.
    10030    2    1    2    0    0  0.00000000000E+00  0.00000000000E+00  0.93033838190E+03  0.40080844434E+04  0.38986166008E+04 0.  0.
        2    1    3    3  502    0 -0.18935666287E+04  0.25540795680E+03  0.86197964267E+03  0.20961480640E+04  0.25500000920E-02 0.  1.
       -2    1    3    3    0  502  0.18935666287E+04 -0.25540795680E+03  0.68358739226E+02  0.19119363794E+04  0.25500000920E-02 0. -1.
</event>
<event>
 5   0  0.1164500E-08  0.3903319E+04  0.7818609E-02  0.8024339E-01
        1   -1    0    0  501    0  0.00000000000E+00  0.00000000000E+00  0.26274027908E+04  0.26274027908E+04  0.50400001928E-02 0. -1.
       -1   -1    0    0    0  501  0.00000000000E+00  0.00000000000E+00 -0.14497110029E+04  0.14497110029E+04  0.50400001928E-02 0.  1.
    10030    2    1    2    0    0  0.00000000000E+00  0.00000000000E+00  0.11776917879E+04  0.40771137937E+04  0.39033189646E+04 0.  0.
        2    1    3    3  502    0  0.60039087926E+03  0.16765969854E+04 -0.24515871134E+03  0.17976510933E+04  0.25500000920E-02 0.  1.
       -2    1    3    3    0  502 -0.60039087926E+03 -0.16765969854E+04  0.14228504993E+04  0.22794627004E+04  0.25500000920E-02 0. -1.
</event>
<event>
 5   0  0.1164500E-08  0.3898089E+04  0.7818609E-02  0.8025427E-01
       -1   -1    0    0    0  501  0.00000000000E+00  0.00000000000E+00  0.16949509512E+04  0.16949509512E+04  0.50400001928E-02 0.  1.
        1   -1    0    0  501    0  0.00000000000E+00  0.00000000000E+00 -0.22412294225E+04  0.22412294226E+04  0.50400001928E-02 0. -1.
    10030    2    1    2    0    0  0.00000000000E+00  0.00000000000E+00 -0.54627847136E+03  0.39361803738E+04  0.38980887325E+04 0.  0.
        4    1    3    3  502    0 -0.14562681550E+04  0.72846778761E+03 -0.13547694606E+04  0.21182030500E+04  0.12699999809E+01 0. -1.
       -4    1    3    3    0  502  0.14562681550E+04 -0.72846778761E+03  0.80849098924E+03  0.18179773237E+04  0.12699999809E+01 0.  1.
</event>
<event>
 5   0  0.1164500E-08  0.3904893E+04  0.7818609E-02  0.8024012E-01
        1   -1    0    0  501    0  0.00000000000E+00  0.00000000000E+00  0.17940117385E+04  0.17940117385E+04  0.50400001928E-02 0.  1.
       -1   -1    0    0    0  501  0.00000000000E+00  0.00000000000E+00 -0.21248732496E+04  0.21248732496E+04  0.50400001928E-02 0. -1.
    10030    2    1    2    0    0  0.00000000000E+00  0.00000000000E+00 -0.33086151111E+03  0.39188849881E+04  0.39048931112E+04 0.  0.
        3    1    3    3  502    0  0.13596447885E+04 -0.12882067100E+04 -0.71871104560E+03  0.20061545444E+04  0.10100000352E+00 0. -1.
       -3    1    3    3    0  502 -0.13596447885E+04  0.12882067100E+04  0.38784953449E+03  0.19127304437E+04  0.10100000352E+00 0.  1.
</event>
<event>
 5   0  0.3669347E-08  0.3903710E+04  0.7818609E-02  0.8024258E-01
       -2   -1    0    0    0  501  0.00000000000E+00  0.00000000000E+00  0.16074880183E+04  0.16074880183E+04  0.25500000920E-02 0. -1.
        2   -1    0    0  501    0  0.00000000000E+00  0.00000000000E+00 -0.23699942810E+04  0.23699942810E+04  0.25500000920E-02 0.  1.
    10030    2    1    2    0    0  0.00000000000E+00  0.00000000000E+00 -0.76250626267E+03  0.39774822993E+04  0.39037097280E+04 0.  0.
        5    1    3    3  502    0  0.64498259209E+03 -0.14128805043E+04 -0.15857447036E+04  0.22196491206E+04  0.46999998093E+01 0.  1.
       -5    1    3    3    0  502 -0.64498259209E+03  0.14128805043E+04  0.82323844096E+03  0.17578331787E+04  0.46999998093E+01 0. -1.
</event>
<event>
 5   0  0.1164500E-08  0.3899355E+04  0.7818609E-02  0.8025163E-01
        1   -1    0    0  501    0  0.00000000000E+00  0.00000000000E+00  0.17347446847E+04  0.17347446847E+04  0.50400001928E-02 0. -1.
       -1   -1    0    0    0  501  0.00000000000E+00  0.00000000000E+00 -0.21912407491E+04  0.21912407492E+04  0.50400001928E-02 0.  1.
    10030    2    1    2    0    0  0.00000000000E+00  0.00000000000E+00 -0.45649606444E+03  0.39259854339E+04  0.38993554557E+04 0.  0.
        4    1    3    3  502    0  0.19144606250E+04 -0.32745548116E+03 -0.39927586600E+03  0.19828790701E+04  0.12699999809E+01 0. -1.
       -4    1    3    3    0  502 -0.19144606250E+04  0.32745548116E+03 -0.57220198440E+02  0.19431063637E+04  0.12699999809E+01 0.  1.
</event>
<event>
 5   0  0.3669347E-08  0.3899026E+04  0.7818609E-02  0.8025232E-01
       -2   -1    0    0    0  501  0.00000000000E+00  0.00000000000E+00  0.16839877873E+04  0.16839877873E+04  0.25500000920E-02 0. -1.
        2   -1    0    0  501    0  0.00000000000E+00  0.00000000000E+00 -0.22569057947E+04  0.22569057947E+04  0.25500000920E-02 0.  1.
    10030    2    1    2    0    0  0.00000000000E+00  0.00000000000E+00 -0.57291800743E+03  0.39408935820E+04  0.38990264402E+04 0.  0.
        5    1    3    3  502    0 -0.80241825298E+02 -0.91105375622E+03  0.14536905131E+04  0.17174678731E+04  0.46999998093E+01 0. -1.
       -5    1    3    3    0  502  0.80241825298E+02  0.91105375622E+03 -0.20266085206E+04  0.22234257089E+04  0.46999998093E+01 0.  1.
</event>
<event>
 5   0  0.1164500E-08  0.3900254E+04  0.7818609E-02  0.8024976E-01
        1   -1    0    0  501    0  0.00000000000E+00  0.00000000000E+00  0.15335510408E+04  0.15335510408E+04  0.50400001928E-02 0. -1.
       -1   -1    0    0    0  501  0.00000000000E+00  0.00000000000E+00 -0.24798626621E+04  0.24798626621E+04  0.50400001928E-02 0.  1.
    10030    2    1    2    0    0  0.00000000000E+00  0.00000000000E+00 -0.94631162132E+03  0.40134137029E+04  0.39002543335E+04 0.  0.
        4    1    3    3  502    0 -0.52261887899E+02 -0.17325364758E+04  0.44640472970E+03  0.17898862368E+04  0.12699999809E+01 0. -1.
       -4    1    3    3    0  502  0.52261887899E+02  0.17325364758E+04 -0.13927163510E+04  0.22235274661E+04  0.12699999809E+01 0.  1.
</event>
<event>
 5   0  0.1164500E-08  0.3901082E+04  0.7818609E-02  0.8024804E-01
        1   -1    0    0  501    0  0.00000000000E+00  0.00000000000E+00  0.16850621442E+04  0.16850621442E+04  0.50400001928E-02 0.  1.
       -1   -1    0    0    0  501  0.00000000000E+00  0.00000000000E+00 -0.22578451608E+04  0.22578451608E+04  0.50400001928E-02 0. -1.
    10030    2    1    2    0    0  0.00000000000E+00  0.00000000000E+00 -0.57278301659E+03  0.39429073050E+04  0.39010815977E+04 0.  0.
        3    1    3    3  502    0 -0.24877212914E+03 -0.15149369369E+03 -0.22357407944E+04  0.22546340770E+04  0.10100000352E+00 0. -1.
       -3    1    3    3    0  502  0.24877212914E+03  0.15149369369E+03  0.16629577778E+04  0.16882732280E+04  0.10100000352E+00 0.  1.
</event>
<event>
 5   0  0.1164500E-08  0.3901037E+04  0.7818609E-02  0.8024814E-01
       -1   -1    0    0    0  501  0.00000000000E+00  0.00000000000E+00  0.18272957660E+04  0.18272957660E+04  0.50400001928E-02 0.  1.
        1   -1    0    0  501    0  0.00000000000E+00  0.00000000000E+00 -0.20820502551E+04  0.20820502551E+04  0.50400001928E-02 0. -1.
    10030    2    1    2    0    0  0.00000000000E+00  0.00000000000E+00 -0.25475448907E+03  0.39093460211E+04  0.39010365883E+04 0.  0.
        3    1    3    3  502    0 -0.59129109690E+03  0.15385373381E+04  0.91782053075E+03  0.18865621747E+04  0.10100000352E+00 0.  1.
       -3    1    3    3    0  502  0.59129109690E+03 -0.15385373381E+04 -0.11725750198E+04  0.20227838464E+04  0.10100000352E+00 0. -1.
</event>
<event>
 5   0  0.3724293E-08  0.3898435E+04  0.7818609E-02  0.8025355E-01
        2   -1    0    0  501    0  0.00000000000E+00  0.00000000000E+00  0.12654730834E+04  0.12654730834E+04  0.25500000920E-02 0. -1.
       -2   -1    0    0    0  501  0.00000000000E+00  0.00000000000E+00 -0.30023946092E+04  0.30023946092E+04  0.25500000920E-02 0.  1.
    10030    2    1    2    0    0  0.00000000000E+00  0.00000000000E+00 -0.17369215258E+04  0.42678676927E+04  0.38984353599E+04 0.  0.
        4    1    3    3  502    0 -0.12925801609E+04  0.13445325787E+04 -0.24828224755E+03  0.18815358128E+04  0.12699999809E+01 0. -1.
       -4    1    3    3    0  502  0.12925801609E+04 -0.13445325787E+04 -0.14886392783E+04  0.23863318799E+04  0.12699999809E+01 0.  1.
</event>
<event>
 5   0  0.3872969E-08  0.3859942E+04  0.7818609E-02  0.8033412E-01
       -2   -1    0    0    0  501  0.00000000000E+00  0.00000000000E+00  0.15632649086E+04  0.15632649086E+04  0.25500000920E-02 0.  1.
        2   -1    0    0  501    0  0.00000000000E+00  0.00000000000E+00 -0.23826979486E+04  0.23826979486E+04  0.25500000920E-02 0. -1.
    10030    2    1    2    0    0  0.00000000000E+00  0.00000000000E+00 -0.81943303998E+03  0.39459628573E+04  0.38599420156E+04 0.  0.
        2    1    3    3  502    0 -0.13785621942E+03 -0.18573805735E+04 -0.92687697534E+03  0.20803768551E+04  0.25500000920E-02 0.  1.
       -2    1    3    3    0  502  0.13785621942E+03  0.18573805735E+04  0.10744393536E+03  0.18655860021E+04  0.25500000920E-02 0. -1.
</event>
<event>
 5   0  0.1164500E-08  0.3894798E+04  0.7818609E-02  0.8026112E-01
        1   -1    0    0  501    0  0.00000000000E+00  0.00000000000E+00  0.29013918881E+04  0.29013918881E+04  0.50400001928E-02 0. -1.
       -1   -1    0    0    0  501  0.00000000000E+00  0.00000000000E+00 -0.13070842688E+04  0.13070842688E+04  0.50400001928E-02 0.  1.
    10030    2    1    2    0    0  0.00000000000E+00  0.00000000000E+00  0.15943076193E+04  0.42084761569E+04  0.38947984259E+04 0.  0.
        3    1    3    3  502    0 -0.16191423636E+03 -0.18615871697E+04  0.20468737185E+03  0.18797925260E+04  0.10100000352E+00 0.  1.
       -3    1    3    3    0  502  0.16191423636E+03  0.18615871697E+04  0.13896202475E+04  0.23286836309E+04  0.10100000352E+00 0. -1.
</event>
<event>
 5   0  0.3690572E-08  0.3908837E+04  0.7818609E-02  0.8023194E-01
        2   -1    0    0  501    0  0.00000000000E+00  0.00000000000E+00  0.22626036169E+04  0.22626036169E+04  0.25500000920E-02 0.  1.
       -2   -1    0    0    0  501  0.00000000000E+00  0.00000000000E+00 -0.16882109457E+04  0.16882109457E+04  0.25500000920E-02 0. -1.
    10030    2    1    2    0    0  0.00000000000E+00  0.00000000000E+00  0.57439267122E+03  0.39508145626E+04  0.39088372654E+04 0.  0.
        3    1    3    3  502    0  0.57056641495E+03  0.15837414807E+04  0.12908195575E+04  0.21213199315E+04  0.10100000352E+00 0.  1.
       -3    1    3    3    0  502 -0.57056641495E+03 -0.15837414807E+04 -0.71642688628E+03  0.18294946311E+04  0.10100000352E+00 0. -1.
</event>
<event>
 5   0  0.1164500E-08  0.3900253E+04  0.7818609E-02  0.8024977E-01
        1   -1    0    0  501    0  0.00000000000E+00  0.00000000000E+00  0.21428784649E+04  0.21428784649E+04  0.50400001928E-02 0.  1.
       -1   -1    0    0    0  501  0.00000000000E+00  0.00000000000E+00 -0.17747128529E+04  0.17747128529E+04  0.50400001928E-02 0. -1.
    10030    2    1    2    0    0  0.00000000000E+00  0.00000000000E+00  0.36816561205E+03  0.39175913178E+04  0.39002533014E+04 0.  0.
        1    1    3    3  502    0  0.98900148072E+03  0.11398942964E+04 -0.10565235153E+04  0.18422065232E+04  0.50400001928E-02 0. -1.
       -1    1    3    3    0  502 -0.98900148072E+03 -0.11398942964E+04  0.14246891273E+04  0.20753847945E+04  0.50400001928E-02 0.  1.
</event>
<event>
 5   0  0.1164500E-08  0.3885581E+04  0.7818609E-02  0.8028035E-01
       -1   -1    0    0    0  501  0.00000000000E+00  0.00000000000E+00  0.17572398623E+04  0.17572398623E+04  0.50400001928E-02 0. -1.
        1   -1    0    0  501    0  0.00000000000E+00  0.00000000000E+00 -0.21479334512E+04  0.21479334512E+04  0.50400001928E-02 0.  1.
    10030    2    1    2    0    0  0.00000000000E+00  0.00000000000E+00 -0.39069358890E+03  0.39051733135E+04  0.38855806681E+04 0.  0.
        4    1    3    3  502    0  0.17994363968E+03 -0.49303830754E+03  0.16846376495E+04  0.17645033605E+04  0.12699999809E+01 0. -1.
       -4    1    3    3    0  502 -0.17994363968E+03  0.49303830754E+03 -0.20753312384E+04  0.21406699531E+04  0.12699999809E+01 0.  1.
</event>
<event>
 5   0  0.1164500E-08  0.3933834E+04  0.7818609E-02  0.8018029E-01
       -1   -1    0    0    0  501  0.00000000000E+00  0.00000000000E+00  0.17317182344E+04  0.17317182344E+04  0.50400001928E-02 0.  1.
        1   -1    0    0  501    0  0.00000000000E+00  0.00000000000E+00 -0.22340605805E+04  0.22340605805E+04  0.50400001928E-02 0. -1.
    10030    2    1    2    0    0  0.00000000000E+00  0.00000000000E+00 -0.50234234610E+03  0.39657788148E+04  0.39338344876E+04 0.  0.
        5    1    3    3  502    0  0.34941849493E+02  0.54749160844E+03 -0.21553644794E+04  0.22240922020E+04  0.46999998093E+01 0. -1.
       -5    1    3    3    0  502 -0.34941849493E+02 -0.54749160844E+03  0.16530221333E+04  0.17416866128E+04  0.46999998093E+01 0.  1.
</event>
<event>
 5   0  0.3690572E-08  0.3903893E+04  0.7818609E-02  0.8024220E-01
        2   -1    0    0  501    0  0.00000000000E+00  0.00000000000E+00  0.30944098095E+04  0.30944098095E+04  0.25500000920E-02 0. -1.
       -2   -1    0    0    0  501  0.00000000000E+00  0.00000000000E+00 -0.12312836199E+04  0.12312836199E+04  0.25500000920E-02 0.  1.
    10030    2    1    2    0    0  0.00000000000E+00  0.00000000000E+00  0.18631261897E+04  0.43256934294E+04  0.39038934984E+04 0.  0.
        3    1    3    3  502    0  0.15724290020E+03  0.10683877329E+04 -0.87013409537E+03  0.13868348970E+04  0.10100000352E+00 0.  1.
       -3    1    3    3    0  502 -0.15724290020E+03 -0.10683877329E+04  0.27332602851E+04  0.29388585324E+04  0.10100000352E+00 0. -1.
</event>
<event>
 5   0  0.1164500E-08  0.3901570E+04  0.7818609E-02  0.8024703E-01
        1   -1    0    0  501    0  0.00000000000E+00  0.00000000000E+00  0.20083647830E+04  0.20083647830E+04  0.50400001928E-02 0.  1.
       -1   -1    0    0    0  501  0.00000000000E+00  0.00000000000E+00 -0.18948557762E+04  0.18948557762E+04  0.50400001928E-02 0. -1.
    10030    2    1    2    0    0  0.00000000000E+00  0.00000000000E+00  0.11350900682E+03  0.39032205592E+04  0.39015697404E+04 0.  0.
        1    1    3    3  502    0  0.13064428764E+04 -0.49000929523E+03 -0.13071489767E+04  0.19119467948E+04  0.50400001928E-02 0. -1.
       -1    1    3    3    0  502 -0.13064428764E+04  0.49000929523E+03  0.14206579836E+04  0.19912737644E+04  0.50400001928E-02 0.  1.
</event>
<event>
 5   0  0.3769985E-08  0.3906747E+04  0.7818609E-02  0.8023627E-01
        2   -1    0    0  501    0  0.00000000000E+00  0.00000000000E+00  0.18999775655E+04  0.18999775655E+04  0.25500000920E-02 0. -1.
       -2   -1    0    0    0  501  0.00000000000E+00  0.00000000000E+00 -0.20082698046E+04  0.20082698046E+04  0.25500000920E-02 0.  1.
    10030    2    1    2    0    0  0.00000000000E+00  0.00000000000E+00 -0.10829223903E+03  0.39082473701E+04  0.39067467664E+04 0.  0.
        1    1    3    3  502    0 -0.59324645063E+03 -0.31976045778E+03 -0.18882841447E+04  0.20049451645E+04  0.50400001928E-02 0.  1.
       -1    1    3    3    0  502  0.59324645063E+03  0.31976045778E+03  0.17799919057E+04  0.19033022056E+04  0.50400001928E-02 0. -1.
</event>
<event>
 5   0  0.1164500E-08  0.3897825E+04  0.7818609E-02  0.8025482E-01
       -1   -1    0    0    0  501  0.00000000000E+00  0.00000000000E+00  0.20937972129E+04  0.20937972129E+04  0.50400001928E-02 0.  1.
        1   -1    0    0  501    0  0.00000000000E+00  0.00000000000E+00 -0.18140537965E+04  0.18140537965E+04  0.50400001928E-02 0. -1.
    10030    2    1    2    0    0  0.00000000000E+00  0.00000000000E+00  0.27974341640E+03  0.39078510095E+04  0.38978254365E+04 0.  0.
        1    1    3    3  502    0 -0.16729264473E+04  0.92368239423E+03  0.52346359992E+03  0.19813849207E+04  0.50400001928E-02 0.  1.
       -1    1    3    3    0  502  0.16729264473E+04 -0.92368239423E+03 -0.24372018352E+03  0.19264660888E+04  0.50400001928E-02 0. -1.
</event>
<event>
 5   0  0.1164500E-08  0.3897767E+04  0.7818609E-02  0.8025494E-01
       -1   -1    0    0    0  501  0.00000000000E+00  0.00000000000E+00  0.18414144688E+04  0.18414144688E+04  0.50400001928E-02 0.  1.
        1   -1    0    0  501    0  0.00000000000E+00  0.00000000000E+00 -0.20626247100E+04  0.20626247100E+04  0.50400001928E-02 0. -1.
    10030    2    1    2    0    0  0.00000000000E+00  0.00000000000E+00 -0.22121024124E+03  0.39040391788E+04  0.38977670452E+04 0.  0.
        5    1    3    3  502    0  0.16078958100E+03  0.44507783826E+03  0.17829865538E+04  0.18447251049E+04  0.46999998093E+01 0.  1.
       -5    1    3    3    0  502 -0.16078958100E+03 -0.44507783826E+03 -0.20041967951E+04  0.20593140739E+04  0.46999998093E+01 0. -1.
</event>
<event>
 5   0  0.1164500E-08  0.3805686E+04  0.7818609E-02  0.8044936E-01
       -1   -1    0    0    0  501  0.00000000000E+00  0.00000000000E+00  0.21424754991E+04  0.21424754991E+04  0.50400001928E-02 0. -1.
        1   -1    0    0  501    0  0.00000000000E+00  0.00000000000E+00 -0.16900127229E+04  0.16900127229E+04  0.50400001928E-02 0.  1.
    10030    2    1    2    0    0  0.00000000000E+00  0.00000000000E+00  0.45246277614E+03  0.38324882220E+04  0.38056856686E+04 0.  0.
        2    1    3    3  502    0 -0.16100944862E+03  0.18568146518E+04  0.61250306208E+03  0.19618472659E+04  0.25500000920E-02 0. -1.
       -2    1    3    3    0  502  0.16100944862E+03 -0.18568146518E+04 -0.16004028594E+03  0.18706409561E+04  0.25500000920E-02 0.  1.
</event>
<event>
 5   0  0.1164500E-08  0.3963115E+04  0.7818609E-02  0.8012029E-01
       -1   -1    0    0    0  501  0.00000000000E+00  0.00000000000E+00  0.11477411033E+04  0.11477411033E+04  0.50400001928E-02 0.  1.
        1   -1    0    0  501    0  0.00000000000E+00  0.00000000000E+00 -0.34211283784E+04  0.34211283784E+04  0.50400001928E-02 0. -1.
    10030    2    1    2    0    0  0.00000000000E+00  0.00000000000E+00 -0.22733872751E+04  0.45688694817E+04  0.39631147647E+04 0.  0.
        4    1    3    3  502    0  0.19637000904E+04 -0.12161563335E+03 -0.14086769735E+04  0.24197687567E+04  0.12699999809E+01 0.  1.
       -4    1    3    3    0  502 -0.19637000904E+04  0.12161563335E+03 -0.86471030164E+03  0.21491007250E+04  0.12699999809E+01 0. -1.
</event>
<event>
 5   0  0.1164500E-08  0.3908949E+04  0.7818609E-02  0.8023170E-01
       -1   -1    0    0    0  501  0.00000000000E+00  0.00000000000E+00  0.16699511713E+04  0.16699511713E+04  0.50400001928E-02 0. -1.
        1   -1    0    0  501    0  0.00000000000E+00  0.00000000000E+00 -0.22874749265E+04  0.22874749265E+04  0.50400001928E-02 0.  1.
    10030    2    1    2    0    0  0.00000000000E+00  0.00000000000E+00 -0.61752375515E+03  0.39574260978E+04  0.39089494409E+04 0.  0.
        5    1    3    3  502    0  0.16203608358E+04  0.97730114573E+03 -0.80397272209E+03  0.20559866234E+04  0.46999998093E+01 0.  1.
       -5    1    3    3    0  502 -0.16203608358E+04 -0.97730114573E+03  0.18644896694E+03  0.19014394744E+04  0.46999998093E+01 0. -1.
</event>
<event>
 5   0  0.3872969E-08  0.3899863E+04  0.7818609E-02  0.8025058E-01
        2   -1    0    0  501    0  0.00000000000E+00  0.00000000000E+00  0.15827589440E+04  0.15827589440E+04  0.25500000920E-02 0.  1.
       -2   -1    0    0    0  501  0.00000000000E+00  0.00000000000E+00 -0.24022819889E+04  0.24022819889E+04  0.25500000920E-02 0. -1.
    10030    2    1    2    0    0  0.00000000000E+00  0.00000000000E+00 -0.81952304488E+03  0.39850409328E+04  0.38998632303E+04 0.  0.
        2    1    3    3  502    0  0.26358679530E+02 -0.10823259729E+04  0.12474207733E+04  0.16517211863E+04  0.25500000920E-02 0.  1.
       -2    1    3    3    0  502 -0.26358679530E+02  0.10823259729E+04 -0.20669438182E+04  0.23333197465E+04  0.25500000920E-02 0. -1.
</event>
<event>
 5   0  0.1164500E-08  0.3915602E+04  0.7818609E-02  0.8021792E-01
        1   -1    0    0  501    0  0.00000000000E+00  0.00000000000E+00  0.14528815214E+04  0.14528815214E+04  0.50400001928E-02 0. -1.
       -1   -1    0    0    0  501  0.00000000000E+00  0.00000000000E+00 -0.26381952915E+04  0.26381952915E+04  0.50400001928E-02 0.  1.
    10030    2    1    2    0    0  0.00000000000E+00  0.00000000000E+00 -0.11853137701E+04  0.40910768129E+04  0.39156022213E+04 0.  0.
        1    1    3    3  502    0  0.17465237342E+04 -0.71516007031E+03 -0.11367494447E+04  0.22031791530E+04  0.50400001928E-02 0.  1.
       -1    1    3    3    0  502 -0.17465237342E+04  0.71516007031E+03 -0.48564325425E+02  0.18878976598E+04  0.50400001928E-02 0. -1.
</event>
<event>
 5   0  0.1164500E-08  0.3899518E+04  0.7818609E-02  0.8025129E-01
        1   -1    0    0  501    0  0.00000000000E+00  0.00000000000E+00  0.22498154889E+04  0.22498154889E+04  0.50400001928E-02 0. -1.
       -1   -1    0    0    0  501  0.00000000000E+00  0.00000000000E+00 -0.16897209422E+04  0.16897209422E+04  0.50400001928E-02 0.  1.
    10030    2    1    2    0    0  0.00000000000E+00  0.00000000000E+00  0.56009454671E+03  0.39395364311E+04  0.38995180972E+04 0.  0.
        1    1    3    3  502    0  0.11013596661E+04 -0.12547758481E+04 -0.73731493493E+03  0.18251270795E+04  0.50400001928E-02 0.  1.
       -1    1    3    3    0  502 -0.11013596661E+04  0.12547758481E+04  0.12974094816E+04  0.21144093516E+04  0.50400001928E-02 0. -1.
</event>
<event>
 5   0  0.1164500E-08  0.3903242E+04  0.7818609E-02  0.8024355E-01
       -1   -1    0    0    0  501  0.00000000000E+00  0.00000000000E+00  0.12847192775E+04  0.12847192775E+04  0.50400001928E-02 0. -1.
        1   -1    0    0  501    0  0.00000000000E+00  0.00000000000E+00 -0.29647130121E+04  0.29647130121E+04  0.50400001928E-02 0.  1.
    10030    2    1    2    0    0  0.00000000000E+00  0.00000000000E+00 -0.16799937345E+04  0.42494322896E+04  0.39032417086E+04 0.  0.
        3    1    3    3  502    0  0.56298416328E+03 -0.26784101010E+03  0.11733890522E+04  0.13287331759E+04  0.10100000352E+00 0. -1.
       -3    1    3    3    0  502 -0.56298416328E+03  0.26784101010E+03 -0.28533827867E+04  0.29206991137E+04  0.10100000352E+00 0.  1.
</event>
<event>
 5   0  0.3724293E-08  0.3884408E+04  0.7818609E-02  0.8028280E-01
        2   -1    0    0  501    0  0.00000000000E+00  0.00000000000E+00  0.16067418309E+04  0.16067418309E+04  0.25500000920E-02 0. -1.
       -2   -1    0    0    0  501  0.00000000000E+00  0.00000000000E+00 -0.23477057513E+04  0.23477057513E+04  0.25500000920E-02 0.  1.
    10030    2    1    2    0    0  0.00000000000E+00  0.00000000000E+00 -0.74096392043E+03  0.39544475822E+04  0.38844083396E+04 0.  0.
        4    1    3    3  502    0  0.10215014646E+04  0.71106873800E+03  0.11473987931E+04  0.16928111518E+04  0.12699999809E+01 0. -1.
       -4    1    3    3    0  502 -0.10215014646E+04 -0.71106873800E+03 -0.18883627135E+04  0.22616364304E+04  0.12699999809E+01 0.  1.
</event>
<event>
 5   0  0.1164500E-08  0.3928746E+04  0.7818609E-02  0.8019077E-01
        1   -1    0    0  501    0  0.00000000000E+00  0.00000000000E+00  0.16064923454E+04  0.16064923454E+04  0.50400001928E-02 0. -1.
       -1   -1    0    0    0  501  0.00000000000E+00  0.00000000000E+00 -0.24019788773E+04  0.24019788773E+04  0.50400001928E-02 0.  1.
    10030    2    1    2    0    0  0.00000000000E+00  0.00000000000E+00 -0.79548653193E+03  0.40084712227E+04  0.39287456930E+04 0.  0.
        3    1    3    3  502    0 -0.78746703131E+03  0.10563577248E+04 -0.18842804630E+04  0.22992409273E+04  0.10100000352E+00 0.  1.
       -3    1    3    3    0  502  0.78746703131E+03 -0.10563577248E+04  0.10887939311E+04  0.17092302954E+04  0.10100000352E+00 0. -1.
</event>
<event>
 5   0  0.3724293E-08  0.3905978E+04  0.7818609E-02  0.8023787E-01
        2   -1    0    0  501    0  0.00000000000E+00  0.00000000000E+00  0.17458778829E+04  0.17458778829E+04  0.25500000920E-02 0. -1.
       -2   -1    0    0    0  501  0.00000000000E+00  0.00000000000E+00 -0.21846693559E+04  0.21846693559E+04  0.25500000920E-02 0.  1.
    10030    2    1    2    0    0  0.00000000000E+00  0.00000000000E+00 -0.43879147303E+03  0.39305472388E+04  0.39059779364E+04 0.  0.
        4    1    3    3  502    0  0.50086366046E+03  0.10218307395E+04  0.13777747193E+04  0.17869715321E+04  0.12699999809E+01 0. -1.
       -4    1    3    3    0  502 -0.50086366046E+03 -0.10218307395E+04 -0.18165661923E+04  0.21435757067E+04  0.12699999809E+01 0.  1.
</event>
<event>
 5   0  0.3690572E-08  0.3889967E+04  0.7818609E-02  0.8027119E-01
       -2   -1    0    0    0  501  0.00000000000E+00  0.00000000000E+00  0.11929728576E+04  0.11929728576E+04  0.25500000920E-02 0. -1.
        2   -1    0    0  501    0  0.00000000000E+00  0.00000000000E+00 -0.31710366483E+04  0.31710366483E+04  0.25500000920E-02 0.  1.
    10030    2    1    2    0    0  0.00000000000E+00  0.00000000000E+00 -0.19780637906E+04  0.43640095059E+04  0.38899669160E+04 0.  0.
        3    1    3    3  502    0  0.11234541803E+04  0.56709899422E+03 -0.26527247013E+04  0.29361026746E+04  0.10100000352E+00 0.  1.
       -3    1    3    3    0  502 -0.11234541803E+04 -0.56709899422E+03  0.67466091069E+03  0.14279068313E+04  0.10100000352E+00 0. -1.
</event>
<event>
 5   0  0.3769985E-08  0.3907929E+04  0.7818609E-02  0.8023382E-01
       -2   -1    0    0    0  501  0.00000000000E+00  0.00000000000E+00  0.23013948383E+04  0.23013948383E+04  0.25500000920E-02 0. -1.
        2   -1    0    0  501    0  0.00000000000E+00  0.00000000000E+00 -0.16589844030E+04  0.16589844030E+04  0.25500000920E-02 0.  1.
    10030    2    1    2    0    0  0.00000000000E+00  0.00000000000E+00  0.64241043538E+03  0.39603792413E+04  0.39079294476E+04 0.  0.
        1    1    3    3  502    0  0.38810909830E+03 -0.37288100114E+03 -0.15823846358E+04  0.16714095993E+04  0.50400001928E-02 0.  1.
       -1    1    3    3    0  502 -0.38810909830E+03  0.37288100114E+03  0.22247950712E+04  0.22889696420E+04  0.50400001928E-02 0. -1.
</event>
<event>
 5   0  0.3724293E-08  0.3888586E+04  0.7818609E-02  0.8027407E-01
        2   -1    0    0  501    0  0.00000000000E+00  0.00000000000E+00  0.18021801223E+04  0.18021801223E+04  0.25500000920E-02 0.  1.
       -2   -1    0    0    0  501  0.00000000000E+00  0.00000000000E+00 -0.20976121856E+04  0.20976121856E+04  0.25500000920E-02 0. -1.
    10030    2    1    2    0    0  0.00000000000E+00  0.00000000000E+00 -0.29543206324E+03  0.38997923079E+04  0.38885858536E+04 0.  0.
        4    1    3    3  502    0  0.13148328229E+04 -0.29292861626E+03 -0.15537839178E+04  0.20564140154E+04  0.12699999809E+01 0. -1.
       -4    1    3    3    0  502 -0.13148328229E+04  0.29292861626E+03  0.12583518546E+04  0.18433782925E+04  0.12699999809E+01 0.  1.
</event>
<event>
 5   0  0.1164500E-08  0.3900319E+04  0.7818609E-02  0.8024963E-01
       -1   -1    0    0    0  501  0.00000000000E+00  0.00000000000E+00  0.14600399410E+04  0.14600399410E+04  0.50400001928E-02 0. -1.
        1   -1    0    0  501    0  0.00000000000E+00  0.00000000000E+00 -0.26048070505E+04  0.26048070505E+04  0.50400001928E-02 0.  1.
    10030    2    1    2    0    0  0.00000000000E+00  0.00000000000E+00 -0.11447671095E+04  0.40648469915E+04  0.39003191317E+04 0.  0.
        3    1    3    3  502    0  0.83842014266E+03  0.14255703203E+04  0.50461241921E+03  0.17291132923E+04  0.10100000352E+00 0.  1.
       -3    1    3    3    0  502 -0.83842014266E+03 -0.14255703203E+04 -0.16493795287E+04  0.23357336992E+04  0.10100000352E+00 0. -1.
</event>
<event>
 5   0  0.3690572E-08  0.3905195E+04  0.7818609E-02  0.8023950E-01
        2   -1    0    0  501    0  0.00000000000E+00  0.00000000000E+00  0.11143181475E+04  0.11143181475E+04  0.25500000920E-02 0. -1.
       -2   -1    0    0    0  501  0.00000000000E+00  0.00000000000E+00 -0.34214981119E+04  0.34214981119E+04  0.25500000920E-02 0.  1.
    10030    2    1    2    0    0  0.00000000000E+00  0.00000000000E+00 -0.23071799644E+04  0.45358162594E+04  0.39051952257E+04 0.  0.
        3    1    3    3  502    0  0.36097116485E+03 -0.15046362236E+04  0.22969973635E+03  0.15642865231E+04  0.10100000352E+00 0. -1.
       -3    1    3    3    0  502 -0.36097116485E+03  0.15046362236E+04 -0.25368797008E+04  0.29715297363E+04  0.10100000352E+00 0.  1.
</event>
<event>
 5   0  0.1164500E-08  0.3901232E+04  0.7818609E-02  0.8024773E-01
       -1   -1    0    0    0  501  0.00000000000E+00  0.00000000000E+00  0.19509000915E+04  0.19509000915E+04  0.50400001928E-02 0.  1.
        1   -1    0    0  501    0  0.00000000000E+00  0.00000000000E+00 -0.19503320850E+04  0.19503320850E+04  0.50400001928E-02 0. -1.
    10030    2    1    2    0    0  0.00000000000E+00  0.00000000000E+00  0.56800655973E+00  0.39012321765E+04  0.39012321352E+04 0.  0.
        3    1    3    3  502    0  0.82583195388E+02  0.88381326096E+03 -0.17366550378E+04  0.19503631956E+04  0.10100000352E+00 0. -1.
       -3    1    3    3    0  502 -0.82583195388E+02 -0.88381326096E+03  0.17372230444E+04  0.19508689809E+04  0.10100000352E+00 0.  1.
</event>
<event>
 5   0  0.3724293E-08  0.3941288E+04  0.7818609E-02  0.8016496E-01
       -2   -1    0    0    0  501  0.00000000000E+00  0.00000000000E+00  0.22573286621E+04  0.22573286621E+04  0.25500000920E-02 0.  1.
        2   -1    0    0  501    0  0.00000000000E+00  0.00000000000E+00 -0.17203688621E+04  0.17203688621E+04  0.25500000920E-02 0. -1.
    10030    2    1    2    0    0  0.00000000000E+00  0.00000000000E+00  0.53695979996E+03  0.39776975242E+04  0.39412880848E+04 0.  0.
        4    1    3    3  502    0 -0.81238672880E+03 -0.13843583724E+04 -0.88532939011E+03  0.18330930261E+04  0.12699999809E+01 0. -1.
       -4    1    3    3    0  502  0.81238672880E+03  0.13843583724E+04  0.14222891901E+04  0.21446044981E+04  0.12699999809E+01 0.  1.
</event>
<event>
 5   0  0.3872969E-08  0.3899064E+04  0.7818609E-02  0.8025224E-01
        2   -1    0    0  501    0  0.00000000000E+00  0.00000000000E+00  0.22938574745E+04  0.22938574745E+04  0.25500000920E-02 0. -1.
       -2   -1    0    0    0  501  0.00000000000E+00  0.00000000000E+00 -0.16568922163E+04  0.16568922163E+04  0.25500000920E-02 0.  1.
    10030    2    1    2    0    0  0.00000000000E+00  0.00000000000E+00  0.63696525819E+03  0.39507496909E+04  0.38990637825E+04 0.  0.
        2    1    3    3  502    0  0.10130701302E+04  0.23771485103E+03  0.19889281993E+04  0.22446948169E+04  0.25500000920E-02 0. -1.
       -2    1    3    3    0  502 -0.10130701302E+04 -0.23771485103E+03 -0.13519629411E+04  0.17060548740E+04  0.25500000920E-02 0.  1.
</event>
<event>
 5   0  0.3769985E-08  0.3902651E+04  0.7818609E-02  0.8024478E-01
        2   -1    0    0  501    0  0.00000000000E+00  0.00000000000E+00  0.14478941065E+04  0.14478941065E+04  0.25500000920E-02 0. -1.
       -2   -1    0    0    0  501  0.00000000000E+00  0.00000000000E+00 -0.26297999683E+04  0.26297999683E+04  0.25500000920E-02 0.  1.
    10030    2    1    2    0    0  0.00000000000E+00  0.00000000000E+00 -0.11819058619E+04  0.40776940748E+04  0.39026513425E+04 0.  0.
        1    1    3    3  502    0 -0.15033865878E+04 -0.99574765542E+03  0.18813648134E+03  0.18130306013E+04  0.50400001928E-02 0. -1.
       -1    1    3    3    0  502  0.15033865878E+04  0.99574765542E+03 -0.13700423432E+04  0.22646634734E+04  0.50400001928E-02 0.  1.
</event>
<event>
 5   0  0.3690572E-08  0.3889415E+04  0.7818609E-02  0.8027234E-01
        2   -1    0    0  501    0  0.00000000000E+00  0.00000000000E+00  0.15526068134E+04  0.15526068134E+04  0.25500000920E-02 0.  1.
       -2   -1    0    0    0  501  0.00000000000E+00  0.00000000000E+00 -0.24358303481E+04  0.24358303481E+04  0.25500000920E-02 0. -1.
    10030    2    1    2    0    0  0.00000000000E+00  0.00000000000E+00 -0.88322353468E+03  0.39884371615E+04  0.38894147605E+04 0.  0.
        3    1    3    3  502    0  0.14675904052E+04 -0.21270098515E+03  0.84852198632E+03  0.17085235960E+04  0.10100000352E+00 0.  1.
       -3    1    3    3    0  502 -0.14675904052E+04  0.21270098515E+03 -0.17317455210E+04  0.22799135655E+04  0.10100000352E+00 0. -1.
</event>
<event>
 5   0  0.3872969E-08  0.3897646E+04  0.7818609E-02  0.8025519E-01
       -2   -1    0    0    0  501  0.00000000000E+00  0.00000000000E+00  0.14509213192E+04  0.14509213193E+04  0.25500000920E-02 0. -1.
        2   -1    0    0  501    0  0.00000000000E+00  0.00000000000E+00 -0.26175861673E+04  0.26175861673E+04  0.25500000920E-02 0.  1.
    10030    2    1    2    0    0  0.00000000000E+00  0.00000000000E+00 -0.11666648480E+04  0.40685074865E+04  0.38976462513E+04 0.  0.
        2    1    3    3  502    0  0.17714898894E+04 -0.17008074948E+03 -0.14123833092E+04  0.22719882265E+04  0.25500000920E-02 0.  1.
       -2    1    3    3    0  502 -0.17714898894E+04  0.17008074948E+03  0.24571846114E+03  0.17965192600E+04  0.25500000920E-02 0. -1.
</event>
<event>
 5   0  0.1164500E-08  0.3897642E+04  0.7818609E-02  0.8025520E-01
       -1   -1    0    0    0  501  0.00000000000E+00  0.00000000000E+00  0.16348652124E+04  0.16348652124E+04  0.50400001928E-02 0. -1.
        1   -1    0    0  501    0  0.00000000000E+00  0.00000000000E+00 -0.23230685409E+04  0.23230685409E+04  0.50400001928E-02 0.  1.
    10030    2    1    2    0    0  0.00000000000E+00  0.00000000000E+00 -0.68820332848E+03  0.39579337534E+04  0.38976423354E+04 0.  0.
        4    1    3    3  502    0  0.16722641473E+04 -0.10000429114E+04 -0.38140031182E+03  0.19854523449E+04  0.12699999809E+01 0. -1.
       -4    1    3    3    0  502 -0.16722641473E+04  0.10000429114E+04 -0.30680301666E+03  0.19724814085E+04  0.12699999809E+01 0.  1.
</event>
<event>
 5   0  0.1164500E-08  0.3894430E+04  0.7818609E-02  0.8026189E-01
       -1   -1    0    0    0  501  0.00000000000E+00  0.00000000000E+00  0.24777139992E+04  0.24777139992E+04  0.50400001928E-02 0.  1.
        1   -1    0    0  501    0  0.00000000000E+00  0.00000000000E+00 -0.15303000948E+04  0.15303000948E+04  0.50400001928E-02 0. -1.
    10030    2    1    2    0    0  0.00000000000E+00  0.00000000000E+00  0.94741390437E+03  0.40080140940E+04  0.38944298519E+04 0.  0.
        2    1    3    3  502    0  0.19062035018E+04  0.39429218756E+03  0.42155506321E+03  0.19916793896E+04  0.25500000920E-02 0. -1.
       -2    1    3    3    0  502 -0.19062035018E+04 -0.39429218756E+03  0.52585884116E+03  0.20163347044E+04  0.25500000920E-02 0.  1.
</event>
<event>
 5   0  0.1164500E-08  0.3933716E+04  0.7818609E-02  0.8018053E-01
       -1   -1    0    0    0  501  0.00000000000E+00  0.00000000000E+00  0.14593634045E+04  0.14593634045E+04  0.50400001928E-02 0.  1.
        1   -1    0    0  501    0  0.00000000000E+00  0.00000000000E+00 -0.26508342209E+04  0.26508342209E+04  0.50400001928E-02 0. -1.
    10030    2    1    2    0    0  0.00000000000E+00  0.00000000000E+00 -0.11914708164E+04  0.41101976254E+04  0.39337160311E+04 0.  0.
        4    1    3    3  502    0  0.48789411529E+03  0.11742682003E+04 -0.21635821858E+04  0.25095888033E+04  0.12699999809E+01 0. -1.
       -4    1    3    3    0  502 -0.48789411529E+03 -0.11742682003E+04  0.97211136941E+03  0.16006088221E+04  0.12699999809E+01 0.  1.
</event>
<event>
 5   0  0.1164500E-08  0.3866550E+04  0.7818609E-02  0.8032022E-01
       -3   -1    0    0    0  501  0.00000000000E+00  0.00000000000E+00  0.25371379159E+04  0.25371379179E+04  0.10100000352E+00 0.  1.
        3   -1    0    0  501    0  0.00000000000E+00  0.00000000000E+00 -0.14731375032E+04  0.14731375067E+04  0.10100000352E+00 0. -1.
    10030    2    1    2    0    0  0.00000000000E+00  0.00000000000E+00  0.10640004126E+04  0.40102754246E+04  0.38665504139E+04 0.  0.
        2    1    3    3  502    0  0.14304261182E+04  0.11405037669E+04 -0.11628193990E+03  0.18331364410E+04  0.25500000920E-02 0. -1.
       -2    1    3    3    0  502 -0.14304261182E+04 -0.11405037669E+04  0.11802823525E+04  0.21771389835E+04  0.25500000920E-02 0.  1.
</event>
<event>
 5   0  0.1164500E-08  0.3903981E+04  0.7818609E-02  0.8024202E-01
        1   -1    0    0  501    0  0.00000000000E+00  0.00000000000E+00  0.12007190530E+04  0.12007190530E+04  0.50400001928E-02 0.  1.
       -1   -1    0    0    0  501  0.00000000000E+00  0.00000000000E+00 -0.31733203425E+04  0.31733203425E+04  0.50400001928E-02 0. -1.
    10030    2    1    2    0    0  0.00000000000E+00  0.00000000000E+00 -0.19726012895E+04  0.43740393956E+04  0.39039806335E+04 0.  0.
        5    1    3    3  502    0  0.14652014737E+04 -0.10575962067E+04 -0.18133682599E+04  0.25600100841E+04  0.46999998093E+01 0. -1.
       -5    1    3    3    0  502 -0.14652014737E+04  0.10575962067E+04 -0.15923302967E+03  0.18140293114E+04  0.46999998093E+01 0.  1.
</event>
<event>
 5   0  0.3690572E-08  0.3898036E+04  0.7818609E-02  0.8025438E-01
       -2   -1    0    0    0  501  0.00000000000E+00  0.00000000000E+00  0.14521400031E+04  0.14521400031E+04  0.25500000920E-02 0. -1.
        2   -1    0    0  501    0  0.00000000000E+00  0.00000000000E+00 -0.26159126888E+04  0.26159126888E+04  0.25500000920E-02 0.  1.
    10030    2    1    2    0    0  0.00000000000E+00  0.00000000000E+00 -0.11637726858E+04  0.40680526919E+04  0.38980361517E+04 0.  0.
        3    1    3    3  502    0 -0.14875893085E+03 -0.18855311025E+04 -0.90926660294E+02  0.18935745102E+04  0.10100000352E+00 0. -1.
       -3    1    3    3    0  502  0.14875893085E+03  0.18855311025E+04 -0.10728460255E+04  0.21744781817E+04  0.10100000352E+00 0.  1.
</event>
<event>
 5   0  0.3690572E-08  0.3902686E+04  0.7818609E-02  0.8024471E-01
        2   -1    0    0  501    0  0.00000000000E+00  0.00000000000E+00  0.28965563373E+04  0.28965563373E+04  0.25500000920E-02 0.  1.
       -2   -1    0    0    0  501  0.00000000000E+00  0.00000000000E+00 -0.13145744387E+04  0.13145744387E+04  0.25500000920E-02 0. -1.
    10030    2    1    2    0    0  0.00000000000E+00  0.00000000000E+00  0.15819818986E+04  0.42111307760E+04  0.39026857015E+04 0.  0.
        3    1    3    3  502    0 -0.91117757341E+03 -0.33294135446E+03 -0.10359397033E+04  0.14192482499E+04  0.10100000352E+00 0. -1.
       -3    1    3    3    0  502  0.91117757341E+03  0.33294135446E+03  0.26179216019E+04  0.27918825261E+04  0.10100000352E+00 0.  1.
</event>
<event>
 5   0  0.3769985E-08  0.3914374E+04  0.7818609E-02  0.8022046E-01
       -2   -1    0    0    0  501  0.00000000000E+00  0.00000000000E+00  0.16795237668E+04  0.16795237668E+04  0.25500000920E-02 0. -1.
        2   -1    0    0  501    0  0.00000000000E+00  0.00000000000E+00 -0.22807542557E+04  0.22807542557E+04  0.25500000920E-02 0.  1.
    10030    2    1    2    0    0  0.00000000000E+00  0.00000000000E+00 -0.60123048893E+03  0.39602780224E+04  0.39143740131E+04 0.  0.
        1    1    3    3  502    0 -0.64277104810E+03 -0.57343235953E+02  0.15687919033E+04  0.16963345492E+04  0.50400001928E-02 0. -1.
       -1    1    3    3    0  502  0.64277104810E+03  0.57343235953E+02 -0.21700223923E+04  0.22639434732E+04  0.50400001928E-02 0.  1.
</event>
<event>
 5   0  0.1164500E-08  0.3893769E+04  0.7818609E-02  0.8026326E-01
       -1   -1    0    0    0  501  0.00000000000E+00  0.00000000000E+00  0.19095821233E+04  0.19095821233E+04  0.50400001928E-02 0. -1.
        1   -1    0    0  501    0  0.00000000000E+00  0.00000000000E+00 -0.19849156743E+04  0.19849156743E+04  0.50400001928E-02 0.  1.
    10030    2    1    2    0    0  0.00000000000E+00  0.00000000000E+00 -0.75333550978E+02  0.38944977976E+04  0.38937691190E+04 0.  0.
        2    1    3    3  502    0 -0.10245005640E+04  0.50833146829E+03  0.15381778814E+04  0.19167664130E+04  0.25500000920E-02 0. -1.
       -2    1    3    3    0  502  0.10245005640E+04 -0.50833146829E+03 -0.16135114324E+04  0.19777313846E+04  0.25500000920E-02 0.  1.
</event>
<event>
 5   0  0.3690572E-08  0.3896301E+04  0.7818609E-02  0.8025799E-01
        2   -1    0    0  501    0  0.00000000000E+00  0.00000000000E+00  0.22603611242E+04  0.22603611242E+04  0.25500000920E-02 0. -1.
       -2   -1    0    0    0  501  0.00000000000E+00  0.00000000000E+00 -0.16790635869E+04  0.16790635869E+04  0.25500000920E-02 0.  1.
    10030    2    1    2    0    0  0.00000000000E+00  0.00000000000E+00  0.58129753724E+03  0.39394247111E+04  0.38963008390E+04 0.  0.
        3    1    3    3  502    0 -0.37968451445E+03  0.55318140367E+03  0.21398585291E+04  0.22425798828E+04  0.10100000352E+00 0. -1.
       -3    1    3    3    0  502  0.37968451445E+03 -0.55318140367E+03 -0.15585609919E+04  0.16968448283E+04  0.10100000352E+00 0.  1.
</event>
<event>
 5   0  0.3724293E-08  0.3897802E+04  0.7818609E-02  0.8025486E-01
       -2   -1    0    0    0  501  0.00000000000E+00  0.00000000000E+00  0.28834049706E+04  0.28834049706E+04  0.25500000920E-02 0. -1.
        2   -1    0    0  501    0  0.00000000000E+00  0.00000000000E+00 -0.13172674922E+04  0.13172674922E+04  0.25500000920E-02 0.  1.
    10030    2    1    2    0    0  0.00000000000E+00  0.00000000000E+00  0.15661374784E+04  0.42006724629E+04  0.38978022704E+04 0.  0.
        4    1    3    3  502    0 -0.80772989798E+03  0.26270720180E+03 -0.11073004392E+04  0.13955495468E+04  0.12699999809E+01 0.  1.
       -4    1    3    3    0  502  0.80772989798E+03 -0.26270720180E+03  0.26734379176E+04  0.28051229161E+04  0.12699999809E+01 0. -1.
</event>
<event>
 5   0  0.3669347E-08  0.3894780E+04  0.7818609E-02  0.8026116E-01
       -2   -1    0    0    0  501  0.00000000000E+00  0.00000000000E+00  0.18737013784E+04  0.18737013784E+04  0.25500000920E-02 0. -1.
        2   -1    0    0  501    0  0.00000000000E+00  0.00000000000E+00 -0.20239768955E+04  0.20239768955E+04  0.25500000920E-02 0.  1.
    10030    2    1    2    0    0  0.00000000000E+00  0.00000000000E+00 -0.15027551714E+03  0.38976782739E+04  0.38947802500E+04 0.  0.
        5    1    3    3  502    0 -0.19062863623E+04  0.18633480048E+03 -0.42704960375E+03  0.19624071461E+04  0.46999998093E+01 0.  1.
       -5    1    3    3    0  502  0.19062863623E+04 -0.18633480048E+03  0.27677408661E+03  0.19352711278E+04  0.46999998093E+01 0. -1.
</event>
<event>
 5   0  0.1164500E-08  0.3898261E+04  0.7818609E-02  0.8025391E-01
        1   -1    0    0  501    0  0.00000000000E+00  0.00000000000E+00  0.16367538893E+04  0.16367538893E+04  0.50400001928E-02 0.  1.
       -1   -1    0    0    0  501  0.00000000000E+00  0.00000000000E+00 -0.23211251668E+04  0.23211251668E+04  0.50400001928E-02 0. -1.
    10030    2    1    2    0    0  0.00000000000E+00  0.00000000000E+00 -0.68437127750E+03  0.39578790561E+04  0.38982614814E+04 0.  0.
        1    1    3    3  502    0 -0.10382629184E+04  0.16267850935E+04 -0.64709440038E+02  0.19309601083E+04  0.50400001928E-02 0.  1.
       -1    1    3    3    0  502  0.10382629184E+04 -0.16267850935E+04 -0.61966183746E+03  0.20269189478E+04  0.50400001928E-02 0. -1.
</event>
<event>
 5   0  0.1164500E-08  0.3898361E+04  0.7818609E-02  0.8025370E-01
       -1   -1    0    0    0  501  0.00000000000E+00  0.00000000000E+00  0.16141223449E+04  0.16141223449E+04  0.50400001928E-02 0.  1.
        1   -1    0    0  501    0  0.00000000000E+00  0.00000000000E+00 -0.23537899989E+04  0.23537899989E+04  0.50400001928E-02 0. -1.
    10030    2    1    2    0    0  0.00000000000E+00  0.00000000000E+00 -0.73966765403E+03  0.39679123437E+04  0.38983612107E+04 0.  0.
        3    1    3    3  502    0 -0.60594407712E+03 -0.27452541831E+03  0.14950034962E+04  0.16363275631E+04  0.10100000352E+00 0.  1.
       -3    1    3    3    0  502  0.60594407712E+03  0.27452541831E+03 -0.22346711502E+04  0.23315847807E+04  0.10100000352E+00 0. -1.
</event>
<event>
 5   0  0.1164500E-08  0.3900524E+04  0.7818609E-02  0.8024920E-01
       -1   -1    0    0    0  501  0.00000000000E+00  0.00000000000E+00  0.27978087412E+04  0.27978087412E+04  0.50400001928E-02 0.  1.
        1   -1    0    0  501    0  0.00000000000E+00  0.00000000000E+00 -0.13594648412E+04  0.13594648412E+04  0.50400001928E-02 0. -1.
    10030    2    1    2    0    0  0.00000000000E+00  0.00000000000E+00  0.14383439000E+04  0.41572735825E+04  0.39005243833E+04 0.  0.
        4    1    3    3  502    0 -0.55322001050E+03 -0.18386451054E+04  0.35483336337E+03  0.19525820168E+04  0.12699999809E+01 0. -1.
       -4    1    3    3    0  502  0.55322001050E+03  0.18386451054E+04  0.10835105366E+04  0.22046915656E+04  0.12699999809E+01 0.  1.
</event>
<event>
 5   0  0.1164500E-08  0.3906696E+04  0.7818609E-02  0.8023638E-01
       -1   -1    0    0    0  501  0.00000000000E+00  0.00000000000E+00  0.18057930876E+04  0.18057930876E+04  0.50400001928E-02 0.  1.
        1   -1    0    0  501    0  0.00000000000E+00  0.00000000000E+00 -0.21129603302E+04  0.21129603302E+04  0.50400001928E-02 0. -1.
    10030    2    1    2    0    0  0.00000000000E+00  0.00000000000E+00 -0.30716724261E+03  0.39187534179E+04  0.39066963838E+04 0.  0.
        5    1    3    3  502    0  0.78189311082E+03 -0.17137846259E+04 -0.67202735647E+03  0.20000143596E+04  0.46999998093E+01 0. -1.
       -5    1    3    3    0  502 -0.78189311082E+03  0.17137846259E+04  0.36486011386E+03  0.19187390582E+04  0.46999998093E+01 0.  1.
</event>
<event>
 5   0  0.3690572E-08  0.3901280E+04  0.7818609E-02  0.8024763E-01
        2   -1    0    0  501    0  0.00000000000E+00  0.00000000000E+00  0.14203744009E+04  0.14203744009E+04  0.25500000920E-02 0. -1.
       -2   -1    0    0    0  501  0.00000000000E+00  0.00000000000E+00 -0.26788685932E+04  0.26788685932E+04  0.25500000920E-02 0.  1.
    10030    2    1    2    0    0  0.00000000000E+00  0.00000000000E+00 -0.12584941922E+04  0.40992429941E+04  0.39012799813E+04 0.  0.
        3    1    3    3  502    0  0.74908357510E+02 -0.19395523576E+04 -0.83278162862E+03  0.21121079189E+04  0.10100000352E+00 0. -1.
       -3    1    3    3    0  502 -0.74908357510E+02  0.19395523576E+04 -0.42571256358E+03  0.19871350752E+04  0.10100000352E+00 0.  1.
</event>
<event>
 5   0  0.1164500E-08  0.3903814E+04  0.7818609E-02  0.8024237E-01
        1   -1    0    0  501    0  0.00000000000E+00  0.00000000000E+00  0.16788909843E+04  0.16788909843E+04  0.50400001928E-02 0. -1.
       -1   -1    0    0    0  501  0.00000000000E+00  0.00000000000E+00 -0.22693194641E+04  0.22693194641E+04  0.50400001928E-02 0.  1.
    10030    2    1    2    0    0  0.00000000000E+00  0.00000000000E+00 -0.59042847982E+03  0.39482104484E+04  0.39038135143E+04 0.  0.
        2    1    3    3  502    0  0.13181683359E+04 -0.51959119780E+03 -0.16530163648E+04  0.21771554554E+04  0.25500000920E-02 0.  1.
       -2    1    3    3    0  502 -0.13181683359E+04  0.51959119780E+03  0.10625878850E+04  0.17710549929E+04  0.25500000920E-02 0. -1.
</event>
<event>
 5   0  0.1164500E-08  0.3896503E+04  0.7818609E-02  0.8025757E-01
        1   -1    0    0  501    0  0.00000000000E+00  0.00000000000E+00  0.23795550707E+04  0.23795550707E+04  0.50400001928E-02 0.  1.
       -1   -1    0    0    0  501  0.00000000000E+00  0.00000000000E+00 -0.15951234560E+04  0.15951234560E+04  0.50400001928E-02 0. -1.
    10030    2    1    2    0    0  0.00000000000E+00  0.00000000000E+00  0.78443161473E+03  0.39746785267E+04  0.38965031031E+04 0.  0.
        4    1    3    3  502    0  0.56764376525E+03 -0.18280055620E+04  0.21806915496E+02  0.19142363839E+04  0.12699999809E+01 0.  1.
       -4    1    3    3    0  502 -0.56764376525E+03  0.18280055620E+04  0.76262469924E+03  0.20604421428E+04  0.12699999809E+01 0. -1.
</event>
<event>
 5   0  0.1164500E-08  0.3886320E+04  0.7818609E-02  0.8027880E-01
        1   -1    0    0  501    0  0.00000000000E+00  0.00000000000E+00  0.14248121971E+04  0.14248121971E+04  0.50400001928E-02 0. -1.
       -1   -1    0    0    0  501  0.00000000000E+00  0.00000000000E+00 -0.26500832791E+04  0.26500832791E+04  0.50400001928E-02 0.  1.
    10030    2    1    2    0    0  0.00000000000E+00  0.00000000000E+00 -0.12252710820E+04  0.40748954762E+04  0.38863200997E+04 0.  0.
        3    1    3    3  502    0  0.29929644339E+03 -0.34988921209E+03  0.13667884989E+04  0.14422592113E+04  0.10100000352E+00 0. -1.
       -3    1    3    3    0  502 -0.29929644339E+03  0.34988921209E+03 -0.25920595809E+04  0.26326362648E+04  0.10100000352E+00 0.  1.
</event>
<event>
 5   0  0.1164500E-08  0.3896551E+04  0.7818609E-02  0.8025747E-01
       -1   -1    0    0    0  501  0.00000000000E+00  0.00000000000E+00  0.32275349289E+04  0.32275349289E+04  0.50400001928E-02 0.  1.
        1   -1    0    0  501    0  0.00000000000E+00  0.00000000000E+00 -0.11760607456E+04  0.11760607456E+04  0.50400001928E-02 0. -1.
    10030    2    1    2    0    0  0.00000000000E+00  0.00000000000E+00  0.20514741833E+04  0.44035956745E+04  0.38965508517E+04 0.  0.
        4    1    3    3  502    0  0.35079541705E+03 -0.65122945232E+03  0.30626686237E+04  0.31507297466E+04  0.12699999809E+01 0.  1.
       -4    1    3    3    0  502 -0.35079541705E+03  0.65122945232E+03 -0.10111944404E+04  0.12528659279E+04  0.12699999809E+01 0. -1.
</event>
<event>
 5   0  0.3872969E-08  0.3899969E+04  0.7818609E-02  0.8025036E-01
       -2   -1    0    0    0  501  0.00000000000E+00  0.00000000000E+00  0.16180074514E+04  0.16180074514E+04  0.25500000920E-02 0. -1.
        2   -1    0    0  501    0  0.00000000000E+00  0.00000000000E+00 -0.23500753948E+04  0.23500753948E+04  0.25500000920E-02 0.  1.
    10030    2    1    2    0    0  0.00000000000E+00  0.00000000000E+00 -0.73206794340E+03  0.39680828462E+04  0.38999689743E+04 0.  0.
        2    1    3    3  502    0 -0.63480477201E+03  0.29696796760E+03 -0.22175054885E+04  0.23256176951E+04  0.25500000920E-02 0.  1.
       -2    1    3    3    0  502  0.63480477201E+03 -0.29696796760E+03  0.14854375451E+04  0.16424651511E+04  0.25500000920E-02 0. -1.
</event>
<event>
 5   0  0.3669347E-08  0.3901799E+04  0.7818609E-02  0.8024655E-01
       -2   -1    0    0    0  501  0.00000000000E+00  0.00000000000E+00  0.13405357450E+04  0.13405357450E+04  0.25500000920E-02 0.  1.
        2   -1    0    0  501    0  0.00000000000E+00  0.00000000000E+00 -0.28391704954E+04  0.28391704954E+04  0.25500000920E-02 0. -1.
    10030    2    1    2    0    0  0.00000000000E+00  0.00000000000E+00 -0.14986347504E+04  0.41797062404E+04  0.39017993466E+04 0.  0.
        5    1    3    3  502    0 -0.59980435089E+02  0.90144772625E+03 -0.26015715150E+04  0.27539793197E+04  0.46999998093E+01 0. -1.
       -5    1    3    3    0  502  0.59980435089E+02 -0.90144772625E+03  0.11029367646E+04  0.14257269207E+04  0.46999998093E+01 0.  1.
</event>
<event>
 5   0  0.3690572E-08  0.3823992E+04  0.7818609E-02  0.8041026E-01
       -2   -1    0    0    0  501  0.00000000000E+00  0.00000000000E+00  0.17595060309E+04  0.17595060309E+04  0.25500000920E-02 0.  1.
        2   -1    0    0  501    0  0.00000000000E+00  0.00000000000E+00 -0.20777015937E+04  0.20777015937E+04  0.25500000920E-02 0. -1.
    10030    2    1    2    0    0  0.00000000000E+00  0.00000000000E+00 -0.31819556275E+03  0.38372076246E+04  0.38239918852E+04 0.  0.
        3    1    3    3  502    0 -0.22706542382E+03  0.10006632107E+04 -0.17780063263E+04  0.20528497447E+04  0.10100000352E+00 0. -1.
       -3    1    3    3    0  502  0.22706542382E+03 -0.10006632107E+04  0.14598107635E+04  0.17843578799E+04  0.10100000352E+00 0.  1.
</event>
<event>
 5   0  0.3669347E-08  0.3906086E+04  0.7818609E-02  0.8023765E-01
        2   -1    0    0  501    0  0.00000000000E+00  0.00000000000E+00  0.24658907732E+04  0.24658907732E+04  0.25500000920E-02 0. -1.
       -2   -1    0    0    0  501  0.00000000000E+00  0.00000000000E+00 -0.15468553057E+04  0.15468553057E+04  0.25500000920E-02 0.  1.
    10030    2    1    2    0    0  0.00000000000E+00  0.00000000000E+00  0.91903546746E+03  0.40127460789E+04  0.39060856241E+04 0.  0.
        5    1    3    3  502    0  0.10454812966E+04 -0.65557086024E+03  0.20146401222E+04  0.23625412602E+04  0.46999998093E+01 0. -1.
       -5    1    3    3    0  502 -0.10454812966E+04  0.65557086024E+03 -0.10956046547E+04  0.16502048187E+04  0.46999998093E+01 0.  1.
</event>
<event>
 5   0  0.1164500E-08  0.3903112E+04  0.7818609E-02  0.8024382E-01
        1   -1    0    0  501    0  0.00000000000E+00  0.00000000000E+00  0.12633289986E+04  0.12633289986E+04  0.50400001928E-02 0.  1.
       -1   -1    0    0    0  501  0.00000000000E+00  0.00000000000E+00 -0.30147099530E+04  0.30147099530E+04  0.50400001928E-02 0. -1.
    10030    2    1    2    0    0  0.00000000000E+00  0.00000000000E+00 -0.17513809545E+04  0.42780389516E+04  0.39031118385E+04 0.  0.
        4    1    3    3  502    0 -0.16100302635E+04  0.10585463842E+04 -0.12150281322E+04  0.22779404891E+04  0.12699999809E+01 0. -1.
       -4    1    3    3    0  502  0.16100302635E+04 -0.10585463842E+04 -0.53635282225E+03  0.20000984625E+04  0.12699999809E+01 0.  1.
</event>
<event>
 5   0  0.1164500E-08  0.3901469E+04  0.7818609E-02  0.8024724E-01
       -1   -1    0    0    0  501  0.00000000000E+00  0.00000000000E+00  0.23683964841E+04  0.23683964841E+04  0.50400001928E-02 0.  1.
        1   -1    0    0  501    0  0.00000000000E+00  0.00000000000E+00 -0.16067266596E+04  0.16067266596E+04  0.50400001928E-02 0. -1.
    10030    2    1    2    0    0  0.00000000000E+00  0.00000000000E+00  0.76166982448E+03  0.39751231437E+04  0.39014693496E+04 0.  0.
        5    1    3    3  502    0  0.30976749242E+03 -0.97226227895E+03 -0.13131080366E+04  0.16629866639E+04  0.46999998093E+01 0. -1.
       -5    1    3    3    0  502 -0.30976749242E+03  0.97226227895E+03  0.20747778611E+04  0.23121364798E+04  0.46999998093E+01 0.  1.
</event>
<event>
 5   0  0.1164500E-08  0.3901270E+04  0.7818609E-02  0.8024765E-01
       -1   -1    0    0    0  501  0.00000000000E+00  0.00000000000E+00  0.18156327228E+04  0.18156327228E+04  0.50400001928E-02 0.  1.
        1   -1    0    0  501    0  0.00000000000E+00  0.00000000000E+00 -0.20956755372E+04  0.20956755372E+04  0.50400001928E-02 0. -1.
    10030    2    1    2    0    0  0.00000000000E+00  0.00000000000E+00 -0.28004281441E+03  0.39113082600E+04  0.39012700915E+04 0.  0.
        3    1    3    3  502    0  0.15404485082E+04  0.11786955405E+03 -0.13339264796E+04  0.20411356401E+04  0.10100000352E+00 0. -1.
       -3    1    3    3    0  502 -0.15404485082E+04 -0.11786955405E+03  0.10538836652E+04  0.18701726199E+04  0.10100000352E+00 0.  1.
</event>
<event>
 5   0  0.1164500E-08  0.3896579E+04  0.7818609E-02  0.8025741E-01
        1   -1    0    0  501    0  0.00000000000E+00  0.00000000000E+00  0.18630566746E+04  0.18630566746E+04  0.50400001928E-02 0.  1.
       -1   -1    0    0    0  501  0.00000000000E+00  0.00000000000E+00 -0.20374221189E+04  0.20374221189E+04  0.50400001928E-02 0. -1.
    10030    2    1    2    0    0  0.00000000000E+00  0.00000000000E+00 -0.17436544432E+03  0.39004787936E+04  0.38965794629E+04 0.  0.
        5    1    3    3  502    0  0.63815752449E+02 -0.18275402334E+04 -0.76004213785E+03  0.19803186350E+04  0.46999998093E+01 0. -1.
       -5    1    3    3    0  502 -0.63815752449E+02  0.18275402334E+04  0.58567669353E+03  0.19201601585E+04  0.46999998093E+01 0.  1.
</event>
<event>
 5   0  0.3872969E-08  0.3900898E+04  0.7818609E-02  0.8024843E-01
       -2   -1    0    0    0  501  0.00000000000E+00  0.00000000000E+00  0.17938362454E+04  0.17938362454E+04  0.25500000920E-02 0. -1.
        2   -1    0    0  501    0  0.00000000000E+00  0.00000000000E+00 -0.21207347310E+04  0.21207347310E+04  0.25500000920E-02 0.  1.
    10030    2    1    2    0    0  0.00000000000E+00  0.00000000000E+00 -0.32689848567E+03  0.39145709764E+04  0.39008977569E+04 0.  0.
        2    1    3    3  502    0  0.25738967267E+03 -0.16177026002E+04 -0.12259520765E+04  0.20460131085E+04  0.25500000920E-02 0.  1.
       -2    1    3    3    0  502 -0.25738967267E+03  0.16177026002E+04  0.89905359087E+03  0.18685578679E+04  0.25500000920E-02 0. -1.
</event>
<event>
 5   0  0.3690572E-08  0.3896102E+04  0.7818609E-02  0.8025840E-01
        2   -1    0    0  501    0  0.00000000000E+00  0.00000000000E+00  0.19025759363E+04  0.19025759363E+04  0.25500000920E-02 0. -1.
       -2   -1    0    0    0  501  0.00000000000E+00  0.00000000000E+00 -0.19946125621E+04  0.19946125621E+04  0.25500000920E-02 0.  1.
    10030    2    1    2    0    0  0.00000000000E+00  0.00000000000E+00 -0.92036625814E+02  0.38971884984E+04  0.38961015710E+04 0.  0.
        3    1    3    3  502    0  0.82478949576E+03 -0.77330186959E+02 -0.18096449493E+04  0.19902443374E+04  0.10100000352E+00 0.  1.
       -3    1    3    3    0  502 -0.82478949576E+03  0.77330186959E+02  0.17176083234E+04  0.19069441610E+04  0.10100000352E+00 0. -1.
</event>
<event>
 5   0  0.3690572E-08  0.3891573E+04  0.7818609E-02  0.8026784E-01
        2   -1    0    0  501    0  0.00000000000E+00  0.00000000000E+00  0.23144638269E+04  0.23144638269E+04  0.25500000920E-02 0.  1.
       -2   -1    0    0    0  501  0.00000000000E+00  0.00000000000E+00 -0.16358366258E+04  0.16358366258E+04  0.25500000920E-02 0. -1.
    10030    2    1    2    0    0  0.00000000000E+00  0.00000000000E+00  0.67862720112E+03  0.39503004527E+04  0.38915727911E+04 0.  0.
        3    1    3    3  502    0  0.12545695401E+04  0.13678723181E+04 -0.25350759671E+03  0.18733087096E+04  0.10100000352E+00 0.  1.
       -3    1    3    3    0  502 -0.12545695401E+04 -0.13678723181E+04  0.93213479783E+03  0.20769917431E+04  0.10100000352E+00 0. -1.
</event>
<event>
 5   0  0.1164500E-08  0.3922509E+04  0.7818609E-02  0.8020364E-01
        1   -1    0    0  501    0  0.00000000000E+00  0.00000000000E+00  0.25200508490E+04  0.25200508490E+04  0.50400001928E-02 0. -1.
       -1   -1    0    0    0  501  0.00000000000E+00  0.00000000000E+00 -0.15263653550E+04  0.15263653550E+04  0.50400001928E-02 0.  1.
    10030    2    1    2    0    0  0.00000000000E+00  0.00000000000E+00  0.99368549397E+03  0.40464162040E+04  0.39225085386E+04 0.  0.
        2    1    3    3  502    0  0.97994491966E+03 -0.13319633926E+04 -0.59103108864E+03  0.17560570243E+04  0.25500000920E-02 0.  1.
       -2    1    3    3    0  502 -0.97994491966E+03  0.13319633926E+04  0.15847165826E+04  0.22903591797E+04  0.25500000920E-02 0. -1.
</event>
<event>
 5   0  0.3724293E-08  0.3896789E+04  0.7818609E-02  0.8025697E-01
        2   -1    0    0  501    0  0.00000000000E+00  0.00000000000E+00  0.27250890224E+04  0.27250890224E+04  0.25500000920E-02 0.  1.
       -2   -1    0    0    0  501  0.00000000000E+00  0.00000000000E+00 -0.13930706833E+04  0.13930706833E+04  0.25500000920E-02 0. -1.
    10030    2    1    2    0    0  0.00000000000E+00  0.00000000000E+00  0.13320183392E+04  0.41181597057E+04  0.38967892560E+04 0.  0.
        4    1    3    3  502    0 -0.15052395579E+03 -0.15815493188E+04  0.18580423674E+04  0.24446428698E+04  0.12699999809E+01 0.  1.
       -4    1    3    3    0  502  0.15052395579E+03  0.15815493188E+04 -0.52602402825E+03  0.16735168359E+04  0.12699999809E+01 0. -1.
</event>
<event>
 5   0  0.3690572E-08  0.3896924E+04  0.7818609E-02  0.8025669E-01
       -2   -1    0    0    0  501  0.00000000000E+00  0.00000000000E+00  0.17301485110E+04  0.17301485110E+04  0.25500000920E-02 0.  1.
        2   -1    0    0  501    0  0.00000000000E+00  0.00000000000E+00 -0.21943228578E+04  0.21943228578E+04  0.25500000920E-02 0. -1.
    10030    2    1    2    0    0  0.00000000000E+00  0.00000000000E+00 -0.46417434681E+03  0.39244713689E+04  0.38969241333E+04 0.  0.
        3    1    3    3  502    0  0.17248066762E+04  0.70899216675E+03  0.33659607931E+03  0.18949735865E+04  0.10100000352E+00 0. -1.
       -3    1    3    3    0  502 -0.17248066762E+04 -0.70899216675E+03 -0.80077042612E+03  0.20294977823E+04  0.10100000352E+00 0.  1.
</event>
<event>
 5   0  0.3690572E-08  0.3902615E+04  0.7818609E-02  0.8024486E-01
        2   -1    0    0  501    0  0.00000000000E+00  0.00000000000E+00  0.23423504520E+04  0.23423504520E+04  0.25500000920E-02 0.  1.
       -2   -1    0    0    0  501  0.00000000000E+00  0.00000000000E+00 -0.16255468053E+04  0.16255468053E+04  0.25500000920E-02 0. -1.
    10030    2    1    2    0    0  0.00000000000E+00  0.00000000000E+00  0.71680364667E+03  0.39678972573E+04  0.39026146590E+04 0.  0.
        3    1    3    3  502    0  0.26117402285E+03  0.47183375105E+03 -0.15482710775E+04  0.16395067241E+04  0.10100000352E+00 0. -1.
       -3    1    3    3    0  502 -0.26117402285E+03 -0.47183375105E+03  0.22650747241E+04  0.23283905332E+04  0.10100000352E+00 0.  1.
</event>
<event>
 5   0  0.3690572E-08  0.3900882E+04  0.7818609E-02  0.8024846E-01
        2   -1    0    0  501    0  0.00000000000E+00  0.00000000000E+00  0.22613900532E+04  0.22613900532E+04  0.25500000920E-02 0. -1.
       -2   -1    0    0    0  501  0.00000000000E+00  0.00000000000E+00 -0.16822483988E+04  0.16822483988E+04  0.25500000920E-02 0.  1.
    10030    2    1    2    0    0  0.00000000000E+00  0.00000000000E+00  0.57914165439E+03  0.39436384521E+04  0.39008818471E+04 0.  0.
        3    1    3    3  502    0  0.57967207086E+03 -0.15049137240E+04  0.13986066435E+04  0.21346862954E+04  0.10100000352E+00 0. -1.
       -3    1    3    3    0  502 -0.57967207086E+03  0.15049137240E+04 -0.81946498907E+03  0.18089521566E+04  0.10100000352E+00 0.  1.
</event>
<event>
 5   0  0.3669347E-08  0.3897147E+04  0.7818609E-02  0.8025623E-01
        2   -1    0    0  501    0  0.00000000000E+00  0.00000000000E+00  0.12258635116E+04  0.12258635116E+04  0.25500000920E-02 0. -1.
       -2   -1    0    0    0  501  0.00000000000E+00  0.00000000000E+00 -0.30973578429E+04  0.30973578429E+04  0.25500000920E-02 0.  1.
    10030    2    1    2    0    0  0.00000000000E+00  0.00000000000E+00 -0.18714943314E+04  0.43232213545E+04  0.38971466290E+04 0.  0.
        5    1    3    3  502    0  0.15420115181E+04  0.11523566567E+04 -0.12707399791E+04  0.23066268816E+04  0.46999998093E+01 0. -1.
       -5    1    3    3    0  502 -0.15420115181E+04 -0.11523566567E+04 -0.60075435223E+03  0.20165944729E+04  0.46999998093E+01 0.  1.
</event>
<event>
 5   0  0.1164500E-08  0.3895032E+04  0.7818609E-02  0.8026063E-01
        1   -1    0    0  501    0  0.00000000000E+00  0.00000000000E+00  0.26263671613E+04  0.26263671613E+04  0.50400001928E-02 0.  1.
       -1   -1    0    0    0  501  0.00000000000E+00  0.00000000000E+00 -0.14441307872E+04  0.14441307872E+04  0.50400001928E-02 0. -1.
    10030    2    1    2    0    0  0.00000000000E+00  0.00000000000E+00  0.11822363740E+04  0.40704979485E+04  0.38950315409E+04 0.  0.
        5    1    3    3  502    0  0.91524931731E+03  0.14943175252E+04  0.14791818021E+04  0.22931783779E+04  0.46999998093E+01 0.  1.
       -5    1    3    3    0  502 -0.91524931731E+03 -0.14943175252E+04 -0.29694542811E+03  0.17773195706E+04  0.46999998093E+01 0. -1.
</event>
<event>
 5   0  0.1164500E-08  0.3909790E+04  0.7818609E-02  0.8022996E-01
       -1   -1    0    0    0  501  0.00000000000E+00  0.00000000000E+00  0.11980937842E+04  0.11980937842E+04  0.50400001928E-02 0. -1.
        1   -1    0    0  501    0  0.00000000000E+00  0.00000000000E+00 -0.31897464838E+04  0.31897464838E+04  0.50400001928E-02 0.  1.
    10030    2    1    2    0    0  0.00000000000E+00  0.00000000000E+00 -0.19916526997E+04  0.43878402680E+04  0.39097904984E+04 0.  0.
        2    1    3    3  502    0 -0.10370799881E+04  0.16564936623E+04 -0.94428396927E+03  0.21705249065E+04  0.25500000920E-02 0. -1.
       -2    1    3    3    0  502  0.10370799881E+04 -0.16564936623E+04 -0.10473687304E+04  0.22173153615E+04  0.25500000920E-02 0.  1.
</event>
<event>
 5   0  0.1164500E-08  0.3905458E+04  0.7818609E-02  0.8023895E-01
        1   -1    0    0  501    0  0.00000000000E+00  0.00000000000E+00  0.12184753330E+04  0.12184753330E+04  0.50400001928E-02 0. -1.
       -1   -1    0    0    0  501  0.00000000000E+00  0.00000000000E+00 -0.31294444048E+04  0.31294444048E+04  0.50400001928E-02 0.  1.
    10030    2    1    2    0    0  0.00000000000E+00  0.00000000000E+00 -0.19109690718E+04  0.43479197378E+04  0.39054581361E+04 0.  0.
        4    1    3    3  502    0 -0.13003247195E+03 -0.86371869622E+03  0.98887189371E+03  0.13193891257E+04  0.12699999809E+01 0. -1.
       -4    1    3    3    0  502  0.13003247195E+03  0.86371869622E+03 -0.28998409655E+04  0.30285306121E+04  0.12699999809E+01 0.  1.
</event>
<event>
 5   0  0.3690572E-08  0.3903643E+04  0.7818609E-02  0.8024272E-01
       -2   -1    0    0    0  501  0.00000000000E+00  0.00000000000E+00  0.12764354290E+04  0.12764354290E+04  0.25500000920E-02 0. -1.
        2   -1    0    0  501    0  0.00000000000E+00  0.00000000000E+00 -0.29845663743E+04  0.29845663743E+04  0.25500000920E-02 0.  1.
    10030    2    1    2    0    0  0.00000000000E+00  0.00000000000E+00 -0.17081309453E+04  0.42610018033E+04  0.39036425350E+04 0.  0.
        3    1    3    3  502    0 -0.96236762233E+03  0.30353981230E+03 -0.26777359394E+04  0.28615655907E+04  0.10100000352E+00 0.  1.
       -3    1    3    3    0  502  0.96236762233E+03 -0.30353981230E+03  0.96960499418E+03  0.13994362126E+04  0.10100000352E+00 0. -1.
</event>
<event>
 5   0  0.3690572E-08  0.3898578E+04  0.7818609E-02  0.8025325E-01
       -2   -1    0    0    0  501  0.00000000000E+00  0.00000000000E+00  0.16514250466E+04  0.16514250466E+04  0.25500000920E-02 0.  1.
        2   -1    0    0  501    0  0.00000000000E+00  0.00000000000E+00 -0.23008784317E+04  0.23008784317E+04  0.25500000920E-02 0. -1.
    10030    2    1    2    0    0  0.00000000000E+00  0.00000000000E+00 -0.64945338512E+03  0.39523034783E+04  0.38985783416E+04 0.  0.
        3    1    3    3  502    0  0.40331660584E+03 -0.64374903620E+03 -0.21446398597E+04  0.22752048796E+04  0.10100000352E+00 0. -1.
       -3    1    3    3    0  502 -0.40331660584E+03  0.64374903620E+03  0.14951864745E+04  0.16770985988E+04  0.10100000352E+00 0.  1.
</event>
<event>
 5   0  0.3769985E-08  0.3902206E+04  0.7818609E-02  0.8024571E-01
       -2   -1    0    0    0  501  0.00000000000E+00  0.00000000000E+00  0.19214108370E+04  0.19214108370E+04  0.25500000920E-02 0.  1.
        2   -1    0    0  501    0  0.00000000000E+00  0.00000000000E+00 -0.19812535982E+04  0.19812535982E+04  0.25500000920E-02 0. -1.
    10030    2    1    2    0    0  0.00000000000E+00  0.00000000000E+00 -0.59842761198E+02  0.39026644351E+04  0.39022055990E+04 0.  0.
        1    1    3    3  502    0 -0.86960961035E+03 -0.12630008754E+04 -0.12364670010E+04  0.19698331732E+04  0.50400001928E-02 0. -1.
       -1    1    3    3    0  502  0.86960961035E+03  0.12630008754E+04  0.11766242398E+04  0.19328312620E+04  0.50400001928E-02 0.  1.
</event>
<event>
 5   0  0.1164500E-08  0.3891672E+04  0.7818609E-02  0.8026763E-01
        1   -1    0    0  501    0  0.00000000000E+00  0.00000000000E+00  0.18644164715E+04  0.18644164715E+04  0.50400001928E-02 0.  1.
       -1   -1    0    0    0  501  0.00000000000E+00  0.00000000000E+00 -0.20308111939E+04  0.20308111940E+04  0.50400001928E-02 0. -1.
    10030    2    1    2    0    0  0.00000000000E+00  0.00000000000E+00 -0.16639472247E+03  0.38952276654E+04  0.38916720522E+04 0.  0.
        1    1    3    3  502    0  0.92220413126E+03  0.15793145951E+04  0.58192673282E+03  0.19192013371E+04  0.50400001928E-02 0.  1.
       -1    1    3    3    0  502 -0.92220413126E+03 -0.15793145951E+04 -0.74832145529E+03  0.19760263284E+04  0.50400001928E-02 0. -1.
</event>
<event>
 5   0  0.3872969E-08  0.3898007E+04  0.7818609E-02  0.8025444E-01
        2   -1    0    0  501    0  0.00000000000E+00  0.00000000000E+00  0.18630103338E+04  0.18630103338E+04  0.25500000920E-02 0.  1.
       -2   -1    0    0    0  501  0.00000000000E+00  0.00000000000E+00 -0.20389663422E+04  0.20389663422E+04  0.25500000920E-02 0. -1.
    10030    2    1    2    0    0  0.00000000000E+00  0.00000000000E+00 -0.17595600836E+03  0.39019766760E+04  0.38980073709E+04 0.  0.
        2    1    3    3  502    0  0.82241990372E+03 -0.17336435997E+04  0.25401405638E+03  0.19355665242E+04  0.25500000920E-02 0.  1.
       -2    1    3    3    0  502 -0.82241990372E+03  0.17336435997E+04 -0.42997006475E+03  0.19664101518E+04  0.25500000920E-02 0. -1.
</event>
<event>
 5   0  0.3690572E-08  0.3901757E+04  0.7818609E-02  0.8024664E-01
       -2   -1    0    0    0  501  0.00000000000E+00  0.00000000000E+00  0.18124464529E+04  0.18124464529E+04  0.25500000920E-02 0.  1.
        2   -1    0    0  501    0  0.00000000000E+00  0.00000000000E+00 -0.20998841864E+04  0.20998841864E+04  0.25500000920E-02 0. -1.
    10030    2    1    2    0    0  0.00000000000E+00  0.00000000000E+00 -0.28743773342E+03  0.39123306393E+04  0.39017573708E+04 0.  0.
        3    1    3    3  502    0  0.14323683416E+04  0.12486484975E+04  0.29920828550E+03  0.19236235975E+04  0.10100000352E+00 0.  1.
       -3    1    3    3    0  502 -0.14323683416E+04 -0.12486484975E+04 -0.58664601891E+03  0.19887070418E+04  0.10100000352E+00 0. -1.
</event>
<event>
 5   0  0.1164500E-08  0.3900202E+04  0.7818609E-02  0.8024987E-01
       -1   -1    0    0    0  501  0.00000000000E+00  0.00000000000E+00  0.16487333719E+04  0.16487333719E+04  0.50400001928E-02 0. -1.
        1   -1    0    0  501    0  0.00000000000E+00  0.00000000000E+00 -0.23065546754E+04  0.23065546754E+04  0.50400001928E-02 0.  1.
    10030    2    1    2    0    0  0.00000000000E+00  0.00000000000E+00 -0.65782130345E+03  0.39552880473E+04  0.39002018756E+04 0.  0.
        1    1    3    3  502    0 -0.66275821728E+02  0.84889434133E+03  0.14502568708E+04  0.16817428694E+04  0.50400001928E-02 0. -1.
       -1    1    3    3    0  502  0.66275821728E+02 -0.84889434133E+03 -0.21080781743E+04  0.22735451780E+04  0.50400001928E-02 0.  1.
</event>
<event>
 5   0  0.3724293E-08  0.3902671E+04  0.7818609E-02  0.8024474E-01
        2   -1    0    0  501    0  0.00000000000E+00  0.00000000000E+00  0.23497290564E+04  0.23497290564E+04  0.25500000920E-02 0.  1.
       -2   -1    0    0    0  501  0.00000000000E+00  0.00000000000E+00 -0.16204889250E+04  0.16204889250E+04  0.25500000920E-02 0. -1.
    10030    2    1    2    0    0  0.00000000000E+00  0.00000000000E+00  0.72924013145E+03  0.39702179814E+04  0.39026708355E+04 0.  0.
        4    1    3    3  502    0 -0.12900812993E+04 -0.17097529621E+03  0.18438032806E+04  0.22568018214E+04  0.12699999809E+01 0.  1.
       -4    1    3    3    0  502  0.12900812993E+04  0.17097529621E+03 -0.11145631491E+04  0.17134161599E+04  0.12699999809E+01 0. -1.
</event>
<event>
 5   0  0.3669347E-08  0.3904403E+04  0.7818609E-02  0.8024114E-01
        2   -1    0    0  501    0  0.00000000000E+00  0.00000000000E+00  0.17020015030E+04  0.17020015030E+04  0.25500000920E-02 0. -1.
       -2   -1    0    0    0  501  0.00000000000E+00  0.00000000000E+00 -0.22391814115E+04  0.22391814115E+04  0.25500000920E-02 0.  1.
    10030    2    1    2    0    0  0.00000000000E+00  0.00000000000E+00 -0.53717990857E+03  0.39411829145E+04  0.39044027086E+04 0.  0.
        5    1    3    3  502    0  0.13093696144E+04  0.11898235867E+04 -0.11015537335E+04  0.20841237181E+04  0.46999998093E+01 0.  1.
       -5    1    3    3    0  502 -0.13093696144E+04 -0.11898235867E+04  0.56437382498E+03  0.18570591964E+04  0.46999998093E+01 0. -1.
</event>
<event>
 5   0  0.3724293E-08  0.3904749E+04  0.7818609E-02  0.8024042E-01
       -2   -1    0    0    0  501  0.00000000000E+00  0.00000000000E+00  0.20751991734E+04  0.20751991734E+04  0.25500000920E-02 0.  1.
        2   -1    0    0  501    0  0.00000000000E+00  0.00000000000E+00 -0.18368198857E+04  0.18368198857E+04  0.25500000920E-02 0. -1.
    10030    2    1    2    0    0  0.00000000000E+00  0.00000000000E+00  0.23837928770E+03  0.39120190591E+04  0.39047494714E+04 0.  0.
        4    1    3    3  502    0 -0.67697351345E+03 -0.80105367383E+03  0.17690053884E+04  0.20565412233E+04  0.12699999809E+01 0.  1.
       -4    1    3    3    0  502  0.67697351345E+03  0.80105367383E+03 -0.15306261007E+04  0.18554778358E+04  0.12699999809E+01 0. -1.
</event>
<event>
 5   0  0.3690572E-08  0.3895615E+04  0.7818609E-02  0.8025942E-01
        2   -1    0    0  501    0  0.00000000000E+00  0.00000000000E+00  0.26311316249E+04  0.26311316249E+04  0.25500000920E-02 0.  1.
       -2   -1    0    0    0  501  0.00000000000E+00  0.00000000000E+00 -0.14419477483E+04  0.14419477483E+04  0.25500000920E-02 0. -1.
    10030    2    1    2    0    0  0.00000000000E+00  0.00000000000E+00  0.11891838766E+04  0.40730793732E+04  0.38956151360E+04 0.  0.
        3    1    3    3  502    0 -0.98319234551E+03 -0.27701460200E+03 -0.11394380484E+04  0.15302690464E+04  0.10100000352E+00 0. -1.
       -3    1    3    3    0  502  0.98319234551E+03  0.27701460200E+03  0.23286219250E+04  0.25428103268E+04  0.10100000352E+00 0.  1.
</event>
<event>
 5   0  0.3690572E-08  0.3895547E+04  0.7818609E-02  0.8025956E-01
       -2   -1    0    0    0  501  0.00000000000E+00  0.00000000000E+00  0.15177848666E+04  0.15177848666E+04  0.25500000920E-02 0.  1.
        2   -1    0    0  501    0  0.00000000000E+00  0.00000000000E+00 -0.24995777890E+04  0.24995777890E+04  0.25500000920E-02 0. -1.
    10030    2    1    2    0    0  0.00000000000E+00  0.00000000000E+00 -0.98179292245E+03  0.40173626556E+04  0.38955468633E+04 0.  0.
        3    1    3    3  502    0  0.82262101611E+03 -0.17530341319E+04 -0.27460648592E+03  0.19558227773E+04  0.10100000352E+00 0.  1.
       -3    1    3    3    0  502 -0.82262101611E+03  0.17530341319E+04 -0.70718643653E+03  0.20615398783E+04  0.10100000352E+00 0. -1.
</event>
<event>
 5   0  0.3724293E-08  0.3899527E+04  0.7818609E-02  0.8025128E-01
        2   -1    0    0  501    0  0.00000000000E+00  0.00000000000E+00  0.23248415507E+04  0.23248415507E+04  0.25500000920E-02 0. -1.
       -2   -1    0    0    0  501  0.00000000000E+00  0.00000000000E+00 -0.16351987504E+04  0.16351987504E+04  0.25500000920E-02 0.  1.
    10030    2    1    2    0    0  0.00000000000E+00  0.00000000000E+00  0.68964280024E+03  0.39600403011E+04  0.38995271501E+04 0.  0.
        4    1    3    3  502    0  0.40868016367E+03  0.51805889898E+03 -0.15183628382E+04  0.16555457771E+04  0.12699999809E+01 0.  1.
       -4    1    3    3    0  502 -0.40868016367E+03 -0.51805889898E+03  0.22080056384E+04  0.23044945240E+04  0.12699999809E+01 0. -1.
</event>
<event>
 5   0  0.3690572E-08  0.3897649E+04  0.7818609E-02  0.8025518E-01
       -2   -1    0    0    0  501  0.00000000000E+00  0.00000000000E+00  0.11974590851E+04  0.11974590851E+04  0.25500000920E-02 0. -1.
        2   -1    0    0  501    0  0.00000000000E+00  0.00000000000E+00 -0.31716468747E+04  0.31716468747E+04  0.25500000920E-02 0.  1.
    10030    2    1    2    0    0  0.00000000000E+00  0.00000000000E+00 -0.19741877895E+04  0.43691059598E+04  0.38976492222E+04 0.  0.
        3    1    3    3  502    0 -0.15658611597E+04  0.73239433741E+03 -0.19957047991E+04  0.26402954933E+04  0.10100000352E+00 0.  1.
       -3    1    3    3    0  502  0.15658611597E+04 -0.73239433741E+03  0.21517009551E+02  0.17288104664E+04  0.10100000352E+00 0. -1.
</event>
<event>
 5   0  0.1164500E-08  0.3899044E+04  0.7818609E-02  0.8025228E-01
        1   -1    0    0  501    0  0.00000000000E+00  0.00000000000E+00  0.21959537081E+04  0.21959537081E+04  0.50400001928E-02 0.  1.
       -1   -1    0    0    0  501  0.00000000000E+00  0.00000000000E+00 -0.17307447807E+04  0.17307447807E+04  0.50400001928E-02 0. -1.
    10030    2    1    2    0    0  0.00000000000E+00  0.00000000000E+00  0.46520892732E+03  0.39266984888E+04  0.38990436874E+04 0.  0.
        5    1    3    3  502    0  0.55457984665E+03  0.15992744331E+04  0.12066124575E+04  0.20787431855E+04  0.46999998093E+01 0.  1.
       -5    1    3    3    0  502 -0.55457984665E+03 -0.15992744331E+04 -0.74140353015E+03  0.18479553033E+04  0.46999998093E+01 0. -1.
</event>
<event>
 5   0  0.3769985E-08  0.3896168E+04  0.7818609E-02  0.8025827E-01
        2   -1    0    0  501    0  0.00000000000E+00  0.00000000000E+00  0.22938323211E+04  0.22938323211E+04  0.25500000920E-02 0.  1.
       -2   -1    0    0    0  501  0.00000000000E+00  0.00000000000E+00 -0.16544499698E+04  0.16544499698E+04  0.25500000920E-02 0. -1.
    10030    2    1    2    0    0  0.00000000000E+00  0.00000000000E+00  0.63938235121E+03  0.39482822909E+04  0.38961677656E+04 0.  0.
        1    1    3    3  502    0 -0.23324948783E+03  0.17794235900E+04 -0.44825596171E+03  0.18497802690E+04  0.50400001928E-02 0. -1.
       -1    1    3    3    0  502  0.23324948783E+03 -0.17794235900E+04  0.10876383129E+04  0.20985020219E+04  0.50400001928E-02 0.  1.
</event>
<event>
 5   0  0.1164500E-08  0.3893303E+04  0.7818609E-02  0.8026424E-01
        1   -1    0    0  501    0  0.00000000000E+00  0.00000000000E+00  0.20461080833E+04  0.20461080833E+04  0.50400001928E-02 0. -1.
       -1   -1    0    0    0  501  0.00000000000E+00  0.00000000000E+00 -0.18520290857E+04  0.18520290857E+04  0.50400001928E-02 0.  1.
    10030    2    1    2    0    0  0.00000000000E+00  0.00000000000E+00  0.19407899760E+03  0.38981371691E+04  0.38933028050E+04 0.  0.
        3    1    3    3  502    0 -0.10209224721E+04 -0.82806267530E+03  0.15346082443E+04  0.20206417204E+04  0.10100000352E+00 0. -1.
       -3    1    3    3    0  502  0.10209224721E+04  0.82806267530E+03 -0.13405292467E+04  0.18774954487E+04  0.10100000352E+00 0.  1.
</event>
<event>
 5   0  0.3724293E-08  0.3911767E+04  0.7818609E-02  0.8022586E-01
       -2   -1    0    0    0  501  0.00000000000E+00  0.00000000000E+00  0.28992763052E+04  0.28992763052E+04  0.25500000920E-02 0.  1.
        2   -1    0    0  501    0  0.00000000000E+00  0.00000000000E+00 -0.13194601664E+04  0.13194601664E+04  0.25500000920E-02 0. -1.
    10030    2    1    2    0    0  0.00000000000E+00  0.00000000000E+00  0.15798161389E+04  0.42187364716E+04  0.39117666577E+04 0.  0.
        4    1    3    3  502    0  0.86485533417E+03 -0.13516327977E+03  0.26762300012E+04  0.28157507868E+04  0.12699999809E+01 0.  1.
       -4    1    3    3    0  502 -0.86485533417E+03  0.13516327977E+03 -0.10964138623E+04  0.14029856848E+04  0.12699999809E+01 0. -1.
</event>
<event>
 5   0  0.3724293E-08  0.3902131E+04  0.7818609E-02  0.8024586E-01
        2   -1    0    0  501    0  0.00000000000E+00  0.00000000000E+00  0.29726479484E+04  0.29726479484E+04  0.25500000920E-02 0.  1.
       -2   -1    0    0    0  501  0.00000000000E+00  0.00000000000E+00 -0.12805607181E+04  0.12805607181E+04  0.25500000920E-02 0. -1.
    10030    2    1    2    0    0  0.00000000000E+00  0.00000000000E+00  0.16920872303E+04  0.42532086665E+04  0.39021307982E+04 0.  0.
        4    1    3    3  502    0 -0.51743568194E+02  0.81625616651E+03 -0.10846830184E+04  0.13584882736E+04  0.12699999809E+01 0. -1.
       -4    1    3    3    0  502  0.51743568194E+02 -0.81625616651E+03  0.27767702487E+04  0.28947203929E+04  0.12699999809E+01 0.  1.
</event>
<event>
 5   0  0.3724293E-08  0.3901798E+04  0.7818609E-02  0.8024655E-01
       -2   -1    0    0    0  501  0.00000000000E+00  0.00000000000E+00  0.25457404646E+04  0.25457404646E+04  0.25500000920E-02 0.  1.
        2   -1    0    0  501    0  0.00000000000E+00  0.00000000000E+00 -0.14950490484E+04  0.14950490484E+04  0.25500000920E-02 0. -1.
    10030    2    1    2    0    0  0.00000000000E+00  0.00000000000E+00  0.10506914162E+04  0.40407895129E+04  0.39017979748E+04 0.  0.
        4    1    3    3  502    0 -0.70767012732E+03 -0.53756110753E+03 -0.12732523908E+04  0.15527209077E+04  0.12699999809E+01 0. -1.
       -4    1    3    3    0  502  0.70767012732E+03  0.53756110753E+03  0.23239438070E+04  0.24880686053E+04  0.12699999809E+01 0.  1.
</event>
<event>
 5   0  0.3769985E-08  0.3900511E+04  0.7818609E-02  0.8024923E-01
        2   -1    0    0  501    0  0.00000000000E+00  0.00000000000E+00  0.18951243653E+04  0.18951243653E+04  0.25500000920E-02 0.  1.
       -2   -1    0    0    0  501  0.00000000000E+00  0.00000000000E+00 -0.20069909307E+04  0.20069909307E+04  0.25500000920E-02 0. -1.
    10030    2    1    2    0    0  0.00000000000E+00  0.00000000000E+00 -0.11186656536E+03  0.39021152960E+04  0.39005114606E+04 0.  0.
        1    1    3    3  502    0 -0.71100659412E+03  0.15174197334E+04 -0.10540430714E+04  0.19796716446E+04  0.50400001928E-02 0. -1.
       -1    1    3    3    0  502  0.71100659412E+03 -0.15174197334E+04  0.94217650602E+03  0.19224436514E+04  0.50400001928E-02 0.  1.
</event>
<event>
 5   0  0.1164500E-08  0.3896169E+04  0.7818609E-02  0.8025826E-01
        1   -1    0    0  501    0  0.00000000000E+00  0.00000000000E+00  0.16117998946E+04  0.16117998946E+04  0.50400001928E-02 0.  1.
       -1   -1    0    0    0  501  0.00000000000E+00  0.00000000000E+00 -0.23545315333E+04  0.23545315333E+04  0.50400001928E-02 0. -1.
    10030    2    1    2    0    0  0.00000000000E+00  0.00000000000E+00 -0.74273163873E+03  0.39663314280E+04  0.38961692352E+04 0.  0.
        1    1    3    3  502    0 -0.90738692407E+03 -0.12562429766E+04 -0.15731052763E+04  0.22082023587E+04  0.50400001928E-02 0. -1.
       -1    1    3    3    0  502  0.90738692407E+03  0.12562429766E+04  0.83037363760E+03  0.17581290693E+04  0.50400001928E-02 0.  1.
</event>
<event>
 5   0  0.1164500E-08  0.3900418E+04  0.7818609E-02  0.8024942E-01
       -1   -1    0    0    0  501  0.00000000000E+00  0.00000000000E+00  0.12734688444E+04  0.12734688444E+04  0.50400001928E-02 0.  1.
        1   -1    0    0  501    0  0.00000000000E+00  0.00000000000E+00 -0.29865793224E+04  0.29865793224E+04  0.50400001928E-02 0. -1.
    10030    2    1    2    0    0  0.00000000000E+00  0.00000000000E+00 -0.17131104780E+04  0.42600481668E+04  0.39004182947E+04 0.  0.
        5    1    3    3  502    0 -0.48788577899E+03 -0.94521692007E+03  0.92872918617E+03  0.14121004039E+04  0.46999998093E+01 0.  1.
       -5    1    3    3    0  502  0.48788577899E+03  0.94521692007E+03 -0.26418396642E+04  0.28479477629E+04  0.46999998093E+01 0. -1.
</event>
<event>
 5   0  0.3724293E-08  0.3908375E+04  0.7818609E-02  0.8023290E-01
        2   -1    0    0  501    0  0.00000000000E+00  0.00000000000E+00  0.31948496000E+04  0.31948496000E+04  0.25500000920E-02 0.  1.
       -2   -1    0    0    0  501  0.00000000000E+00  0.00000000000E+00 -0.11953142698E+04  0.11953142698E+04  0.25500000920E-02 0. -1.
    10030    2    1    2    0    0  0.00000000000E+00  0.00000000000E+00  0.19995353301E+04  0.43901638698E+04  0.39083752721E+04 0.  0.
        4    1    3    3  502    0 -0.33224522917E+03 -0.46593831049E+03 -0.10990849056E+04  0.12391427053E+04  0.12699999809E+01 0. -1.
       -4    1    3    3    0  502  0.33224522917E+03  0.46593831049E+03  0.30986202357E+04  0.31510211645E+04  0.12699999809E+01 0.  1.
</event>
<event>
 5   0  0.3769985E-08  0.3898351E+04  0.7818609E-02  0.8025372E-01
        2   -1    0    0  501    0  0.00000000000E+00  0.00000000000E+00  0.26313827121E+04  0.26313827121E+04  0.25500000920E-02 0. -1.
       -2   -1    0    0    0  501  0.00000000000E+00  0.00000000000E+00 -0.14438358378E+04  0.14438358378E+04  0.25500000920E-02 0.  1.
    10030    2    1    2    0    0  0.00000000000E+00  0.00000000000E+00  0.11875468743E+04  0.40752185498E+04  0.38983507603E+04 0.  0.
        1    1    3    3  502    0  0.63116990229E+03  0.18235431534E+04  0.88120184952E+03  0.21213679025E+04  0.50400001928E-02 0.  1.
       -1    1    3    3    0  502 -0.63116990229E+03 -0.18235431534E+04  0.30634502478E+03  0.19538506474E+04  0.50400001928E-02 0. -1.
</event>
<event>
 5   0  0.3724293E-08  0.3868039E+04  0.7818609E-02  0.8031710E-01
       -2   -1    0    0    0  501  0.00000000000E+00  0.00000000000E+00  0.13380742356E+04  0.13380742356E+04  0.25500000920E-02 0.  1.
        2   -1    0    0  501    0  0.00000000000E+00  0.00000000000E+00 -0.27953837069E+04  0.27953837069E+04  0.25500000920E-02 0. -1.
    10030    2    1    2    0    0  0.00000000000E+00  0.00000000000E+00 -0.14573094713E+04  0.41334579425E+04  0.38680387365E+04 0.  0.
        4    1    3    3  502    0  0.12660709745E+04  0.14561134322E+04 -0.86891377473E+03  0.21161792932E+04  0.12699999809E+01 0. -1.
       -4    1    3    3    0  502 -0.12660709745E+04 -0.14561134322E+04 -0.58839569658E+03  0.20172786493E+04  0.12699999809E+01 0.  1.
</event>
<event>
 5   0  0.3669347E-08  0.3906264E+04  0.7818609E-02  0.8023728E-01
        2   -1    0    0  501    0  0.00000000000E+00  0.00000000000E+00  0.17813375564E+04  0.17813375564E+04  0.25500000920E-02 0. -1.
       -2   -1    0    0    0  501  0.00000000000E+00  0.00000000000E+00 -0.21414942012E+04  0.21414942012E+04  0.25500000920E-02 0.  1.
    10030    2    1    2    0    0  0.00000000000E+00  0.00000000000E+00 -0.36015664478E+03  0.39228317576E+04  0.39062637122E+04 0.  0.
        5    1    3    3  502    0  0.18520076273E+04  0.56066509714E+03 -0.44657976326E+03  0.19858834753E+04  0.46999998093E+01 0.  1.
       -5    1    3    3    0  502 -0.18520076273E+04 -0.56066509714E+03  0.86423118481E+02  0.19369482822E+04  0.46999998093E+01 0. -1.
</event>
<event>
 5   0  0.3872969E-08  0.3912700E+04  0.7818609E-02  0.8022393E-01
        2   -1    0    0  501    0  0.00000000000E+00  0.00000000000E+00  0.13910479765E+04  0.13910479765E+04  0.25500000920E-02 0.  1.
       -2   -1    0    0    0  501  0.00000000000E+00  0.00000000000E+00 -0.27513831744E+04  0.27513831744E+04  0.25500000920E-02 0. -1.
    10030    2    1    2    0    0  0.00000000000E+00  0.00000000000E+00 -0.13603351979E+04  0.41424311510E+04  0.39127003450E+04 0.  0.
        2    1    3    3  502    0 -0.29948026345E+01 -0.16205649102E+04  0.48011083270E+03  0.16901911161E+04  0.25500000920E-02 0.  1.
       -2    1    3    3    0  502  0.29948026345E+01  0.16205649102E+04 -0.18404460306E+04  0.24522400349E+04  0.25500000920E-02 0. -1.
</event>
<event>
 5   0  0.1164500E-08  0.3899538E+04  0.7818609E-02  0.8025125E-01
       -1   -1    0    0    0  501  0.00000000000E+00  0.00000000000E+00  0.20509738293E+04  0.20509738293E+04  0.50400001928E-02 0. -1.
        1   -1    0    0  501    0  0.00000000000E+00  0.00000000000E+00 -0.18535577164E+04  0.18535577164E+04  0.50400001928E-02 0.  1.
    10030    2    1    2    0    0  0.00000000000E+00  0.00000000000E+00  0.19741611288E+03  0.39045315457E+04  0.38995375969E+04 0.  0.
        3    1    3    3  502    0 -0.20677322574E+03 -0.16644080777E+04  0.10942594808E+04  0.20026016172E+04  0.10100000352E+00 0. -1.
       -3    1    3    3    0  502  0.20677322574E+03  0.16644080777E+04 -0.89684336789E+03  0.19019299284E+04  0.10100000352E+00 0.  1.
</event>
<event>
 5   0  0.3769985E-08  0.3900907E+04  0.7818609E-02  0.8024841E-01
       -2   -1    0    0    0  501  0.00000000000E+00  0.00000000000E+00  0.17080749649E+04  0.17080749649E+04  0.25500000920E-02 0.  1.
        2   -1    0    0  501    0  0.00000000000E+00  0.00000000000E+00 -0.22272258430E+04  0.22272258430E+04  0.25500000920E-02 0. -1.
    10030    2    1    2    0    0  0.00000000000E+00  0.00000000000E+00 -0.51915087813E+03  0.39353008080E+04  0.39009069221E+04 0.  0.
        1    1    3    3  502    0 -0.11512945506E+04 -0.52202496127E+03 -0.17580266664E+04  0.21653283728E+04  0.50400001928E-02 0. -1.
       -1    1    3    3    0  502  0.11512945506E+04  0.52202496127E+03  0.12388757883E+04  0.17699724351E+04  0.50400001928E-02 0.  1.
</event>
<event>
 5   0  0.1164500E-08  0.3812143E+04  0.7818609E-02  0.8043554E-01
        1   -1    0    0  501    0  0.00000000000E+00  0.00000000000E+00  0.20541046624E+04  0.20541046624E+04  0.50400001928E-02 0.  1.
       -1   -1    0    0    0  501  0.00000000000E+00  0.00000000000E+00 -0.17687066648E+04  0.17687066648E+04  0.50400001928E-02 0. -1.
    10030    2    1    2    0    0  0.00000000000E+00  0.00000000000E+00  0.28539799760E+03  0.38228113272E+04  0.38121430228E+04 0.  0.
        4    1    3    3  502    0 -0.54170473039E+02 -0.47084088232E+03 -0.17086749291E+04  0.17731884285E+04  0.12699999809E+01 0. -1.
       -4    1    3    3    0  502  0.54170473039E+02  0.47084088232E+03  0.19940729267E+04  0.20496228987E+04  0.12699999809E+01 0.  1.
</event>
<event>
 5   0  0.1164500E-08  0.3897185E+04  0.7818609E-02  0.8025615E-01
        1   -1    0    0  501    0  0.00000000000E+00  0.00000000000E+00  0.16450027428E+04  0.16450027428E+04  0.50400001928E-02 0.  1.
       -1   -1    0    0    0  501  0.00000000000E+00  0.00000000000E+00 -0.23082102555E+04  0.23082102555E+04  0.50400001928E-02 0. -1.
    10030    2    1    2    0    0  0.00000000000E+00  0.00000000000E+00 -0.66320751278E+03  0.39532129983E+04  0.38971847281E+04 0.  0.
        4    1    3    3  502    0 -0.85596880914E+03 -0.11729952797E+04 -0.16496728849E+04  0.21977312776E+04  0.12699999809E+01 0. -1.
       -4    1    3    3    0  502  0.85596880914E+03  0.11729952797E+04  0.98646537210E+03  0.17554817207E+04  0.12699999809E+01 0.  1.
</event>
<event>
 5   0  0.3690572E-08  0.3899887E+04  0.7818609E-02  0.8025053E-01
        2   -1    0    0  501    0  0.00000000000E+00  0.00000000000E+00  0.20140907643E+04  0.20140907643E+04  0.25500000920E-02 0.  1.
       -2   -1    0    0    0  501  0.00000000000E+00  0.00000000000E+00 -0.18878388782E+04  0.18878388782E+04  0.25500000920E-02 0. -1.
    10030    2    1    2    0    0  0.00000000000E+00  0.00000000000E+00  0.12625188609E+03  0.39019296426E+04  0.38998865877E+04 0.  0.
        3    1    3    3  502    0  0.16253209515E+04 -0.82411692931E+03  0.75734960576E+03  0.19734273090E+04  0.10100000352E+00 0.  1.
       -3    1    3    3    0  502 -0.16253209515E+04  0.82411692931E+03 -0.63109771968E+03  0.19285023335E+04  0.10100000352E+00 0. -1.
</event>
<event>
 5   0  0.3669347E-08  0.3897797E+04  0.7818609E-02  0.8025488E-01
       -2   -1    0    0    0  501  0.00000000000E+00  0.00000000000E+00  0.15555177480E+04  0.15555177480E+04  0.25500000920E-02 0. -1.
        2   -1    0    0  501    0  0.00000000000E+00  0.00000000000E+00 -0.24417622369E+04  0.24417622369E+04  0.25500000920E-02 0.  1.
    10030    2    1    2    0    0  0.00000000000E+00  0.00000000000E+00 -0.88624448889E+03  0.39972799849E+04  0.38977965549E+04 0.  0.
        5    1    3    3  502    0  0.11651960302E+04 -0.62215418778E+03  0.10264292247E+04  0.16728229630E+04  0.46999998093E+01 0. -1.
       -5    1    3    3    0  502 -0.11651960302E+04  0.62215418778E+03 -0.19126737136E+04  0.23244570219E+04  0.46999998093E+01 0.  1.
</event>
<event>
 5   0  0.3669347E-08  0.3894539E+04  0.7818609E-02  0.8026166E-01
        2   -1    0    0  501    0  0.00000000000E+00  0.00000000000E+00  0.30830798986E+04  0.30830798986E+04  0.25500000920E-02 0. -1.
       -2   -1    0    0    0  501  0.00000000000E+00  0.00000000000E+00 -0.12298932979E+04  0.12298932979E+04  0.25500000920E-02 0.  1.
    10030    2    1    2    0    0  0.00000000000E+00  0.00000000000E+00  0.18531866007E+04  0.43129731965E+04  0.38945394100E+04 0.  0.
        5    1    3    3  502    0  0.16074182726E+04 -0.67276540624E+02 -0.28832444394E+03  0.16344640439E+04  0.46999998093E+01 0.  1.
       -5    1    3    3    0  502 -0.16074182726E+04  0.67276540624E+02  0.21415110447E+04  0.26785091526E+04  0.46999998093E+01 0. -1.
</event>
<event>
 5   0  0.3769985E-08  0.3895201E+04  0.7818609E-02  0.8026028E-01
        2   -1    0    0  501    0  0.00000000000E+00  0.00000000000E+00  0.35337199872E+04  0.35337199872E+04  0.25500000920E-02 0.  1.
       -2   -1    0    0    0  501  0.00000000000E+00  0.00000000000E+00 -0.10734147110E+04  0.10734147110E+04  0.25500000920E-02 0. -1.
    10030    2    1    2    0    0  0.00000000000E+00  0.00000000000E+00  0.24603052762E+04  0.46071346982E+04  0.38952006464E+04 0.  0.
        1    1    3    3  502    0  0.28515816805E+03  0.18322363977E+04  0.52569132292E+03  0.19273704276E+04  0.50400001928E-02 0. -1.
       -1    1    3    3    0  502 -0.28515816805E+03 -0.18322363977E+04  0.19346139533E+04  0.26797642707E+04  0.50400001928E-02 0.  1.
</event>
<event>
 5   0  0.1164500E-08  0.3898710E+04  0.7818609E-02  0.8025298E-01
        1   -1    0    0  501    0  0.00000000000E+00  0.00000000000E+00  0.23500596277E+04  0.23500596277E+04  0.50400001928E-02 0. -1.
       -1   -1    0    0    0  501  0.00000000000E+00  0.00000000000E+00 -0.16169737136E+04  0.16169737136E+04  0.50400001928E-02 0.  1.
    10030    2    1    2    0    0  0.00000000000E+00  0.00000000000E+00  0.73308591410E+03  0.39670333413E+04  0.38987098602E+04 0.  0.
        1    1    3    3  502    0  0.55081816903E+03 -0.13621292250E+04  0.16700821564E+04  0.22244035358E+04  0.50400001928E-02 0. -1.
       -1    1    3    3    0  502 -0.55081816903E+03  0.13621292250E+04 -0.93699624231E+03  0.17426298055E+04  0.50400001928E-02 0.  1.
</event>
<event>
 5   0  0.3669347E-08  0.3899607E+04  0.7818609E-02  0.8025111E-01
        2   -1    0    0  501    0  0.00000000000E+00  0.00000000000E+00  0.19349466882E+04  0.19349466882E+04  0.25500000920E-02 0.  1.
       -2   -1    0    0    0  501  0.00000000000E+00  0.00000000000E+00 -0.19647741994E+04  0.19647741994E+04  0.25500000920E-02 0. -1.
    10030    2    1    2    0    0  0.00000000000E+00  0.00000000000E+00 -0.29827511117E+02  0.38997208876E+04  0.38996068162E+04 0.  0.
        5    1    3    3  502    0  0.15898898756E+04  0.41620854226E+03  0.10342746314E+04  0.19418355930E+04  0.46999998093E+01 0. -1.
       -5    1    3    3    0  502 -0.15898898756E+04 -0.41620854226E+03 -0.10641021426E+04  0.19578852946E+04  0.46999998093E+01 0.  1.
</event>
<event>
 5   0  0.3872969E-08  0.3902000E+04  0.7818609E-02  0.8024613E-01
       -2   -1    0    0    0  501  0.00000000000E+00  0.00000000000E+00  0.30365447011E+04  0.30365447011E+04  0.25500000920E-02 0. -1.
        2   -1    0    0  501    0  0.00000000000E+00  0.00000000000E+00 -0.12535305668E+04  0.12535305668E+04  0.25500000920E-02 0.  1.
    10030    2    1    2    0    0  0.00000000000E+00  0.00000000000E+00  0.17830141343E+04  0.42900752679E+04  0.39020003076E+04 0.  0.
        2    1    3    3  502    0  0.11887459336E+04 -0.36824430841E+03 -0.76048853054E+03  0.14584456008E+04  0.25500000920E-02 0.  1.
       -2    1    3    3    0  502 -0.11887459336E+04  0.36824430841E+03  0.25435026648E+04  0.28316296671E+04  0.25500000920E-02 0. -1.
</event>
<event>
 5   0  0.3690572E-08  0.3899861E+04  0.7818609E-02  0.8025058E-01
        2   -1    0    0  501    0  0.00000000000E+00  0.00000000000E+00  0.15904591482E+04  0.15904591482E+04  0.25500000920E-02 0.  1.
       -2   -1    0    0    0  501  0.00000000000E+00  0.00000000000E+00 -0.23906487291E+04  0.23906487291E+04  0.25500000920E-02 0. -1.
    10030    2    1    2    0    0  0.00000000000E+00  0.00000000000E+00 -0.80018958090E+03  0.39811078773E+04  0.38998610957E+04 0.  0.
        3    1    3    3  502    0  0.17827681028E+02 -0.14536180617E+04 -0.17267483463E+04  0.22572069372E+04  0.10100000352E+00 0. -1.
       -3    1    3    3    0  502 -0.17827681028E+02  0.14536180617E+04  0.92655876541E+03  0.17239009402E+04  0.10100000352E+00 0.  1.
</event>
<event>
 5   0  0.1164500E-08  0.3918147E+04  0.7818609E-02  0.8021266E-01
        1   -1    0    0  501    0  0.00000000000E+00  0.00000000000E+00  0.14465657241E+04  0.14465657241E+04  0.50400001928E-02 0.  1.
       -1   -1    0    0    0  501  0.00000000000E+00  0.00000000000E+00 -0.26531589972E+04  0.26531589972E+04  0.50400001928E-02 0. -1.
    10030    2    1    2    0    0  0.00000000000E+00  0.00000000000E+00 -0.12065932731E+04  0.40997247214E+04  0.39181469427E+04 0.  0.
        1    1    3    3  502    0  0.68500233633E+03 -0.18282805470E+04 -0.77243854157E+03  0.20996426505E+04  0.50400001928E-02 0. -1.
       -1    1    3    3    0  502 -0.68500233633E+03  0.18282805470E+04 -0.43415473150E+03  0.20000820709E+04  0.50400001928E-02 0.  1.
</event>
<event>
 5   0  0.3690572E-08  0.3910666E+04  0.7818609E-02  0.8022815E-01
        2   -1    0    0  501    0  0.00000000000E+00  0.00000000000E+00  0.23585951033E+04  0.23585951033E+04  0.25500000920E-02 0.  1.
       -2   -1    0    0    0  501  0.00000000000E+00  0.00000000000E+00 -0.16210187959E+04  0.16210187959E+04  0.25500000920E-02 0. -1.
    10030    2    1    2    0    0  0.00000000000E+00  0.00000000000E+00  0.73757630740E+03  0.39796138993E+04  0.39106659251E+04 0.  0.
        3    1    3    3  502    0  0.52627401533E+03  0.18677353312E+04  0.12386369556E+03  0.19444129788E+04  0.10100000352E+00 0. -1.
       -3    1    3    3    0  502 -0.52627401533E+03 -0.18677353312E+04  0.61371261184E+03  0.20352009205E+04  0.10100000352E+00 0.  1.
</event>
<event>
 5   0  0.3669347E-08  0.3889348E+04  0.7818609E-02  0.8027248E-01
       -2   -1    0    0    0  501  0.00000000000E+00  0.00000000000E+00  0.13637847884E+04  0.13637847884E+04  0.25500000920E-02 0. -1.
        2   -1    0    0  501    0  0.00000000000E+00  0.00000000000E+00 -0.27729868568E+04  0.27729868568E+04  0.25500000920E-02 0.  1.
    10030    2    1    2    0    0  0.00000000000E+00  0.00000000000E+00 -0.14092020684E+04  0.41367716452E+04  0.38893481684E+04 0.  0.
        5    1    3    3  502    0 -0.10947995171E+04  0.81626981402E+03  0.76797968156E+03  0.15667473546E+04  0.46999998093E+01 0. -1.
       -5    1    3    3    0  502  0.10947995171E+04 -0.81626981402E+03 -0.21771817500E+04  0.25700242906E+04  0.46999998093E+01 0.  1.
</event>
<event>
 5   0  0.1164500E-08  0.3884497E+04  0.7818609E-02  0.8028261E-01
        1   -1    0    0  501    0  0.00000000000E+00  0.00000000000E+00  0.26493764346E+04  0.26493764346E+04  0.50400001928E-02 0. -1.
       -1   -1    0    0    0  501  0.00000000000E+00  0.00000000000E+00 -0.14238552995E+04  0.14238552995E+04  0.50400001928E-02 0.  1.
    10030    2    1    2    0    0  0.00000000000E+00  0.00000000000E+00  0.12255211350E+04  0.40732317341E+04  0.38844967122E+04 0.  0.
        1    1    3    3  502    0 -0.78055385535E+03 -0.13850870287E+04  0.17825803422E+04  0.23885818124E+04  0.50400001928E-02 0. -1.
       -1    1    3    3    0  502  0.78055385535E+03  0.13850870287E+04 -0.55705920717E+03  0.16846499217E+04  0.50400001928E-02 0.  1.
</event>
<event>
 5   0  0.1164500E-08  0.3901594E+04  0.7818609E-02  0.8024698E-01
       -1   -1    0    0    0  501  0.00000000000E+00  0.00000000000E+00  0.17661029843E+04  0.17661029843E+04  0.50400001928E-02 0. -1.
        1   -1    0    0  501    0  0.00000000000E+00  0.00000000000E+00 -0.21548058372E+04  0.21548058372E+04  0.50400001928E-02 0.  1.
    10030    2    1    2    0    0  0.00000000000E+00  0.00000000000E+00 -0.38870285290E+03  0.39209088216E+04  0.39015940434E+04 0.  0.
        2    1    3    3  502    0  0.30223592715E+03  0.17286367843E+04  0.66196860407E+03  0.18755623478E+04  0.25500000920E-02 0. -1.
       -2    1    3    3    0  502 -0.30223592715E+03 -0.17286367843E+04 -0.10506714570E+04  0.20453464738E+04  0.25500000920E-02 0.  1.
</event>
<event>
 5   0  0.3724293E-08  0.3897896E+04  0.7818609E-02  0.8025467E-01
        2   -1    0    0  501    0  0.00000000000E+00  0.00000000000E+00  0.25681755743E+04  0.25681755743E+04  0.25500000920E-02 0.  1.
       -2   -1    0    0    0  501  0.00000000000E+00  0.00000000000E+00 -0.14790257094E+04  0.14790257094E+04  0.25500000920E-02 0. -1.
    10030    2    1    2    0    0  0.00000000000E+00  0.00000000000E+00  0.10891498648E+04  0.40472012837E+04  0.38978956890E+04 0.  0.
        4    1    3    3  502    0  0.54473370542E+03  0.18192699945E+04  0.89710052408E+02  0.19011911080E+04  0.12699999809E+01 0. -1.
       -4    1    3    3    0  502 -0.54473370542E+03 -0.18192699945E+04  0.99943981242E+03  0.21460101757E+04  0.12699999809E+01 0.  1.
</event>
<event>
 5   0  0.3724293E-08  0.3896468E+04  0.7818609E-02  0.8025764E-01
        2   -1    0    0  501    0  0.00000000000E+00  0.00000000000E+00  0.14659124251E+04  0.14659124251E+04  0.25500000920E-02 0.  1.
       -2   -1    0    0    0  501  0.00000000000E+00  0.00000000000E+00 -0.25892515536E+04  0.25892515536E+04  0.25500000920E-02 0. -1.
    10030    2    1    2    0    0  0.00000000000E+00  0.00000000000E+00 -0.11233391284E+04  0.40551639787E+04  0.38964681567E+04 0.  0.
        4    1    3    3  502    0 -0.13076794108E+04 -0.61641547311E+03  0.79751535740E+03  0.16510680892E+04  0.12699999809E+01 0.  1.
       -4    1    3    3    0  502  0.13076794108E+04  0.61641547311E+03 -0.19208544858E+04  0.24040958895E+04  0.12699999809E+01 0. -1.
</event>
<event>
 5   0  0.3872969E-08  0.3898705E+04  0.7818609E-02  0.8025299E-01
       -2   -1    0    0    0  501  0.00000000000E+00  0.00000000000E+00  0.28524120207E+04  0.28524120207E+04  0.25500000920E-02 0. -1.
        2   -1    0    0  501    0  0.00000000000E+00  0.00000000000E+00 -0.13321973854E+04  0.13321973854E+04  0.25500000920E-02 0.  1.
    10030    2    1    2    0    0  0.00000000000E+00  0.00000000000E+00  0.15202146353E+04  0.41846094061E+04  0.38987053421E+04 0.  0.
        2    1    3    3  502    0  0.14178754062E+04  0.65732849210E+03 -0.49046364214E+03  0.16379883999E+04  0.25500000920E-02 0.  1.
       -2    1    3    3    0  502 -0.14178754062E+04 -0.65732849210E+03  0.20106782774E+04  0.25466210062E+04  0.25500000920E-02 0. -1.
</event>
<event>
 5   0  0.3769985E-08  0.3899761E+04  0.7818609E-02  0.8025079E-01
        2   -1    0    0  501    0  0.00000000000E+00  0.00000000000E+00  0.17301743358E+04  0.17301743358E+04  0.25500000920E-02 0. -1.
       -2   -1    0    0    0  501  0.00000000000E+00  0.00000000000E+00 -0.21974860308E+04  0.21974860308E+04  0.25500000920E-02 0.  1.
    10030    2    1    2    0    0  0.00000000000E+00  0.00000000000E+00 -0.46731169501E+03  0.39276603666E+04  0.38997609844E+04 0.  0.
        1    1    3    3  502    0 -0.67350917095E+03  0.17101474932E+04  0.42201222671E+03  0.18858190188E+04  0.50400001928E-02 0.  1.
       -1    1    3    3    0  502  0.67350917095E+03 -0.17101474932E+04 -0.88932392172E+03  0.20418413478E+04  0.50400001928E-02 0. -1.
</event>
<event>
 5   0  0.3724293E-08  0.3896713E+04  0.7818609E-02  0.8025713E-01
       -2   -1    0    0    0  501  0.00000000000E+00  0.00000000000E+00  0.20039671818E+04  0.20039671818E+04  0.25500000920E-02 0.  1.
        2   -1    0    0  501    0  0.00000000000E+00  0.00000000000E+00 -0.18942895065E+04  0.18942895065E+04  0.25500000920E-02 0. -1.
    10030    2    1    2    0    0  0.00000000000E+00  0.00000000000E+00  0.10967767531E+03  0.38982566883E+04  0.38967134890E+04 0.  0.
        4    1    3    3  502    0  0.18168807314E+03  0.16964054524E+04  0.99611016442E+03  0.19756110669E+04  0.12699999809E+01 0.  1.
       -4    1    3    3    0  502 -0.18168807314E+03 -0.16964054524E+04 -0.88643248912E+03  0.19226456214E+04  0.12699999809E+01 0. -1.
</event>
<event>
 5   0  0.3669347E-08  0.3900755E+04  0.7818609E-02  0.8024872E-01
        2   -1    0    0  501    0  0.00000000000E+00  0.00000000000E+00  0.22043710345E+04  0.22043710345E+04  0.25500000920E-02 0.  1.
       -2   -1    0    0    0  501  0.00000000000E+00  0.00000000000E+00 -0.17256498790E+04  0.17256498790E+04  0.25500000920E-02 0. -1.
    10030    2    1    2    0    0  0.00000000000E+00  0.00000000000E+00  0.47872115549E+03  0.39300209135E+04  0.39007551110E+04 0.  0.
        5    1    3    3  502    0 -0.16193625850E+04 -0.10455481038E+04  0.53898802251E+03  0.20015084805E+04  0.46999998093E+01 0.  1.
       -5    1    3    3    0  502  0.16193625850E+04  0.10455481038E+04 -0.60266867021E+02  0.19285124330E+04  0.46999998093E+01 0. -1.
</event>
<event>
 5   0  0.1164500E-08  0.3921712E+04  0.7818609E-02  0.8020529E-01
       -1   -1    0    0    0  501  0.00000000000E+00  0.00000000000E+00  0.16039005410E+04  0.16039005410E+04  0.50400001928E-02 0.  1.
        1   -1    0    0  501    0  0.00000000000E+00  0.00000000000E+00 -0.23972532618E+04  0.23972532618E+04  0.50400001928E-02 0. -1.
    10030    2    1    2    0    0  0.00000000000E+00  0.00000000000E+00 -0.79335272085E+03  0.40011538028E+04  0.39217117709E+04 0.  0.
        3    1    3    3  502    0 -0.59443694053E+03  0.99592887901E+03 -0.20097559418E+04  0.23204199112E+04  0.10100000352E+00 0. -1.
       -3    1    3    3    0  502  0.59443694053E+03 -0.99592887901E+03  0.12164032209E+04  0.16807338916E+04  0.10100000352E+00 0.  1.
</event>
<event>
 5   0  0.1164500E-08  0.3839948E+04  0.7818609E-02  0.8037636E-01
       -1   -1    0    0    0  501  0.00000000000E+00  0.00000000000E+00  0.15673623460E+04  0.15673623460E+04  0.50400001928E-02 0. -1.
        1   -1    0    0  501    0  0.00000000000E+00  0.00000000000E+00 -0.23519135367E+04  0.23519135367E+04  0.50400001928E-02 0.  1.
    10030    2    1    2    0    0  0.00000000000E+00  0.00000000000E+00 -0.78455119065E+03  0.39192758827E+04  0.38399482905E+04 0.  0.
        3    1    3    3  502    0  0.68319022492E+03  0.98235783335E+03  0.11402508528E+04  0.16528604943E+04  0.10100000352E+00 0. -1.
       -3    1    3    3    0  502 -0.68319022492E+03 -0.98235783335E+03 -0.19248020434E+04  0.22664153884E+04  0.10100000352E+00 0.  1.
</event>
<event>
 5   0  0.1164500E-08  0.3896401E+04  0.7818609E-02  0.8025778E-01
       -1   -1    0    0    0  501  0.00000000000E+00  0.00000000000E+00  0.25819177621E+04  0.25819177621E+04  0.50400001928E-02 0. -1.
        1   -1    0    0  501    0  0.00000000000E+00  0.00000000000E+00 -0.14700252785E+04  0.14700252785E+04  0.50400001928E-02 0.  1.
    10030    2    1    2    0    0  0.00000000000E+00  0.00000000000E+00  0.11118924836E+04  0.40519430406E+04  0.38964005838E+04 0.  0.
        4    1    3    3  502    0  0.10605006849E+04  0.42270953395E+03 -0.10857233371E+04  0.15754814599E+04  0.12699999809E+01 0.  1.
       -4    1    3    3    0  502 -0.10605006849E+04 -0.42270953395E+03  0.21976158207E+04  0.24764615808E+04  0.12699999809E+01 0. -1.
</event>
<event>
 5   0  0.1164500E-08  0.3900385E+04  0.7818609E-02  0.8024949E-01
       -1   -1    0    0    0  501  0.00000000000E+00  0.00000000000E+00  0.19675760171E+04  0.19675760171E+04  0.50400001928E-02 0.  1.
        1   -1    0    0  501    0  0.00000000000E+00  0.00000000000E+00 -0.19329627414E+04  0.19329627414E+04  0.50400001928E-02 0. -1.
    10030    2    1    2    0    0  0.00000000000E+00  0.00000000000E+00  0.34613275751E+02  0.39005387585E+04  0.39003851769E+04 0.  0.
        3    1    3    3  502    0 -0.12888922077E+04  0.23331833030E+03 -0.14275929984E+04  0.19374473789E+04  0.10100000352E+00 0. -1.
       -3    1    3    3    0  502  0.12888922077E+04 -0.23331833030E+03  0.14622062742E+04  0.19630913797E+04  0.10100000352E+00 0.  1.
</event>
<event>
 5   0  0.3769985E-08  0.3899859E+04  0.7818609E-02  0.8025058E-01
        2   -1    0    0  501    0  0.00000000000E+00  0.00000000000E+00  0.19477443397E+04  0.19477443397E+04  0.25500000920E-02 0. -1.
       -2   -1    0    0    0  501  0.00000000000E+00  0.00000000000E+00 -0.19521172964E+04  0.19521172964E+04  0.25500000920E-02 0.  1.
    10030    2    1    2    0    0  0.00000000000E+00  0.00000000000E+00 -0.43729567111E+01  0.38998616360E+04  0.38998591843E+04 0.  0.
        1    1    3    3  502    0  0.13069741612E+03 -0.10233541665E+04 -0.16568445373E+04  0.19517862039E+04  0.50400001928E-02 0.  1.
       -1    1    3    3    0  502 -0.13069741612E+03  0.10233541665E+04  0.16524715806E+04  0.19480754322E+04  0.50400001928E-02 0. -1.
</event>
<event>
 5   0  0.3724293E-08  0.3924174E+04  0.7818609E-02  0.8020020E-01
        2   -1    0    0  501    0  0.00000000000E+00  0.00000000000E+00  0.16696587546E+04  0.16696587546E+04  0.25500000920E-02 0.  1.
       -2   -1    0    0    0  501  0.00000000000E+00  0.00000000000E+00 -0.23057315263E+04  0.23057315263E+04  0.25500000920E-02 0. -1.
    10030    2    1    2    0    0  0.00000000000E+00  0.00000000000E+00 -0.63607277172E+03  0.39753902809E+04  0.39241737111E+04 0.  0.
        4    1    3    3  502    0 -0.75368907614E+03 -0.61064027631E+03  0.14097599266E+04  0.17112432422E+04  0.12699999809E+01 0.  1.
       -4    1    3    3    0  502  0.75368907614E+03  0.61064027631E+03 -0.20458326983E+04  0.22641470387E+04  0.12699999809E+01 0. -1.
</event>
<event>
 5   0  0.3872969E-08  0.3898879E+04  0.7818609E-02  0.8025262E-01
       -2   -1    0    0    0  501  0.00000000000E+00  0.00000000000E+00  0.20008391368E+04  0.20008391368E+04  0.25500000920E-02 0. -1.
        2   -1    0    0  501    0  0.00000000000E+00  0.00000000000E+00 -0.18993599510E+04  0.18993599510E+04  0.25500000920E-02 0.  1.
    10030    2    1    2    0    0  0.00000000000E+00  0.00000000000E+00  0.10147918577E+03  0.39001990878E+04  0.38988786721E+04 0.  0.
        2    1    3    3  502    0  0.10947699946E+04 -0.54877035433E+03 -0.14665613144E+04  0.19106209283E+04  0.25500000920E-02 0.  1.
       -2    1    3    3    0  502 -0.10947699946E+04  0.54877035433E+03  0.15680405002E+04  0.19895781595E+04  0.25500000920E-02 0. -1.
</event>
<event>
 5   0  0.1164500E-08  0.3909212E+04  0.7818609E-02  0.8023116E-01
       -1   -1    0    0    0  501  0.00000000000E+00  0.00000000000E+00  0.32332168012E+04  0.32332168012E+04  0.50400001928E-02 0. -1.
        1   -1    0    0  501    0  0.00000000000E+00  0.00000000000E+00 -0.11816359534E+04  0.11816359534E+04  0.50400001928E-02 0.  1.
    10030    2    1    2    0    0  0.00000000000E+00  0.00000000000E+00  0.20515808478E+04  0.44148527545E+04  0.39092123080E+04 0.  0.
        3    1    3    3  502    0  0.92092000410E+03 -0.11718169499E+04 -0.40239081826E+03  0.15437509510E+04  0.10100000352E+00 0.  1.
       -3    1    3    3    0  502 -0.92092000410E+03  0.11718169499E+04  0.24539716661E+04  0.28711018035E+04  0.10100000352E+00 0. -1.
</event>
<event>
 5   0  0.3769985E-08  0.3795960E+04  0.7818609E-02  0.8047022E-01
       -2   -1    0    0    0  501  0.00000000000E+00  0.00000000000E+00  0.21572523034E+04  0.21572523034E+04  0.25500000920E-02 0. -1.
        2   -1    0    0  501    0  0.00000000000E+00  0.00000000000E+00 -0.16698689062E+04  0.16698689062E+04  0.25500000920E-02 0.  1.
    10030    2    1    2    0    0  0.00000000000E+00  0.00000000000E+00  0.48738339720E+03  0.38271212096E+04  0.37959602444E+04 0.  0.
        1    1    3    3  502    0  0.33879374111E+02 -0.18329530844E+04 -0.25173169238E+03  0.18504684992E+04  0.50400001928E-02 0.  1.
       -1    1    3    3    0  502 -0.33879374111E+02  0.18329530844E+04  0.73911508957E+03  0.19766527103E+04  0.50400001928E-02 0. -1.
</event>
<event>
 5   0  0.1164500E-08  0.3900221E+04  0.7818609E-02  0.8024983E-01
        1   -1    0    0  501    0  0.00000000000E+00  0.00000000000E+00  0.18197922008E+04  0.18197922008E+04  0.50400001928E-02 0. -1.
       -1   -1    0    0    0  501  0.00000000000E+00  0.00000000000E+00 -0.20897610498E+04  0.20897610498E+04  0.50400001928E-02 0.  1.
    10030    2    1    2    0    0  0.00000000000E+00  0.00000000000E+00 -0.26996884896E+03  0.39095532506E+04  0.39002209476E+04 0.  0.
        4    1    3    3  502    0 -0.33013708441E+03 -0.19169460625E+04  0.41155717624E+01  0.19451712654E+04  0.12699999809E+01 0. -1.
       -4    1    3    3    0  502  0.33013708441E+03  0.19169460625E+04 -0.27408442073E+03  0.19643819852E+04  0.12699999809E+01 0.  1.
</event>
<event>
 5   0  0.1164500E-08  0.3898731E+04  0.7818609E-02  0.8025293E-01
        1   -1    0    0  501    0  0.00000000000E+00  0.00000000000E+00  0.24057060278E+04  0.24057060278E+04  0.50400001928E-02 0. -1.
       -1   -1    0    0    0  501  0.00000000000E+00  0.00000000000E+00 -0.15795889853E+04  0.15795889853E+04  0.50400001928E-02 0.  1.
    10030    2    1    2    0    0  0.00000000000E+00  0.00000000000E+00  0.82611704249E+03  0.39852950132E+04  0.38987314570E+04 0.  0.
        3    1    3    3  502    0 -0.12252742517E+04  0.75851261143E+03 -0.92886798455E+03  0.17144777971E+04  0.10100000352E+00 0.  1.
       -3    1    3    3    0  502  0.12252742517E+04 -0.75851261143E+03  0.17549850270E+04  0.22708172161E+04  0.10100000352E+00 0. -1.
</event>
<event>
 5   0  0.1164500E-08  0.3899987E+04  0.7818609E-02  0.8025032E-01
        1   -1    0    0  501    0  0.00000000000E+00  0.00000000000E+00  0.24912308607E+04  0.24912308607E+04  0.50400001928E-02 0. -1.
       -1   -1    0    0    0  501  0.00000000000E+00  0.00000000000E+00 -0.15263439978E+04  0.15263439978E+04  0.50400001928E-02 0.  1.
    10030    2    1    2    0    0  0.00000000000E+00  0.00000000000E+00  0.96488686291E+03  0.40175748585E+04  0.38999873187E+04 0.  0.
        1    1    3    3  502    0 -0.12082057141E+04 -0.11547515712E+04 -0.55246747990E+03  0.17602365054E+04  0.50400001928E-02 0.  1.
       -1    1    3    3    0  502  0.12082057141E+04  0.11547515712E+04  0.15173543428E+04  0.22573383531E+04  0.50400001928E-02 0. -1.
</event>
<event>
 5   0  0.1164500E-08  0.3902107E+04  0.7818609E-02  0.8024591E-01
        1   -1    0    0  501    0  0.00000000000E+00  0.00000000000E+00  0.28699984185E+04  0.28699984185E+04  0.50400001928E-02 0.  1.
       -1   -1    0    0    0  501  0.00000000000E+00  0.00000000000E+00 -0.13263453209E+04  0.13263453209E+04  0.50400001928E-02 0. -1.
    10030    2    1    2    0    0  0.00000000000E+00  0.00000000000E+00  0.15436530976E+04  0.41963437394E+04  0.39021065969E+04 0.  0.
        3    1    3    3  502    0 -0.95502558807E+03  0.12639207262E+04  0.19965795874E+04  0.25487054626E+04  0.10100000352E+00 0.  1.
       -3    1    3    3    0  502  0.95502558807E+03 -0.12639207262E+04 -0.45292648978E+03  0.16476382768E+04  0.10100000352E+00 0. -1.
</event>
<event>
 5   0  0.3724293E-08  0.3898029E+04  0.7818609E-02  0.8025439E-01
       -2   -1    0    0    0  501  0.00000000000E+00  0.00000000000E+00  0.13893974298E+04  0.13893974298E+04  0.25500000920E-02 0.  1.
        2   -1    0    0  501    0  0.00000000000E+00  0.00000000000E+00 -0.27340316674E+04  0.27340316674E+04  0.25500000920E-02 0. -1.
    10030    2    1    2    0    0  0.00000000000E+00  0.00000000000E+00 -0.13446342376E+04  0.41234290972E+04  0.38980285128E+04 0.  0.
        4    1    3    3  502    0  0.13972685304E+04 -0.13269679584E+04 -0.36309272532E+03  0.19608776731E+04  0.12699999809E+01 0.  1.
       -4    1    3    3    0  502 -0.13972685304E+04  0.13269679584E+04 -0.98154151231E+03  0.21625514241E+04  0.12699999809E+01 0. -1.
</event>
<event>
 5   0  0.3769985E-08  0.3882134E+04  0.7818609E-02  0.8028755E-01
        2   -1    0    0  501    0  0.00000000000E+00  0.00000000000E+00  0.25512308609E+04  0.25512308609E+04  0.25500000920E-02 0.  1.
       -2   -1    0    0    0  501  0.00000000000E+00  0.00000000000E+00 -0.14768330550E+04  0.14768330550E+04  0.25500000920E-02 0. -1.
    10030    2    1    2    0    0  0.00000000000E+00  0.00000000000E+00  0.10743978060E+04  0.40280639159E+04  0.38821344986E+04 0.  0.
        1    1    3    3  502    0 -0.18549962364E+03  0.19006964412E+04  0.89765503084E+03  0.21101757335E+04  0.50400001928E-02 0. -1.
       -1    1    3    3    0  502  0.18549962364E+03 -0.19006964412E+04  0.17674277512E+03  0.19178881824E+04  0.50400001928E-02 0.  1.
</event>
<event>
 5   0  0.1164500E-08  0.3901239E+04  0.7818609E-02  0.8024772E-01
       -1   -1    0    0    0  501  0.00000000000E+00  0.00000000000E+00  0.18461725579E+04  0.18461725579E+04  0.50400001928E-02 0. -1.
        1   -1    0    0  501    0  0.00000000000E+00  0.00000000000E+00 -0.20609757439E+04  0.20609757439E+04  0.50400001928E-02 0.  1.
    10030    2    1    2    0    0  0.00000000000E+00  0.00000000000E+00 -0.21480318603E+03  0.39071483018E+04  0.39012392189E+04 0.  0.
        4    1    3    3  502    0  0.97263761581E+03 -0.92953625112E+03  0.13071306030E+04  0.18758074528E+04  0.12699999809E+01 0. -1.
       -4    1    3    3    0  502 -0.97263761581E+03  0.92953625112E+03 -0.15219337890E+04  0.20313408490E+04  0.12699999809E+01 0.  1.
</event>
<event>
 5   0  0.3669347E-08  0.3876158E+04  0.7818609E-02  0.8030006E-01
       -2   -1    0    0    0  501  0.00000000000E+00  0.00000000000E+00  0.15903809212E+04  0.15903809212E+04  0.25500000920E-02 0. -1.
        2   -1    0    0  501    0  0.00000000000E+00  0.00000000000E+00 -0.23617928756E+04  0.23617928756E+04  0.25500000920E-02 0.  1.
    10030    2    1    2    0    0  0.00000000000E+00  0.00000000000E+00 -0.77141195442E+03  0.39521737969E+04  0.38761580614E+04 0.  0.
        5    1    3    3  502    0  0.63255796396E+03 -0.66818175778E+03  0.13534803408E+04  0.16366207753E+04  0.46999998093E+01 0. -1.
       -5    1    3    3    0  502 -0.63255796396E+03  0.66818175778E+03 -0.21248922952E+04  0.23155530215E+04  0.46999998093E+01 0.  1.
</event>
<event>
 5   0  0.1164500E-08  0.3900709E+04  0.7818609E-02  0.8024882E-01
        1   -1    0    0  501    0  0.00000000000E+00  0.00000000000E+00  0.19072184933E+04  0.19072184933E+04  0.50400001928E-02 0. -1.
       -1   -1    0    0    0  501  0.00000000000E+00  0.00000000000E+00 -0.19944664448E+04  0.19944664448E+04  0.50400001928E-02 0.  1.
    10030    2    1    2    0    0  0.00000000000E+00  0.00000000000E+00 -0.87247951525E+02  0.39016849381E+04  0.39007093139E+04 0.  0.
        4    1    3    3  502    0  0.79716557050E+03 -0.15378637459E+04 -0.94016496943E+03  0.19708905679E+04  0.12699999809E+01 0.  1.
       -4    1    3    3    0  502 -0.79716557050E+03  0.15378637459E+04  0.85291701790E+03  0.19307943703E+04  0.12699999809E+01 0. -1.
</event>
<event>
 5   0  0.1164500E-08  0.3895392E+04  0.7818609E-02  0.8025988E-01
        1   -1    0    0  501    0  0.00000000000E+00  0.00000000000E+00  0.29341951540E+04  0.29341951540E+04  0.50400001928E-02 0.  1.
       -1   -1    0    0    0  501  0.00000000000E+00  0.00000000000E+00 -0.12928653718E+04  0.12928653718E+04  0.50400001928E-02 0. -1.
    10030    2    1    2    0    0  0.00000000000E+00  0.00000000000E+00  0.16413297822E+04  0.42270605258E+04  0.38953917948E+04 0.  0.
        1    1    3    3  502    0 -0.44418418515E+03 -0.10949675074E+03  0.28750661260E+04  0.29112358815E+04  0.50400001928E-02 0.  1.
       -1    1    3    3    0  502  0.44418418515E+03  0.10949675074E+03 -0.12337363438E+04  0.13158246444E+04  0.50400001928E-02 0. -1.
</event>
<event>
 5   0  0.1164500E-08  0.3901300E+04  0.7818609E-02  0.8024759E-01
       -1   -1    0    0    0  501  0.00000000000E+00  0.00000000000E+00  0.29426540265E+04  0.29426540265E+04  0.50400001928E-02 0. -1.
        1   -1    0    0  501    0  0.00000000000E+00  0.00000000000E+00 -0.12930627524E+04  0.12930627525E+04  0.50400001928E-02 0.  1.
    10030    2    1    2    0    0  0.00000000000E+00  0.00000000000E+00  0.16495912740E+04  0.42357167789E+04  0.39013004575E+04 0.  0.
        3    1    3    3  502    0  0.94735947914E+03 -0.53799912659E+03  0.25815494326E+04  0.28020225777E+04  0.10100000352E+00 0. -1.
       -3    1    3    3    0  502 -0.94735947914E+03  0.53799912659E+03 -0.93195815859E+03  0.14336942012E+04  0.10100000352E+00 0.  1.
</event>
<event>
 5   0  0.1164500E-08  0.3900928E+04  0.7818609E-02  0.8024836E-01
        1   -1    0    0  501    0  0.00000000000E+00  0.00000000000E+00  0.12736744306E+04  0.12736744306E+04  0.50400001928E-02 0. -1.
       -1   -1    0    0    0  501  0.00000000000E+00  0.00000000000E+00 -0.29868772664E+04  0.29868772664E+04  0.50400001928E-02 0.  1.
    10030    2    1    2    0    0  0.00000000000E+00  0.00000000000E+00 -0.17132028358E+04  0.42605516970E+04  0.39009276854E+04 0.  0.
        3    1    3    3  502    0  0.12600581236E+04  0.96551345624E+02 -0.24792436434E+04  0.27827536167E+04  0.10100000352E+00 0.  1.
       -3    1    3    3    0  502 -0.12600581236E+04 -0.96551345624E+02  0.76604080760E+03  0.14777980804E+04  0.10100000352E+00 0. -1.
</event>
<event>
 5   0  0.3669347E-08  0.3895160E+04  0.7818609E-02  0.8026037E-01
       -2   -1    0    0    0  501  0.00000000000E+00  0.00000000000E+00  0.16231863650E+04  0.16231863650E+04  0.25500000920E-02 0.  1.
        2   -1    0    0  501    0  0.00000000000E+00  0.00000000000E+00 -0.23368037326E+04  0.23368037326E+04  0.25500000920E-02 0. -1.
    10030    2    1    2    0    0  0.00000000000E+00  0.00000000000E+00 -0.71361736754E+03  0.39599900976E+04  0.38951600514E+04 0.  0.
        5    1    3    3  502    0  0.10680762126E+04  0.12517178967E+04 -0.14160038254E+04  0.21708692758E+04  0.46999998093E+01 0. -1.
       -5    1    3    3    0  502 -0.10680762126E+04 -0.12517178967E+04  0.70238645783E+03  0.17891208218E+04  0.46999998093E+01 0.  1.
</event>
<event>
 5   0  0.3769985E-08  0.3898495E+04  0.7818609E-02  0.8025342E-01
       -2   -1    0    0    0  501  0.00000000000E+00  0.00000000000E+00  0.16777259957E+04  0.16777259957E+04  0.25500000920E-02 0. -1.
        2   -1    0    0  501    0  0.00000000000E+00  0.00000000000E+00 -0.22647114232E+04  0.22647114232E+04  0.25500000920E-02 0.  1.
    10030    2    1    2    0    0  0.00000000000E+00  0.00000000000E+00 -0.58698542759E+03  0.39424374189E+04  0.38984946979E+04 0.  0.
        1    1    3    3  502    0  0.79437480069E+03  0.21058303075E+03  0.14939679298E+04  0.17050855439E+04  0.50400001928E-02 0. -1.
       -1    1    3    3    0  502 -0.79437480069E+03 -0.21058303075E+03 -0.20809533574E+04  0.22373518750E+04  0.50400001928E-02 0.  1.
</event>
<event>
 5   0  0.1164500E-08  0.3898793E+04  0.7818609E-02  0.8025280E-01
        1   -1    0    0  501    0  0.00000000000E+00  0.00000000000E+00  0.32705479384E+04  0.32705479384E+04  0.50400001928E-02 0. -1.
       -1   -1    0    0    0  501  0.00000000000E+00  0.00000000000E+00 -0.11619296828E+04  0.11619296828E+04  0.50400001928E-02 0.  1.
    10030    2    1    2    0    0  0.00000000000E+00  0.00000000000E+00  0.21086182556E+04  0.44324776212E+04  0.38987930074E+04 0.  0.
        4    1    3    3  502    0 -0.66533842352E+03 -0.47629855525E+03 -0.95724085509E+03  0.12593042520E+04  0.12699999809E+01 0.  1.
       -4    1    3    3    0  502  0.66533842352E+03  0.47629855525E+03  0.30658591107E+04  0.31731733692E+04  0.12699999809E+01 0. -1.
</event>
<event>
 5   0  0.1164500E-08  0.3901448E+04  0.7818609E-02  0.8024728E-01
        1   -1    0    0  501    0  0.00000000000E+00  0.00000000000E+00  0.27311745844E+04  0.27311745844E+04  0.50400001928E-02 0.  1.
       -1   -1    0    0    0  501  0.00000000000E+00  0.00000000000E+00 -0.13932919550E+04  0.13932919550E+04  0.50400001928E-02 0. -1.
    10030    2    1    2    0    0  0.00000000000E+00  0.00000000000E+00  0.13378826294E+04  0.41244665393E+04  0.39014477190E+04 0.  0.
        5    1    3    3  502    0  0.16575605732E+04 -0.96646524611E+03  0.29706721972E+03  0.19416058171E+04  0.46999998093E+01 0. -1.
       -5    1    3    3    0  502 -0.16575605732E+04  0.96646524611E+03  0.10408154097E+04  0.21828607223E+04  0.46999998093E+01 0.  1.
</event>
<event>
 5   0  0.3669347E-08  0.3911303E+04  0.7818609E-02  0.8022682E-01
       -2   -1    0    0    0  501  0.00000000000E+00  0.00000000000E+00  0.16014780981E+04  0.16014780981E+04  0.25500000920E-02 0.  1.
        2   -1    0    0  501    0  0.00000000000E+00  0.00000000000E+00 -0.23881521690E+04  0.23881521690E+04  0.25500000920E-02 0. -1.
    10030    2    1    2    0    0  0.00000000000E+00  0.00000000000E+00 -0.78667407092E+03  0.39896302671E+04  0.39113033089E+04 0.  0.
        5    1    3    3  502    0  0.23198382747E+03  0.19417392086E+04 -0.41331634340E+03  0.19987546474E+04  0.46999998093E+01 0. -1.
       -5    1    3    3    0  502 -0.23198382747E+03 -0.19417392086E+04 -0.37335772751E+03  0.19908756197E+04  0.46999998093E+01 0.  1.
</event>
<event>
 5   0  0.1164500E-08  0.3900870E+04  0.7818609E-02  0.8024848E-01
       -1   -1    0    0    0  501  0.00000000000E+00  0.00000000000E+00  0.17150936483E+04  0.17150936483E+04  0.50400001928E-02 0.  1.
        1   -1    0    0  501    0  0.00000000000E+00  0.00000000000E+00 -0.22180699367E+04  0.22180699367E+04  0.50400001928E-02 0. -1.
    10030    2    1    2    0    0  0.00000000000E+00  0.00000000000E+00 -0.50297628846E+03  0.39331635850E+04  0.39008704977E+04 0.  0.
        5    1    3    3  502    0 -0.50966039830E+02 -0.10314375297E+04  0.14168134595E+04  0.17532379713E+04  0.46999998093E+01 0.  1.
       -5    1    3    3    0  502  0.50966039830E+02  0.10314375297E+04 -0.19197897480E+04  0.21799256137E+04  0.46999998093E+01 0. -1.
</event>
<event>
 5   0  0.1164500E-08  0.3898728E+04  0.7818609E-02  0.8025294E-01
       -1   -1    0    0    0  501  0.00000000000E+00  0.00000000000E+00  0.12449443220E+04  0.12449443221E+04  0.50400001928E-02 0.  1.
        1   -1    0    0  501    0  0.00000000000E+00  0.00000000000E+00 -0.30523620903E+04  0.30523620903E+04  0.50400001928E-02 0. -1.
    10030    2    1    2    0    0  0.00000000000E+00  0.00000000000E+00 -0.18074177682E+04  0.42973064123E+04  0.38987284353E+04 0.  0.
        3    1    3    3  502    0 -0.15699833518E+03 -0.19418904703E+04 -0.83031501588E+03  0.21177842458E+04  0.10100000352E+00 0. -1.
       -3    1    3    3    0  502  0.15699833518E+03  0.19418904703E+04 -0.97710275235E+03  0.21795221666E+04  0.10100000352E+00 0.  1.
</event>
<event>
 5   0  0.3724293E-08  0.3890930E+04  0.7818609E-02  0.8026918E-01
        2   -1    0    0  501    0  0.00000000000E+00  0.00000000000E+00  0.21426146188E+04  0.21426146188E+04  0.25500000920E-02 0. -1.
       -2   -1    0    0    0  501  0.00000000000E+00  0.00000000000E+00 -0.17664560874E+04  0.17664560874E+04  0.25500000920E-02 0.  1.
    10030    2    1    2    0    0  0.00000000000E+00  0.00000000000E+00  0.37615853137E+03  0.39090707061E+04  0.38909302930E+04 0.  0.
        4    1    3    3  502    0 -0.17430053435E+04  0.18008112635E+03 -0.66104528967E+03  0.18728265610E+04  0.12699999809E+01 0. -1.
       -4    1    3    3    0  502  0.17430053435E+04 -0.18008112635E+03  0.10372038210E+04  0.20362441452E+04  0.12699999809E+01 0.  1.
</event>
<event>
 5   0  0.3872969E-08  0.3903294E+04  0.7818609E-02  0.8024344E-01
       -2   -1    0    0    0  501  0.00000000000E+00  0.00000000000E+00  0.12977658220E+04  0.12977658220E+04  0.25500000920E-02 0.  1.
        2   -1    0    0  501    0  0.00000000000E+00  0.00000000000E+00 -0.29349870149E+04  0.29349870149E+04  0.25500000920E-02 0. -1.
    10030    2    1    2    0    0  0.00000000000E+00  0.00000000000E+00 -0.16372211929E+04  0.42327528368E+04  0.39032939094E+04 0.  0.
        2    1    3    3  502    0 -0.10067387099E+04 -0.12294482143E+03 -0.26267691705E+04  0.28157689064E+04  0.25500000920E-02 0. -1.
       -2    1    3    3    0  502  0.10067387099E+04  0.12294482143E+03  0.98954797761E+03  0.14169839304E+04  0.25500000920E-02 0.  1.
</event>
<event>
 5   0  0.1164500E-08  0.3909770E+04  0.7818609E-02  0.8023000E-01
        1   -1    0    0  501    0  0.00000000000E+00  0.00000000000E+00  0.14994456735E+04  0.14994456735E+04  0.50400001928E-02 0.  1.
       -1   -1    0    0    0  501  0.00000000000E+00  0.00000000000E+00 -0.25486593292E+04  0.25486593292E+04  0.50400001928E-02 0. -1.
    10030    2    1    2    0    0  0.00000000000E+00  0.00000000000E+00 -0.10492136556E+04  0.40481050027E+04  0.39097704303E+04 0.  0.
        2    1    3    3  502    0 -0.14084139736E+04 -0.43143453888E+03  0.80609460785E+03  0.16791528219E+04  0.25500000920E-02 0.  1.
       -2    1    3    3    0  502  0.14084139736E+04  0.43143453888E+03 -0.18553082635E+04  0.23689521808E+04  0.25500000920E-02 0. -1.
</event>
<event>
 5   0  0.3872969E-08  0.3892285E+04  0.7818609E-02  0.8026636E-01
        2   -1    0    0  501    0  0.00000000000E+00  0.00000000000E+00  0.13880467012E+04  0.13880467012E+04  0.25500000920E-02 0.  1.
       -2   -1    0    0    0  501  0.00000000000E+00  0.00000000000E+00 -0.27286335499E+04  0.27286335499E+04  0.25500000920E-02 0. -1.
    10030    2    1    2    0    0  0.00000000000E+00  0.00000000000E+00 -0.13405868488E+04  0.41166802511E+04  0.38922850860E+04 0.  0.
        2    1    3    3  502    0 -0.11315494786E+04 -0.45506753371E+03 -0.22742940540E+04  0.25806790050E+04  0.25500000920E-02 0. -1.
       -2    1    3    3    0  502  0.11315494786E+04  0.45506753371E+03  0.93370720526E+03  0.15360012461E+04  0.25500000920E-02 0.  1.
</event>
<event>
 5   0  0.1164500E-08  0.3903972E+04  0.7818609E-02  0.8024204E-01
        1   -1    0    0  501    0  0.00000000000E+00  0.00000000000E+00  0.17832766148E+04  0.17832766148E+04  0.50400001928E-02 0. -1.
       -1   -1    0    0    0  501  0.00000000000E+00  0.00000000000E+00 -0.21366563227E+04  0.21366563227E+04  0.50400001928E-02 0.  1.
    10030    2    1    2    0    0  0.00000000000E+00  0.00000000000E+00 -0.35337970796E+03  0.39199329375E+04  0.39039719539E+04 0.  0.
        2    1    3    3  502    0 -0.22536828230E+03  0.17213598460E+04  0.71935914370E+03  0.18791881651E+04  0.25500000920E-02 0. -1.
       -2    1    3    3    0  502  0.22536828230E+03 -0.17213598460E+04 -0.10727388517E+04  0.20407447724E+04  0.25500000920E-02 0.  1.
</event>
<event>
 5   0  0.1164500E-08  0.3900648E+04  0.7818609E-02  0.8024894E-01
        1   -1    0    0  501    0  0.00000000000E+00  0.00000000000E+00  0.31069356370E+04  0.31069356370E+04  0.50400001928E-02 0. -1.
       -1   -1    0    0    0  501  0.00000000000E+00  0.00000000000E+00 -0.12242817622E+04  0.12242817622E+04  0.50400001928E-02 0.  1.
    10030    2    1    2    0    0  0.00000000000E+00  0.00000000000E+00  0.18826538748E+04  0.43312173992E+04  0.39006484777E+04 0.  0.
        3    1    3    3  502    0 -0.11297145163E+04 -0.65868405887E+03 -0.66533570720E+03  0.14672393095E+04  0.10100000352E+00 0.  1.
       -3    1    3    3    0  502  0.11297145163E+04  0.65868405887E+03  0.25479895820E+04  0.28639780897E+04  0.10100000352E+00 0. -1.
</event>
<event>
 5   0  0.3872969E-08  0.3898445E+04  0.7818609E-02  0.8025353E-01
        2   -1    0    0  501    0  0.00000000000E+00  0.00000000000E+00  0.18736913135E+04  0.18736913135E+04  0.25500000920E-02 0. -1.
       -2   -1    0    0    0  501  0.00000000000E+00  0.00000000000E+00 -0.20277982518E+04  0.20277982518E+04  0.25500000920E-02 0.  1.
    10030    2    1    2    0    0  0.00000000000E+00  0.00000000000E+00 -0.15410693830E+03  0.39014895654E+04  0.38984448028E+04 0.  0.
        2    1    3    3  502    0 -0.16577763063E+04  0.91137235659E+03  0.39304323209E+03  0.19321761919E+04  0.25500000920E-02 0. -1.
       -2    1    3    3    0  502  0.16577763063E+04 -0.91137235659E+03 -0.54715017039E+03  0.19693133735E+04  0.25500000920E-02 0.  1.
</event>
<event>
 5   0  0.3724293E-08  0.3905009E+04  0.7818609E-02  0.8023988E-01
        2   -1    0    0  501    0  0.00000000000E+00  0.00000000000E+00  0.24889868064E+04  0.24889868064E+04  0.25500000920E-02 0.  1.
       -2   -1    0    0    0  501  0.00000000000E+00  0.00000000000E+00 -0.15316570073E+04  0.15316570073E+04  0.25500000920E-02 0. -1.
    10030    2    1    2    0    0  0.00000000000E+00  0.00000000000E+00  0.95732979905E+03  0.40206438137E+04  0.39050091335E+04 0.  0.
        4    1    3    3  502    0 -0.12682114046E+03  0.81055806493E+03 -0.13455750703E+04  0.15759637879E+04  0.12699999809E+01 0. -1.
       -4    1    3    3    0  502  0.12682114046E+03 -0.81055806493E+03  0.23029048693E+04  0.24446800257E+04  0.12699999809E+01 0.  1.
</event>
<event>
 5   0  0.3769985E-08  0.3899824E+04  0.7818609E-02  0.8025066E-01
       -2   -1    0    0    0  501  0.00000000000E+00  0.00000000000E+00  0.19405765888E+04  0.19405765888E+04  0.25500000920E-02 0. -1.
        2   -1    0    0  501    0  0.00000000000E+00  0.00000000000E+00 -0.19592923180E+04  0.19592923180E+04  0.25500000920E-02 0.  1.
    10030    2    1    2    0    0  0.00000000000E+00  0.00000000000E+00 -0.18715729257E+02  0.38998689068E+04  0.38998239975E+04 0.  0.
        1    1    3    3  502    0 -0.12829588715E+04  0.11759846878E+04  0.86998914298E+03  0.19457144088E+04  0.50400001928E-02 0. -1.
       -1    1    3    3    0  502  0.12829588715E+04 -0.11759846878E+04 -0.88870487224E+03  0.19541544979E+04  0.50400001928E-02 0.  1.
</event>
<event>
 5   0  0.3769985E-08  0.3898979E+04  0.7818609E-02  0.8025242E-01
       -2   -1    0    0    0  501  0.00000000000E+00  0.00000000000E+00  0.23243641740E+04  0.23243641740E+04  0.25500000920E-02 0. -1.
        2   -1    0    0  501    0  0.00000000000E+00  0.00000000000E+00 -0.16350744868E+04  0.16350744868E+04  0.25500000920E-02 0.  1.
    10030    2    1    2    0    0  0.00000000000E+00  0.00000000000E+00  0.68928968720E+03  0.39594386608E+04  0.38989786144E+04 0.  0.
        1    1    3    3  502    0  0.19216238920E+04 -0.29784094984E+03  0.20407530080E+03  0.19552478978E+04  0.50400001928E-02 0.  1.
       -1    1    3    3    0  502 -0.19216238920E+04  0.29784094984E+03  0.48521438641E+03  0.20041907630E+04  0.50400001928E-02 0. -1.
</event>
<event>
 5   0  0.1164500E-08  0.3883461E+04  0.7818609E-02  0.8028478E-01
        1   -1    0    0  501    0  0.00000000000E+00  0.00000000000E+00  0.11787673277E+04  0.11787673277E+04  0.50400001928E-02 0. -1.
       -1   -1    0    0    0  501  0.00000000000E+00  0.00000000000E+00 -0.31985254529E+04  0.31985254529E+04  0.50400001928E-02 0.  1.
    10030    2    1    2    0    0  0.00000000000E+00  0.00000000000E+00 -0.20197581252E+04  0.43772927807E+04  0.38834609826E+04 0.  0.
        2    1    3    3  502    0 -0.24316550400E+03 -0.14467412295E+04  0.42393567412E+03  0.15270596266E+04  0.25500000920E-02 0. -1.
       -2    1    3    3    0  502  0.24316550400E+03  0.14467412295E+04 -0.24436937993E+04  0.28502331540E+04  0.25500000920E-02 0.  1.
</event>
<event>
 5   0  0.1164500E-08  0.3904153E+04  0.7818609E-02  0.8024166E-01
       -1   -1    0    0    0  501  0.00000000000E+00  0.00000000000E+00  0.21804966091E+04  0.21804966091E+04  0.50400001928E-02 0. -1.
        1   -1    0    0  501    0  0.00000000000E+00  0.00000000000E+00 -0.17475849630E+04  0.17475849630E+04  0.50400001928E-02 0.  1.
    10030    2    1    2    0    0  0.00000000000E+00  0.00000000000E+00  0.43291164610E+03  0.39280815721E+04  0.39041532172E+04 0.  0.
        2    1    3    3  502    0  0.16349762255E+03 -0.83961019284E+03  0.19818971723E+04  0.21586090776E+04  0.25500000920E-02 0. -1.
       -2    1    3    3    0  502 -0.16349762255E+03  0.83961019284E+03 -0.15489855262E+04  0.17694724945E+04  0.25500000920E-02 0.  1.
</event>
<event>
 5   0  0.3769985E-08  0.3894339E+04  0.7818609E-02  0.8026208E-01
       -2   -1    0    0    0  501  0.00000000000E+00  0.00000000000E+00  0.14401233843E+04  0.14401233843E+04  0.25500000920E-02 0.  1.
        2   -1    0    0  501    0  0.00000000000E+00  0.00000000000E+00 -0.26327390061E+04  0.26327390061E+04  0.25500000920E-02 0. -1.
    10030    2    1    2    0    0  0.00000000000E+00  0.00000000000E+00 -0.11926156218E+04  0.40728623905E+04  0.38943389722E+04 0.  0.
        1    1    3    3  502    0  0.96866540956E+03 -0.14692877707E+04  0.27516759785E+03  0.17812457539E+04  0.50400001928E-02 0. -1.
       -1    1    3    3    0  502 -0.96866540956E+03  0.14692877707E+04 -0.14677832196E+04  0.22916166365E+04  0.50400001928E-02 0.  1.
</event>
<event>
 5   0  0.3669347E-08  0.3898224E+04  0.7818609E-02  0.8025399E-01
       -2   -1    0    0    0  501  0.00000000000E+00  0.00000000000E+00  0.17547947033E+04  0.17547947033E+04  0.25500000920E-02 0.  1.
        2   -1    0    0  501    0  0.00000000000E+00  0.00000000000E+00 -0.21649474343E+04  0.21649474343E+04  0.25500000920E-02 0. -1.
    10030    2    1    2    0    0  0.00000000000E+00  0.00000000000E+00 -0.41015273101E+03  0.39197421376E+04  0.38982243602E+04 0.  0.
        5    1    3    3  502    0 -0.50277503321E+03  0.31533902756E+03 -0.20718788872E+04  0.21552089573E+04  0.46999998093E+01 0. -1.
       -5    1    3    3    0  502  0.50277503321E+03 -0.31533902756E+03  0.16617261562E+04  0.17645331803E+04  0.46999998093E+01 0.  1.
</event>
<event>
 5   0  0.3724293E-08  0.3876451E+04  0.7818609E-02  0.8029945E-01
        2   -1    0    0  501    0  0.00000000000E+00  0.00000000000E+00  0.19259187149E+04  0.19259187149E+04  0.25500000920E-02 0. -1.
       -2   -1    0    0    0  501  0.00000000000E+00  0.00000000000E+00 -0.19506109071E+04  0.19506109071E+04  0.25500000920E-02 0.  1.
    10030    2    1    2    0    0  0.00000000000E+00  0.00000000000E+00 -0.24692192172E+02  0.38765296219E+04  0.38764509807E+04 0.  0.
        4    1    3    3  502    0  0.90306114376E+03  0.17149446208E+04  0.38037941023E+00  0.19381837476E+04  0.12699999809E+01 0. -1.
       -4    1    3    3    0  502 -0.90306114376E+03 -0.17149446208E+04 -0.25072571582E+02  0.19383458743E+04  0.12699999809E+01 0.  1.
</event>
<event>
 5   0  0.1164500E-08  0.3899071E+04  0.7818609E-02  0.8025222E-01
       -1   -1    0    0    0  501  0.00000000000E+00  0.00000000000E+00  0.24271026756E+04  0.24271026756E+04  0.50400001928E-02 0. -1.
        1   -1    0    0  501    0  0.00000000000E+00  0.00000000000E+00 -0.15659367580E+04  0.15659367580E+04  0.50400001928E-02 0.  1.
    10030    2    1    2    0    0  0.00000000000E+00  0.00000000000E+00  0.86116591761E+03  0.39930394336E+04  0.38990713228E+04 0.  0.
        3    1    3    3  502    0 -0.15860698020E+04 -0.25412101449E+03 -0.70080176697E+03  0.17525176272E+04  0.10100000352E+00 0.  1.
       -3    1    3    3    0  502  0.15860698020E+04  0.25412101449E+03  0.15619676846E+04  0.22405218064E+04  0.10100000352E+00 0. -1.
</event>
<event>
 5   0  0.3690572E-08  0.3867752E+04  0.7818609E-02  0.8031770E-01
       -2   -1    0    0    0  501  0.00000000000E+00  0.00000000000E+00  0.13999017837E+04  0.13999017837E+04  0.25500000920E-02 0. -1.
        2   -1    0    0  501    0  0.00000000000E+00  0.00000000000E+00 -0.26715272713E+04  0.26715272713E+04  0.25500000920E-02 0.  1.
    10030    2    1    2    0    0  0.00000000000E+00  0.00000000000E+00 -0.12716254876E+04  0.40714290550E+04  0.38677516943E+04 0.  0.
        3    1    3    3  502    0  0.14868111691E+03 -0.18933256476E+04 -0.10198357524E+04  0.21556560613E+04  0.10100000352E+00 0.  1.
       -3    1    3    3    0  502 -0.14868111691E+03  0.18933256476E+04 -0.25178973518E+03  0.19157729937E+04  0.10100000352E+00 0. -1.
</event>
<event>
 5   0  0.3769985E-08  0.3893064E+04  0.7818609E-02  0.8026473E-01
        2   -1    0    0  501    0  0.00000000000E+00  0.00000000000E+00  0.25452071272E+04  0.25452071272E+04  0.25500000920E-02 0. -1.
       -2   -1    0    0    0  501  0.00000000000E+00  0.00000000000E+00 -0.14886752673E+04  0.14886752673E+04  0.25500000920E-02 0.  1.
    10030    2    1    2    0    0  0.00000000000E+00  0.00000000000E+00  0.10565318600E+04  0.40338823945E+04  0.38930640377E+04 0.  0.
        1    1    3    3  502    0 -0.70489077788E+03 -0.51275792613E+03  0.23316794240E+04  0.24892811484E+04  0.50400001928E-02 0. -1.
       -1    1    3    3    0  502  0.70489077788E+03  0.51275792613E+03 -0.12751475640E+04  0.15446012461E+04  0.50400001928E-02 0.  1.
</event>
<event>
 5   0  0.1164500E-08  0.3825058E+04  0.7818609E-02  0.8040799E-01
       -1   -1    0    0    0  501  0.00000000000E+00  0.00000000000E+00  0.28154600945E+04  0.28154600945E+04  0.50400001928E-02 0.  1.
        1   -1    0    0  501    0  0.00000000000E+00  0.00000000000E+00 -0.12991724226E+04  0.12991724226E+04  0.50400001928E-02 0. -1.
    10030    2    1    2    0    0  0.00000000000E+00  0.00000000000E+00  0.15162876719E+04  0.41146325171E+04  0.38250584894E+04 0.  0.
        4    1    3    3  502    0 -0.20418945019E+03 -0.50137100080E+03  0.27313213883E+04  0.27844540491E+04  0.12699999809E+01 0.  1.
       -4    1    3    3    0  502  0.20418945019E+03  0.50137100080E+03 -0.12150337164E+04  0.13301784681E+04  0.12699999809E+01 0. -1.
</event>
<event>
 5   0  0.3690572E-08  0.3896157E+04  0.7818609E-02  0.8025829E-01
       -2   -1    0    0    0  501  0.00000000000E+00  0.00000000000E+00  0.14670239316E+04  0.14670239316E+04  0.25500000920E-02 0. -1.
        2   -1    0    0  501    0  0.00000000000E+00  0.00000000000E+00 -0.25868765052E+04  0.25868765052E+04  0.25500000920E-02 0.  1.
    10030    2    1    2    0    0  0.00000000000E+00  0.00000000000E+00 -0.11198525736E+04  0.40539004367E+04  0.38961569481E+04 0.  0.
        3    1    3    3  502    0  0.14254856875E+04 -0.16605224846E+03 -0.19306180473E+04  0.24055911642E+04  0.10100000352E+00 0.  1.
       -3    1    3    3    0  502 -0.14254856875E+04  0.16605224846E+03  0.81076547370E+03  0.16483092725E+04  0.10100000352E+00 0. -1.
</event>
<event>
 5   0  0.3769985E-08  0.3880882E+04  0.7818609E-02  0.8029017E-01
        2   -1    0    0  501    0  0.00000000000E+00  0.00000000000E+00  0.19562203253E+04  0.19562203253E+04  0.25500000920E-02 0.  1.
       -2   -1    0    0    0  501  0.00000000000E+00  0.00000000000E+00 -0.19247890308E+04  0.19247890308E+04  0.25500000920E-02 0. -1.
    10030    2    1    2    0    0  0.00000000000E+00  0.00000000000E+00  0.31431294496E+02  0.38810093561E+04  0.38808820770E+04 0.  0.
        1    1    3    3  502    0 -0.68293158804E+02 -0.14141300763E+04 -0.13113107651E+04  0.19297574331E+04  0.50400001928E-02 0. -1.
       -1    1    3    3    0  502  0.68293158804E+02  0.14141300763E+04  0.13427420596E+04  0.19512519229E+04  0.50400001928E-02 0.  1.
</event>
<event>
 5   0  0.1164500E-08  0.3875508E+04  0.7818609E-02  0.8030142E-01
        1   -1    0    0  501    0  0.00000000000E+00  0.00000000000E+00  0.22050837045E+04  0.22050837045E+04  0.50400001928E-02 0. -1.
       -1   -1    0    0    0  501  0.00000000000E+00  0.00000000000E+00 -0.17028335220E+04  0.17028335220E+04  0.50400001928E-02 0.  1.
    10030    2    1    2    0    0  0.00000000000E+00  0.00000000000E+00  0.50225018248E+03  0.39079172265E+04  0.38755079414E+04 0.  0.
        2    1    3    3  502    0  0.38409346394E+02 -0.58834543387E+03 -0.16101890206E+04  0.17147403038E+04  0.25500000920E-02 0.  1.
       -2    1    3    3    0  502 -0.38409346394E+02  0.58834543387E+03  0.21124392031E+04  0.21931769227E+04  0.25500000920E-02 0. -1.
</event>
<event>
 5   0  0.3669347E-08  0.3875530E+04  0.7818609E-02  0.8030138E-01
        2   -1    0    0  501    0  0.00000000000E+00  0.00000000000E+00  0.21705919176E+04  0.21705919176E+04  0.25500000920E-02 0. -1.
       -2   -1    0    0    0  501  0.00000000000E+00  0.00000000000E+00 -0.17299122313E+04  0.17299122313E+04  0.25500000920E-02 0.  1.
    10030    2    1    2    0    0  0.00000000000E+00  0.00000000000E+00  0.44067968634E+03  0.39005041489E+04  0.38755301611E+04 0.  0.
        5    1    3    3  502    0  0.17100420061E+04  0.11116153638E+03  0.11307745026E+04  0.20531131521E+04  0.46999998093E+01 0. -1.
       -5    1    3    3    0  502 -0.17100420061E+04 -0.11116153638E+03 -0.69009481621E+03  0.18473909968E+04  0.46999998093E+01 0.  1.
</event>
<event>
 5   0  0.1164500E-08  0.3901218E+04  0.7818609E-02  0.8024776E-01
        1   -1    0    0  501    0  0.00000000000E+00  0.00000000000E+00  0.24116051969E+04  0.24116051969E+04  0.50400001928E-02 0. -1.
       -1   -1    0    0    0  501  0.00000000000E+00  0.00000000000E+00 -0.15777354543E+04  0.15777354543E+04  0.50400001928E-02 0.  1.
    10030    2    1    2    0    0  0.00000000000E+00  0.00000000000E+00  0.83386974265E+03  0.39893406512E+04  0.39012177693E+04 0.  0.
        3    1    3    3  502    0  0.28029588025E+03  0.14451405585E+04  0.17256396947E+04  0.22682216339E+04  0.10100000352E+00 0. -1.
       -3    1    3    3    0  502 -0.28029588025E+03 -0.14451405585E+04 -0.89176995208E+03  0.17211190173E+04  0.10100000352E+00 0.  1.
</event>
<event>
 5   0  0.3769985E-08  0.3900897E+04  0.7818609E-02  0.8024843E-01
       -2   -1    0    0    0  501  0.00000000000E+00  0.00000000000E+00  0.13322608484E+04  0.13322608484E+04  0.25500000920E-02 0. -1.
        2   -1    0    0  501    0  0.00000000000E+00  0.00000000000E+00 -0.28554845068E+04  0.28554845068E+04  0.25500000920E-02 0.  1.
    10030    2    1    2    0    0  0.00000000000E+00  0.00000000000E+00 -0.15232236584E+04  0.41877453552E+04  0.39008974411E+04 0.  0.
        1    1    3    3  502    0  0.15094420452E+04  0.46026017119E+03  0.46897615991E+03  0.16462664886E+04  0.50400001928E-02 0. -1.
       -1    1    3    3    0  502 -0.15094420452E+04 -0.46026017119E+03 -0.19921998183E+04  0.25414788666E+04  0.50400001928E-02 0.  1.
</event>
<event>
 5   0  0.3872969E-08  0.3891909E+04  0.7818609E-02  0.8026714E-01
        2   -1    0    0  501    0  0.00000000000E+00  0.00000000000E+00  0.18928341490E+04  0.18928341490E+04  0.25500000920E-02 0. -1.
       -2   -1    0    0    0  501  0.00000000000E+00  0.00000000000E+00 -0.20005655066E+04  0.20005655066E+04  0.25500000920E-02 0.  1.
    10030    2    1    2    0    0  0.00000000000E+00  0.00000000000E+00 -0.10773135763E+03  0.38933996556E+04  0.38919088932E+04 0.  0.
        2    1    3    3  502    0  0.91238588873E+03  0.60113187023E+03 -0.16647405819E+04  0.19912731456E+04  0.25500000920E-02 0.  1.
       -2    1    3    3    0  502 -0.91238588873E+03 -0.60113187023E+03  0.15570092243E+04  0.19021265100E+04  0.25500000920E-02 0. -1.
</event>
<event>
 5   0  0.1164500E-08  0.3898560E+04  0.7818609E-02  0.8025329E-01
        1   -1    0    0  501    0  0.00000000000E+00  0.00000000000E+00  0.17695173950E+04  0.17695173950E+04  0.50400001928E-02 0.  1.
       -1   -1    0    0    0  501  0.00000000000E+00  0.00000000000E+00 -0.21473040975E+04  0.21473040975E+04  0.50400001928E-02 0. -1.
    10030    2    1    2    0    0  0.00000000000E+00  0.00000000000E+00 -0.37778670255E+03  0.39168214925E+04  0.38985597098E+04 0.  0.
        5    1    3    3  502    0 -0.23200494012E+03  0.15612415664E+04  0.96030396350E+03  0.18475679455E+04  0.46999998093E+01 0.  1.
       -5    1    3    3    0  502  0.23200494012E+03 -0.15612415664E+04 -0.13380906660E+04  0.20692535469E+04  0.46999998093E+01 0. -1.
</event>
<event>
 5   0  0.3690572E-08  0.3898808E+04  0.7818609E-02  0.8025277E-01
       -2   -1    0    0    0  501  0.00000000000E+00  0.00000000000E+00  0.12722177199E+04  0.12722177199E+04  0.25500000920E-02 0. -1.
        2   -1    0    0  501    0  0.00000000000E+00  0.00000000000E+00 -0.29870478250E+04  0.29870478250E+04  0.25500000920E-02 0.  1.
    10030    2    1    2    0    0  0.00000000000E+00  0.00000000000E+00 -0.17148301051E+04  0.42592655449E+04  0.38988075988E+04 0.  0.
        3    1    3    3  502    0 -0.34241168202E+03 -0.14525130214E+04 -0.22276213368E+04  0.26812938421E+04  0.10100000352E+00 0.  1.
       -3    1    3    3    0  502  0.34241168202E+03  0.14525130214E+04  0.51279123163E+03  0.15779717028E+04  0.10100000352E+00 0. -1.
</event>
<event>
 5   0  0.3669347E-08  0.3899661E+04  0.7818609E-02  0.8025100E-01
       -2   -1    0    0    0  501  0.00000000000E+00  0.00000000000E+00  0.18812710602E+04  0.18812710602E+04  0.25500000920E-02 0. -1.
        2   -1    0    0  501    0  0.00000000000E+00  0.00000000000E+00 -0.20208882538E+04  0.20208882538E+04  0.25500000920E-02 0.  1.
    10030    2    1    2    0    0  0.00000000000E+00  0.00000000000E+00 -0.13961719356E+03  0.39021593140E+04  0.38996607995E+04 0.  0.
        5    1    3    3  502    0 -0.85287684897E+03  0.17325809652E+04  0.19977221178E+03  0.19414341985E+04  0.46999998093E+01 0. -1.
       -5    1    3    3    0  502  0.85287684897E+03 -0.17325809652E+04 -0.33938940534E+03  0.19607251156E+04  0.46999998093E+01 0.  1.
</event>
<event>
 5   0  0.3769985E-08  0.3932023E+04  0.7818609E-02  0.8018402E-01
       -2   -1    0    0    0  501  0.00000000000E+00  0.00000000000E+00  0.16220191225E+04  0.16220191225E+04  0.25500000920E-02 0. -1.
        2   -1    0    0  501    0  0.00000000000E+00  0.00000000000E+00 -0.23829560859E+04  0.23829560859E+04  0.25500000920E-02 0.  1.
    10030    2    1    2    0    0  0.00000000000E+00  0.00000000000E+00 -0.76093696337E+03  0.40049752084E+04  0.39320225530E+04 0.  0.
        1    1    3    3  502    0  0.17353871764E+02 -0.17833863920E+04  0.46218503122E+03  0.18423851886E+04  0.50400001928E-02 0. -1.
       -1    1    3    3    0  502 -0.17353871764E+02  0.17833863920E+04 -0.12231219946E+04  0.21625900198E+04  0.50400001928E-02 0.  1.
</event>
<event>
 5   0  0.1164500E-08  0.3887411E+04  0.7818609E-02  0.8027653E-01
        1   -1    0    0  501    0  0.00000000000E+00  0.00000000000E+00  0.18108818624E+04  0.18108818624E+04  0.50400001928E-02 0. -1.
       -1   -1    0    0    0  501  0.00000000000E+00  0.00000000000E+00 -0.20862718085E+04  0.20862718085E+04  0.50400001928E-02 0.  1.
    10030    2    1    2    0    0  0.00000000000E+00  0.00000000000E+00 -0.27538994607E+03  0.38971536709E+04  0.38874113639E+04 0.  0.
        1    1    3    3  502    0  0.11404808842E+04 -0.14747819403E+04 -0.68890321237E+03  0.19875276237E+04  0.50400001928E-02 0. -1.
       -1    1    3    3    0  502 -0.11404808842E+04  0.14747819403E+04  0.41351326630E+03  0.19096260472E+04  0.50400001928E-02 0.  1.
</event>
<event>
 5   0  0.3690572E-08  0.3903530E+04  0.7818609E-02  0.8024295E-01
       -2   -1    0    0    0  501  0.00000000000E+00  0.00000000000E+00  0.28078120310E+04  0.28078120310E+04  0.25500000920E-02 0. -1.
        2   -1    0    0  501    0  0.00000000000E+00  0.00000000000E+00 -0.13567099752E+04  0.13567099752E+04  0.25500000920E-02 0.  1.
    10030    2    1    2    0    0  0.00000000000E+00  0.00000000000E+00  0.14511020558E+04  0.41645220062E+04  0.39035299876E+04 0.  0.
        3    1    3    3  502    0 -0.63651604296E+03 -0.97397951759E+03 -0.94625643561E+03  0.14997299843E+04  0.10100000352E+00 0.  1.
       -3    1    3    3    0  502  0.63651604296E+03  0.97397951759E+03  0.23973584914E+04  0.26647920219E+04  0.10100000352E+00 0. -1.
</event>
<event>
 5   0  0.3724293E-08  0.3904459E+04  0.7818609E-02  0.8024103E-01
        2   -1    0    0  501    0  0.00000000000E+00  0.00000000000E+00  0.20365625398E+04  0.20365625398E+04  0.25500000920E-02 0.  1.
       -2   -1    0    0    0  501  0.00000000000E+00  0.00000000000E+00 -0.18713883650E+04  0.18713883650E+04  0.25500000920E-02 0. -1.
    10030    2    1    2    0    0  0.00000000000E+00  0.00000000000E+00  0.16517417483E+03  0.39079509048E+04  0.39044587034E+04 0.  0.
        4    1    3    3  502    0 -0.11275197706E+04 -0.11760327962E+04 -0.99394167556E+03  0.19084746889E+04  0.12699999809E+01 0. -1.
       -4    1    3    3    0  502  0.11275197706E+04  0.11760327962E+04  0.11591158504E+04  0.19994762160E+04  0.12699999809E+01 0.  1.
</event>
<event>
 5   0  0.3872969E-08  0.3893134E+04  0.7818609E-02  0.8026459E-01
       -2   -1    0    0    0  501  0.00000000000E+00  0.00000000000E+00  0.16266917182E+04  0.16266917182E+04  0.25500000920E-02 0.  1.
        2   -1    0    0  501    0  0.00000000000E+00  0.00000000000E+00 -0.23293432641E+04  0.23293432641E+04  0.25500000920E-02 0. -1.
    10030    2    1    2    0    0  0.00000000000E+00  0.00000000000E+00 -0.70265154588E+03  0.39560349822E+04  0.38931341597E+04 0.  0.
        2    1    3    3  502    0  0.15842048069E+04  0.49473757013E+03  0.68228771786E+03  0.17944321284E+04  0.25500000920E-02 0.  1.
       -2    1    3    3    0  502 -0.15842048069E+04 -0.49473757013E+03 -0.13849392637E+04  0.21616028538E+04  0.25500000920E-02 0. -1.
</event>
<event>
 5   0  0.3724293E-08  0.3899583E+04  0.7818609E-02  0.8025116E-01
        2   -1    0    0  501    0  0.00000000000E+00  0.00000000000E+00  0.15010551552E+04  0.15010551552E+04  0.25500000920E-02 0. -1.
       -2   -1    0    0    0  501  0.00000000000E+00  0.00000000000E+00 -0.25326760336E+04  0.25326760336E+04  0.25500000920E-02 0.  1.
    10030    2    1    2    0    0  0.00000000000E+00  0.00000000000E+00 -0.10316208783E+04  0.40337311888E+04  0.38995827555E+04 0.  0.
        4    1    3    3  502    0 -0.87060958350E+03  0.13655329449E+04 -0.16390017427E+04  0.23041201349E+04  0.12699999809E+01 0. -1.
       -4    1    3    3    0  502  0.87060958350E+03 -0.13655329449E+04  0.60738086434E+03  0.17296110539E+04  0.12699999809E+01 0.  1.
</event>
<event>
 5   0  0.3769985E-08  0.3889025E+04  0.7818609E-02  0.8027316E-01
        2   -1    0    0  501    0  0.00000000000E+00  0.00000000000E+00  0.28574439424E+04  0.28574439424E+04  0.25500000920E-02 0. -1.
       -2   -1    0    0    0  501  0.00000000000E+00  0.00000000000E+00 -0.13232554474E+04  0.13232554474E+04  0.25500000920E-02 0.  1.
    10030    2    1    2    0    0  0.00000000000E+00  0.00000000000E+00  0.15341884951E+04  0.41806993898E+04  0.38890246913E+04 0.  0.
        1    1    3    3  502    0 -0.12184117508E+04  0.46726309512E+03  0.23168342198E+04  0.26590567494E+04  0.50400001928E-02 0. -1.
       -1    1    3    3    0  502  0.12184117508E+04 -0.46726309512E+03 -0.78264572471E+03  0.15216426404E+04  0.50400001928E-02 0.  1.
</event>
<event>
 5   0  0.1164500E-08  0.3908936E+04  0.7818609E-02  0.8023173E-01
        1   -1    0    0  501    0  0.00000000000E+00  0.00000000000E+00  0.26843657631E+04  0.26843657631E+04  0.50400001928E-02 0.  1.
       -1   -1    0    0    0  501  0.00000000000E+00  0.00000000000E+00 -0.14230341987E+04  0.14230341987E+04  0.50400001928E-02 0. -1.
    10030    2    1    2    0    0  0.00000000000E+00  0.00000000000E+00  0.12613315644E+04  0.41073999618E+04  0.39089355496E+04 0.  0.
        1    1    3    3  502    0  0.85077363879E+03 -0.15447134465E+04 -0.25472348694E+03  0.17818079221E+04  0.50400001928E-02 0. -1.
       -1    1    3    3    0  502 -0.85077363879E+03  0.15447134465E+04  0.15160550513E+04  0.23255920397E+04  0.50400001928E-02 0.  1.
</event>
<event>
 5   0  0.3769985E-08  0.3897868E+04  0.7818609E-02  0.8025473E-01
       -2   -1    0    0    0  501  0.00000000000E+00  0.00000000000E+00  0.16173506729E+04  0.16173506729E+04  0.25500000920E-02 0. -1.
        2   -1    0    0  501    0  0.00000000000E+00  0.00000000000E+00 -0.23484974330E+04  0.23484974330E+04  0.25500000920E-02 0.  1.
    10030    2    1    2    0    0  0.00000000000E+00  0.00000000000E+00 -0.73114676017E+03  0.39658481059E+04  0.38978680858E+04 0.  0.
        1    1    3    3  502    0 -0.19207690831E+04  0.21514142855E+03 -0.62034863839E+03  0.20298946125E+04  0.50400001928E-02 0. -1.
       -1    1    3    3    0  502  0.19207690831E+04 -0.21514142855E+03 -0.11079812177E+03  0.19359534934E+04  0.50400001928E-02 0.  1.
</event>
<event>
 5   0  0.1164500E-08  0.3895619E+04  0.7818609E-02  0.8025941E-01
       -1   -1    0    0    0  501  0.00000000000E+00  0.00000000000E+00  0.18292997678E+04  0.18292997678E+04  0.50400001928E-02 0.  1.
        1   -1    0    0  501    0  0.00000000000E+00  0.00000000000E+00 -0.20739962673E+04  0.20739962673E+04  0.50400001928E-02 0. -1.
    10030    2    1    2    0    0  0.00000000000E+00  0.00000000000E+00 -0.24469649949E+03  0.39032960351E+04  0.38956185082E+04 0.  0.
        2    1    3    3  502    0  0.21797110391E+03 -0.13442375927E+04  0.12730466733E+04  0.18641711134E+04  0.25500000920E-02 0.  1.
       -2    1    3    3    0  502 -0.21797110391E+03  0.13442375927E+04 -0.15177431728E+04  0.20391249217E+04  0.25500000920E-02 0. -1.
</event>
<event>
 5   0  0.1164500E-08  0.3902619E+04  0.7818609E-02  0.8024485E-01
       -1   -1    0    0    0  501  0.00000000000E+00  0.00000000000E+00  0.27841422217E+04  0.27841422217E+04  0.50400001928E-02 0. -1.
        1   -1    0    0  501    0  0.00000000000E+00  0.00000000000E+00 -0.13676055169E+04  0.13676055169E+04  0.50400001928E-02 0.  1.
    10030    2    1    2    0    0  0.00000000000E+00  0.00000000000E+00  0.14165367048E+04  0.41517477385E+04  0.39026187424E+04 0.  0.
        5    1    3    3  502    0  0.19011195795E+04 -0.43758541767E+03  0.66251696936E+03  0.20602639340E+04  0.46999998093E+01 0. -1.
       -5    1    3    3    0  502 -0.19011195795E+04  0.43758541767E+03  0.75401973543E+03  0.20914838045E+04  0.46999998093E+01 0.  1.
</event>
<event>
 5   0  0.1164500E-08  0.3898333E+04  0.7818609E-02  0.8025376E-01
        1   -1    0    0  501    0  0.00000000000E+00  0.00000000000E+00  0.13988584973E+04  0.13988584973E+04  0.50400001928E-02 0. -1.
       -1   -1    0    0    0  501  0.00000000000E+00  0.00000000000E+00 -0.27159645482E+04  0.27159645482E+04  0.50400001928E-02 0.  1.
    10030    2    1    2    0    0  0.00000000000E+00  0.00000000000E+00 -0.13171060509E+04  0.41148230456E+04  0.38983330215E+04 0.  0.
        4    1    3    3  502    0  0.19067264219E+04 -0.33691966409E+03 -0.89487944046E+03  0.21330568052E+04  0.12699999809E+01 0.  1.
       -4    1    3    3    0  502 -0.19067264219E+04  0.33691966409E+03 -0.42222661047E+03  0.19817662404E+04  0.12699999809E+01 0. -1.
</event>
<event>
 5   0  0.3769985E-08  0.3892820E+04  0.7818609E-02  0.8026524E-01
       -2   -1    0    0    0  501  0.00000000000E+00  0.00000000000E+00  0.13818957393E+04  0.13818957393E+04  0.25500000920E-02 0.  1.
        2   -1    0    0  501    0  0.00000000000E+00  0.00000000000E+00 -0.27415322755E+04  0.27415322755E+04  0.25500000920E-02 0. -1.
    10030    2    1    2    0    0  0.00000000000E+00  0.00000000000E+00 -0.13596365362E+04  0.41234280148E+04  0.38928199397E+04 0.  0.
        1    1    3    3  502    0 -0.15104559436E+04  0.11276797876E+04 -0.11937108386E+04  0.22311621249E+04  0.50400001928E-02 0. -1.
       -1    1    3    3    0  502  0.15104559436E+04 -0.11276797876E+04 -0.16592569757E+03  0.18922658899E+04  0.50400001928E-02 0.  1.
</event>
<event>
 5   0  0.1164500E-08  0.3910450E+04  0.7818609E-02  0.8022859E-01
       -1   -1    0    0    0  501  0.00000000000E+00  0.00000000000E+00  0.13814306258E+04  0.13814306258E+04  0.50400001928E-02 0.  1.
        1   -1    0    0  501    0  0.00000000000E+00  0.00000000000E+00 -0.27673522746E+04  0.27673522746E+04  0.50400001928E-02 0. -1.
    10030    2    1    2    0    0  0.00000000000E+00  0.00000000000E+00 -0.13859216487E+04  0.41487829004E+04  0.39104501963E+04 0.  0.
        2    1    3    3  502    0  0.11172997582E+04 -0.15942613346E+04 -0.50058895184E+03  0.20101286654E+04  0.25500000920E-02 0. -1.
       -2    1    3    3    0  502 -0.11172997582E+04  0.15942613346E+04 -0.88533269690E+03  0.21386542350E+04  0.25500000920E-02 0.  1.
</event>
<event>
 5   0  0.1164500E-08  0.3904256E+04  0.7818609E-02  0.8024145E-01
        1   -1    0    0  501    0  0.00000000000E+00  0.00000000000E+00  0.14899790059E+04  0.14899790059E+04  0.50400001928E-02 0.  1.
       -1   -1    0    0    0  501  0.00000000000E+00  0.00000000000E+00 -0.25576227281E+04  0.25576227281E+04  0.50400001928E-02 0. -1.
    10030    2    1    2    0    0  0.00000000000E+00  0.00000000000E+00 -0.10676437222E+04  0.40476017339E+04  0.39042562261E+04 0.  0.
        5    1    3    3  502    0 -0.79458644265E+03  0.63236913443E+03 -0.22622234458E+04  0.24797046892E+04  0.46999998093E+01 0. -1.
       -5    1    3    3    0  502  0.79458644265E+03 -0.63236913443E+03  0.11945797235E+04  0.15678970447E+04  0.46999998093E+01 0.  1.
</event>
<event>
 5   0  0.1164500E-08  0.3898172E+04  0.7818609E-02  0.8025410E-01
       -1   -1    0    0    0  501  0.00000000000E+00  0.00000000000E+00  0.32040451987E+04  0.32040451988E+04  0.50400001928E-02 0.  1.
        1   -1    0    0  501    0  0.00000000000E+00  0.00000000000E+00 -0.11856685323E+04  0.11856685323E+04  0.50400001928E-02 0. -1.
    10030    2    1    2    0    0  0.00000000000E+00  0.00000000000E+00  0.20183766665E+04  0.43897137311E+04  0.38981716577E+04 0.  0.
        5    1    3    3  502    0  0.37799090862E+03 -0.42003015149E+03  0.31097749235E+04  0.31607000205E+04  0.46999998093E+01 0.  1.
       -5    1    3    3    0  502 -0.37799090862E+03  0.42003015149E+03 -0.10913982570E+04  0.12290137105E+04  0.46999998093E+01 0. -1.
</event>
<event>
 5   0  0.3769985E-08  0.3881422E+04  0.7818609E-02  0.8028904E-01
        2   -1    0    0  501    0  0.00000000000E+00  0.00000000000E+00  0.22358859468E+04  0.22358859468E+04  0.25500000920E-02 0.  1.
       -2   -1    0    0    0  501  0.00000000000E+00  0.00000000000E+00 -0.16845045084E+04  0.16845045084E+04  0.25500000920E-02 0. -1.
    10030    2    1    2    0    0  0.00000000000E+00  0.00000000000E+00  0.55138143840E+03  0.39203904552E+04  0.38814223978E+04 0.  0.
        1    1    3    3  502    0 -0.52322028576E+03  0.69831321210E+03 -0.14751946014E+04  0.17139428000E+04  0.50400001928E-02 0. -1.
       -1    1    3    3    0  502  0.52322028576E+03 -0.69831321210E+03  0.20265760398E+04  0.22064476552E+04  0.50400001928E-02 0.  1.
</event>
<event>
 5   0  0.1164500E-08  0.3879982E+04  0.7818609E-02  0.8029206E-01
       -1   -1    0    0    0  501  0.00000000000E+00  0.00000000000E+00  0.20108284427E+04  0.20108284427E+04  0.50400001928E-02 0.  1.
        1   -1    0    0  501    0  0.00000000000E+00  0.00000000000E+00 -0.18716486567E+04  0.18716486567E+04  0.50400001928E-02 0. -1.
    10030    2    1    2    0    0  0.00000000000E+00  0.00000000000E+00  0.13917978609E+03  0.38824770994E+04  0.38799816255E+04 0.  0.
        5    1    3    3  502    0  0.83749681142E+03 -0.23385910027E+03 -0.16657259581E+04  0.18790306132E+04  0.46999998093E+01 0. -1.
       -5    1    3    3    0  502 -0.83749681142E+03  0.23385910027E+03  0.18049057441E+04  0.20034464862E+04  0.46999998093E+01 0.  1.
</event>
<event>
 5   0  0.3872969E-08  0.3912809E+04  0.7818609E-02  0.8022370E-01
       -2   -1    0    0    0  501  0.00000000000E+00  0.00000000000E+00  0.20209007960E+04  0.20209007960E+04  0.25500000920E-02 0.  1.
        2   -1    0    0  501    0  0.00000000000E+00  0.00000000000E+00 -0.18939667431E+04  0.18939667431E+04  0.25500000920E-02 0. -1.
    10030    2    1    2    0    0  0.00000000000E+00  0.00000000000E+00  0.12693405287E+03  0.39148675391E+04  0.39128091693E+04 0.  0.
        2    1    3    3  502    0  0.18172175291E+04 -0.29638748503E+03 -0.59823843728E+03  0.19359789041E+04  0.25500000920E-02 0. -1.
       -2    1    3    3    0  502 -0.18172175291E+04  0.29638748503E+03  0.72517249015E+03  0.19788886350E+04  0.25500000920E-02 0.  1.
</event>
<event>
 5   0  0.1164500E-08  0.3898629E+04  0.7818609E-02  0.8025314E-01
       -1   -1    0    0    0  501  0.00000000000E+00  0.00000000000E+00  0.17247379373E+04  0.17247379373E+04  0.50400001928E-02 0.  1.
        1   -1    0    0  501    0  0.00000000000E+00  0.00000000000E+00 -0.22031329142E+04  0.22031329142E+04  0.50400001928E-02 0. -1.
    10030    2    1    2    0    0  0.00000000000E+00  0.00000000000E+00 -0.47839497694E+03  0.39278708515E+04  0.38986289478E+04 0.  0.
        2    1    3    3  502    0 -0.33400539068E+03 -0.10614565906E+04 -0.18516948886E+04  0.21603295247E+04  0.25500000920E-02 0. -1.
       -2    1    3    3    0  502  0.33400539068E+03  0.10614565906E+04  0.13732999117E+04  0.17675413268E+04  0.25500000920E-02 0.  1.
</event>
<event>
 5   0  0.3669347E-08  0.3843738E+04  0.7818609E-02  0.8036833E-01
        2   -1    0    0  501    0  0.00000000000E+00  0.00000000000E+00  0.20283672217E+04  0.20283672217E+04  0.25500000920E-02 0.  1.
       -2   -1    0    0    0  501  0.00000000000E+00  0.00000000000E+00 -0.18209622371E+04  0.18209622371E+04  0.25500000920E-02 0. -1.
    10030    2    1    2    0    0  0.00000000000E+00  0.00000000000E+00  0.20740498453E+03  0.38493294588E+04  0.38437378234E+04 0.  0.
        5    1    3    3  502    0  0.35953812818E+03  0.48942509840E+03 -0.17223407067E+04  0.18262760450E+04  0.46999998093E+01 0. -1.
       -5    1    3    3    0  502 -0.35953812818E+03 -0.48942509840E+03  0.19297456912E+04  0.20230534138E+04  0.46999998093E+01 0.  1.
</event>
<event>
 5   0  0.3724293E-08  0.3955029E+04  0.7818609E-02  0.8013681E-01
       -2   -1    0    0    0  501  0.00000000000E+00  0.00000000000E+00  0.25473923856E+04  0.25473923856E+04  0.25500000920E-02 0.  1.
        2   -1    0    0  501    0  0.00000000000E+00  0.00000000000E+00 -0.15351238320E+04  0.15351238320E+04  0.25500000920E-02 0. -1.
    10030    2    1    2    0    0  0.00000000000E+00  0.00000000000E+00  0.10122685536E+04  0.40825162176E+04  0.39550285767E+04 0.  0.
        4    1    3    3  502    0  0.14784408295E+04 -0.11738933236E+04 -0.10170040934E+03  0.18905442094E+04  0.12699999809E+01 0. -1.
       -4    1    3    3    0  502 -0.14784408295E+04  0.11738933236E+04  0.11139689630E+04  0.21919720082E+04  0.12699999809E+01 0.  1.
</event>
<event>
 5   0  0.3724293E-08  0.3894210E+04  0.7818609E-02  0.8026235E-01
       -2   -1    0    0    0  501  0.00000000000E+00  0.00000000000E+00  0.12043337301E+04  0.12043337301E+04  0.25500000920E-02 0.  1.
        2   -1    0    0  501    0  0.00000000000E+00  0.00000000000E+00 -0.31479790843E+04  0.31479790843E+04  0.25500000920E-02 0. -1.
    10030    2    1    2    0    0  0.00000000000E+00  0.00000000000E+00 -0.19436453542E+04  0.43523128144E+04  0.38942097493E+04 0.  0.
        4    1    3    3  502    0 -0.12882375879E+04  0.58712201595E+03  0.52219814757E+03  0.15089601926E+04  0.12699999809E+01 0.  1.
       -4    1    3    3    0  502  0.12882375879E+04 -0.58712201595E+03 -0.24658435017E+04  0.28433526219E+04  0.12699999809E+01 0. -1.
</event>
<event>
 5   0  0.1164500E-08  0.3903618E+04  0.7818609E-02  0.8024277E-01
        3   -1    0    0  501    0  0.00000000000E+00  0.00000000000E+00  0.19140462992E+04  0.19140463019E+04  0.10100000352E+00 0. -1.
       -3   -1    0    0    0  501  0.00000000000E+00  0.00000000000E+00 -0.19903168099E+04  0.19903168124E+04  0.10100000352E+00 0.  1.
    10030    2    1    2    0    0  0.00000000000E+00  0.00000000000E+00 -0.76270510607E+02  0.39043631143E+04  0.39036180830E+04 0.  0.
        3    1    3    3  502    0  0.43329484988E+03 -0.12950395009E+02  0.18652903269E+04  0.19149987346E+04  0.10100000352E+00 0. -1.
       -3    1    3    3    0  502 -0.43329484988E+03  0.12950395009E+02 -0.19415608375E+04  0.19893643798E+04  0.10100000352E+00 0.  1.
</event>
<event>
 5   0  0.3769985E-08  0.3898913E+04  0.7818609E-02  0.8025255E-01
        2   -1    0    0  501    0  0.00000000000E+00  0.00000000000E+00  0.10569409011E+04  0.10569409011E+04  0.25500000920E-02 0.  1.
       -2   -1    0    0    0  501  0.00000000000E+00  0.00000000000E+00 -0.35956410940E+04  0.35956410940E+04  0.25500000920E-02 0. -1.
    10030    2    1    2    0    0  0.00000000000E+00  0.00000000000E+00 -0.25387001929E+04  0.46525819952E+04  0.38989127398E+04 0.  0.
        1    1    3    3  502    0  0.35455039324E+03 -0.86571826162E+03  0.77158292082E+03  0.12126476378E+04  0.50400001928E-02 0.  1.
       -1    1    3    3    0  502 -0.35455039324E+03  0.86571826162E+03 -0.33102831137E+04  0.34399343573E+04  0.50400001928E-02 0. -1.
</event>
<event>
 5   0  0.3669347E-08  0.3881538E+04  0.7818609E-02  0.8028880E-01
        2   -1    0    0  501    0  0.00000000000E+00  0.00000000000E+00  0.28732169550E+04  0.28732169550E+04  0.25500000920E-02 0.  1.
       -2   -1    0    0    0  501  0.00000000000E+00  0.00000000000E+00 -0.13109294062E+04  0.13109294062E+04  0.25500000920E-02 0. -1.
    10030    2    1    2    0    0  0.00000000000E+00  0.00000000000E+00  0.15622875488E+04  0.41841463611E+04  0.38815381470E+04 0.  0.
        5    1    3    3  502    0  0.10231715136E+03 -0.56527662308E+03  0.27794623463E+04  0.28382106131E+04  0.46999998093E+01 0.  1.
       -5    1    3    3    0  502 -0.10231715136E+03  0.56527662308E+03 -0.12171747975E+04  0.13459357480E+04  0.46999998093E+01 0. -1.
</event>
<event>
 5   0  0.1164500E-08  0.3899221E+04  0.7818609E-02  0.8025191E-01
       -1   -1    0    0    0  501  0.00000000000E+00  0.00000000000E+00  0.14379209962E+04  0.14379209962E+04  0.50400001928E-02 0. -1.
        1   -1    0    0  501    0  0.00000000000E+00  0.00000000000E+00 -0.26433862108E+04  0.26433862108E+04  0.50400001928E-02 0.  1.
    10030    2    1    2    0    0  0.00000000000E+00  0.00000000000E+00 -0.12054652146E+04  0.40813072070E+04  0.38992207086E+04 0.  0.
        5    1    3    3  502    0  0.40240507103E+03  0.13835057307E+04 -0.19774344877E+04  0.24466890263E+04  0.46999998093E+01 0. -1.
       -5    1    3    3    0  502 -0.40240507103E+03 -0.13835057307E+04  0.77196927313E+03  0.16346181807E+04  0.46999998093E+01 0.  1.
</event>
<event>
 5   0  0.3724293E-08  0.3908648E+04  0.7818609E-02  0.8023233E-01
       -2   -1    0    0    0  501  0.00000000000E+00  0.00000000000E+00  0.26567700582E+04  0.26567700582E+04  0.25500000920E-02 0. -1.
        2   -1    0    0  501    0  0.00000000000E+00  0.00000000000E+00 -0.14376039828E+04  0.14376039828E+04  0.25500000920E-02 0.  1.
    10030    2    1    2    0    0  0.00000000000E+00  0.00000000000E+00  0.12191660755E+04  0.40943740410E+04  0.39086484708E+04 0.  0.
        4    1    3    3  502    0 -0.18721923358E+03  0.28505131351E+03  0.26253588636E+04  0.26474168671E+04  0.12699999809E+01 0. -1.
       -4    1    3    3    0  502  0.18721923358E+03 -0.28505131351E+03 -0.14061927881E+04  0.14469571739E+04  0.12699999809E+01 0.  1.
</event>
<event>
 5   0  0.3769985E-08  0.3900544E+04  0.7818609E-02  0.8024916E-01
        2   -1    0    0  501    0  0.00000000000E+00  0.00000000000E+00  0.17961500549E+04  0.17961500549E+04  0.25500000920E-02 0. -1.
       -2   -1    0    0    0  501  0.00000000000E+00  0.00000000000E+00 -0.21176182339E+04  0.21176182339E+04  0.25500000920E-02 0.  1.
    10030    2    1    2    0    0  0.00000000000E+00  0.00000000000E+00 -0.32146817898E+03  0.39137682888E+04  0.39005436068E+04 0.  0.
        1    1    3    3  502    0 -0.15992882689E+04  0.12806952766E+03  0.95182431336E+03  0.18655010841E+04  0.50400001928E-02 0. -1.
       -1    1    3    3    0  502  0.15992882689E+04 -0.12806952766E+03 -0.12732924923E+04  0.20482672048E+04  0.50400001928E-02 0.  1.
</event>
<event>
 5   0  0.1164500E-08  0.3892040E+04  0.7818609E-02  0.8026687E-01
        1   -1    0    0  501    0  0.00000000000E+00  0.00000000000E+00  0.26919707156E+04  0.26919707157E+04  0.50400001928E-02 0.  1.
       -1   -1    0    0    0  501  0.00000000000E+00  0.00000000000E+00 -0.14067739748E+04  0.14067739748E+04  0.50400001928E-02 0. -1.
    10030    2    1    2    0    0  0.00000000000E+00  0.00000000000E+00  0.12851967409E+04  0.40987446904E+04  0.38920402586E+04 0.  0.
        3    1    3    3  502    0 -0.54607976513E+03 -0.12304512767E+04  0.21225005165E+04  0.25134084242E+04  0.10100000352E+00 0.  1.
       -3    1    3    3    0  502  0.54607976513E+03  0.12304512767E+04 -0.83730377563E+03  0.15853362662E+04  0.10100000352E+00 0. -1.
</event>
<event>
 5   0  0.3690572E-08  0.3908254E+04  0.7818609E-02  0.8023315E-01
       -2   -1    0    0    0  501  0.00000000000E+00  0.00000000000E+00  0.20324387648E+04  0.20324387648E+04  0.25500000920E-02 0. -1.
        2   -1    0    0  501    0  0.00000000000E+00  0.00000000000E+00 -0.18788326772E+04  0.18788326772E+04  0.25500000920E-02 0.  1.
    10030    2    1    2    0    0  0.00000000000E+00  0.00000000000E+00  0.15360608763E+03  0.39112714420E+04  0.39082540172E+04 0.  0.
        3    1    3    3  502    0 -0.86477804937E+02  0.16238165823E+03  0.20237525979E+04  0.20320976358E+04  0.10100000352E+00 0. -1.
       -3    1    3    3    0  502  0.86477804937E+02 -0.16238165823E+03 -0.18701465103E+04  0.18791738062E+04  0.10100000352E+00 0.  1.
</event>
<event>
 5   0  0.1164500E-08  0.3899283E+04  0.7818609E-02  0.8025178E-01
       -1   -1    0    0    0  501  0.00000000000E+00  0.00000000000E+00  0.29993859282E+04  0.29993859282E+04  0.50400001928E-02 0. -1.
        1   -1    0    0  501    0  0.00000000000E+00  0.00000000000E+00 -0.12672932357E+04  0.12672932357E+04  0.50400001928E-02 0.  1.
    10030    2    1    2    0    0  0.00000000000E+00  0.00000000000E+00  0.17320926925E+04  0.42666791640E+04  0.38992827537E+04 0.  0.
        3    1    3    3  502    0  0.16874744968E+04  0.88255037311E+03  0.40877674413E+03  0.19477073125E+04  0.10100000352E+00 0. -1.
       -3    1    3    3    0  502 -0.16874744968E+04 -0.88255037311E+03  0.13233159484E+04  0.23189718515E+04  0.10100000352E+00 0.  1.
</event>
<event>
 5   0  0.1164500E-08  0.3894676E+04  0.7818609E-02  0.8026137E-01
       -1   -1    0    0    0  501  0.00000000000E+00  0.00000000000E+00  0.15822109354E+04  0.15822109354E+04  0.50400001928E-02 0. -1.
        1   -1    0    0  501    0  0.00000000000E+00  0.00000000000E+00 -0.23967255532E+04  0.23967255532E+04  0.50400001928E-02 0.  1.
    10030    2    1    2    0    0  0.00000000000E+00  0.00000000000E+00 -0.81451461775E+03  0.39789364886E+04  0.38946760478E+04 0.  0.
        5    1    3    3  502    0  0.79297172137E+03 -0.14070560477E+04  0.70416320185E+03  0.17619531143E+04  0.46999998093E+01 0. -1.
       -5    1    3    3    0  502 -0.79297172137E+03  0.14070560477E+04 -0.15186778196E+04  0.22169833743E+04  0.46999998093E+01 0.  1.
</event>
<event>
 5   0  0.1164500E-08  0.3886510E+04  0.7818609E-02  0.8027841E-01
        1   -1    0    0  501    0  0.00000000000E+00  0.00000000000E+00  0.12256839496E+04  0.12256839496E+04  0.50400001928E-02 0.  1.
       -1   -1    0    0    0  501  0.00000000000E+00  0.00000000000E+00 -0.30809254034E+04  0.30809254034E+04  0.50400001928E-02 0. -1.
    10030    2    1    2    0    0  0.00000000000E+00  0.00000000000E+00 -0.18552414538E+04  0.43066093531E+04  0.38865104230E+04 0.  0.
        1    1    3    3  502    0 -0.11896186725E+04  0.15086012612E+04 -0.60423551683E+03  0.20139937714E+04  0.50400001928E-02 0. -1.
       -1    1    3    3    0  502  0.11896186725E+04 -0.15086012612E+04 -0.12510059370E+04  0.22926155817E+04  0.50400001928E-02 0.  1.
</event>
<event>
 5   0  0.1164500E-08  0.3926180E+04  0.7818609E-02  0.8019606E-01
       -1   -1    0    0    0  501  0.00000000000E+00  0.00000000000E+00  0.13680781948E+04  0.13680781948E+04  0.50400001928E-02 0.  1.
        1   -1    0    0  501    0  0.00000000000E+00  0.00000000000E+00 -0.28168876582E+04  0.28168876582E+04  0.50400001928E-02 0. -1.
    10030    2    1    2    0    0  0.00000000000E+00  0.00000000000E+00 -0.14488094634E+04  0.41849658531E+04  0.39261801194E+04 0.  0.
        1    1    3    3  502    0 -0.45348639991E+03  0.16185404895E+04 -0.18053472406E+04  0.24666985812E+04  0.50400001928E-02 0. -1.
       -1    1    3    3    0  502  0.45348639991E+03 -0.16185404895E+04  0.35653777716E+03  0.17182672719E+04  0.50400001928E-02 0.  1.
</event>
<event>
 5   0  0.3690572E-08  0.3892723E+04  0.7818609E-02  0.8026544E-01
        2   -1    0    0  501    0  0.00000000000E+00  0.00000000000E+00  0.23470801508E+04  0.23470801508E+04  0.25500000920E-02 0. -1.
       -2   -1    0    0    0  501  0.00000000000E+00  0.00000000000E+00 -0.16140578300E+04  0.16140578300E+04  0.25500000920E-02 0.  1.
    10030    2    1    2    0    0  0.00000000000E+00  0.00000000000E+00  0.73302232079E+03  0.39611379808E+04  0.38927230032E+04 0.  0.
        3    1    3    3  502    0  0.46335598015E+03 -0.13029213244E+04  0.17602623175E+04  0.22384874756E+04  0.10100000352E+00 0. -1.
       -3    1    3    3    0  502 -0.46335598015E+03  0.13029213244E+04 -0.10272399967E+04  0.17226505052E+04  0.10100000352E+00 0.  1.
</event>
<event>
 5   0  0.1164500E-08  0.3929369E+04  0.7818609E-02  0.8018949E-01
        1   -1    0    0  501    0  0.00000000000E+00  0.00000000000E+00  0.12546363704E+04  0.12546363704E+04  0.50400001928E-02 0.  1.
       -1   -1    0    0    0  501  0.00000000000E+00  0.00000000000E+00 -0.30765767100E+04  0.30765767100E+04  0.50400001928E-02 0. -1.
    10030    2    1    2    0    0  0.00000000000E+00  0.00000000000E+00 -0.18219403396E+04  0.43312130805E+04  0.39293689248E+04 0.  0.
        3    1    3    3  502    0 -0.24056033868E+03  0.13624814389E+04  0.62658740839E+03  0.15188274222E+04  0.10100000352E+00 0.  1.
       -3    1    3    3    0  502  0.24056033868E+03 -0.13624814389E+04 -0.24485277480E+04  0.28123856583E+04  0.10100000352E+00 0. -1.
</event>
<event>
 5   0  0.1164500E-08  0.3894686E+04  0.7818609E-02  0.8026135E-01
        1   -1    0    0  501    0  0.00000000000E+00  0.00000000000E+00  0.13667105193E+04  0.13667105193E+04  0.50400001928E-02 0. -1.
       -1   -1    0    0    0  501  0.00000000000E+00  0.00000000000E+00 -0.27746509515E+04  0.27746509515E+04  0.50400001928E-02 0.  1.
    10030    2    1    2    0    0  0.00000000000E+00  0.00000000000E+00 -0.14079404322E+04  0.41413614709E+04  0.38946859401E+04 0.  0.
        2    1    3    3  502    0  0.12522927841E+04  0.45194716895E+02 -0.22889711283E+04  0.26095341741E+04  0.25500000920E-02 0.  1.
       -2    1    3    3    0  502 -0.12522927841E+04 -0.45194716895E+02  0.88103069610E+03  0.15318272968E+04  0.25500000920E-02 0. -1.
</event>
<event>
 5   0  0.1164500E-08  0.3903238E+04  0.7818609E-02  0.8024356E-01
        1   -1    0    0  501    0  0.00000000000E+00  0.00000000000E+00  0.20117868393E+04  0.20117868393E+04  0.50400001928E-02 0.  1.
       -1   -1    0    0    0  501  0.00000000000E+00  0.00000000000E+00 -0.18932508326E+04  0.18932508326E+04  0.50400001928E-02 0. -1.
    10030    2    1    2    0    0  0.00000000000E+00  0.00000000000E+00  0.11853600665E+03  0.39050376719E+04  0.39032381985E+04 0.  0.
        5    1    3    3  502    0 -0.29979875809E+03  0.13910757792E+04  0.13954824465E+04  0.19930791423E+04  0.46999998093E+01 0.  1.
       -5    1    3    3    0  502  0.29979875809E+03 -0.13910757792E+04 -0.12769464398E+04  0.19119585296E+04  0.46999998093E+01 0. -1.
</event>
<event>
 5   0  0.3769985E-08  0.3903952E+04  0.7818609E-02  0.8024208E-01
       -2   -1    0    0    0  501  0.00000000000E+00  0.00000000000E+00  0.15418655781E+04  0.15418655781E+04  0.25500000920E-02 0.  1.
        2   -1    0    0  501    0  0.00000000000E+00  0.00000000000E+00 -0.24711692960E+04  0.24711692960E+04  0.25500000920E-02 0. -1.
    10030    2    1    2    0    0  0.00000000000E+00  0.00000000000E+00 -0.92930371790E+03  0.40130348742E+04  0.39039522924E+04 0.  0.
        1    1    3    3  502    0 -0.95183215556E+03  0.14607434237E+04 -0.13669334394E+04  0.22154599590E+04  0.50400001928E-02 0. -1.
       -1    1    3    3    0  502  0.95183215556E+03 -0.14607434237E+04  0.43762972151E+03  0.17975749151E+04  0.50400001928E-02 0.  1.
</event>
<event>
 5   0  0.3690572E-08  0.3899746E+04  0.7818609E-02  0.8025082E-01
       -2   -1    0    0    0  501  0.00000000000E+00  0.00000000000E+00  0.14981181482E+04  0.14981181482E+04  0.25500000920E-02 0. -1.
        2   -1    0    0  501    0  0.00000000000E+00  0.00000000000E+00 -0.25378540507E+04  0.25378540507E+04  0.25500000920E-02 0.  1.
    10030    2    1    2    0    0  0.00000000000E+00  0.00000000000E+00 -0.10397359025E+04  0.40359721989E+04  0.38997462537E+04 0.  0.
        3    1    3    3  502    0 -0.81938531690E+02 -0.30465095662E+03 -0.25112662083E+04  0.25310045649E+04  0.10100000352E+00 0.  1.
       -3    1    3    3    0  502  0.81938531690E+02  0.30465095662E+03  0.14715303058E+04  0.15049676340E+04  0.10100000352E+00 0. -1.
</event>
<event>
 5   0  0.1164500E-08  0.3910876E+04  0.7818609E-02  0.8022771E-01
       -1   -1    0    0    0  501  0.00000000000E+00  0.00000000000E+00  0.19163020809E+04  0.19163020809E+04  0.50400001928E-02 0. -1.
        1   -1    0    0  501    0  0.00000000000E+00  0.00000000000E+00 -0.19953731965E+04  0.19953731965E+04  0.50400001928E-02 0.  1.
    10030    2    1    2    0    0  0.00000000000E+00  0.00000000000E+00 -0.79071115557E+02  0.39116752774E+04  0.39108760188E+04 0.  0.
        1    1    3    3  502    0  0.35498121236E+03 -0.17736066621E+04  0.70361396929E+03  0.19408155170E+04  0.50400001928E-02 0. -1.
       -1    1    3    3    0  502 -0.35498121236E+03  0.17736066621E+04 -0.78268508485E+03  0.19708597604E+04  0.50400001928E-02 0.  1.
</event>
<event>
 5   0  0.1164500E-08  0.3881819E+04  0.7818609E-02  0.8028821E-01
        1   -1    0    0  501    0  0.00000000000E+00  0.00000000000E+00  0.12323565632E+04  0.12323565632E+04  0.50400001928E-02 0. -1.
       -1   -1    0    0    0  501  0.00000000000E+00  0.00000000000E+00 -0.30568506393E+04  0.30568506393E+04  0.50400001928E-02 0.  1.
    10030    2    1    2    0    0  0.00000000000E+00  0.00000000000E+00 -0.18244940761E+04  0.42892072025E+04  0.38818191344E+04 0.  0.
        2    1    3    3  502    0  0.15873959571E+03  0.24713400264E+03  0.12076568524E+04  0.12428630446E+04  0.25500000920E-02 0. -1.
       -2    1    3    3    0  502 -0.15873959571E+03 -0.24713400264E+03 -0.30321509285E+04  0.30463441578E+04  0.25500000920E-02 0.  1.
</event>
<event>
 5   0  0.1164500E-08  0.3886664E+04  0.7818609E-02  0.8027808E-01
       -1   -1    0    0    0  501  0.00000000000E+00  0.00000000000E+00  0.12892170944E+04  0.12892170945E+04  0.50400001928E-02 0. -1.
        1   -1    0    0  501    0  0.00000000000E+00  0.00000000000E+00 -0.29293281748E+04  0.29293281748E+04  0.50400001928E-02 0.  1.
    10030    2    1    2    0    0  0.00000000000E+00  0.00000000000E+00 -0.16401110804E+04  0.42185452693E+04  0.38866643582E+04 0.  0.
        4    1    3    3  502    0  0.47300185126E+02 -0.96724605578E+03 -0.26487796342E+04  0.28202548473E+04  0.12699999809E+01 0.  1.
       -4    1    3    3    0  502 -0.47300185126E+02  0.96724605578E+03  0.10086685538E+04  0.13982904220E+04  0.12699999809E+01 0. -1.
</event>
<event>
 5   0  0.1164500E-08  0.3900120E+04  0.7818609E-02  0.8025004E-01
        1   -1    0    0  501    0  0.00000000000E+00  0.00000000000E+00  0.23568076064E+04  0.23568076064E+04  0.50400001928E-02 0.  1.
       -1   -1    0    0    0  501  0.00000000000E+00  0.00000000000E+00 -0.16135102328E+04  0.16135102328E+04  0.50400001928E-02 0. -1.
    10030    2    1    2    0    0  0.00000000000E+00  0.00000000000E+00  0.74329737356E+03  0.39703178392E+04  0.39001195826E+04 0.  0.
        3    1    3    3  502    0  0.19145222080E+03 -0.52150044383E+02  0.23465036738E+04  0.23548785704E+04  0.10100000352E+00 0.  1.
       -3    1    3    3    0  502 -0.19145222080E+03  0.52150044383E+02 -0.16032063002E+04  0.16154392688E+04  0.10100000352E+00 0. -1.
</event>
<event>
 5   0  0.1164500E-08  0.3885718E+04  0.7818609E-02  0.8028006E-01
        1   -1    0    0  501    0  0.00000000000E+00  0.00000000000E+00  0.21832222716E+04  0.21832222717E+04  0.50400001928E-02 0. -1.
       -1   -1    0    0    0  501  0.00000000000E+00  0.00000000000E+00 -0.17289585463E+04  0.17289585463E+04  0.50400001928E-02 0.  1.
    10030    2    1    2    0    0  0.00000000000E+00  0.00000000000E+00  0.45426372536E+03  0.39121808179E+04  0.38857178513E+04 0.  0.
        1    1    3    3  502    0  0.10791228584E+04 -0.73877215136E+03  0.16737225761E+04  0.21240616038E+04  0.50400001928E-02 0. -1.
       -1    1    3    3    0  502 -0.10791228584E+04  0.73877215136E+03 -0.12194588507E+04  0.17881192141E+04  0.50400001928E-02 0.  1.
</event>
<event>
 5   0  0.3724293E-08  0.3911073E+04  0.7818609E-02  0.8022730E-01
       -2   -1    0    0    0  501  0.00000000000E+00  0.00000000000E+00  0.17152805442E+04  0.17152805442E+04  0.25500000920E-02 0. -1.
        2   -1    0    0  501    0  0.00000000000E+00  0.00000000000E+00 -0.22294445314E+04  0.22294445314E+04  0.25500000920E-02 0.  1.
    10030    2    1    2    0    0  0.00000000000E+00  0.00000000000E+00 -0.51416398714E+03  0.39447250756E+04  0.39110729112E+04 0.  0.
        4    1    3    3  502    0 -0.12461356504E+04  0.14765040875E+04 -0.56167855867E+03  0.20120643121E+04  0.12699999809E+01 0.  1.
       -4    1    3    3    0  502  0.12461356504E+04 -0.14765040875E+04  0.47514571535E+02  0.19326607636E+04  0.12699999809E+01 0. -1.
</event>
<event>
 5   0  0.3724293E-08  0.3898891E+04  0.7818609E-02  0.8025260E-01
        2   -1    0    0  501    0  0.00000000000E+00  0.00000000000E+00  0.10528480865E+04  0.10528480865E+04  0.25500000920E-02 0.  1.
       -2   -1    0    0    0  501  0.00000000000E+00  0.00000000000E+00 -0.36095779482E+04  0.36095779482E+04  0.25500000920E-02 0. -1.
    10030    2    1    2    0    0  0.00000000000E+00  0.00000000000E+00 -0.25567298617E+04  0.46624260347E+04  0.38988907324E+04 0.  0.
        4    1    3    3  502    0  0.10552235117E+04 -0.34058614226E+03 -0.31957459285E+04  0.33826453010E+04  0.12699999809E+01 0. -1.
       -4    1    3    3    0  502 -0.10552235117E+04  0.34058614226E+03  0.63901606680E+03  0.12797807337E+04  0.12699999809E+01 0.  1.
</event>
<event>
 5   0  0.1164500E-08  0.3908366E+04  0.7818609E-02  0.8023292E-01
        1   -1    0    0  501    0  0.00000000000E+00  0.00000000000E+00  0.15386385829E+04  0.15386385829E+04  0.50400001928E-02 0.  1.
       -1   -1    0    0    0  501  0.00000000000E+00  0.00000000000E+00 -0.24819540596E+04  0.24819540596E+04  0.50400001928E-02 0. -1.
    10030    2    1    2    0    0  0.00000000000E+00  0.00000000000E+00 -0.94331547670E+03  0.40205926426E+04  0.39083655291E+04 0.  0.
        3    1    3    3  502    0  0.17204971074E+04  0.62404204233E+03  0.23306168771E+03  0.18449543430E+04  0.10100000352E+00 0.  1.
       -3    1    3    3    0  502 -0.17204971074E+04 -0.62404204233E+03 -0.11763771644E+04  0.21756382995E+04  0.10100000352E+00 0. -1.
</event>
<event>
 5   0  0.1164500E-08  0.3907491E+04  0.7818609E-02  0.8023473E-01
       -1   -1    0    0    0  501  0.00000000000E+00  0.00000000000E+00  0.17983164968E+04  0.17983164968E+04  0.50400001928E-02 0. -1.
        1   -1    0    0  501    0  0.00000000000E+00  0.00000000000E+00 -0.21226087437E+04  0.21226087437E+04  0.50400001928E-02 0.  1.
    10030    2    1    2    0    0  0.00000000000E+00  0.00000000000E+00 -0.32429224695E+03  0.39209252405E+04  0.39074914306E+04 0.  0.
        4    1    3    3  502    0 -0.11062733628E+04  0.60792529239E+03 -0.16584826894E+04  0.20842217632E+04  0.12699999809E+01 0.  1.
       -4    1    3    3    0  502  0.11062733628E+04 -0.60792529239E+03  0.13341904424E+04  0.18367034774E+04  0.12699999809E+01 0. -1.
</event>
<event>
 5   0  0.3724293E-08  0.3894874E+04  0.7818609E-02  0.8026096E-01
       -2   -1    0    0    0  501  0.00000000000E+00  0.00000000000E+00  0.20732091309E+04  0.20732091309E+04  0.25500000920E-02 0.  1.
        2   -1    0    0  501    0  0.00000000000E+00  0.00000000000E+00 -0.18292951856E+04  0.18292951856E+04  0.25500000920E-02 0. -1.
    10030    2    1    2    0    0  0.00000000000E+00  0.00000000000E+00  0.24391394530E+03  0.39025043165E+04  0.38948743147E+04 0.  0.
        4    1    3    3  502    0 -0.10464444644E+04 -0.16299052253E+04 -0.80609321797E+02  0.19385913794E+04  0.12699999809E+01 0.  1.
       -4    1    3    3    0  502  0.10464444644E+04  0.16299052253E+04  0.32452326710E+03  0.19639129371E+04  0.12699999809E+01 0. -1.
</event>
<event>
 5   0  0.3724293E-08  0.3905058E+04  0.7818609E-02  0.8023978E-01
       -2   -1    0    0    0  501  0.00000000000E+00  0.00000000000E+00  0.20729710544E+04  0.20729710544E+04  0.25500000920E-02 0. -1.
        2   -1    0    0  501    0  0.00000000000E+00  0.00000000000E+00 -0.18390851354E+04  0.18390851354E+04  0.25500000920E-02 0.  1.
    10030    2    1    2    0    0  0.00000000000E+00  0.00000000000E+00  0.23388591906E+03  0.39120561898E+04  0.39050583874E+04 0.  0.
        4    1    3    3  502    0  0.12895389400E+04 -0.11893652687E+03  0.15808322352E+04  0.20435480772E+04  0.12699999809E+01 0. -1.
       -4    1    3    3    0  502 -0.12895389400E+04  0.11893652687E+03 -0.13469463161E+04  0.18685081126E+04  0.12699999809E+01 0.  1.
</event>
<event>
 5   0  0.3669347E-08  0.3847576E+04  0.7818609E-02  0.8036022E-01
       -2   -1    0    0    0  501  0.00000000000E+00  0.00000000000E+00  0.21441735201E+04  0.21441735201E+04  0.25500000920E-02 0.  1.
        2   -1    0    0  501    0  0.00000000000E+00  0.00000000000E+00 -0.17260542958E+04  0.17260542958E+04  0.25500000920E-02 0. -1.
    10030    2    1    2    0    0  0.00000000000E+00  0.00000000000E+00  0.41811922425E+03  0.38702278159E+04  0.38475758161E+04 0.  0.
        5    1    3    3  502    0 -0.75195774149E+03 -0.17632513355E+04  0.45491974415E+02  0.19174429136E+04  0.46999998093E+01 0.  1.
       -5    1    3    3    0  502  0.75195774149E+03  0.17632513355E+04  0.37262724984E+03  0.19527849023E+04  0.46999998093E+01 0. -1.
</event>
<event>
 5   0  0.3769985E-08  0.3878452E+04  0.7818609E-02  0.8029526E-01
       -2   -1    0    0    0  501  0.00000000000E+00  0.00000000000E+00  0.19258662298E+04  0.19258662298E+04  0.25500000920E-02 0.  1.
        2   -1    0    0  501    0  0.00000000000E+00  0.00000000000E+00 -0.19526782015E+04  0.19526782015E+04  0.25500000920E-02 0. -1.
    10030    2    1    2    0    0  0.00000000000E+00  0.00000000000E+00 -0.26811971715E+02  0.38785444313E+04  0.38784517561E+04 0.  0.
        1    1    3    3  502    0 -0.11557136893E+04 -0.15462711524E+04 -0.19771556467E+03  0.19405463285E+04  0.50400001928E-02 0. -1.
       -1    1    3    3    0  502  0.11557136893E+04  0.15462711524E+04  0.17090359296E+03  0.19379981028E+04  0.50400001928E-02 0.  1.
</event>
<event>
 5   0  0.3669347E-08  0.3864462E+04  0.7818609E-02  0.8032461E-01
       -2   -1    0    0    0  501  0.00000000000E+00  0.00000000000E+00  0.25027406620E+04  0.25027406621E+04  0.25500000920E-02 0.  1.
        2   -1    0    0  501    0  0.00000000000E+00  0.00000000000E+00 -0.14917712705E+04  0.14917712705E+04  0.25500000920E-02 0. -1.
    10030    2    1    2    0    0  0.00000000000E+00  0.00000000000E+00  0.10109693916E+04  0.39945119325E+04  0.38644619895E+04 0.  0.
        5    1    3    3  502    0 -0.17198478352E+04  0.87889901188E+03  0.56353953427E+03  0.20119490416E+04  0.46999998093E+01 0. -1.
       -5    1    3    3    0  502  0.17198478352E+04 -0.87889901188E+03  0.44742985730E+03  0.19825628909E+04  0.46999998093E+01 0.  1.
</event>
<event>
 5   0  0.1164500E-08  0.3921784E+04  0.7818609E-02  0.8020514E-01
        1   -1    0    0  501    0  0.00000000000E+00  0.00000000000E+00  0.14355061069E+04  0.14355061069E+04  0.50400001928E-02 0. -1.
       -1   -1    0    0    0  501  0.00000000000E+00  0.00000000000E+00 -0.26785650995E+04  0.26785650996E+04  0.50400001928E-02 0.  1.
    10030    2    1    2    0    0  0.00000000000E+00  0.00000000000E+00 -0.12430589927E+04  0.41140712064E+04  0.39217835525E+04 0.  0.
        2    1    3    3  502    0 -0.15033507651E+02  0.32092277478E+03 -0.26507678424E+04  0.26701662098E+04  0.25500000920E-02 0.  1.
       -2    1    3    3    0  502  0.15033507651E+02 -0.32092277478E+03  0.14077088497E+04  0.14439049966E+04  0.25500000920E-02 0. -1.
</event>
<event>
 5   0  0.3669347E-08  0.3874820E+04  0.7818609E-02  0.8030287E-01
       -2   -1    0    0    0  501  0.00000000000E+00  0.00000000000E+00  0.29946937450E+04  0.29946937450E+04  0.25500000920E-02 0. -1.
        2   -1    0    0  501    0  0.00000000000E+00  0.00000000000E+00 -0.12534025939E+04  0.12534025939E+04  0.25500000920E-02 0.  1.
    10030    2    1    2    0    0  0.00000000000E+00  0.00000000000E+00  0.17412911511E+04  0.42480963389E+04  0.38748196903E+04 0.  0.
        5    1    3    3  502    0 -0.33852311086E+02  0.19308242501E+04  0.69972098113E+03  0.20539863206E+04  0.46999998093E+01 0. -1.
       -5    1    3    3    0  502  0.33852311086E+02 -0.19308242501E+04  0.10415701700E+04  0.21941100184E+04  0.46999998093E+01 0.  1.
</event>
<event>
 5   0  0.1164500E-08  0.3915017E+04  0.7818609E-02  0.8021913E-01
       -1   -1    0    0    0  501  0.00000000000E+00  0.00000000000E+00  0.14810556943E+04  0.14810556943E+04  0.50400001928E-02 0. -1.
        1   -1    0    0  501    0  0.00000000000E+00  0.00000000000E+00 -0.25872352230E+04  0.25872352230E+04  0.50400001928E-02 0.  1.
    10030    2    1    2    0    0  0.00000000000E+00  0.00000000000E+00 -0.11061795287E+04  0.40682909173E+04  0.39150169652E+04 0.  0.
        3    1    3    3  502    0  0.15197301140E+04 -0.10267838671E+04  0.15777919256E+03  0.18408582273E+04  0.10100000352E+00 0. -1.
       -3    1    3    3    0  502 -0.15197301140E+04  0.10267838671E+04 -0.12639587213E+04  0.22274326900E+04  0.10100000352E+00 0.  1.
</event>
<event>
 5   0  0.1164500E-08  0.3882157E+04  0.7818609E-02  0.8028751E-01
       -1   -1    0    0    0  501  0.00000000000E+00  0.00000000000E+00  0.12956862300E+04  0.12956862300E+04  0.50400001928E-02 0.  1.
        1   -1    0    0  501    0  0.00000000000E+00  0.00000000000E+00 -0.29079454869E+04  0.29079454869E+04  0.50400001928E-02 0. -1.
    10030    2    1    2    0    0  0.00000000000E+00  0.00000000000E+00 -0.16122592569E+04  0.42036317169E+04  0.38821565785E+04 0.  0.
        4    1    3    3  502    0  0.38405096143E+03  0.75524333692E+03  0.10848815858E+04  0.13765381604E+04  0.12699999809E+01 0.  1.
       -4    1    3    3    0  502 -0.38405096143E+03 -0.75524333692E+03 -0.26971408427E+04  0.28270935565E+04  0.12699999809E+01 0. -1.
</event>
<event>
 5   0  0.1164500E-08  0.3929848E+04  0.7818609E-02  0.8018850E-01
        1   -1    0    0  501    0  0.00000000000E+00  0.00000000000E+00  0.17889479260E+04  0.17889479260E+04  0.50400001928E-02 0. -1.
       -1   -1    0    0    0  501  0.00000000000E+00  0.00000000000E+00 -0.21582105400E+04  0.21582105400E+04  0.50400001928E-02 0.  1.
    10030    2    1    2    0    0  0.00000000000E+00  0.00000000000E+00 -0.36926261402E+03  0.39471584660E+04  0.39298479713E+04 0.  0.
        5    1    3    3  502    0  0.64262044509E+03 -0.31975505196E+03 -0.20218138115E+04  0.21454504208E+04  0.46999998093E+01 0.  1.
       -5    1    3    3    0  502 -0.64262044509E+03  0.31975505196E+03  0.16525511975E+04  0.18017080452E+04  0.46999998093E+01 0. -1.
</event>
<event>
 5   0  0.1164500E-08  0.3907365E+04  0.7818609E-02  0.8023499E-01
       -1   -1    0    0    0  501  0.00000000000E+00  0.00000000000E+00  0.12227486710E+04  0.12227486710E+04  0.50400001928E-02 0. -1.
        1   -1    0    0  501    0  0.00000000000E+00  0.00000000000E+00 -0.31215536368E+04  0.31215536368E+04  0.50400001928E-02 0.  1.
    10030    2    1    2    0    0  0.00000000000E+00  0.00000000000E+00 -0.18988049658E+04  0.43443023078E+04  0.39073651279E+04 0.  0.
        3    1    3    3  502    0 -0.27865168199E+03  0.99214655470E+03  0.89598220713E+03  0.13655715549E+04  0.10100000352E+00 0. -1.
       -3    1    3    3    0  502  0.27865168199E+03 -0.99214655470E+03 -0.27947871729E+04  0.29787307529E+04  0.10100000352E+00 0.  1.
</event>
<event>
 5   0  0.3872969E-08  0.3901636E+04  0.7818609E-02  0.8024689E-01
       -2   -1    0    0    0  501  0.00000000000E+00  0.00000000000E+00  0.16944669037E+04  0.16944669037E+04  0.25500000920E-02 0. -1.
        2   -1    0    0  501    0  0.00000000000E+00  0.00000000000E+00 -0.22459513144E+04  0.22459513144E+04  0.25500000920E-02 0.  1.
    10030    2    1    2    0    0  0.00000000000E+00  0.00000000000E+00 -0.55148441071E+03  0.39404182182E+04  0.39016356415E+04 0.  0.
        2    1    3    3  502    0 -0.10734975972E+04  0.15238373347E+04 -0.85697378306E+03  0.20515558435E+04  0.25500000920E-02 0.  1.
       -2    1    3    3    0  502  0.10734975972E+04 -0.15238373347E+04  0.30548937236E+03  0.18888623747E+04  0.25500000920E-02 0. -1.
</event>
<event>
 5   0  0.1164500E-08  0.3898615E+04  0.7818609E-02  0.8025317E-01
        1   -1    0    0  501    0  0.00000000000E+00  0.00000000000E+00  0.21506385738E+04  0.21506385738E+04  0.50400001928E-02 0.  1.
       -1   -1    0    0    0  501  0.00000000000E+00  0.00000000000E+00 -0.17668237019E+04  0.17668237019E+04  0.50400001928E-02 0. -1.
    10030    2    1    2    0    0  0.00000000000E+00  0.00000000000E+00  0.38381487187E+03  0.39174622757E+04  0.38986147316E+04 0.  0.
        5    1    3    3  502    0 -0.50724227088E+03  0.11210442502E+04  0.17110835563E+04  0.21075730020E+04  0.46999998093E+01 0.  1.
       -5    1    3    3    0  502  0.50724227088E+03 -0.11210442502E+04 -0.13272686844E+04  0.18098892737E+04  0.46999998093E+01 0. -1.
</event>
<event>
 5   0  0.1164500E-08  0.3899247E+04  0.7818609E-02  0.8025186E-01
        1   -1    0    0  501    0  0.00000000000E+00  0.00000000000E+00  0.14076187864E+04  0.14076187864E+04  0.50400001928E-02 0.  1.
       -1   -1    0    0    0  501  0.00000000000E+00  0.00000000000E+00 -0.27003280788E+04  0.27003280788E+04  0.50400001928E-02 0. -1.
    10030    2    1    2    0    0  0.00000000000E+00  0.00000000000E+00 -0.12927092924E+04  0.41079468652E+04  0.38992473802E+04 0.  0.
        2    1    3    3  502    0 -0.28001582019E+03 -0.18677726555E+02  0.13862281504E+04  0.14143500988E+04  0.25500000920E-02 0.  1.
       -2    1    3    3    0  502  0.28001582019E+03  0.18677726555E+02 -0.26789374428E+04  0.26935967663E+04  0.25500000920E-02 0. -1.
</event>
<event>
 5   0  0.1164500E-08  0.3896081E+04  0.7818609E-02  0.8025845E-01
       -1   -1    0    0    0  501  0.00000000000E+00  0.00000000000E+00  0.19214954149E+04  0.19214954149E+04  0.50400001928E-02 0. -1.
        1   -1    0    0  501    0  0.00000000000E+00  0.00000000000E+00 -0.19749525072E+04  0.19749525072E+04  0.50400001928E-02 0.  1.
    10030    2    1    2    0    0  0.00000000000E+00  0.00000000000E+00 -0.53457092316E+02  0.38964479222E+04  0.38960812041E+04 0.  0.
        3    1    3    3  502    0 -0.46097208424E+03  0.46575318164E+02 -0.19190476675E+04  0.19741855240E+04  0.10100000352E+00 0.  1.
       -3    1    3    3    0  502  0.46097208424E+03 -0.46575318164E+02  0.18655905752E+04  0.19222623981E+04  0.10100000352E+00 0. -1.
</event>
<event>
 5   0  0.3769985E-08  0.3900718E+04  0.7818609E-02  0.8024880E-01
        2   -1    0    0  501    0  0.00000000000E+00  0.00000000000E+00  0.17766934853E+04  0.17766934853E+04  0.25500000920E-02 0.  1.
       -2   -1    0    0    0  501  0.00000000000E+00  0.00000000000E+00 -0.21409993242E+04  0.21409993242E+04  0.25500000920E-02 0. -1.
    10030    2    1    2    0    0  0.00000000000E+00  0.00000000000E+00 -0.36430583889E+03  0.39176928095E+04  0.39007176526E+04 0.  0.
        1    1    3    3  502    0 -0.57176793890E+03  0.16471908262E+04 -0.10598801797E+04  0.20404661696E+04  0.50400001928E-02 0. -1.
       -1    1    3    3    0  502  0.57176793890E+03 -0.16471908262E+04  0.69557434082E+03  0.18772266399E+04  0.50400001928E-02 0.  1.
</event>
<event>
 5   0  0.3872969E-08  0.3898908E+04  0.7818609E-02  0.8025256E-01
       -2   -1    0    0    0  501  0.00000000000E+00  0.00000000000E+00  0.16590843999E+04  0.16590843999E+04  0.25500000920E-02 0. -1.
        2   -1    0    0  501    0  0.00000000000E+00  0.00000000000E+00 -0.22906437589E+04  0.22906437589E+04  0.25500000920E-02 0.  1.
    10030    2    1    2    0    0  0.00000000000E+00  0.00000000000E+00 -0.63155935893E+03  0.39497281588E+04  0.38989082196E+04 0.  0.
        2    1    3    3  502    0 -0.55137116506E+03 -0.14838173272E+04 -0.14684362489E+04  0.21591732305E+04  0.25500000920E-02 0.  1.
       -2    1    3    3    0  502  0.55137116506E+03  0.14838173272E+04  0.83687689001E+03  0.17905549283E+04  0.25500000920E-02 0. -1.
</event>
<event>
 5   0  0.1164500E-08  0.3906460E+04  0.7818609E-02  0.8023687E-01
       -1   -1    0    0    0  501  0.00000000000E+00  0.00000000000E+00  0.15489358955E+04  0.15489358955E+04  0.50400001928E-02 0.  1.
        1   -1    0    0  501    0  0.00000000000E+00  0.00000000000E+00 -0.24630499881E+04  0.24630499881E+04  0.50400001928E-02 0. -1.
    10030    2    1    2    0    0  0.00000000000E+00  0.00000000000E+00 -0.91411409255E+03  0.40119858836E+04  0.39064595424E+04 0.  0.
        5    1    3    3  502    0 -0.19127060176E+04  0.72834786832E+02 -0.85658400596E+03  0.20970234775E+04  0.46999998093E+01 0. -1.
       -5    1    3    3    0  502  0.19127060176E+04 -0.72834786832E+02 -0.57530086583E+02  0.19149624061E+04  0.46999998093E+01 0.  1.
</event>
<event>
 5   0  0.3769985E-08  0.3900079E+04  0.7818609E-02  0.8025013E-01
       -2   -1    0    0    0  501  0.00000000000E+00  0.00000000000E+00  0.14558126754E+04  0.14558126754E+04  0.25500000920E-02 0. -1.
        2   -1    0    0  501    0  0.00000000000E+00  0.00000000000E+00 -0.26120494345E+04  0.26120494345E+04  0.25500000920E-02 0.  1.
    10030    2    1    2    0    0  0.00000000000E+00  0.00000000000E+00 -0.11562367592E+04  0.40678621099E+04  0.39000793200E+04 0.  0.
        1    1    3    3  502    0 -0.12391465259E+04 -0.14068532175E+04 -0.11377982682E+04  0.21930127650E+04  0.50400001928E-02 0.  1.
       -1    1    3    3    0  502  0.12391465259E+04  0.14068532175E+04 -0.18438490985E+02  0.18748493449E+04  0.50400001928E-02 0. -1.
</event>
<event>
 5   0  0.1164500E-08  0.3899915E+04  0.7818609E-02  0.8025047E-01
       -1   -1    0    0    0  501  0.00000000000E+00  0.00000000000E+00  0.20581128923E+04  0.20581128923E+04  0.50400001928E-02 0.  1.
        1   -1    0    0  501    0  0.00000000000E+00  0.00000000000E+00 -0.18474854017E+04  0.18474854017E+04  0.50400001928E-02 0. -1.
    10030    2    1    2    0    0  0.00000000000E+00  0.00000000000E+00  0.21062749061E+03  0.39055982941E+04  0.38999146266E+04 0.  0.
        1    1    3    3  502    0  0.56983612331E+03  0.98083172118E+03  0.16936862288E+04  0.20384594954E+04  0.50400001928E-02 0.  1.
       -1    1    3    3    0  502 -0.56983612331E+03 -0.98083172118E+03 -0.14830587382E+04  0.18671387987E+04  0.50400001928E-02 0. -1.
</event>
<event>
 5   0  0.1164500E-08  0.3903708E+04  0.7818609E-02  0.8024258E-01
        1   -1    0    0  501    0  0.00000000000E+00  0.00000000000E+00  0.16148485821E+04  0.16148485821E+04  0.50400001928E-02 0. -1.
       -1   -1    0    0    0  501  0.00000000000E+00  0.00000000000E+00 -0.23591901408E+04  0.23591901408E+04  0.50400001928E-02 0.  1.
    10030    2    1    2    0    0  0.00000000000E+00  0.00000000000E+00 -0.74434155879E+03  0.39740387229E+04  0.39037084183E+04 0.  0.
        3    1    3    3  502    0 -0.57671423313E+03 -0.28671074686E+02 -0.22702493727E+04  0.23425314431E+04  0.10100000352E+00 0.  1.
       -3    1    3    3    0  502  0.57671423313E+03  0.28671074686E+02  0.15259078140E+04  0.16315072798E+04  0.10100000352E+00 0. -1.
</event>
<event>
 5   0  0.3724293E-08  0.3903700E+04  0.7818609E-02  0.8024260E-01
       -2   -1    0    0    0  501  0.00000000000E+00  0.00000000000E+00  0.26101050014E+04  0.26101050014E+04  0.25500000920E-02 0.  1.
        2   -1    0    0  501    0  0.00000000000E+00  0.00000000000E+00 -0.14596034653E+04  0.14596034653E+04  0.25500000920E-02 0. -1.
    10030    2    1    2    0    0  0.00000000000E+00  0.00000000000E+00  0.11505015361E+04  0.40697084667E+04  0.39036999397E+04 0.  0.
        4    1    3    3  502    0  0.57190091588E+03  0.10453236032E+04  0.21869380862E+04  0.24904762393E+04  0.12699999809E+01 0.  1.
       -4    1    3    3    0  502 -0.57190091588E+03 -0.10453236032E+04 -0.10364365501E+04  0.15792322274E+04  0.12699999809E+01 0. -1.
</event>
<event>
 5   0  0.1164500E-08  0.3900849E+04  0.7818609E-02  0.8024853E-01
        1   -1    0    0  501    0  0.00000000000E+00  0.00000000000E+00  0.26078314719E+04  0.26078314719E+04  0.50400001928E-02 0. -1.
       -1   -1    0    0    0  501  0.00000000000E+00  0.00000000000E+00 -0.14587425910E+04  0.14587425910E+04  0.50400001928E-02 0.  1.
    10030    2    1    2    0    0  0.00000000000E+00  0.00000000000E+00  0.11490888809E+04  0.40665740629E+04  0.39008485427E+04 0.  0.
        2    1    3    3  502    0 -0.18249192937E+04 -0.64860953402E+03  0.33425214734E+03  0.19653878126E+04  0.25500000920E-02 0.  1.
       -2    1    3    3    0  502  0.18249192937E+04  0.64860953402E+03  0.81483673359E+03  0.21011862503E+04  0.25500000920E-02 0. -1.
</event>
<event>
 5   0  0.3769985E-08  0.3904656E+04  0.7818609E-02  0.8024062E-01
       -2   -1    0    0    0  501  0.00000000000E+00  0.00000000000E+00  0.16653321913E+04  0.16653321913E+04  0.25500000920E-02 0. -1.
        2   -1    0    0  501    0  0.00000000000E+00  0.00000000000E+00 -0.22887831926E+04  0.22887831926E+04  0.25500000920E-02 0.  1.
    10030    2    1    2    0    0  0.00000000000E+00  0.00000000000E+00 -0.62345100122E+03  0.39541153839E+04  0.39046558515E+04 0.  0.
        1    1    3    3  502    0  0.17582700513E+04 -0.29317639556E+02  0.54707997906E+03  0.18416486095E+04  0.50400001928E-02 0.  1.
       -1    1    3    3    0  502 -0.17582700513E+04  0.29317639556E+02 -0.11705309803E+04  0.21124667744E+04  0.50400001928E-02 0. -1.
</event>
<event>
 5   0  0.3669347E-08  0.3909810E+04  0.7818609E-02  0.8022992E-01
       -2   -1    0    0    0  501  0.00000000000E+00  0.00000000000E+00  0.15002063879E+04  0.15002063879E+04  0.25500000920E-02 0. -1.
        2   -1    0    0  501    0  0.00000000000E+00  0.00000000000E+00 -0.25474190297E+04  0.25474190297E+04  0.25500000920E-02 0.  1.
    10030    2    1    2    0    0  0.00000000000E+00  0.00000000000E+00 -0.10472126418E+04  0.40476254176E+04  0.39098103795E+04 0.  0.
        5    1    3    3  502    0  0.62105355201E+03  0.27625610506E+03 -0.24211372997E+04  0.25147470775E+04  0.46999998093E+01 0.  1.
       -5    1    3    3    0  502 -0.62105355201E+03 -0.27625610506E+03  0.13739246578E+04  0.15328783401E+04  0.46999998093E+01 0. -1.
</event>
<event>
 5   0  0.3724293E-08  0.3902346E+04  0.7818609E-02  0.8024541E-01
        2   -1    0    0  501    0  0.00000000000E+00  0.00000000000E+00  0.24994701918E+04  0.24994701918E+04  0.25500000920E-02 0. -1.
       -2   -1    0    0    0  501  0.00000000000E+00  0.00000000000E+00 -0.15231533232E+04  0.15231533232E+04  0.25500000920E-02 0.  1.
    10030    2    1    2    0    0  0.00000000000E+00  0.00000000000E+00  0.97631686863E+03  0.40226235150E+04  0.39023461296E+04 0.  0.
        4    1    3    3  502    0 -0.17573156089E+04 -0.22467587555E+03 -0.35462102890E+03  0.18067637049E+04  0.12699999809E+01 0.  1.
       -4    1    3    3    0  502  0.17573156089E+04  0.22467587555E+03  0.13309378975E+04  0.22158598101E+04  0.12699999809E+01 0. -1.
</event>
<event>
 5   0  0.1164500E-08  0.3894506E+04  0.7818609E-02  0.8026173E-01
       -1   -1    0    0    0  501  0.00000000000E+00  0.00000000000E+00  0.17963015178E+04  0.17963015179E+04  0.50400001928E-02 0. -1.
        1   -1    0    0  501    0  0.00000000000E+00  0.00000000000E+00 -0.21108892593E+04  0.21108892593E+04  0.50400001928E-02 0.  1.
    10030    2    1    2    0    0  0.00000000000E+00  0.00000000000E+00 -0.31458774143E+03  0.39071907771E+04  0.38945056582E+04 0.  0.
        3    1    3    3  502    0 -0.18397309425E+04  0.63796717481E+03 -0.17081044334E+03  0.19546836764E+04  0.10100000352E+00 0. -1.
       -3    1    3    3    0  502  0.18397309425E+04 -0.63796717481E+03 -0.14377729809E+03  0.19525071008E+04  0.10100000352E+00 0.  1.
</event>
<event>
 5   0  0.1164500E-08  0.3900763E+04  0.7818609E-02  0.8024871E-01
       -1   -1    0    0    0  501  0.00000000000E+00  0.00000000000E+00  0.21111039290E+04  0.21111039290E+04  0.50400001928E-02 0. -1.
        1   -1    0    0  501    0  0.00000000000E+00  0.00000000000E+00 -0.18018951038E+04  0.18018951038E+04  0.50400001928E-02 0.  1.
    10030    2    1    2    0    0  0.00000000000E+00  0.00000000000E+00  0.30920882520E+03  0.39129990329E+04  0.39007629169E+04 0.  0.
        3    1    3    3  502    0  0.44622983794E+03  0.18926139612E+04  0.28713874252E+01  0.19445094316E+04  0.10100000352E+00 0. -1.
       -3    1    3    3    0  502 -0.44622983794E+03 -0.18926139612E+04  0.30633743777E+03  0.19684896013E+04  0.10100000352E+00 0.  1.
</event>
<event>
 5   0  0.3690572E-08  0.3900631E+04  0.7818609E-02  0.8024898E-01
       -2   -1    0    0    0  501  0.00000000000E+00  0.00000000000E+00  0.18888135178E+04  0.18888135178E+04  0.25500000920E-02 0.  1.
        2   -1    0    0  501    0  0.00000000000E+00  0.00000000000E+00 -0.20138205046E+04  0.20138205046E+04  0.25500000920E-02 0. -1.
    10030    2    1    2    0    0  0.00000000000E+00  0.00000000000E+00 -0.12500698672E+03  0.39026340224E+04  0.39006314317E+04 0.  0.
        3    1    3    3  502    0  0.92935276183E+03  0.54998344773E+03  0.15623848031E+04  0.18992694996E+04  0.10100000352E+00 0.  1.
       -3    1    3    3    0  502 -0.92935276183E+03 -0.54998344773E+03 -0.16873917899E+04  0.20033645228E+04  0.10100000352E+00 0. -1.
</event>
<event>
 5   0  0.3724293E-08  0.3890865E+04  0.7818609E-02  0.8026932E-01
        2   -1    0    0  501    0  0.00000000000E+00  0.00000000000E+00  0.28631399303E+04  0.28631399303E+04  0.25500000920E-02 0.  1.
       -2   -1    0    0    0  501  0.00000000000E+00  0.00000000000E+00 -0.13218729734E+04  0.13218729734E+04  0.25500000920E-02 0. -1.
    10030    2    1    2    0    0  0.00000000000E+00  0.00000000000E+00  0.15412669569E+04  0.41850129036E+04  0.38908648359E+04 0.  0.
        4    1    3    3  502    0 -0.91135312594E+02  0.14584625484E+04  0.21519677246E+04  0.26012276622E+04  0.12699999809E+01 0. -1.
       -4    1    3    3    0  502  0.91135312594E+02 -0.14584625484E+04 -0.61070076771E+03  0.15837852414E+04  0.12699999809E+01 0.  1.
</event>
<event>
 5   0  0.1164500E-08  0.3893807E+04  0.7818609E-02  0.8026319E-01
        1   -1    0    0  501    0  0.00000000000E+00  0.00000000000E+00  0.19885049916E+04  0.19885049916E+04  0.50400001928E-02 0. -1.
       -1   -1    0    0    0  501  0.00000000000E+00  0.00000000000E+00 -0.19061719079E+04  0.19061719079E+04  0.50400001928E-02 0.  1.
    10030    2    1    2    0    0  0.00000000000E+00  0.00000000000E+00  0.82333083657E+02  0.38946768995E+04  0.38938065456E+04 0.  0.
        4    1    3    3  502    0  0.17130179992E+04 -0.85897034672E+03 -0.30266895957E+03  0.19400698013E+04  0.12699999809E+01 0.  1.
       -4    1    3    3    0  502 -0.17130179992E+04  0.85897034672E+03  0.38500204323E+03  0.19546070982E+04  0.12699999809E+01 0. -1.
</event>
<event>
 5   0  0.1164500E-08  0.3901377E+04  0.7818609E-02  0.8024743E-01
        1   -1    0    0  501    0  0.00000000000E+00  0.00000000000E+00  0.26964922179E+04  0.26964922179E+04  0.50400001928E-02 0. -1.
       -1   -1    0    0    0  501  0.00000000000E+00  0.00000000000E+00 -0.14111616848E+04  0.14111616848E+04  0.50400001928E-02 0.  1.
    10030    2    1    2    0    0  0.00000000000E+00  0.00000000000E+00  0.12853305331E+04  0.41076539027E+04  0.39013774497E+04 0.  0.
        1    1    3    3  502    0 -0.12827881446E+04 -0.77064298451E+03  0.19601243919E+04  0.24660745457E+04  0.50400001928E-02 0. -1.
       -1    1    3    3    0  502  0.12827881446E+04  0.77064298451E+03 -0.67479385877E+03  0.16415793570E+04  0.50400001928E-02 0.  1.
</event>
<event>
 5   0  0.1164500E-08  0.3906560E+04  0.7818609E-02  0.8023666E-01
        1   -1    0    0  501    0  0.00000000000E+00  0.00000000000E+00  0.15936458356E+04  0.15936458356E+04  0.50400001928E-02 0.  1.
       -1   -1    0    0    0  501  0.00000000000E+00  0.00000000000E+00 -0.23940717603E+04  0.23940717603E+04  0.50400001928E-02 0. -1.
    10030    2    1    2    0    0  0.00000000000E+00  0.00000000000E+00 -0.80042592470E+03  0.39877175959E+04  0.39065598630E+04 0.  0.
        2    1    3    3  502    0  0.59720799979E+02 -0.19454300695E+04 -0.23236530769E+03  0.19601679432E+04  0.25500000920E-02 0. -1.
       -2    1    3    3    0  502 -0.59720799979E+02  0.19454300695E+04 -0.56806061701E+03  0.20275496527E+04  0.25500000920E-02 0.  1.
</event>
<event>
 5   0  0.3724293E-08  0.3898870E+04  0.7818609E-02  0.8025264E-01
        2   -1    0    0  501    0  0.00000000000E+00  0.00000000000E+00  0.12591826440E+04  0.12591826440E+04  0.25500000920E-02 0.  1.
       -2   -1    0    0    0  501  0.00000000000E+00  0.00000000000E+00 -0.30180661971E+04  0.30180661971E+04  0.25500000920E-02 0. -1.
    10030    2    1    2    0    0  0.00000000000E+00  0.00000000000E+00 -0.17588835531E+04  0.42772488411E+04  0.38988698741E+04 0.  0.
        4    1    3    3  502    0  0.84887559033E+03 -0.14870964320E+02  0.10457090314E+04  0.13469669278E+04  0.12699999809E+01 0.  1.
       -4    1    3    3    0  502 -0.84887559033E+03  0.14870964320E+02 -0.28045925845E+04  0.29302819133E+04  0.12699999809E+01 0. -1.
</event>
<event>
 5   0  0.3724293E-08  0.3882499E+04  0.7818609E-02  0.8028679E-01
        2   -1    0    0  501    0  0.00000000000E+00  0.00000000000E+00  0.13350580151E+04  0.13350580151E+04  0.25500000920E-02 0.  1.
       -2   -1    0    0    0  501  0.00000000000E+00  0.00000000000E+00 -0.28226853368E+04  0.28226853368E+04  0.25500000920E-02 0. -1.
    10030    2    1    2    0    0  0.00000000000E+00  0.00000000000E+00 -0.14876273216E+04  0.41577433519E+04  0.38824985167E+04 0.  0.
        4    1    3    3  502    0 -0.66797474662E+03  0.10106290992E+04  0.88058975992E+03  0.14976653086E+04  0.12699999809E+01 0.  1.
       -4    1    3    3    0  502  0.66797474662E+03 -0.10106290992E+04 -0.23682170815E+04  0.26600780433E+04  0.12699999809E+01 0. -1.
</event>
<event>
 5   0  0.3669347E-08  0.3915440E+04  0.7818609E-02  0.8021826E-01
        2   -1    0    0  501    0  0.00000000000E+00  0.00000000000E+00  0.23463703545E+04  0.23463703545E+04  0.25500000920E-02 0. -1.
       -2   -1    0    0    0  501  0.00000000000E+00  0.00000000000E+00 -0.16334452524E+04  0.16334452524E+04  0.25500000920E-02 0.  1.
    10030    2    1    2    0    0  0.00000000000E+00  0.00000000000E+00  0.71292510209E+03  0.39798156069E+04  0.39154399579E+04 0.  0.
        5    1    3    3  502    0  0.57980937566E+03  0.79297333357E+02  0.22553804947E+04  0.23300708669E+04  0.46999998093E+01 0. -1.
       -5    1    3    3    0  502 -0.57980937566E+03 -0.79297333357E+02 -0.15424553926E+04  0.16497447400E+04  0.46999998093E+01 0.  1.
</event>
<event>
 5   0  0.1164500E-08  0.3901955E+04  0.7818609E-02  0.8024623E-01
       -1   -1    0    0    0  501  0.00000000000E+00  0.00000000000E+00  0.24535362999E+04  0.24535362999E+04  0.50400001928E-02 0.  1.
        1   -1    0    0  501    0  0.00000000000E+00  0.00000000000E+00 -0.15513579985E+04  0.15513579985E+04  0.50400001928E-02 0. -1.
    10030    2    1    2    0    0  0.00000000000E+00  0.00000000000E+00  0.90217830143E+03  0.40048942984E+04  0.39019549784E+04 0.  0.
        5    1    3    3  502    0 -0.13430133138E+04 -0.14030040393E+04  0.26131685675E+03  0.19596973453E+04  0.46999998093E+01 0.  1.
       -5    1    3    3    0  502  0.13430133138E+04  0.14030040393E+04  0.64086144468E+03  0.20451969531E+04  0.46999998093E+01 0. -1.
</event>
<event>
 5   0  0.1164500E-08  0.3899694E+04  0.7818609E-02  0.8025093E-01
        1   -1    0    0  501    0  0.00000000000E+00  0.00000000000E+00  0.17916365565E+04  0.17916365565E+04  0.50400001928E-02 0. -1.
       -1   -1    0    0    0  501  0.00000000000E+00  0.00000000000E+00 -0.21220287528E+04  0.21220287528E+04  0.50400001928E-02 0.  1.
    10030    2    1    2    0    0  0.00000000000E+00  0.00000000000E+00 -0.33039219630E+03  0.39136653093E+04  0.38996944945E+04 0.  0.
        2    1    3    3  502    0  0.15200235185E+04  0.73720317751E+03 -0.11423187486E+04  0.20393214914E+04  0.25500000920E-02 0.  1.
       -2    1    3    3    0  502 -0.15200235185E+04 -0.73720317751E+03  0.81192655226E+03  0.18743438180E+04  0.25500000920E-02 0. -1.
</event>
<event>
 5   0  0.3769985E-08  0.3909455E+04  0.7818609E-02  0.8023066E-01
       -2   -1    0    0    0  501  0.00000000000E+00  0.00000000000E+00  0.12682064502E+04  0.12682064502E+04  0.25500000920E-02 0. -1.
        2   -1    0    0  501    0  0.00000000000E+00  0.00000000000E+00 -0.30128847146E+04  0.30128847146E+04  0.25500000920E-02 0.  1.
    10030    2    1    2    0    0  0.00000000000E+00  0.00000000000E+00 -0.17446782645E+04  0.42810911648E+04  0.39094551174E+04 0.  0.
        1    1    3    3  502    0  0.12808472981E+04  0.14582505956E+03  0.73673904772E+03  0.14847960040E+04  0.50400001928E-02 0. -1.
       -1    1    3    3    0  502 -0.12808472981E+04 -0.14582505956E+03 -0.24814173122E+04  0.27962951608E+04  0.50400001928E-02 0.  1.
</event>
<event>
 5   0  0.1164500E-08  0.3885443E+04  0.7818609E-02  0.8028064E-01
        1   -1    0    0  501    0  0.00000000000E+00  0.00000000000E+00  0.28841551028E+04  0.28841551028E+04  0.50400001928E-02 0. -1.
       -1   -1    0    0    0  501  0.00000000000E+00  0.00000000000E+00 -0.13085864554E+04  0.13085864554E+04  0.50400001928E-02 0.  1.
    10030    2    1    2    0    0  0.00000000000E+00  0.00000000000E+00  0.15755686474E+04  0.41927415583E+04  0.38854427305E+04 0.  0.
        4    1    3    3  502    0  0.20129171593E+03  0.67221617125E+03 -0.11670581544E+04  0.13617706431E+04  0.12699999809E+01 0.  1.
       -4    1    3    3    0  502 -0.20129171593E+03 -0.67221617125E+03  0.27426268018E+04  0.28309709152E+04  0.12699999809E+01 0. -1.
</event>
<event>
 5   0  0.3769985E-08  0.3896965E+04  0.7818609E-02  0.8025661E-01
        2   -1    0    0  501    0  0.00000000000E+00  0.00000000000E+00  0.21459423569E+04  0.21459423569E+04  0.25500000920E-02 0. -1.
       -2   -1    0    0    0  501  0.00000000000E+00  0.00000000000E+00 -0.17691916042E+04  0.17691916043E+04  0.25500000920E-02 0.  1.
    10030    2    1    2    0    0  0.00000000000E+00  0.00000000000E+00  0.37675075266E+03  0.39151339612E+04  0.38969645629E+04 0.  0.
        1    1    3    3  502    0 -0.92242410726E+01 -0.13177851861E+04  0.16303163705E+04  0.20963240091E+04  0.50400001928E-02 0. -1.
       -1    1    3    3    0  502  0.92242410726E+01  0.13177851861E+04 -0.12535656178E+04  0.18188099520E+04  0.50400001928E-02 0.  1.
</event>
<event>
 5   0  0.3872969E-08  0.3893267E+04  0.7818609E-02  0.8026431E-01
        2   -1    0    0  501    0  0.00000000000E+00  0.00000000000E+00  0.25388069785E+04  0.25388069785E+04  0.25500000920E-02 0. -1.
       -2   -1    0    0    0  501  0.00000000000E+00  0.00000000000E+00 -0.14925835626E+04  0.14925835626E+04  0.25500000920E-02 0.  1.
    10030    2    1    2    0    0  0.00000000000E+00  0.00000000000E+00  0.10462234159E+04  0.40313905411E+04  0.38932667850E+04 0.  0.
        2    1    3    3  502    0  0.17585402179E+04 -0.37177419801E+03 -0.25087009106E+03  0.18148321010E+04  0.25500000920E-02 0.  1.
       -2    1    3    3    0  502 -0.17585402179E+04  0.37177419801E+03  0.12970935070E+04  0.22165584401E+04  0.25500000920E-02 0. -1.
</event>
<event>
 5   0  0.1164500E-08  0.3913767E+04  0.7818609E-02  0.8022172E-01
       -1   -1    0    0    0  501  0.00000000000E+00  0.00000000000E+00  0.17488385091E+04  0.17488385091E+04  0.50400001928E-02 0. -1.
        1   -1    0    0  501    0  0.00000000000E+00  0.00000000000E+00 -0.21896782513E+04  0.21896782513E+04  0.50400001928E-02 0.  1.
    10030    2    1    2    0    0  0.00000000000E+00  0.00000000000E+00 -0.44083974220E+03  0.39385167603E+04  0.39137673147E+04 0.  0.
        1    1    3    3  502    0  0.15128499489E+04 -0.78860067170E+03  0.74417572104E+03  0.18612908132E+04  0.50400001928E-02 0. -1.
       -1    1    3    3    0  502 -0.15128499489E+04  0.78860067170E+03 -0.11850154632E+04  0.20772259472E+04  0.50400001928E-02 0.  1.
</event>
<event>
 5   0  0.3724293E-08  0.3897880E+04  0.7818609E-02  0.8025470E-01
        2   -1    0    0  501    0  0.00000000000E+00  0.00000000000E+00  0.19412476799E+04  0.19412476799E+04  0.25500000920E-02 0. -1.
       -2   -1    0    0    0  501  0.00000000000E+00  0.00000000000E+00 -0.19566627417E+04  0.19566627417E+04  0.25500000920E-02 0.  1.
    10030    2    1    2    0    0  0.00000000000E+00  0.00000000000E+00 -0.15415061825E+02  0.38979104217E+04  0.38978799406E+04 0.  0.
        4    1    3    3  502    0  0.22471992568E+03 -0.18210402134E+04  0.64932035474E+03  0.19463568634E+04  0.12699999809E+01 0. -1.
       -4    1    3    3    0  502 -0.22471992568E+03  0.18210402134E+04 -0.66473541656E+03  0.19515535583E+04  0.12699999809E+01 0.  1.
</event>
<event>
 5   0  0.1164500E-08  0.3906015E+04  0.7818609E-02  0.8023779E-01
        1   -1    0    0  501    0  0.00000000000E+00  0.00000000000E+00  0.29033084714E+04  0.29033084714E+04  0.50400001928E-02 0. -1.
       -1   -1    0    0    0  501  0.00000000000E+00  0.00000000000E+00 -0.13137557805E+04  0.13137557805E+04  0.50400001928E-02 0.  1.
    10030    2    1    2    0    0  0.00000000000E+00  0.00000000000E+00  0.15895526909E+04  0.42170642519E+04  0.39060149958E+04 0.  0.
        5    1    3    3  502    0  0.18459729677E+04  0.57884748235E+03  0.50601610300E+03  0.19996887238E+04  0.46999998093E+01 0.  1.
       -5    1    3    3    0  502 -0.18459729677E+04 -0.57884748235E+03  0.10835365879E+04  0.22173755281E+04  0.46999998093E+01 0. -1.
</event>
<event>
 5   0  0.3669347E-08  0.3902464E+04  0.7818609E-02  0.8024517E-01
       -2   -1    0    0    0  501  0.00000000000E+00  0.00000000000E+00  0.22919081761E+04  0.22919081761E+04  0.25500000920E-02 0.  1.
        2   -1    0    0  501    0  0.00000000000E+00  0.00000000000E+00 -0.16611945378E+04  0.16611945378E+04  0.25500000920E-02 0. -1.
    10030    2    1    2    0    0  0.00000000000E+00  0.00000000000E+00  0.63071363835E+03  0.39531027139E+04  0.39024635005E+04 0.  0.
        5    1    3    3  502    0  0.59493078442E+03 -0.18886708099E+02  0.21976901227E+04  0.22768757786E+04  0.46999998093E+01 0.  1.
       -5    1    3    3    0  502 -0.59493078442E+03  0.18886708099E+02 -0.15669764843E+04  0.16762269352E+04  0.46999998093E+01 0. -1.
</event>
<event>
 5   0  0.3669347E-08  0.3792450E+04  0.7818609E-02  0.8047777E-01
       -2   -1    0    0    0  501  0.00000000000E+00  0.00000000000E+00  0.16755422714E+04  0.16755422714E+04  0.25500000920E-02 0. -1.
        2   -1    0    0  501    0  0.00000000000E+00  0.00000000000E+00 -0.21459736215E+04  0.21459736215E+04  0.25500000920E-02 0.  1.
    10030    2    1    2    0    0  0.00000000000E+00  0.00000000000E+00 -0.47043135004E+03  0.38215158929E+04  0.37924501400E+04 0.  0.
        5    1    3    3  502    0 -0.17406264308E+04  0.52010409596E+03 -0.78285009412E+03  0.19781721366E+04  0.46999998093E+01 0. -1.
       -5    1    3    3    0  502  0.17406264308E+04 -0.52010409596E+03  0.31241874408E+03  0.18433437563E+04  0.46999998093E+01 0.  1.
</event>
<event>
 5   0  0.3769985E-08  0.3902910E+04  0.7818609E-02  0.8024424E-01
        2   -1    0    0  501    0  0.00000000000E+00  0.00000000000E+00  0.27526416166E+04  0.27526416166E+04  0.25500000920E-02 0. -1.
       -2   -1    0    0    0  501  0.00000000000E+00  0.00000000000E+00 -0.13834625915E+04  0.13834625915E+04  0.25500000920E-02 0.  1.
    10030    2    1    2    0    0  0.00000000000E+00  0.00000000000E+00  0.13691790251E+04  0.41361042081E+04  0.39029100448E+04 0.  0.
        1    1    3    3  502    0  0.17731404302E+04 -0.32141183541E+03 -0.10905136396E+03  0.18053323110E+04  0.50400001928E-02 0. -1.
       -1    1    3    3    0  502 -0.17731404302E+04  0.32141183541E+03  0.14782303890E+04  0.23307718971E+04  0.50400001928E-02 0.  1.
</event>
<event>
 5   0  0.1164500E-08  0.3890270E+04  0.7818609E-02  0.8027056E-01
       -1   -1    0    0    0  501  0.00000000000E+00  0.00000000000E+00  0.16127262499E+04  0.16127262499E+04  0.50400001928E-02 0.  1.
        1   -1    0    0  501    0  0.00000000000E+00  0.00000000000E+00 -0.23460589889E+04  0.23460589889E+04  0.50400001928E-02 0. -1.
    10030    2    1    2    0    0  0.00000000000E+00  0.00000000000E+00 -0.73333273892E+03  0.39587852388E+04  0.38902703841E+04 0.  0.
        4    1    3    3  502    0 -0.57886320364E+03  0.86110279614E+03 -0.20409297166E+04  0.22895362751E+04  0.12699999809E+01 0. -1.
       -4    1    3    3    0  502  0.57886320364E+03 -0.86110279614E+03  0.13075969776E+04  0.16692489637E+04  0.12699999809E+01 0.  1.
</event>
<event>
 5   0  0.1164500E-08  0.3890267E+04  0.7818609E-02  0.8027057E-01
       -1   -1    0    0    0  501  0.00000000000E+00  0.00000000000E+00  0.31121915842E+04  0.31121915842E+04  0.50400001928E-02 0. -1.
        1   -1    0    0  501    0  0.00000000000E+00  0.00000000000E+00 -0.12157167481E+04  0.12157167481E+04  0.50400001928E-02 0.  1.
    10030    2    1    2    0    0  0.00000000000E+00  0.00000000000E+00  0.18964748361E+04  0.43279083323E+04  0.38902665370E+04 0.  0.
        3    1    3    3  502    0 -0.67028011038E+03  0.85238715679E+03 -0.84826519623E+03  0.13767327790E+04  0.10100000352E+00 0.  1.
       -3    1    3    3    0  502  0.67028011038E+03 -0.85238715679E+03  0.27447400323E+04  0.29511755533E+04  0.10100000352E+00 0. -1.
</event>
<event>
 5   0  0.1164500E-08  0.3903205E+04  0.7818609E-02  0.8024363E-01
        1   -1    0    0  501    0  0.00000000000E+00  0.00000000000E+00  0.15555138239E+04  0.15555138239E+04  0.50400001928E-02 0. -1.
       -1   -1    0    0    0  501  0.00000000000E+00  0.00000000000E+00 -0.24485488778E+04  0.24485488778E+04  0.50400001928E-02 0.  1.
    10030    2    1    2    0    0  0.00000000000E+00  0.00000000000E+00 -0.89303505392E+03  0.40040627016E+04  0.39032046463E+04 0.  0.
        3    1    3    3  502    0  0.17557222569E+04 -0.84764301118E+03 -0.35654546939E+03  0.19819646817E+04  0.10100000352E+00 0.  1.
       -3    1    3    3    0  502 -0.17557222569E+04  0.84764301118E+03 -0.53648958453E+03  0.20220980199E+04  0.10100000352E+00 0. -1.
</event>
<event>
 5   0  0.3724293E-08  0.3896090E+04  0.7818609E-02  0.8025843E-01
       -2   -1    0    0    0  501  0.00000000000E+00  0.00000000000E+00  0.11105311614E+04  0.11105311614E+04  0.25500000920E-02 0.  1.
        2   -1    0    0  501    0  0.00000000000E+00  0.00000000000E+00 -0.34171753588E+04  0.34171753588E+04  0.25500000920E-02 0. -1.
    10030    2    1    2    0    0  0.00000000000E+00  0.00000000000E+00 -0.23066441974E+04  0.45277065202E+04  0.38960902042E+04 0.  0.
        4    1    3    3  502    0  0.11886994040E+03 -0.10368007026E+04 -0.30649197906E+04  0.32377184397E+04  0.12699999809E+01 0. -1.
       -4    1    3    3    0  502 -0.11886994040E+03  0.10368007026E+04  0.75827559319E+03  0.12899880804E+04  0.12699999809E+01 0.  1.
</event>
<event>
 5   0  0.1164500E-08  0.3894537E+04  0.7818609E-02  0.8026166E-01
        3   -1    0    0  501    0  0.00000000000E+00  0.00000000000E+00  0.15094115901E+04  0.15094115935E+04  0.10100000352E+00 0. -1.
       -3   -1    0    0    0  501  0.00000000000E+00  0.00000000000E+00 -0.25121413778E+04  0.25121413798E+04  0.10100000352E+00 0.  1.
    10030    2    1    2    0    0  0.00000000000E+00  0.00000000000E+00 -0.10027297877E+04  0.40215529733E+04  0.38945373653E+04 0.  0.
        3    1    3    3  502    0 -0.21440846204E+03 -0.17480367969E+04  0.35654495793E+03  0.17968661467E+04  0.10100000352E+00 0. -1.
       -3    1    3    3    0  502  0.21440846204E+03  0.17480367969E+04 -0.13592747456E+04  0.22246868266E+04  0.10100000352E+00 0.  1.
</event>
<event>
 5   0  0.1164500E-08  0.3893764E+04  0.7818609E-02  0.8026328E-01
        1   -1    0    0  501    0  0.00000000000E+00  0.00000000000E+00  0.14799656656E+04  0.14799656656E+04  0.50400001928E-02 0. -1.
       -1   -1    0    0    0  501  0.00000000000E+00  0.00000000000E+00 -0.25611058935E+04  0.25611058935E+04  0.50400001928E-02 0.  1.
    10030    2    1    2    0    0  0.00000000000E+00  0.00000000000E+00 -0.10811402279E+04  0.40410715591E+04  0.38937636232E+04 0.  0.
        1    1    3    3  502    0  0.15392782910E+04 -0.11656085768E+04 -0.28146989773E+03  0.19512166243E+04  0.50400001928E-02 0.  1.
       -1    1    3    3    0  502 -0.15392782910E+04  0.11656085768E+04 -0.79967033016E+03  0.20898549348E+04  0.50400001928E-02 0. -1.
</event>
<event>
 5   0  0.1164500E-08  0.3897667E+04  0.7818609E-02  0.8025515E-01
       -1   -1    0    0    0  501  0.00000000000E+00  0.00000000000E+00  0.14608598375E+04  0.14608598375E+04  0.50400001928E-02 0.  1.
        1   -1    0    0  501    0  0.00000000000E+00  0.00000000000E+00 -0.25998060186E+04  0.25998060186E+04  0.50400001928E-02 0. -1.
    10030    2    1    2    0    0  0.00000000000E+00  0.00000000000E+00 -0.11389461810E+04  0.40606658561E+04  0.38976670961E+04 0.  0.
        2    1    3    3  502    0  0.17379369554E+04  0.62971165149E+03  0.73584140077E+02  0.18499665539E+04  0.25500000920E-02 0.  1.
       -2    1    3    3    0  502 -0.17379369554E+04 -0.62971165149E+03 -0.12125303211E+04  0.22106993022E+04  0.25500000920E-02 0. -1.
</event>
<event>
 5   0  0.3690572E-08  0.3905184E+04  0.7818609E-02  0.8023952E-01
        2   -1    0    0  501    0  0.00000000000E+00  0.00000000000E+00  0.27165473649E+04  0.27165473649E+04  0.25500000920E-02 0.  1.
       -2   -1    0    0    0  501  0.00000000000E+00  0.00000000000E+00 -0.14034782662E+04  0.14034782662E+04  0.25500000920E-02 0. -1.
    10030    2    1    2    0    0  0.00000000000E+00  0.00000000000E+00  0.13130690987E+04  0.41200256311E+04  0.39051838296E+04 0.  0.
        3    1    3    3  502    0 -0.86301739535E+03 -0.49816601027E+03 -0.11150251369E+04  0.14954094638E+04  0.10100000352E+00 0. -1.
       -3    1    3    3    0  502  0.86301739535E+03  0.49816601027E+03  0.24280942356E+04  0.26246161673E+04  0.10100000352E+00 0.  1.
</event>
<event>
 5   0  0.3724293E-08  0.3901082E+04  0.7818609E-02  0.8024804E-01
       -2   -1    0    0    0  501  0.00000000000E+00  0.00000000000E+00  0.14842196534E+04  0.14842196534E+04  0.25500000920E-02 0. -1.
        2   -1    0    0  501    0  0.00000000000E+00  0.00000000000E+00 -0.25633736870E+04  0.25633736870E+04  0.25500000920E-02 0.  1.
    10030    2    1    2    0    0  0.00000000000E+00  0.00000000000E+00 -0.10791540336E+04  0.40475933403E+04  0.39010816988E+04 0.  0.
        4    1    3    3  502    0  0.11342951419E+04  0.21182204353E+03 -0.21712528836E+04  0.24588279209E+04  0.12699999809E+01 0.  1.
       -4    1    3    3    0  502 -0.11342951419E+04 -0.21182204353E+03  0.10920988500E+04  0.15887654195E+04  0.12699999809E+01 0. -1.
</event>
<event>
 5   0  0.3769985E-08  0.3904491E+04  0.7818609E-02  0.8024096E-01
       -2   -1    0    0    0  501  0.00000000000E+00  0.00000000000E+00  0.14922707861E+04  0.14922707861E+04  0.25500000920E-02 0. -1.
        2   -1    0    0  501    0  0.00000000000E+00  0.00000000000E+00 -0.25540024336E+04  0.25540024336E+04  0.25500000920E-02 0.  1.
    10030    2    1    2    0    0  0.00000000000E+00  0.00000000000E+00 -0.10617316475E+04  0.40462732196E+04  0.39044913723E+04 0.  0.
        1    1    3    3  502    0 -0.16893384084E+04 -0.91352485940E+03 -0.16760718589E+03  0.19278184810E+04  0.50400001928E-02 0. -1.
       -1    1    3    3    0  502  0.16893384084E+04  0.91352485940E+03 -0.89412446162E+03  0.21184547386E+04  0.50400001928E-02 0.  1.
</event>
<event>
 5   0  0.3690572E-08  0.3896850E+04  0.7818609E-02  0.8025685E-01
       -2   -1    0    0    0  501  0.00000000000E+00  0.00000000000E+00  0.15519555996E+04  0.15519555996E+04  0.25500000920E-02 0.  1.
        2   -1    0    0  501    0  0.00000000000E+00  0.00000000000E+00 -0.24461788139E+04  0.24461788140E+04  0.25500000920E-02 0. -1.
    10030    2    1    2    0    0  0.00000000000E+00  0.00000000000E+00 -0.89422321439E+03  0.39981344135E+04  0.38968504759E+04 0.  0.
        3    1    3    3  502    0 -0.82701561758E+03  0.63656632165E+03 -0.21352302566E+04  0.23766320229E+04  0.10100000352E+00 0. -1.
       -3    1    3    3    0  502  0.82701561758E+03 -0.63656632165E+03  0.12410070422E+04  0.16215023906E+04  0.10100000352E+00 0.  1.
</event>
<event>
 5   0  0.1164500E-08  0.3906959E+04  0.7818609E-02  0.8023584E-01
        3   -1    0    0  501    0  0.00000000000E+00  0.00000000000E+00  0.21400621041E+04  0.21400621064E+04  0.10100000352E+00 0.  1.
       -3   -1    0    0    0  501  0.00000000000E+00  0.00000000000E+00 -0.17831638047E+04  0.17831638076E+04  0.10100000352E+00 0. -1.
    10030    2    1    2    0    0  0.00000000000E+00  0.00000000000E+00  0.35689829935E+03  0.39232259140E+04  0.39069585583E+04 0.  0.
        2    1    3    3  502    0  0.59285490049E+03 -0.51732150962E+03 -0.16170064241E+04  0.17982792477E+04  0.25500000920E-02 0. -1.
       -2    1    3    3    0  502 -0.59285490049E+03  0.51732150962E+03  0.19739047234E+04  0.21249466663E+04  0.25500000920E-02 0.  1.
</event>
<event>
 5   0  0.1164500E-08  0.3843467E+04  0.7818609E-02  0.8036891E-01
       -1   -1    0    0    0  501  0.00000000000E+00  0.00000000000E+00  0.24208800284E+04  0.24208800284E+04  0.50400001928E-02 0.  1.
        1   -1    0    0  501    0  0.00000000000E+00  0.00000000000E+00 -0.15255029612E+04  0.15255029612E+04  0.50400001928E-02 0. -1.
    10030    2    1    2    0    0  0.00000000000E+00  0.00000000000E+00  0.89537706723E+03  0.39463829896E+04  0.38434670036E+04 0.  0.
        4    1    3    3  502    0 -0.18063565067E+04  0.29692112887E+03 -0.15275390672E+03  0.18369598131E+04  0.12699999809E+01 0. -1.
       -4    1    3    3    0  502  0.18063565067E+04 -0.29692112887E+03  0.10481309740E+04  0.21094231765E+04  0.12699999809E+01 0.  1.
</event>
<event>
 5   0  0.1164500E-08  0.3889026E+04  0.7818609E-02  0.8027315E-01
        1   -1    0    0  501    0  0.00000000000E+00  0.00000000000E+00  0.23127465218E+04  0.23127465218E+04  0.50400001928E-02 0. -1.
       -1   -1    0    0    0  501  0.00000000000E+00  0.00000000000E+00 -0.16349093887E+04  0.16349093887E+04  0.50400001928E-02 0.  1.
    10030    2    1    2    0    0  0.00000000000E+00  0.00000000000E+00  0.67783713309E+03  0.39476559105E+04  0.38890261002E+04 0.  0.
        5    1    3    3  502    0 -0.81507586469E+03 -0.16977684751E+03  0.21226628060E+04  0.22801079626E+04  0.46999998093E+01 0. -1.
       -5    1    3    3    0  502  0.81507586469E+03  0.16977684751E+03 -0.14448256729E+04  0.16675479478E+04  0.46999998093E+01 0.  1.
</event>
<event>
 5   0  0.1164500E-08  0.3898112E+04  0.7818609E-02  0.8025422E-01
        1   -1    0    0  501    0  0.00000000000E+00  0.00000000000E+00  0.23589413802E+04  0.23589413802E+04  0.50400001928E-02 0.  1.
       -1   -1    0    0    0  501  0.00000000000E+00  0.00000000000E+00 -0.16103913326E+04  0.16103913326E+04  0.50400001928E-02 0. -1.
    10030    2    1    2    0    0  0.00000000000E+00  0.00000000000E+00  0.74855004758E+03  0.39693327128E+04  0.38981117238E+04 0.  0.
        3    1    3    3  502    0  0.14361791216E+04 -0.18394741431E+02  0.17158711890E+04  0.22376690513E+04  0.10100000352E+00 0.  1.
       -3    1    3    3    0  502 -0.14361791216E+04  0.18394741431E+02 -0.96732114139E+03  0.17316636615E+04  0.10100000352E+00 0. -1.
</event>
<event>
 5   0  0.3724293E-08  0.3891780E+04  0.7818609E-02  0.8026741E-01
       -2   -1    0    0    0  501  0.00000000000E+00  0.00000000000E+00  0.15078399568E+04  0.15078399568E+04  0.25500000920E-02 0. -1.
        2   -1    0    0  501    0  0.00000000000E+00  0.00000000000E+00 -0.25111999163E+04  0.25111999163E+04  0.25500000920E-02 0.  1.
    10030    2    1    2    0    0  0.00000000000E+00  0.00000000000E+00 -0.10033599595E+04  0.40190398730E+04  0.38917798361E+04 0.  0.
        4    1    3    3  502    0 -0.14999973068E+04 -0.11637753321E+04 -0.94239117606E+03  0.21195442165E+04  0.12699999809E+01 0. -1.
       -4    1    3    3    0  502  0.14999973068E+04  0.11637753321E+04 -0.60968783437E+02  0.18994956566E+04  0.12699999809E+01 0.  1.
</event>
<event>
 5   0  0.3769985E-08  0.3898433E+04  0.7818609E-02  0.8025355E-01
       -2   -1    0    0    0  501  0.00000000000E+00  0.00000000000E+00  0.18661206529E+04  0.18661206529E+04  0.25500000920E-02 0. -1.
        2   -1    0    0  501    0  0.00000000000E+00  0.00000000000E+00 -0.20360119893E+04  0.20360119893E+04  0.25500000920E-02 0.  1.
    10030    2    1    2    0    0  0.00000000000E+00  0.00000000000E+00 -0.16989133640E+03  0.39021326422E+04  0.38984325172E+04 0.  0.
        1    1    3    3  502    0  0.11844048697E+04 -0.14829289240E+04 -0.52983454817E+03  0.19704359257E+04  0.50400001928E-02 0.  1.
       -1    1    3    3    0  502 -0.11844048697E+04  0.14829289240E+04  0.35994321177E+03  0.19316967165E+04  0.50400001928E-02 0. -1.
</event>
<event>
 5   0  0.3872969E-08  0.3901750E+04  0.7818609E-02  0.8024665E-01
        2   -1    0    0  501    0  0.00000000000E+00  0.00000000000E+00  0.26076916304E+04  0.26076916304E+04  0.25500000920E-02 0. -1.
       -2   -1    0    0    0  501  0.00000000000E+00  0.00000000000E+00 -0.14594951815E+04  0.14594951815E+04  0.25500000920E-02 0.  1.
    10030    2    1    2    0    0  0.00000000000E+00  0.00000000000E+00  0.11481964490E+04  0.40671868119E+04  0.39017500532E+04 0.  0.
        2    1    3    3  502    0  0.21521761809E+03  0.26720452528E+03 -0.14277986460E+04  0.14684433442E+04  0.25500000920E-02 0.  1.
       -2    1    3    3    0  502 -0.21521761809E+03 -0.26720452528E+03  0.25759950950E+04  0.25987434677E+04  0.25500000920E-02 0. -1.
</event>
<event>
 5   0  0.1164500E-08  0.3975741E+04  0.7818609E-02  0.8009458E-01
        1   -1    0    0  501    0  0.00000000000E+00  0.00000000000E+00  0.21691621345E+04  0.21691621345E+04  0.50400001928E-02 0.  1.
       -1   -1    0    0    0  501  0.00000000000E+00  0.00000000000E+00 -0.18217301859E+04  0.18217301859E+04  0.50400001928E-02 0. -1.
    10030    2    1    2    0    0  0.00000000000E+00  0.00000000000E+00  0.34743194864E+03  0.39908923204E+04  0.39757405039E+04 0.  0.
        3    1    3    3  502    0 -0.32197366067E+03  0.13333278507E+04  0.16180176499E+04  0.21211815861E+04  0.10100000352E+00 0.  1.
       -3    1    3    3    0  502  0.32197366067E+03 -0.13333278507E+04 -0.12705857013E+04  0.18697107343E+04  0.10100000352E+00 0. -1.
</event>
<event>
 5   0  0.3690572E-08  0.3902445E+04  0.7818609E-02  0.8024521E-01
       -2   -1    0    0    0  501  0.00000000000E+00  0.00000000000E+00  0.24203527161E+04  0.24203527161E+04  0.25500000920E-02 0. -1.
        2   -1    0    0  501    0  0.00000000000E+00  0.00000000000E+00 -0.15730225272E+04  0.15730225272E+04  0.25500000920E-02 0.  1.
    10030    2    1    2    0    0  0.00000000000E+00  0.00000000000E+00  0.84733018891E+03  0.39933752433E+04  0.39024450521E+04 0.  0.
        3    1    3    3  502    0 -0.87212438473E+03 -0.11486741357E+04  0.17685238235E+04  0.22820450778E+04  0.10100000352E+00 0. -1.
       -3    1    3    3    0  502  0.87212438473E+03  0.11486741357E+04 -0.92119363463E+03  0.17113301654E+04  0.10100000352E+00 0.  1.
</event>
<event>
 5   0  0.3669347E-08  0.3901894E+04  0.7818609E-02  0.8024635E-01
        2   -1    0    0  501    0  0.00000000000E+00  0.00000000000E+00  0.15709470290E+04  0.15709470290E+04  0.25500000920E-02 0.  1.
       -2   -1    0    0    0  501  0.00000000000E+00  0.00000000000E+00 -0.24228661533E+04  0.24228661533E+04  0.25500000920E-02 0. -1.
    10030    2    1    2    0    0  0.00000000000E+00  0.00000000000E+00 -0.85191912424E+03  0.39938131823E+04  0.39018940966E+04 0.  0.
        5    1    3    3  502    0  0.67244861376E+03 -0.93235261625E+03 -0.20393875138E+04  0.23410664366E+04  0.46999998093E+01 0. -1.
       -5    1    3    3    0  502 -0.67244861376E+03  0.93235261625E+03  0.11874683896E+04  0.16527467457E+04  0.46999998093E+01 0.  1.
</event>
<event>
 5   0  0.3769985E-08  0.3902775E+04  0.7818609E-02  0.8024452E-01
        2   -1    0    0  501    0  0.00000000000E+00  0.00000000000E+00  0.17015427394E+04  0.17015427394E+04  0.25500000920E-02 0. -1.
       -2   -1    0    0    0  501  0.00000000000E+00  0.00000000000E+00 -0.22379179024E+04  0.22379179024E+04  0.25500000920E-02 0.  1.
    10030    2    1    2    0    0  0.00000000000E+00  0.00000000000E+00 -0.53637516302E+03  0.39394606418E+04  0.39027748888E+04 0.  0.
        1    1    3    3  502    0  0.13042356890E+04  0.13770469024E+04 -0.73143952314E+03  0.20328041420E+04  0.50400001928E-02 0.  1.
       -1    1    3    3    0  502 -0.13042356890E+04 -0.13770469024E+04  0.19506436012E+03  0.19066564998E+04  0.50400001928E-02 0. -1.
</event>
<event>
 5   0  0.1164500E-08  0.3906203E+04  0.7818609E-02  0.8023740E-01
       -1   -1    0    0    0  501  0.00000000000E+00  0.00000000000E+00  0.26572016358E+04  0.26572016358E+04  0.50400001928E-02 0.  1.
        1   -1    0    0  501    0  0.00000000000E+00  0.00000000000E+00 -0.14355722543E+04  0.14355722543E+04  0.50400001928E-02 0. -1.
    10030    2    1    2    0    0  0.00000000000E+00  0.00000000000E+00  0.12216293815E+04  0.40927738902E+04  0.39062027303E+04 0.  0.
        3    1    3    3  502    0 -0.94260248857E+03  0.17073711030E+04  0.50097737430E+03  0.20136022136E+04  0.10100000352E+00 0. -1.
       -3    1    3    3    0  502  0.94260248857E+03 -0.17073711030E+04  0.72065200719E+03  0.20791716766E+04  0.10100000352E+00 0.  1.
</event>
<event>
 5   0  0.1164500E-08  0.3896833E+04  0.7818609E-02  0.8025688E-01
        1   -1    0    0  501    0  0.00000000000E+00  0.00000000000E+00  0.21509217493E+04  0.21509217493E+04  0.50400001928E-02 0. -1.
       -1   -1    0    0    0  501  0.00000000000E+00  0.00000000000E+00 -0.17649763406E+04  0.17649763406E+04  0.50400001928E-02 0.  1.
    10030    2    1    2    0    0  0.00000000000E+00  0.00000000000E+00  0.38594540874E+03  0.39158980899E+04  0.38968325589E+04 0.  0.
        4    1    3    3  502    0  0.53315090403E+03  0.47116717821E+03 -0.16297583802E+04  0.17783032326E+04  0.12699999809E+01 0.  1.
       -4    1    3    3    0  502 -0.53315090403E+03 -0.47116717821E+03  0.20157037889E+04  0.21375948573E+04  0.12699999809E+01 0. -1.
</event>
<event>
 5   0  0.1164500E-08  0.3893745E+04  0.7818609E-02  0.8026331E-01
       -1   -1    0    0    0  501  0.00000000000E+00  0.00000000000E+00  0.15394220805E+04  0.15394220805E+04  0.50400001928E-02 0.  1.
        1   -1    0    0  501    0  0.00000000000E+00  0.00000000000E+00 -0.24621655897E+04  0.24621655897E+04  0.50400001928E-02 0. -1.
    10030    2    1    2    0    0  0.00000000000E+00  0.00000000000E+00 -0.92274350928E+03  0.40015876702E+04  0.38937447654E+04 0.  0.
        5    1    3    3  502    0  0.11176208517E+04  0.30032423756E+03 -0.20703056174E+04  0.23718048940E+04  0.46999998093E+01 0. -1.
       -5    1    3    3    0  502 -0.11176208517E+04 -0.30032423756E+03  0.11475621081E+04  0.16297827762E+04  0.46999998093E+01 0.  1.
</event>
<event>
 5   0  0.3769985E-08  0.3900349E+04  0.7818609E-02  0.8024957E-01
        2   -1    0    0  501    0  0.00000000000E+00  0.00000000000E+00  0.23938368085E+04  0.23938368085E+04  0.25500000920E-02 0.  1.
       -2   -1    0    0    0  501  0.00000000000E+00  0.00000000000E+00 -0.15887386582E+04  0.15887386582E+04  0.25500000920E-02 0. -1.
    10030    2    1    2    0    0  0.00000000000E+00  0.00000000000E+00  0.80509815035E+03  0.39825754667E+04  0.39003492557E+04 0.  0.
        1    1    3    3  502    0  0.37588993945E+03 -0.58322423091E+02 -0.15504913592E+04  0.15964705467E+04  0.50400001928E-02 0. -1.
       -1    1    3    3    0  502 -0.37588993945E+03  0.58322423091E+02  0.23555895095E+04  0.23861049200E+04  0.50400001928E-02 0.  1.
</event>
<event>
 5   0  0.3669347E-08  0.3900899E+04  0.7818609E-02  0.8024842E-01
       -2   -1    0    0    0  501  0.00000000000E+00  0.00000000000E+00  0.22849380274E+04  0.22849380274E+04  0.25500000920E-02 0.  1.
        2   -1    0    0  501    0  0.00000000000E+00  0.00000000000E+00 -0.16649266106E+04  0.16649266106E+04  0.25500000920E-02 0. -1.
    10030    2    1    2    0    0  0.00000000000E+00  0.00000000000E+00  0.62001141679E+03  0.39498646380E+04  0.39008994478E+04 0.  0.
        5    1    3    3  502    0 -0.19250324664E+04  0.30464835169E+03  0.23375157660E+03  0.19629626855E+04  0.46999998093E+01 0. -1.
       -5    1    3    3    0  502  0.19250324664E+04 -0.30464835169E+03  0.38625984019E+03  0.19869019526E+04  0.46999998093E+01 0.  1.
</event>
<event>
 5   0  0.3872969E-08  0.3905962E+04  0.7818609E-02  0.8023790E-01
        2   -1    0    0  501    0  0.00000000000E+00  0.00000000000E+00  0.16068832390E+04  0.16068832390E+04  0.25500000920E-02 0.  1.
       -2   -1    0    0    0  501  0.00000000000E+00  0.00000000000E+00 -0.23736222954E+04  0.23736222954E+04  0.25500000920E-02 0. -1.
    10030    2    1    2    0    0  0.00000000000E+00  0.00000000000E+00 -0.76673905637E+03  0.39805055344E+04  0.39059615371E+04 0.  0.
        2    1    3    3  502    0  0.12401210508E+03  0.16989878053E+03  0.15953059321E+04  0.16091133008E+04  0.25500000920E-02 0.  1.
       -2    1    3    3    0  502 -0.12401210508E+03 -0.16989878053E+03 -0.23620449885E+04  0.23713922336E+04  0.25500000920E-02 0. -1.
</event>
<event>
 5   0  0.3690572E-08  0.3903886E+04  0.7818609E-02  0.8024222E-01
        2   -1    0    0  501    0  0.00000000000E+00  0.00000000000E+00  0.22790096832E+04  0.22790096832E+04  0.25500000920E-02 0. -1.
       -2   -1    0    0    0  501  0.00000000000E+00  0.00000000000E+00 -0.16718142528E+04  0.16718142528E+04  0.25500000920E-02 0.  1.
    10030    2    1    2    0    0  0.00000000000E+00  0.00000000000E+00  0.60719543036E+03  0.39508239360E+04  0.39038856902E+04 0.  0.
        3    1    3    3  502    0  0.17500168137E+04  0.43919420285E+03 -0.45009174823E+03  0.18595787126E+04  0.10100000352E+00 0.  1.
       -3    1    3    3    0  502 -0.17500168137E+04 -0.43919420285E+03  0.10572871786E+04  0.20912452234E+04  0.10100000352E+00 0. -1.
</event>
<event>
 5   0  0.3872969E-08  0.3917837E+04  0.7818609E-02  0.8021330E-01
        2   -1    0    0  501    0  0.00000000000E+00  0.00000000000E+00  0.24142535215E+04  0.24142535215E+04  0.25500000920E-02 0.  1.
       -2   -1    0    0    0  501  0.00000000000E+00  0.00000000000E+00 -0.15894610464E+04  0.15894610464E+04  0.25500000920E-02 0. -1.
    10030    2    1    2    0    0  0.00000000000E+00  0.00000000000E+00  0.82479247511E+03  0.40037145679E+04  0.39178371219E+04 0.  0.
        2    1    3    3  502    0 -0.21176891622E+03  0.88847908818E+03 -0.13585408361E+04  0.16370321828E+04  0.25500000920E-02 0. -1.
       -2    1    3    3    0  502  0.21176891622E+03 -0.88847908818E+03  0.21833333112E+04  0.23666823851E+04  0.25500000920E-02 0.  1.
</event>
<event>
 5   0  0.3690572E-08  0.3896448E+04  0.7818609E-02  0.8025768E-01
       -2   -1    0    0    0  501  0.00000000000E+00  0.00000000000E+00  0.17067263748E+04  0.17067263748E+04  0.25500000920E-02 0. -1.
        2   -1    0    0  501    0  0.00000000000E+00  0.00000000000E+00 -0.22238931160E+04  0.22238931160E+04  0.25500000920E-02 0.  1.
    10030    2    1    2    0    0  0.00000000000E+00  0.00000000000E+00 -0.51716674120E+03  0.39306194907E+04  0.38964481445E+04 0.  0.
        3    1    3    3  502    0 -0.65056275143E+03  0.80185085341E+03 -0.19251555666E+04  0.21845870663E+04  0.10100000352E+00 0.  1.
       -3    1    3    3    0  502  0.65056275143E+03 -0.80185085341E+03  0.14079888253E+04  0.17460324244E+04  0.10100000352E+00 0. -1.
</event>
<event>
 5   0  0.3690572E-08  0.3907576E+04  0.7818609E-02  0.8023455E-01
       -2   -1    0    0    0  501  0.00000000000E+00  0.00000000000E+00  0.12751045095E+04  0.12751045095E+04  0.25500000920E-02 0.  1.
        2   -1    0    0  501    0  0.00000000000E+00  0.00000000000E+00 -0.29937049956E+04  0.29937049956E+04  0.25500000920E-02 0. -1.
    10030    2    1    2    0    0  0.00000000000E+00  0.00000000000E+00 -0.17186004861E+04  0.42688095051E+04  0.39075755860E+04 0.  0.
        3    1    3    3  502    0 -0.11390772156E+04  0.98713523996E+03  0.49874223962E+03  0.15876639181E+04  0.10100000352E+00 0.  1.
       -3    1    3    3    0  502  0.11390772156E+04 -0.98713523996E+03 -0.22173427257E+04  0.26811455870E+04  0.10100000352E+00 0. -1.
</event>
<event>
 5   0  0.3724293E-08  0.3902532E+04  0.7818609E-02  0.8024503E-01
        2   -1    0    0  501    0  0.00000000000E+00  0.00000000000E+00  0.22127819003E+04  0.22127819003E+04  0.25500000920E-02 0. -1.
       -2   -1    0    0    0  501  0.00000000000E+00  0.00000000000E+00 -0.17206573095E+04  0.17206573096E+04  0.25500000920E-02 0.  1.
    10030    2    1    2    0    0  0.00000000000E+00  0.00000000000E+00  0.49212459076E+03  0.39334392099E+04  0.39025321786E+04 0.  0.
        4    1    3    3  502    0  0.13797337655E+04  0.84440446951E+03 -0.85379640698E+03  0.18291129241E+04  0.12699999809E+01 0.  1.
       -4    1    3    3    0  502 -0.13797337655E+04 -0.84440446951E+03  0.13459209977E+04  0.21043262857E+04  0.12699999809E+01 0. -1.
</event>
<event>
 5   0  0.1164500E-08  0.3901611E+04  0.7818609E-02  0.8024694E-01
        1   -1    0    0  501    0  0.00000000000E+00  0.00000000000E+00  0.19340709226E+04  0.19340709226E+04  0.50400001928E-02 0.  1.
       -1   -1    0    0    0  501  0.00000000000E+00  0.00000000000E+00 -0.19676845126E+04  0.19676845126E+04  0.50400001928E-02 0. -1.
    10030    2    1    2    0    0  0.00000000000E+00  0.00000000000E+00 -0.33613589921E+02  0.39017554352E+04  0.39016106421E+04 0.  0.
        5    1    3    3  502    0 -0.16786437004E+04  0.80457444416E+03 -0.60029618638E+03  0.19559044738E+04  0.46999998093E+01 0. -1.
       -5    1    3    3    0  502  0.16786437004E+04 -0.80457444416E+03  0.56668259646E+03  0.19458509615E+04  0.46999998093E+01 0.  1.
</event>
<event>
 5   0  0.1164500E-08  0.3895468E+04  0.7818609E-02  0.8025972E-01
        1   -1    0    0  501    0  0.00000000000E+00  0.00000000000E+00  0.15828981006E+04  0.15828981006E+04  0.50400001928E-02 0.  1.
       -1   -1    0    0    0  501  0.00000000000E+00  0.00000000000E+00 -0.23966591015E+04  0.23966591015E+04  0.50400001928E-02 0. -1.
    10030    2    1    2    0    0  0.00000000000E+00  0.00000000000E+00 -0.81376100086E+03  0.39795572021E+04  0.38954676944E+04 0.  0.
        4    1    3    3  502    0 -0.31475350978E+03  0.12468440673E+03  0.15526091018E+04  0.15890917560E+04  0.12699999809E+01 0.  1.
       -4    1    3    3    0  502  0.31475350978E+03 -0.12468440673E+03 -0.23663701027E+04  0.23904654461E+04  0.12699999809E+01 0. -1.
</event>
<event>
 5   0  0.1164500E-08  0.3908715E+04  0.7818609E-02  0.8023219E-01
        1   -1    0    0  501    0  0.00000000000E+00  0.00000000000E+00  0.15798422496E+04  0.15798422496E+04  0.50400001928E-02 0.  1.
       -1   -1    0    0    0  501  0.00000000000E+00  0.00000000000E+00 -0.24176554307E+04  0.24176554307E+04  0.50400001928E-02 0. -1.
    10030    2    1    2    0    0  0.00000000000E+00  0.00000000000E+00 -0.83781318106E+03  0.39974976803E+04  0.39087154894E+04 0.  0.
        2    1    3    3  502    0 -0.19151221045E+04 -0.19621882767E+03 -0.76318267172E+03  0.20709037385E+04  0.25500000920E-02 0. -1.
       -2    1    3    3    0  502  0.19151221045E+04  0.19621882767E+03 -0.74630509339E+02  0.19265939418E+04  0.25500000920E-02 0.  1.
</event>
<event>
 5   0  0.1164500E-08  0.3895171E+04  0.7818609E-02  0.8026034E-01
       -1   -1    0    0    0  501  0.00000000000E+00  0.00000000000E+00  0.15533242595E+04  0.15533242595E+04  0.50400001928E-02 0. -1.
        1   -1    0    0  501    0  0.00000000000E+00  0.00000000000E+00 -0.24419168174E+04  0.24419168174E+04  0.50400001928E-02 0.  1.
    10030    2    1    2    0    0  0.00000000000E+00  0.00000000000E+00 -0.88859255784E+03  0.39952410769E+04  0.38951706675E+04 0.  0.
        3    1    3    3  502    0 -0.57097072633E+03 -0.18534665753E+04 -0.26155423765E+03  0.19569763784E+04  0.10100000352E+00 0. -1.
       -3    1    3    3    0  502  0.57097072633E+03  0.18534665753E+04 -0.62703832018E+03  0.20382646985E+04  0.10100000352E+00 0.  1.
</event>
<event>
 5   0  0.3769985E-08  0.3897559E+04  0.7818609E-02  0.8025537E-01
       -2   -1    0    0    0  501  0.00000000000E+00  0.00000000000E+00  0.19815549885E+04  0.19815549885E+04  0.25500000920E-02 0. -1.
        2   -1    0    0  501    0  0.00000000000E+00  0.00000000000E+00 -0.19165460453E+04  0.19165460453E+04  0.25500000920E-02 0.  1.
    10030    2    1    2    0    0  0.00000000000E+00  0.00000000000E+00  0.65008943163E+02  0.38981010338E+04  0.38975589164E+04 0.  0.
        1    1    3    3  502    0  0.13237845287E+04 -0.14291808951E+04  0.85217280428E+02  0.19499296126E+04  0.50400001928E-02 0. -1.
       -1    1    3    3    0  502 -0.13237845287E+04  0.14291808951E+04 -0.20208337264E+02  0.19481714211E+04  0.50400001928E-02 0.  1.
</event>
<event>
 5   0  0.1164500E-08  0.3895430E+04  0.7818609E-02  0.8025980E-01
        1   -1    0    0  501    0  0.00000000000E+00  0.00000000000E+00  0.16460208252E+04  0.16460208253E+04  0.50400001928E-02 0. -1.
       -1   -1    0    0    0  501  0.00000000000E+00  0.00000000000E+00 -0.23047053216E+04  0.23047053216E+04  0.50400001928E-02 0.  1.
    10030    2    1    2    0    0  0.00000000000E+00  0.00000000000E+00 -0.65868449636E+03  0.39507261469E+04  0.38954296068E+04 0.  0.
        3    1    3    3  502    0  0.93074077056E+03 -0.68737338059E+03 -0.19183736848E+04  0.22402942108E+04  0.10100000352E+00 0.  1.
       -3    1    3    3    0  502 -0.93074077056E+03  0.68737338059E+03  0.12596891884E+04  0.17104319361E+04  0.10100000352E+00 0. -1.
</event>
<event>
 5   0  0.3690572E-08  0.3904306E+04  0.7818609E-02  0.8024134E-01
        2   -1    0    0  501    0  0.00000000000E+00  0.00000000000E+00  0.16959615069E+04  0.16959615069E+04  0.25500000920E-02 0. -1.
       -2   -1    0    0    0  501  0.00000000000E+00  0.00000000000E+00 -0.22470450600E+04  0.22470450600E+04  0.25500000920E-02 0.  1.
    10030    2    1    2    0    0  0.00000000000E+00  0.00000000000E+00 -0.55108355303E+03  0.39430065669E+04  0.39043063026E+04 0.  0.
        3    1    3    3  502    0 -0.17815109913E+04  0.79166902965E+03 -0.37843716650E+03  0.19858841769E+04  0.10100000352E+00 0.  1.
       -3    1    3    3    0  502  0.17815109913E+04 -0.79166902965E+03 -0.17264638653E+03  0.19571223901E+04  0.10100000352E+00 0. -1.
</event>
<event>
 5   0  0.1164500E-08  0.3893555E+04  0.7818609E-02  0.8026371E-01
        1   -1    0    0  501    0  0.00000000000E+00  0.00000000000E+00  0.26989768536E+04  0.26989768536E+04  0.50400001928E-02 0.  1.
       -1   -1    0    0    0  501  0.00000000000E+00  0.00000000000E+00 -0.14042145791E+04  0.14042145791E+04  0.50400001928E-02 0. -1.
    10030    2    1    2    0    0  0.00000000000E+00  0.00000000000E+00  0.12947622744E+04  0.41031914327E+04  0.38935550062E+04 0.  0.
        1    1    3    3  502    0  0.47113262711E+03 -0.12965503157E+04 -0.80023633609E+03  0.15947999458E+04  0.50400001928E-02 0. -1.
       -1    1    3    3    0  502 -0.47113262711E+03  0.12965503157E+04  0.20949986105E+04  0.25083914869E+04  0.50400001928E-02 0.  1.
</event>
<event>
 5   0  0.3724293E-08  0.3895478E+04  0.7818609E-02  0.8025970E-01
       -2   -1    0    0    0  501  0.00000000000E+00  0.00000000000E+00  0.15315300140E+04  0.15315300140E+04  0.25500000920E-02 0.  1.
        2   -1    0    0  501    0  0.00000000000E+00  0.00000000000E+00 -0.24770572166E+04  0.24770572166E+04  0.25500000920E-02 0. -1.
    10030    2    1    2    0    0  0.00000000000E+00  0.00000000000E+00 -0.94552720257E+03  0.40085872306E+04  0.38954781343E+04 0.  0.
        4    1    3    3  502    0 -0.65823818463E+03 -0.22838212147E+03  0.13989083223E+04  0.15628122114E+04  0.12699999809E+01 0.  1.
       -4    1    3    3    0  502  0.65823818463E+03  0.22838212147E+03 -0.23444355249E+04  0.24457750192E+04  0.12699999809E+01 0. -1.
</event>
<event>
 5   0  0.3724293E-08  0.3909620E+04  0.7818609E-02  0.8023031E-01
       -2   -1    0    0    0  501  0.00000000000E+00  0.00000000000E+00  0.34233570466E+04  0.34233570466E+04  0.25500000920E-02 0. -1.
        2   -1    0    0  501    0  0.00000000000E+00  0.00000000000E+00 -0.11162381834E+04  0.11162381834E+04  0.25500000920E-02 0.  1.
    10030    2    1    2    0    0  0.00000000000E+00  0.00000000000E+00  0.23071188632E+04  0.45395952300E+04  0.39096198541E+04 0.  0.
        4    1    3    3  502    0  0.12398843195E+04  0.70350297915E+03  0.27066397643E+04  0.30591060776E+04  0.12699999809E+01 0. -1.
       -4    1    3    3    0  502 -0.12398843195E+04 -0.70350297915E+03 -0.39952090103E+03  0.14804891525E+04  0.12699999809E+01 0.  1.
</event>
<event>
 5   0  0.1164500E-08  0.3899964E+04  0.7818609E-02  0.8025037E-01
        1   -1    0    0  501    0  0.00000000000E+00  0.00000000000E+00  0.19835968827E+04  0.19835968827E+04  0.50400001928E-02 0.  1.
       -1   -1    0    0    0  501  0.00000000000E+00  0.00000000000E+00 -0.19169372071E+04  0.19169372071E+04  0.50400001928E-02 0. -1.
    10030    2    1    2    0    0  0.00000000000E+00  0.00000000000E+00  0.66659675597E+02  0.39005340899E+04  0.38999644452E+04 0.  0.
        5    1    3    3  502    0 -0.34368850186E+03 -0.17242046399E+04  0.87690140471E+03  0.19646835852E+04  0.46999998093E+01 0.  1.
       -5    1    3    3    0  502  0.34368850186E+03  0.17242046399E+04 -0.81024172912E+03  0.19358505046E+04  0.46999998093E+01 0. -1.
</event>
<event>
 5   0  0.1164500E-08  0.3905672E+04  0.7818609E-02  0.8023851E-01
        1   -1    0    0  501    0  0.00000000000E+00  0.00000000000E+00  0.18811674916E+04  0.18811674916E+04  0.50400001928E-02 0.  1.
       -1   -1    0    0    0  501  0.00000000000E+00  0.00000000000E+00 -0.20272348586E+04  0.20272348586E+04  0.50400001928E-02 0. -1.
    10030    2    1    2    0    0  0.00000000000E+00  0.00000000000E+00 -0.14606736693E+03  0.39084023502E+04  0.39056719339E+04 0.  0.
        3    1    3    3  502    0 -0.54296751161E+03  0.66238472468E+03 -0.18292537616E+04  0.20198357796E+04  0.10100000352E+00 0. -1.
       -3    1    3    3    0  502  0.54296751161E+03 -0.66238472468E+03  0.16831863947E+04  0.18885665706E+04  0.10100000352E+00 0.  1.
</event>
<event>
 5   0  0.1164500E-08  0.3897866E+04  0.7818609E-02  0.8025473E-01
       -1   -1    0    0    0  501  0.00000000000E+00  0.00000000000E+00  0.31058984843E+04  0.31058984843E+04  0.50400001928E-02 0. -1.
        1   -1    0    0  501    0  0.00000000000E+00  0.00000000000E+00 -0.12229440654E+04  0.12229440654E+04  0.50400001928E-02 0.  1.
    10030    2    1    2    0    0  0.00000000000E+00  0.00000000000E+00  0.18829544189E+04  0.43288425497E+04  0.38978661439E+04 0.  0.
        2    1    3    3  502    0  0.11093846170E+04  0.10259518265E+04 -0.42548121082E+03  0.15698234422E+04  0.25500000920E-02 0.  1.
       -2    1    3    3    0  502 -0.11093846170E+04 -0.10259518265E+04  0.23084356297E+04  0.27590191075E+04  0.25500000920E-02 0. -1.
</event>
<event>
 5   0  0.3724293E-08  0.3887539E+04  0.7818609E-02  0.8027626E-01
       -2   -1    0    0    0  501  0.00000000000E+00  0.00000000000E+00  0.29241044449E+04  0.29241044449E+04  0.25500000920E-02 0. -1.
        2   -1    0    0  501    0  0.00000000000E+00  0.00000000000E+00 -0.12921013405E+04  0.12921013405E+04  0.25500000920E-02 0.  1.
    10030    2    1    2    0    0  0.00000000000E+00  0.00000000000E+00  0.16320031045E+04  0.42162057854E+04  0.38875386933E+04 0.  0.
        4    1    3    3  502    0 -0.14954851649E+04 -0.87925356080E+03  0.17668656316E+04  0.24761620455E+04  0.12699999809E+01 0.  1.
       -4    1    3    3    0  502  0.14954851649E+04  0.87925356080E+03 -0.13486252712E+03  0.17400437399E+04  0.12699999809E+01 0. -1.
</event>
<event>
 5   0  0.1164500E-08  0.3899276E+04  0.7818609E-02  0.8025180E-01
       -1   -1    0    0    0  501  0.00000000000E+00  0.00000000000E+00  0.17875627539E+04  0.17875627539E+04  0.50400001928E-02 0.  1.
        1   -1    0    0  501    0  0.00000000000E+00  0.00000000000E+00 -0.21264081572E+04  0.21264081572E+04  0.50400001928E-02 0. -1.
    10030    2    1    2    0    0  0.00000000000E+00  0.00000000000E+00 -0.33884540324E+03  0.39139709111E+04  0.38992758412E+04 0.  0.
        3    1    3    3  502    0  0.61253427309E+03 -0.66488876220E+03 -0.19033042078E+04  0.21070933106E+04  0.10100000352E+00 0. -1.
       -3    1    3    3    0  502 -0.61253427309E+03  0.66488876220E+03  0.15644588046E+04  0.18068776005E+04  0.10100000352E+00 0.  1.
</event>
<event>
 5   0  0.3872969E-08  0.3903926E+04  0.7818609E-02  0.8024213E-01
       -2   -1    0    0    0  501  0.00000000000E+00  0.00000000000E+00  0.18955908808E+04  0.18955908808E+04  0.25500000920E-02 0.  1.
        2   -1    0    0  501    0  0.00000000000E+00  0.00000000000E+00 -0.20100113341E+04  0.20100113341E+04  0.25500000920E-02 0. -1.
    10030    2    1    2    0    0  0.00000000000E+00  0.00000000000E+00 -0.11442045328E+03  0.39056022148E+04  0.39039257960E+04 0.  0.
        2    1    3    3  502    0 -0.14712880272E+04 -0.21761934839E+03 -0.13219178327E+04  0.19898526067E+04  0.25500000920E-02 0. -1.
       -2    1    3    3    0  502  0.14712880272E+04  0.21761934839E+03  0.12074973794E+04  0.19157496082E+04  0.25500000920E-02 0.  1.
</event>
<event>
 5   0  0.3724293E-08  0.3883264E+04  0.7818609E-02  0.8028519E-01
        2   -1    0    0  501    0  0.00000000000E+00  0.00000000000E+00  0.23840969206E+04  0.23840969206E+04  0.25500000920E-02 0.  1.
       -2   -1    0    0    0  501  0.00000000000E+00  0.00000000000E+00 -0.15812845618E+04  0.15812845618E+04  0.25500000920E-02 0. -1.
    10030    2    1    2    0    0  0.00000000000E+00  0.00000000000E+00  0.80281235879E+03  0.39653814824E+04  0.38832644279E+04 0.  0.
        4    1    3    3  502    0  0.17103255898E+04 -0.44323836924E+03  0.12235781709E+04  0.21491437896E+04  0.12699999809E+01 0.  1.
       -4    1    3    3    0  502 -0.17103255898E+04  0.44323836924E+03 -0.42076581216E+03  0.18162376928E+04  0.12699999809E+01 0. -1.
</event>
<event>
 5   0  0.1164500E-08  0.3897815E+04  0.7818609E-02  0.8025484E-01
       -1   -1    0    0    0  501  0.00000000000E+00  0.00000000000E+00  0.15591847185E+04  0.15591847185E+04  0.50400001928E-02 0.  1.
        1   -1    0    0  501    0  0.00000000000E+00  0.00000000000E+00 -0.24360428036E+04  0.24360428036E+04  0.50400001928E-02 0. -1.
    10030    2    1    2    0    0  0.00000000000E+00  0.00000000000E+00 -0.87685808509E+03  0.39952275220E+04  0.38978151382E+04 0.  0.
        5    1    3    3  502    0 -0.18452335392E+04  0.34567877268E+03 -0.97480231859E+03  0.21153350275E+04  0.46999998093E+01 0.  1.
       -5    1    3    3    0  502  0.18452335392E+04 -0.34567877268E+03  0.97944233494E+02  0.18798924946E+04  0.46999998093E+01 0. -1.
</event>
<event>
 5   0  0.1164500E-08  0.3904523E+04  0.7818609E-02  0.8024089E-01
       -1   -1    0    0    0  501  0.00000000000E+00  0.00000000000E+00  0.18631264486E+04  0.18631264486E+04  0.50400001928E-02 0.  1.
        1   -1    0    0  501    0  0.00000000000E+00  0.00000000000E+00 -0.20456605769E+04  0.20456605769E+04  0.50400001928E-02 0. -1.
    10030    2    1    2    0    0  0.00000000000E+00  0.00000000000E+00 -0.18253412828E+03  0.39087870256E+04  0.39045226729E+04 0.  0.
        2    1    3    3  502    0 -0.10074992461E+04  0.59743283412E+03  0.14722785242E+04  0.18813784242E+04  0.25500000920E-02 0.  1.
       -2    1    3    3    0  502  0.10074992461E+04 -0.59743283412E+03 -0.16548126524E+04  0.20274086014E+04  0.25500000920E-02 0. -1.
</event>
<event>
 5   0  0.3872969E-08  0.3900885E+04  0.7818609E-02  0.8024845E-01
       -2   -1    0    0    0  501  0.00000000000E+00  0.00000000000E+00  0.15291813288E+04  0.15291813288E+04  0.25500000920E-02 0. -1.
        2   -1    0    0  501    0  0.00000000000E+00  0.00000000000E+00 -0.24877530342E+04  0.24877530342E+04  0.25500000920E-02 0.  1.
    10030    2    1    2    0    0  0.00000000000E+00  0.00000000000E+00 -0.95857170539E+03  0.40169343631E+04  0.39008847667E+04 0.  0.
        2    1    3    3  502    0  0.10400617613E+04 -0.33253141442E+03  0.11849372237E+04  0.16113292131E+04  0.25500000920E-02 0. -1.
       -2    1    3    3    0  502 -0.10400617613E+04  0.33253141442E+03 -0.21435089290E+04  0.24056051500E+04  0.25500000920E-02 0.  1.
</event>
<event>
 5   0  0.3690572E-08  0.3896709E+04  0.7818609E-02  0.8025714E-01
       -2   -1    0    0    0  501  0.00000000000E+00  0.00000000000E+00  0.14323270151E+04  0.14323270151E+04  0.25500000920E-02 0. -1.
        2   -1    0    0  501    0  0.00000000000E+00  0.00000000000E+00 -0.26502926812E+04  0.26502926812E+04  0.25500000920E-02 0.  1.
    10030    2    1    2    0    0  0.00000000000E+00  0.00000000000E+00 -0.12179656661E+04  0.40826196963E+04  0.38967092810E+04 0.  0.
        3    1    3    3  502    0  0.71283212555E+03  0.11176310041E+04  0.88702653778E+03  0.15950062036E+04  0.10100000352E+00 0. -1.
       -3    1    3    3    0  502 -0.71283212555E+03 -0.11176310041E+04 -0.21049922039E+04  0.24876134927E+04  0.10100000352E+00 0.  1.
</event>
<event>
 5   0  0.3669347E-08  0.3897605E+04  0.7818609E-02  0.8025527E-01
       -2   -1    0    0    0  501  0.00000000000E+00  0.00000000000E+00  0.17129435064E+04  0.17129435064E+04  0.25500000920E-02 0. -1.
        2   -1    0    0  501    0  0.00000000000E+00  0.00000000000E+00 -0.22171374959E+04  0.22171374959E+04  0.25500000920E-02 0.  1.
    10030    2    1    2    0    0  0.00000000000E+00  0.00000000000E+00 -0.50419398948E+03  0.39300810023E+04  0.38976050475E+04 0.  0.
        5    1    3    3  502    0  0.88467108129E+03 -0.13028097580E+04  0.90544606974E+03  0.18165381534E+04  0.46999998093E+01 0.  1.
       -5    1    3    3    0  502 -0.88467108129E+03  0.13028097580E+04 -0.14096400592E+04  0.21135428489E+04  0.46999998093E+01 0. -1.
</event>
<event>
 5   0  0.1164500E-08  0.3911432E+04  0.7818609E-02  0.8022656E-01
        1   -1    0    0  501    0  0.00000000000E+00  0.00000000000E+00  0.23981607761E+04  0.23981607761E+04  0.50400001928E-02 0.  1.
       -1   -1    0    0    0  501  0.00000000000E+00  0.00000000000E+00 -0.15948993216E+04  0.15948993216E+04  0.50400001928E-02 0. -1.
    10030    2    1    2    0    0  0.00000000000E+00  0.00000000000E+00  0.80326145444E+03  0.39930600977E+04  0.39114319602E+04 0.  0.
        2    1    3    3  502    0  0.13927256437E+04 -0.57451778831E+03 -0.87141786355E+03  0.17404380198E+04  0.25500000920E-02 0. -1.
       -2    1    3    3    0  502 -0.13927256437E+04  0.57451778831E+03  0.16746793180E+04  0.22526220779E+04  0.25500000920E-02 0.  1.
</event>
<event>
 5   0  0.3872969E-08  0.3905823E+04  0.7818609E-02  0.8023819E-01
       -2   -1    0    0    0  501  0.00000000000E+00  0.00000000000E+00  0.18423253729E+04  0.18423253729E+04  0.25500000920E-02 0. -1.
        2   -1    0    0  501    0  0.00000000000E+00  0.00000000000E+00 -0.20701360455E+04  0.20701360455E+04  0.25500000920E-02 0.  1.
    10030    2    1    2    0    0  0.00000000000E+00  0.00000000000E+00 -0.22781067264E+03  0.39124614184E+04  0.39058234277E+04 0.  0.
        2    1    3    3  502    0  0.93556355191E+03  0.10720552004E+04  0.12260087018E+04  0.18782116093E+04  0.25500000920E-02 0. -1.
       -2    1    3    3    0  502 -0.93556355191E+03 -0.10720552004E+04 -0.14538193744E+04  0.20342498091E+04  0.25500000920E-02 0.  1.
</event>
<event>
 5   0  0.1164500E-08  0.3902297E+04  0.7818609E-02  0.8024552E-01
       -1   -1    0    0    0  501  0.00000000000E+00  0.00000000000E+00  0.24915385092E+04  0.24915385092E+04  0.50400001928E-02 0.  1.
        1   -1    0    0  501    0  0.00000000000E+00  0.00000000000E+00 -0.15279635510E+04  0.15279635510E+04  0.50400001928E-02 0. -1.
    10030    2    1    2    0    0  0.00000000000E+00  0.00000000000E+00  0.96357495826E+03  0.40195020602E+04  0.39022967739E+04 0.  0.
        2    1    3    3  502    0  0.16447456363E+04 -0.99836848707E+03  0.14793507880E+03  0.19297182778E+04  0.25500000920E-02 0. -1.
       -2    1    3    3    0  502 -0.16447456363E+04  0.99836848707E+03  0.81563987947E+03  0.20897837824E+04  0.25500000920E-02 0.  1.
</event>
<event>
 5   0  0.3669347E-08  0.3881962E+04  0.7818609E-02  0.8028791E-01
        2   -1    0    0  501    0  0.00000000000E+00  0.00000000000E+00  0.15027792778E+04  0.15027792778E+04  0.25500000920E-02 0. -1.
       -2   -1    0    0    0  501  0.00000000000E+00  0.00000000000E+00 -0.25069593342E+04  0.25069593342E+04  0.25500000920E-02 0.  1.
    10030    2    1    2    0    0  0.00000000000E+00  0.00000000000E+00 -0.10041800565E+04  0.40097386120E+04  0.38819616370E+04 0.  0.
        5    1    3    3  502    0  0.12039668287E+03 -0.10026412184E+04 -0.22142390084E+04  0.24336518342E+04  0.46999998093E+01 0.  1.
       -5    1    3    3    0  502 -0.12039668287E+03  0.10026412184E+04  0.12100589519E+04  0.15760867778E+04  0.46999998093E+01 0. -1.
</event>
<event>
 5   0  0.1164500E-08  0.3899427E+04  0.7818609E-02  0.8025148E-01
        1   -1    0    0  501    0  0.00000000000E+00  0.00000000000E+00  0.12270787009E+04  0.12270787010E+04  0.50400001928E-02 0.  1.
       -1   -1    0    0    0  501  0.00000000000E+00  0.00000000000E+00 -0.30979129964E+04  0.30979129964E+04  0.50400001928E-02 0. -1.
    10030    2    1    2    0    0  0.00000000000E+00  0.00000000000E+00 -0.18708342954E+04  0.43249916973E+04  0.38994271658E+04 0.  0.
        1    1    3    3  502    0  0.58356906343E+03  0.15993127716E+04 -0.19894042119E+04  0.26184123647E+04  0.50400001928E-02 0. -1.
       -1    1    3    3    0  502 -0.58356906343E+03 -0.15993127716E+04  0.11856991648E+03  0.17065793326E+04  0.50400001928E-02 0.  1.
</event>
<event>
 5   0  0.1164500E-08  0.3900182E+04  0.7818609E-02  0.8024991E-01
       -1   -1    0    0    0  501  0.00000000000E+00  0.00000000000E+00  0.30211520741E+04  0.30211520741E+04  0.50400001928E-02 0. -1.
        1   -1    0    0  501    0  0.00000000000E+00  0.00000000000E+00 -0.12587431368E+04  0.12587431368E+04  0.50400001928E-02 0.  1.
    10030    2    1    2    0    0  0.00000000000E+00  0.00000000000E+00  0.17624089373E+04  0.42798952109E+04  0.39001817591E+04 0.  0.
        4    1    3    3  502    0 -0.14421196645E+04  0.13025873485E+04  0.70287149354E+03  0.20665122493E+04  0.12699999809E+01 0.  1.
       -4    1    3    3    0  502  0.14421196645E+04 -0.13025873485E+04  0.10595374437E+04  0.22133829616E+04  0.12699999809E+01 0. -1.
</event>
<event>
 5   0  0.1164500E-08  0.3952061E+04  0.7818609E-02  0.8014288E-01
       -1   -1    0    0    0  501  0.00000000000E+00  0.00000000000E+00  0.13847021264E+04  0.13847021264E+04  0.50400001928E-02 0.  1.
        1   -1    0    0  501    0  0.00000000000E+00  0.00000000000E+00 -0.28198815589E+04  0.28198815589E+04  0.50400001928E-02 0. -1.
    10030    2    1    2    0    0  0.00000000000E+00  0.00000000000E+00 -0.14351794326E+04  0.42045836853E+04  0.39520607236E+04 0.  0.
        1    1    3    3  502    0 -0.17575220112E+04 -0.78719611661E+03 -0.24642089004E+03  0.19414645505E+04  0.50400001928E-02 0.  1.
       -1    1    3    3    0  502  0.17575220112E+04  0.78719611661E+03 -0.11887585425E+04  0.22631191348E+04  0.50400001928E-02 0. -1.
</event>
<event>
 5   0  0.3669347E-08  0.3897613E+04  0.7818609E-02  0.8025526E-01
        2   -1    0    0  501    0  0.00000000000E+00  0.00000000000E+00  0.13904789278E+04  0.13904789278E+04  0.25500000920E-02 0. -1.
       -2   -1    0    0    0  501  0.00000000000E+00  0.00000000000E+00 -0.27313221162E+04  0.27313221162E+04  0.25500000920E-02 0.  1.
    10030    2    1    2    0    0  0.00000000000E+00  0.00000000000E+00 -0.13408431885E+04  0.41218010440E+04  0.38976125244E+04 0.  0.
        5    1    3    3  502    0 -0.15791614114E+04  0.11288010171E+04 -0.48761670760E+03  0.20014331473E+04  0.46999998093E+01 0. -1.
       -5    1    3    3    0  502  0.15791614114E+04 -0.11288010171E+04 -0.85322648086E+03  0.21203678967E+04  0.46999998093E+01 0.  1.
</event>
<event>
 5   0  0.1164500E-08  0.3895153E+04  0.7818609E-02  0.8026038E-01
        1   -1    0    0  501    0  0.00000000000E+00  0.00000000000E+00  0.17805793786E+04  0.17805793786E+04  0.50400001928E-02 0.  1.
       -1   -1    0    0    0  501  0.00000000000E+00  0.00000000000E+00 -0.21302364762E+04  0.21302364762E+04  0.50400001928E-02 0. -1.
    10030    2    1    2    0    0  0.00000000000E+00  0.00000000000E+00 -0.34965709760E+03  0.39108158548E+04  0.38951534712E+04 0.  0.
        5    1    3    3  502    0  0.44612161999E+03 -0.99093559921E+03  0.14478555030E+04  0.18103274591E+04  0.46999998093E+01 0.  1.
       -5    1    3    3    0  502 -0.44612161999E+03  0.99093559921E+03 -0.17975126006E+04  0.21004883958E+04  0.46999998093E+01 0. -1.
</event>
<event>
 5   0  0.1164500E-08  0.3891040E+04  0.7818609E-02  0.8026895E-01
       -1   -1    0    0    0  501  0.00000000000E+00  0.00000000000E+00  0.33145439459E+04  0.33145439459E+04  0.50400001928E-02 0. -1.
        1   -1    0    0  501    0  0.00000000000E+00  0.00000000000E+00 -0.11419516316E+04  0.11419516316E+04  0.50400001928E-02 0.  1.
    10030    2    1    2    0    0  0.00000000000E+00  0.00000000000E+00  0.21725923143E+04  0.44564955775E+04  0.38910404095E+04 0.  0.
        3    1    3    3  502    0  0.11749450372E+04 -0.15384510882E+04  0.13087402444E+04  0.23366918130E+04  0.10100000352E+00 0. -1.
       -3    1    3    3    0  502 -0.11749450372E+04  0.15384510882E+04  0.86385206992E+03  0.21198037646E+04  0.10100000352E+00 0.  1.
</event>
<event>
 5   0  0.3769985E-08  0.3900836E+04  0.7818609E-02  0.8024855E-01
       -2   -1    0    0    0  501  0.00000000000E+00  0.00000000000E+00  0.20939311498E+04  0.20939311498E+04  0.25500000920E-02 0.  1.
        2   -1    0    0  501    0  0.00000000000E+00  0.00000000000E+00 -0.18167406881E+04  0.18167406881E+04  0.25500000920E-02 0. -1.
    10030    2    1    2    0    0  0.00000000000E+00  0.00000000000E+00  0.27719046170E+03  0.39106718379E+04  0.39008357658E+04 0.  0.
        1    1    3    3  502    0  0.11575248618E+04 -0.79505865504E+02 -0.14331414259E+04  0.18439304041E+04  0.50400001928E-02 0. -1.
       -1    1    3    3    0  502 -0.11575248618E+04  0.79505865504E+02  0.17103318876E+04  0.20667414338E+04  0.50400001928E-02 0.  1.
</event>
<event>
 5   0  0.1164500E-08  0.3901380E+04  0.7818609E-02  0.8024742E-01
        1   -1    0    0  501    0  0.00000000000E+00  0.00000000000E+00  0.22120289852E+04  0.22120289852E+04  0.50400001928E-02 0. -1.
       -1   -1    0    0    0  501  0.00000000000E+00  0.00000000000E+00 -0.17202269825E+04  0.17202269825E+04  0.50400001928E-02 0.  1.
    10030    2    1    2    0    0  0.00000000000E+00  0.00000000000E+00  0.49180200269E+03  0.39322559677E+04  0.39013802411E+04 0.  0.
        3    1    3    3  502    0 -0.13638567467E+04 -0.22247682743E+03  0.16336016555E+04  0.21396858515E+04  0.10100000352E+00 0. -1.
       -3    1    3    3    0  502  0.13638567467E+04  0.22247682743E+03 -0.11417996528E+04  0.17925701162E+04  0.10100000352E+00 0.  1.
</event>
<event>
 5   0  0.3690572E-08  0.3893563E+04  0.7818609E-02  0.8026369E-01
        2   -1    0    0  501    0  0.00000000000E+00  0.00000000000E+00  0.27538914366E+04  0.27538914366E+04  0.25500000920E-02 0. -1.
       -2   -1    0    0    0  501  0.00000000000E+00  0.00000000000E+00 -0.13762192015E+04  0.13762192015E+04  0.25500000920E-02 0.  1.
    10030    2    1    2    0    0  0.00000000000E+00  0.00000000000E+00  0.13776722352E+04  0.41301106381E+04  0.38935630334E+04 0.  0.
        3    1    3    3  502    0 -0.28886330860E+03 -0.18428735283E+04  0.97916043599E+02  0.18679433648E+04  0.10100000352E+00 0.  1.
       -3    1    3    3    0  502  0.28886330860E+03  0.18428735283E+04  0.12797561916E+04  0.22621672733E+04  0.10100000352E+00 0. -1.
</event>
<event>
 5   0  0.1164500E-08  0.3902149E+04  0.7818609E-02  0.8024582E-01
       -1   -1    0    0    0  501  0.00000000000E+00  0.00000000000E+00  0.14992384776E+04  0.14992384776E+04  0.50400001928E-02 0.  1.
        1   -1    0    0  501    0  0.00000000000E+00  0.00000000000E+00 -0.25390838292E+04  0.25390838293E+04  0.50400001928E-02 0. -1.
    10030    2    1    2    0    0  0.00000000000E+00  0.00000000000E+00 -0.10398453517E+04  0.40383223068E+04  0.39021492409E+04 0.  0.
        3    1    3    3  502    0  0.50680617320E+03  0.16190231942E+04 -0.15171915757E+04  0.22759523036E+04  0.10100000352E+00 0.  1.
       -3    1    3    3    0  502 -0.50680617320E+03 -0.16190231942E+04  0.47734622400E+03  0.17623700033E+04  0.10100000352E+00 0. -1.
</event>
<event>
 5   0  0.1164500E-08  0.3889816E+04  0.7818609E-02  0.8027151E-01
        1   -1    0    0  501    0  0.00000000000E+00  0.00000000000E+00  0.15839055472E+04  0.15839055472E+04  0.50400001928E-02 0.  1.
       -1   -1    0    0    0  501  0.00000000000E+00  0.00000000000E+00 -0.23881902039E+04  0.23881902039E+04  0.50400001928E-02 0. -1.
    10030    2    1    2    0    0  0.00000000000E+00  0.00000000000E+00 -0.80428465677E+03  0.39720957511E+04  0.38898162999E+04 0.  0.
        1    1    3    3  502    0 -0.19277683157E+04  0.38480302465E+01 -0.66520006994E+03  0.20393127812E+04  0.50400001928E-02 0.  1.
       -1    1    3    3    0  502  0.19277683157E+04 -0.38480302465E+01 -0.13908458682E+03  0.19327829699E+04  0.50400001928E-02 0. -1.
</event>
<event>
 5   0  0.3769985E-08  0.3896169E+04  0.7818609E-02  0.8025826E-01
        2   -1    0    0  501    0  0.00000000000E+00  0.00000000000E+00  0.17685877633E+04  0.17685877633E+04  0.25500000920E-02 0. -1.
       -2   -1    0    0    0  501  0.00000000000E+00  0.00000000000E+00 -0.21457990086E+04  0.21457990086E+04  0.25500000920E-02 0.  1.
    10030    2    1    2    0    0  0.00000000000E+00  0.00000000000E+00 -0.37721124529E+03  0.39143867720E+04  0.38961693337E+04 0.  0.
        1    1    3    3  502    0  0.15206039245E+03  0.18346272206E+04 -0.82880914313E+03  0.20188868213E+04  0.50400001928E-02 0.  1.
       -1    1    3    3    0  502 -0.15206039245E+03 -0.18346272206E+04  0.45159789784E+03  0.18954999506E+04  0.50400001928E-02 0. -1.
</event>
<event>
 5   0  0.1164500E-08  0.3872221E+04  0.7818609E-02  0.8030832E-01
        1   -1    0    0  501    0  0.00000000000E+00  0.00000000000E+00  0.23180886663E+04  0.23180886663E+04  0.50400001928E-02 0.  1.
       -1   -1    0    0    0  501  0.00000000000E+00  0.00000000000E+00 -0.16170756240E+04  0.16170756240E+04  0.50400001928E-02 0. -1.
    10030    2    1    2    0    0  0.00000000000E+00  0.00000000000E+00  0.70101304231E+03  0.39351642903E+04  0.38722214175E+04 0.  0.
        3    1    3    3  502    0  0.79940970447E+03 -0.74303353216E+03  0.19756790239E+04  0.22570915624E+04  0.10100000352E+00 0.  1.
       -3    1    3    3    0  502 -0.79940970447E+03  0.74303353216E+03 -0.12746659815E+04  0.16780727279E+04  0.10100000352E+00 0. -1.
</event>
<event>
 5   0  0.1164500E-08  0.3899055E+04  0.7818609E-02  0.8025226E-01
        1   -1    0    0  501    0  0.00000000000E+00  0.00000000000E+00  0.22683892297E+04  0.22683892297E+04  0.50400001928E-02 0.  1.
       -1   -1    0    0    0  501  0.00000000000E+00  0.00000000000E+00 -0.16754872162E+04  0.16754872162E+04  0.50400001928E-02 0. -1.
    10030    2    1    2    0    0  0.00000000000E+00  0.00000000000E+00  0.59290201352E+03  0.39438764458E+04  0.38990548371E+04 0.  0.
        3    1    3    3  502    0  0.66856875084E+03 -0.14775256361E+04  0.13908269597E+04  0.21364610509E+04  0.10100000352E+00 0.  1.
       -3    1    3    3    0  502 -0.66856875084E+03  0.14775256361E+04 -0.79792494620E+03  0.18074153949E+04  0.10100000352E+00 0. -1.
</event>
<event>
 5   0  0.3690572E-08  0.3899214E+04  0.7818609E-02  0.8025193E-01
        2   -1    0    0  501    0  0.00000000000E+00  0.00000000000E+00  0.29062879774E+04  0.29062879774E+04  0.25500000920E-02 0.  1.
       -2   -1    0    0    0  501  0.00000000000E+00  0.00000000000E+00 -0.13078428390E+04  0.13078428390E+04  0.25500000920E-02 0. -1.
    10030    2    1    2    0    0  0.00000000000E+00  0.00000000000E+00  0.15984451384E+04  0.42141308165E+04  0.38992142385E+04 0.  0.
        3    1    3    3  502    0 -0.12212932033E+04  0.15021309209E+04  0.55038025914E+03  0.20126780249E+04  0.10100000352E+00 0.  1.
       -3    1    3    3    0  502  0.12212932033E+04 -0.15021309209E+04  0.10480648793E+04  0.22014527915E+04  0.10100000352E+00 0. -1.
</event>
<event>
 5   0  0.3669347E-08  0.3900910E+04  0.7818609E-02  0.8024840E-01
        2   -1    0    0  501    0  0.00000000000E+00  0.00000000000E+00  0.16417432155E+04  0.16417432155E+04  0.25500000920E-02 0. -1.
       -2   -1    0    0    0  501  0.00000000000E+00  0.00000000000E+00 -0.23172161609E+04  0.23172161609E+04  0.25500000920E-02 0.  1.
    10030    2    1    2    0    0  0.00000000000E+00  0.00000000000E+00 -0.67547294539E+03  0.39589593764E+04  0.39009095919E+04 0.  0.
        5    1    3    3  502    0  0.85302219325E+03  0.15913588608E+04  0.41092799329E+03  0.18517434465E+04  0.46999998093E+01 0. -1.
       -5    1    3    3    0  502 -0.85302219325E+03 -0.15913588608E+04 -0.10864009387E+04  0.21072159300E+04  0.46999998093E+01 0.  1.
</event>
<event>
 5   0  0.3872969E-08  0.3910943E+04  0.7818609E-02  0.8022757E-01
       -2   -1    0    0    0  501  0.00000000000E+00  0.00000000000E+00  0.22585300926E+04  0.22585300926E+04  0.25500000920E-02 0. -1.
        2   -1    0    0  501    0  0.00000000000E+00  0.00000000000E+00 -0.16930781777E+04  0.16930781777E+04  0.25500000920E-02 0.  1.
    10030    2    1    2    0    0  0.00000000000E+00  0.00000000000E+00  0.56545191485E+03  0.39516082703E+04  0.39109426043E+04 0.  0.
        2    1    3    3  502    0  0.75518113088E+03 -0.52177044732E+03  0.20273309443E+04  0.22254468535E+04  0.25500000920E-02 0. -1.
       -2    1    3    3    0  502 -0.75518113088E+03  0.52177044732E+03 -0.14618790294E+04  0.17261614168E+04  0.25500000920E-02 0.  1.
</event>
<event>
 5   0  0.3872969E-08  0.3898043E+04  0.7818609E-02  0.8025436E-01
       -2   -1    0    0    0  501  0.00000000000E+00  0.00000000000E+00  0.24417602236E+04  0.24417602236E+04  0.25500000920E-02 0. -1.
        2   -1    0    0  501    0  0.00000000000E+00  0.00000000000E+00 -0.15557153521E+04  0.15557153521E+04  0.25500000920E-02 0.  1.
    10030    2    1    2    0    0  0.00000000000E+00  0.00000000000E+00  0.88604487149E+03  0.39974755757E+04  0.38980425170E+04 0.  0.
        2    1    3    3  502    0  0.67497241754E+03  0.70275347946E+03 -0.12880023224E+04  0.16150542405E+04  0.25500000920E-02 0.  1.
       -2    1    3    3    0  502 -0.67497241754E+03 -0.70275347946E+03  0.21740471938E+04  0.23824213352E+04  0.25500000920E-02 0. -1.
</event>
<event>
 5   0  0.3690572E-08  0.3896110E+04  0.7818609E-02  0.8025839E-01
        2   -1    0    0  501    0  0.00000000000E+00  0.00000000000E+00  0.23169862270E+04  0.23169862270E+04  0.25500000920E-02 0. -1.
       -2   -1    0    0    0  501  0.00000000000E+00  0.00000000000E+00 -0.16378686802E+04  0.16378686802E+04  0.25500000920E-02 0.  1.
    10030    2    1    2    0    0  0.00000000000E+00  0.00000000000E+00  0.67911754680E+03  0.39548549073E+04  0.38961104573E+04 0.  0.
        3    1    3    3  502    0  0.15605080262E+04 -0.10672510303E+03  0.15182487375E+04  0.21798290728E+04  0.10100000352E+00 0. -1.
       -3    1    3    3    0  502 -0.15605080262E+04  0.10672510303E+03 -0.83913119071E+03  0.17750258345E+04  0.10100000352E+00 0.  1.
</event>
<event>
 5   0  0.1164500E-08  0.3899305E+04  0.7818609E-02  0.8025174E-01
        1   -1    0    0  501    0  0.00000000000E+00  0.00000000000E+00  0.26106587516E+04  0.26106587516E+04  0.50400001928E-02 0. -1.
       -1   -1    0    0    0  501  0.00000000000E+00  0.00000000000E+00 -0.14560096464E+04  0.14560096464E+04  0.50400001928E-02 0.  1.
    10030    2    1    2    0    0  0.00000000000E+00  0.00000000000E+00  0.11546491052E+04  0.40666683981E+04  0.38993047206E+04 0.  0.
        2    1    3    3  502    0  0.89381252991E+03  0.12300698357E+04 -0.69536937098E+03  0.16719782299E+04  0.25500000920E-02 0.  1.
       -2    1    3    3    0  502 -0.89381252991E+03 -0.12300698357E+04  0.18500184762E+04  0.23946901681E+04  0.25500000920E-02 0. -1.
</event>
<event>
 5   0  0.3769985E-08  0.3900431E+04  0.7818609E-02  0.8024940E-01
        2   -1    0    0  501    0  0.00000000000E+00  0.00000000000E+00  0.18721486711E+04  0.18721486711E+04  0.25500000920E-02 0.  1.
       -2   -1    0    0    0  501  0.00000000000E+00  0.00000000000E+00 -0.20315379186E+04  0.20315379186E+04  0.25500000920E-02 0. -1.
    10030    2    1    2    0    0  0.00000000000E+00  0.00000000000E+00 -0.15938924749E+03  0.39036865897E+04  0.39004312657E+04 0.  0.
        1    1    3    3  502    0 -0.29916968323E+03 -0.10625057232E+04 -0.16888051496E+04  0.20175439883E+04  0.50400001928E-02 0. -1.
       -1    1    3    3    0  502  0.29916968323E+03  0.10625057232E+04  0.15294159022E+04  0.18861426014E+04  0.50400001928E-02 0.  1.
</event>
<event>
 5   0  0.1164500E-08  0.3902252E+04  0.7818609E-02  0.8024561E-01
       -1   -1    0    0    0  501  0.00000000000E+00  0.00000000000E+00  0.17924481587E+04  0.17924481588E+04  0.50400001928E-02 0. -1.
        1   -1    0    0  501    0  0.00000000000E+00  0.00000000000E+00 -0.21238508125E+04  0.21238508125E+04  0.50400001928E-02 0.  1.
    10030    2    1    2    0    0  0.00000000000E+00  0.00000000000E+00 -0.33140265374E+03  0.39162989712E+04  0.39022519028E+04 0.  0.
        3    1    3    3  502    0 -0.15314240581E+04  0.11562186160E+04 -0.52023113187E+03  0.19881502897E+04  0.10100000352E+00 0.  1.
       -3    1    3    3    0  502  0.15314240581E+04 -0.11562186160E+04  0.18882847813E+03  0.19281486815E+04  0.10100000352E+00 0. -1.
</event>
<event>
 5   0  0.1164500E-08  0.3905936E+04  0.7818609E-02  0.8023796E-01
        1   -1    0    0  501    0  0.00000000000E+00  0.00000000000E+00  0.24580950517E+04  0.24580950517E+04  0.50400001928E-02 0. -1.
       -1   -1    0    0    0  501  0.00000000000E+00  0.00000000000E+00 -0.15516418730E+04  0.15516418730E+04  0.50400001928E-02 0.  1.
    10030    2    1    2    0    0  0.00000000000E+00  0.00000000000E+00  0.90645317871E+03  0.40097369246E+04  0.39059355908E+04 0.  0.
        3    1    3    3  502    0  0.81187440110E+03  0.17187770360E+04 -0.67302982806E+01  0.19008892261E+04  0.10100000352E+00 0. -1.
       -3    1    3    3    0  502 -0.81187440110E+03 -0.17187770360E+04  0.91318347699E+03  0.21088476985E+04  0.10100000352E+00 0.  1.
</event>
<event>
 5   0  0.1164500E-08  0.3885466E+04  0.7818609E-02  0.8028059E-01
        1   -1    0    0  501    0  0.00000000000E+00  0.00000000000E+00  0.23007547954E+04  0.23007547954E+04  0.50400001928E-02 0. -1.
       -1   -1    0    0    0  501  0.00000000000E+00  0.00000000000E+00 -0.16404228628E+04  0.16404228628E+04  0.50400001928E-02 0.  1.
    10030    2    1    2    0    0  0.00000000000E+00  0.00000000000E+00  0.66033193252E+03  0.39411776582E+04  0.38854656185E+04 0.  0.
        4    1    3    3  502    0  0.16725401526E+04  0.10644673610E+03  0.13268472692E+04  0.21375796496E+04  0.12699999809E+01 0. -1.
       -4    1    3    3    0  502 -0.16725401526E+04 -0.10644673610E+03 -0.66651533671E+03  0.18035980086E+04  0.12699999809E+01 0.  1.
</event>
<event>
 5   0  0.3724293E-08  0.3904650E+04  0.7818609E-02  0.8024063E-01
        2   -1    0    0  501    0  0.00000000000E+00  0.00000000000E+00  0.15908147250E+04  0.15908147250E+04  0.25500000920E-02 0.  1.
       -2   -1    0    0    0  501  0.00000000000E+00  0.00000000000E+00 -0.23959879003E+04  0.23959879003E+04  0.25500000920E-02 0. -1.
    10030    2    1    2    0    0  0.00000000000E+00  0.00000000000E+00 -0.80517317532E+03  0.39868026253E+04  0.39046499627E+04 0.  0.
        4    1    3    3  502    0  0.15322240498E+04  0.94432785538E+03 -0.11748771387E+04  0.21493728251E+04  0.12699999809E+01 0. -1.
       -4    1    3    3    0  502 -0.15322240498E+04 -0.94432785538E+03  0.36970396339E+03  0.18374298002E+04  0.12699999809E+01 0.  1.
</event>
<event>
 5   0  0.1164500E-08  0.3887112E+04  0.7818609E-02  0.8027715E-01
       -1   -1    0    0    0  501  0.00000000000E+00  0.00000000000E+00  0.31848542428E+04  0.31848542428E+04  0.50400001928E-02 0. -1.
        1   -1    0    0  501    0  0.00000000000E+00  0.00000000000E+00 -0.11860545415E+04  0.11860545415E+04  0.50400001928E-02 0.  1.
    10030    2    1    2    0    0  0.00000000000E+00  0.00000000000E+00  0.19987997014E+04  0.43709087844E+04  0.38871124701E+04 0.  0.
        3    1    3    3  502    0 -0.17802055388E+04 -0.77866452928E+03  0.10491897478E+04  0.22082231198E+04  0.10100000352E+00 0. -1.
       -3    1    3    3    0  502  0.17802055388E+04  0.77866452928E+03  0.94960995356E+03  0.21626856646E+04  0.10100000352E+00 0.  1.
</event>
<event>
 5   0  0.3669347E-08  0.3864283E+04  0.7818609E-02  0.8032499E-01
       -2   -1    0    0    0  501  0.00000000000E+00  0.00000000000E+00  0.15495742471E+04  0.15495742471E+04  0.25500000920E-02 0.  1.
        2   -1    0    0  501    0  0.00000000000E+00  0.00000000000E+00 -0.24091594196E+04  0.24091594196E+04  0.25500000920E-02 0. -1.
    10030    2    1    2    0    0  0.00000000000E+00  0.00000000000E+00 -0.85958517255E+03  0.39587336667E+04  0.38642833197E+04 0.  0.
        5    1    3    3  502    0  0.13855791160E+04  0.52446067936E+03 -0.17003734569E+04  0.22552561881E+04  0.46999998093E+01 0. -1.
       -5    1    3    3    0  502 -0.13855791160E+04 -0.52446067936E+03  0.84078828439E+03  0.17034774786E+04  0.46999998093E+01 0.  1.
</event>
<event>
 5   0  0.1164500E-08  0.3899449E+04  0.7818609E-02  0.8025144E-01
        1   -1    0    0  501    0  0.00000000000E+00  0.00000000000E+00  0.16313285094E+04  0.16313285094E+04  0.50400001928E-02 0.  1.
       -1   -1    0    0    0  501  0.00000000000E+00  0.00000000000E+00 -0.23302635291E+04  0.23302635291E+04  0.50400001928E-02 0. -1.
    10030    2    1    2    0    0  0.00000000000E+00  0.00000000000E+00 -0.69893501971E+03  0.39615920385E+04  0.38994488480E+04 0.  0.
        3    1    3    3  502    0  0.47360661553E+03 -0.15176424119E+03 -0.22647406372E+04  0.23187034686E+04  0.10100000352E+00 0. -1.
       -3    1    3    3    0  502 -0.47360661553E+03  0.15176424119E+03  0.15658056175E+04  0.16428885699E+04  0.10100000352E+00 0.  1.
</event>
<event>
 5   0  0.3769985E-08  0.3896663E+04  0.7818609E-02  0.8025724E-01
       -2   -1    0    0    0  501  0.00000000000E+00  0.00000000000E+00  0.14322159384E+04  0.14322159384E+04  0.25500000920E-02 0. -1.
        2   -1    0    0  501    0  0.00000000000E+00  0.00000000000E+00 -0.26504355980E+04  0.26504355980E+04  0.25500000920E-02 0.  1.
    10030    2    1    2    0    0  0.00000000000E+00  0.00000000000E+00 -0.12182196597E+04  0.40826515364E+04  0.38966632429E+04 0.  0.
        1    1    3    3  502    0  0.11183113691E+04  0.19955754603E+03 -0.22675553085E+04  0.25361882047E+04  0.50400001928E-02 0.  1.
       -1    1    3    3    0  502 -0.11183113691E+04 -0.19955754603E+03  0.10493356488E+04  0.15464633317E+04  0.50400001928E-02 0. -1.
</event>
<event>
 5   0  0.1164500E-08  0.3901962E+04  0.7818609E-02  0.8024621E-01
        1   -1    0    0  501    0  0.00000000000E+00  0.00000000000E+00  0.22895148073E+04  0.22895148073E+04  0.50400001928E-02 0. -1.
       -1   -1    0    0    0  501  0.00000000000E+00  0.00000000000E+00 -0.16625036850E+04  0.16625036850E+04  0.50400001928E-02 0.  1.
    10030    2    1    2    0    0  0.00000000000E+00  0.00000000000E+00  0.62701112227E+03  0.39520184924E+04  0.39019619702E+04 0.  0.
        3    1    3    3  502    0  0.14957806986E+04  0.12517430998E+04  0.26702447956E+03  0.19686347475E+04  0.10100000352E+00 0.  1.
       -3    1    3    3    0  502 -0.14957806986E+04 -0.12517430998E+04  0.35998664271E+03  0.19833837449E+04  0.10100000352E+00 0. -1.
</event>
<event>
 5   0  0.3669347E-08  0.3897552E+04  0.7818609E-02  0.8025539E-01
       -2   -1    0    0    0  501  0.00000000000E+00  0.00000000000E+00  0.12705665963E+04  0.12705665963E+04  0.25500000920E-02 0. -1.
        2   -1    0    0  501    0  0.00000000000E+00  0.00000000000E+00 -0.29890033464E+04  0.29890033464E+04  0.25500000920E-02 0.  1.
    10030    2    1    2    0    0  0.00000000000E+00  0.00000000000E+00 -0.17184367502E+04  0.42595699427E+04  0.38975519538E+04 0.  0.
        5    1    3    3  502    0 -0.50763560181E+03 -0.83603841845E+03  0.98288246173E+03  0.13866269019E+04  0.46999998093E+01 0. -1.
       -5    1    3    3    0  502  0.50763560181E+03  0.83603841845E+03 -0.27013192119E+04  0.28729430408E+04  0.46999998093E+01 0.  1.
</event>
<event>
 5   0  0.3690572E-08  0.3893212E+04  0.7818609E-02  0.8026442E-01
       -2   -1    0    0    0  501  0.00000000000E+00  0.00000000000E+00  0.19308623665E+04  0.19308623665E+04  0.25500000920E-02 0. -1.
        2   -1    0    0  501    0  0.00000000000E+00  0.00000000000E+00 -0.19624778554E+04  0.19624778554E+04  0.25500000920E-02 0.  1.
    10030    2    1    2    0    0  0.00000000000E+00  0.00000000000E+00 -0.31615488920E+02  0.38933402220E+04  0.38932118546E+04 0.  0.
        3    1    3    3  502    0  0.15019509545E+04  0.20318976148E+02 -0.12539943984E+04  0.19567246847E+04  0.10100000352E+00 0.  1.
       -3    1    3    3    0  502 -0.15019509545E+04 -0.20318976148E+02  0.12223789094E+04  0.19366155372E+04  0.10100000352E+00 0. -1.
</event>
<event>
 5   0  0.3690572E-08  0.3900373E+04  0.7818609E-02  0.8024952E-01
       -2   -1    0    0    0  501  0.00000000000E+00  0.00000000000E+00  0.13629000533E+04  0.13629000533E+04  0.25500000920E-02 0. -1.
        2   -1    0    0  501    0  0.00000000000E+00  0.00000000000E+00 -0.27905402054E+04  0.27905402054E+04  0.25500000920E-02 0.  1.
    10030    2    1    2    0    0  0.00000000000E+00  0.00000000000E+00 -0.14276401521E+04  0.41534402587E+04  0.39003730050E+04 0.  0.
        3    1    3    3  502    0  0.31756280142E+03  0.10061407351E+04 -0.24603779334E+04  0.26770552659E+04  0.10100000352E+00 0.  1.
       -3    1    3    3    0  502 -0.31756280142E+03 -0.10061407351E+04  0.10327377813E+04  0.14763849927E+04  0.10100000352E+00 0. -1.
</event>
<event>
 5   0  0.1164500E-08  0.3900700E+04  0.7818609E-02  0.8024884E-01
        1   -1    0    0  501    0  0.00000000000E+00  0.00000000000E+00  0.22503927248E+04  0.22503927248E+04  0.50400001928E-02 0. -1.
       -1   -1    0    0    0  501  0.00000000000E+00  0.00000000000E+00 -0.16903117792E+04  0.16903117792E+04  0.50400001928E-02 0.  1.
    10030    2    1    2    0    0  0.00000000000E+00  0.00000000000E+00  0.56008094556E+03  0.39407045040E+04  0.39007001066E+04 0.  0.
        1    1    3    3  502    0  0.27053694833E+03  0.16882996553E+04 -0.66783532719E+03  0.18356334032E+04  0.50400001928E-02 0.  1.
       -1    1    3    3    0  502 -0.27053694833E+03 -0.16882996553E+04  0.12279162727E+04  0.21050711008E+04  0.50400001928E-02 0. -1.
</event>
<event>
 5   0  0.1164500E-08  0.3910188E+04  0.7818609E-02  0.8022914E-01
        1   -1    0    0  501    0  0.00000000000E+00  0.00000000000E+00  0.20414881462E+04  0.20414881462E+04  0.50400001928E-02 0. -1.
       -1   -1    0    0    0  501  0.00000000000E+00  0.00000000000E+00 -0.18723560808E+04  0.18723560808E+04  0.50400001928E-02 0.  1.
    10030    2    1    2    0    0  0.00000000000E+00  0.00000000000E+00  0.16913206542E+03  0.39138442270E+04  0.39101881000E+04 0.  0.
        4    1    3    3  502    0 -0.79003559750E+03  0.10817339624E+04  0.15100066385E+04  0.20185208128E+04  0.12699999809E+01 0. -1.
       -4    1    3    3    0  502  0.79003559750E+03 -0.10817339624E+04 -0.13408745731E+04  0.18953234142E+04  0.12699999809E+01 0.  1.
</event>
<event>
 5   0  0.1164500E-08  0.3899807E+04  0.7818609E-02  0.8025069E-01
       -1   -1    0    0    0  501  0.00000000000E+00  0.00000000000E+00  0.27293887049E+04  0.27293887049E+04  0.50400001928E-02 0. -1.
        1   -1    0    0  501    0  0.00000000000E+00  0.00000000000E+00 -0.13930310721E+04  0.13930310721E+04  0.50400001928E-02 0.  1.
    10030    2    1    2    0    0  0.00000000000E+00  0.00000000000E+00  0.13363576328E+04  0.41224197770E+04  0.38998068023E+04 0.  0.
        1    1    3    3  502    0 -0.18730851450E+04 -0.43111357211E+03  0.32108127584E+03  0.19486918838E+04  0.50400001928E-02 0.  1.
       -1    1    3    3    0  502  0.18730851450E+04  0.43111357211E+03  0.10152763569E+04  0.21737278931E+04  0.50400001928E-02 0. -1.
</event>
<event>
 5   0  0.1164500E-08  0.3906218E+04  0.7818609E-02  0.8023737E-01
        1   -1    0    0  501    0  0.00000000000E+00  0.00000000000E+00  0.19115445653E+04  0.19115445653E+04  0.50400001928E-02 0. -1.
       -1   -1    0    0    0  501  0.00000000000E+00  0.00000000000E+00 -0.19955767867E+04  0.19955767868E+04  0.50400001928E-02 0.  1.
    10030    2    1    2    0    0  0.00000000000E+00  0.00000000000E+00 -0.84032221407E+02  0.39071213521E+04  0.39062175881E+04 0.  0.
        5    1    3    3  502    0 -0.14743414109E+04  0.60555003614E+03 -0.11710989806E+04  0.19778443707E+04  0.46999998093E+01 0.  1.
       -5    1    3    3    0  502  0.14743414109E+04 -0.60555003614E+03  0.10870667592E+04  0.19292769814E+04  0.46999998093E+01 0. -1.
</event>
<event>
 5   0  0.1164500E-08  0.3896663E+04  0.7818609E-02  0.8025724E-01
       -1   -1    0    0    0  501  0.00000000000E+00  0.00000000000E+00  0.16999049632E+04  0.16999049632E+04  0.50400001928E-02 0.  1.
        1   -1    0    0  501    0  0.00000000000E+00  0.00000000000E+00 -0.22330629622E+04  0.22330629622E+04  0.50400001928E-02 0. -1.
    10030    2    1    2    0    0  0.00000000000E+00  0.00000000000E+00 -0.53315799901E+03  0.39329679254E+04  0.38966625785E+04 0.  0.
        4    1    3    3  502    0  0.11842344086E+04 -0.34488639455E+03  0.12556623141E+04  0.17601270465E+04  0.12699999809E+01 0.  1.
       -4    1    3    3    0  502 -0.11842344086E+04  0.34488639455E+03 -0.17888203131E+04  0.21728408790E+04  0.12699999809E+01 0. -1.
</event>
<event>
 5   0  0.1164500E-08  0.3895566E+04  0.7818609E-02  0.8025952E-01
        1   -1    0    0  501    0  0.00000000000E+00  0.00000000000E+00  0.21617350925E+04  0.21617350925E+04  0.50400001928E-02 0. -1.
       -1   -1    0    0    0  501  0.00000000000E+00  0.00000000000E+00 -0.17550060508E+04  0.17550060509E+04  0.50400001928E-02 0.  1.
    10030    2    1    2    0    0  0.00000000000E+00  0.00000000000E+00  0.40672904167E+03  0.39167411434E+04  0.38955657703E+04 0.  0.
        2    1    3    3  502    0 -0.14019859387E+04 -0.13480487521E+04  0.97635134439E+02  0.19473912370E+04  0.25500000920E-02 0. -1.
       -2    1    3    3    0  502  0.14019859387E+04  0.13480487521E+04  0.30909390723E+03  0.19693499064E+04  0.25500000920E-02 0.  1.
</event>
<event>
 5   0  0.3872969E-08  0.3944471E+04  0.7818609E-02  0.8015843E-01
       -2   -1    0    0    0  501  0.00000000000E+00  0.00000000000E+00  0.16215697900E+04  0.16215697900E+04  0.25500000920E-02 0. -1.
        2   -1    0    0  501    0  0.00000000000E+00  0.00000000000E+00 -0.23987326246E+04  0.23987326246E+04  0.25500000920E-02 0.  1.
    10030    2    1    2    0    0  0.00000000000E+00  0.00000000000E+00 -0.77716283456E+03  0.40203024146E+04  0.39444707418E+04 0.  0.
        2    1    3    3  502    0  0.10255111733E+03 -0.51743051169E+03  0.15483376121E+04  0.16357262691E+04  0.25500000920E-02 0. -1.
       -2    1    3    3    0  502 -0.10255111733E+03  0.51743051169E+03 -0.23255004467E+04  0.23845761455E+04  0.25500000920E-02 0.  1.
</event>
<event>
 5   0  0.1164500E-08  0.3900148E+04  0.7818609E-02  0.8024998E-01
        1   -1    0    0  501    0  0.00000000000E+00  0.00000000000E+00  0.25583169827E+04  0.25583169827E+04  0.50400001928E-02 0. -1.
       -1   -1    0    0    0  501  0.00000000000E+00  0.00000000000E+00 -0.14864414224E+04  0.14864414224E+04  0.50400001928E-02 0.  1.
    10030    2    1    2    0    0  0.00000000000E+00  0.00000000000E+00  0.10718755604E+04  0.40447584051E+04  0.39001478612E+04 0.  0.
        5    1    3    3  502    0 -0.12154087035E+04  0.26651754776E+03 -0.10212400292E+04  0.16097214688E+04  0.46999998093E+01 0.  1.
       -5    1    3    3    0  502  0.12154087035E+04 -0.26651754776E+03  0.20931155896E+04  0.24350369363E+04  0.46999998093E+01 0. -1.
</event>
<event>
 5   0  0.1164500E-08  0.3902360E+04  0.7818609E-02  0.8024539E-01
       -1   -1    0    0    0  501  0.00000000000E+00  0.00000000000E+00  0.27382791076E+04  0.27382791076E+04  0.50400001928E-02 0.  1.
        1   -1    0    0  501    0  0.00000000000E+00  0.00000000000E+00 -0.13903268140E+04  0.13903268140E+04  0.50400001928E-02 0. -1.
    10030    2    1    2    0    0  0.00000000000E+00  0.00000000000E+00  0.13479522936E+04  0.41286059216E+04  0.39023597310E+04 0.  0.
        3    1    3    3  502    0 -0.83721802385E+03 -0.36712625894E+02 -0.11902320566E+04  0.14556559329E+04  0.10100000352E+00 0. -1.
       -3    1    3    3    0  502  0.83721802385E+03  0.36712625894E+02  0.25381843502E+04  0.26729499887E+04  0.10100000352E+00 0.  1.
</event>
<event>
 5   0  0.3872969E-08  0.3903075E+04  0.7818609E-02  0.8024390E-01
        2   -1    0    0  501    0  0.00000000000E+00  0.00000000000E+00  0.18550347529E+04  0.18550347529E+04  0.25500000920E-02 0.  1.
       -2   -1    0    0    0  501  0.00000000000E+00  0.00000000000E+00 -0.20530608082E+04  0.20530608082E+04  0.25500000920E-02 0. -1.
    10030    2    1    2    0    0  0.00000000000E+00  0.00000000000E+00 -0.19802605531E+03  0.39080955611E+04  0.39030752742E+04 0.  0.
        2    1    3    3  502    0 -0.12409068132E+03  0.17960061262E+04 -0.85328311863E+03  0.19922671967E+04  0.25500000920E-02 0. -1.
       -2    1    3    3    0  502  0.12409068132E+03 -0.17960061262E+04  0.65525706332E+03  0.19158283644E+04  0.25500000920E-02 0.  1.
</event>
<event>
 5   0  0.1164500E-08  0.3900418E+04  0.7818609E-02  0.8024942E-01
        1   -1    0    0  501    0  0.00000000000E+00  0.00000000000E+00  0.19302188990E+04  0.19302188990E+04  0.50400001928E-02 0.  1.
       -1   -1    0    0    0  501  0.00000000000E+00  0.00000000000E+00 -0.19704062865E+04  0.19704062865E+04  0.50400001928E-02 0. -1.
    10030    2    1    2    0    0  0.00000000000E+00  0.00000000000E+00 -0.40187387481E+02  0.39006251855E+04  0.39004181585E+04 0.  0.
        2    1    3    3  502    0  0.62081574934E+03  0.21154831856E+03 -0.18568050640E+04  0.19692358750E+04  0.25500000920E-02 0. -1.
       -2    1    3    3    0  502 -0.62081574934E+03 -0.21154831856E+03  0.18166176766E+04  0.19313893104E+04  0.25500000920E-02 0.  1.
</event>
<event>
 5   0  0.1164500E-08  0.3902538E+04  0.7818609E-02  0.8024501E-01
       -1   -1    0    0    0  501  0.00000000000E+00  0.00000000000E+00  0.16552392106E+04  0.16552392106E+04  0.50400001928E-02 0.  1.
        1   -1    0    0  501    0  0.00000000000E+00  0.00000000000E+00 -0.23002424014E+04  0.23002424014E+04  0.50400001928E-02 0. -1.
    10030    2    1    2    0    0  0.00000000000E+00  0.00000000000E+00 -0.64500319084E+03  0.39554816120E+04  0.39025383620E+04 0.  0.
        5    1    3    3  502    0 -0.15161211174E+03 -0.18347660177E+04 -0.97786200120E+03  0.20846075783E+04  0.46999998093E+01 0. -1.
       -5    1    3    3    0  502  0.15161211174E+03  0.18347660177E+04  0.33285881036E+03  0.18708740337E+04  0.46999998093E+01 0.  1.
</event>
<event>
 5   0  0.3769985E-08  0.3906510E+04  0.7818609E-02  0.8023677E-01
        2   -1    0    0  501    0  0.00000000000E+00  0.00000000000E+00  0.11322088095E+04  0.11322088095E+04  0.25500000920E-02 0. -1.
       -2   -1    0    0    0  501  0.00000000000E+00  0.00000000000E+00 -0.33697016884E+04  0.33697016884E+04  0.25500000920E-02 0.  1.
    10030    2    1    2    0    0  0.00000000000E+00  0.00000000000E+00 -0.22374928789E+04  0.45019104979E+04  0.39065104311E+04 0.  0.
        1    1    3    3  502    0 -0.14136444576E+04 -0.85526564272E+03  0.81830412425E+02  0.16542569899E+04  0.50400001928E-02 0. -1.
       -1    1    3    3    0  502  0.14136444576E+04  0.85526564272E+03 -0.23193232913E+04  0.28476535080E+04  0.50400001928E-02 0.  1.
</event>
<event>
 5   0  0.3872969E-08  0.3909939E+04  0.7818609E-02  0.8022965E-01
       -2   -1    0    0    0  501  0.00000000000E+00  0.00000000000E+00  0.16488348125E+04  0.16488348125E+04  0.25500000920E-02 0.  1.
        2   -1    0    0  501    0  0.00000000000E+00  0.00000000000E+00 -0.23179439335E+04  0.23179439335E+04  0.25500000920E-02 0. -1.
    10030    2    1    2    0    0  0.00000000000E+00  0.00000000000E+00 -0.66910912105E+03  0.39667787460E+04  0.39099394629E+04 0.  0.
        2    1    3    3  502    0  0.18532169599E+04  0.32728159343E+03  0.20265248426E+03  0.18927742526E+04  0.25500000920E-02 0.  1.
       -2    1    3    3    0  502 -0.18532169599E+04 -0.32728159343E+03 -0.87176160531E+03  0.20740044933E+04  0.25500000920E-02 0. -1.
</event>
<event>
 5   0  0.3724293E-08  0.3902439E+04  0.7818609E-02  0.8024522E-01
        2   -1    0    0  501    0  0.00000000000E+00  0.00000000000E+00  0.28014142448E+04  0.28014142448E+04  0.25500000920E-02 0.  1.
       -2   -1    0    0    0  501  0.00000000000E+00  0.00000000000E+00 -0.13590484150E+04  0.13590484150E+04  0.25500000920E-02 0. -1.
    10030    2    1    2    0    0  0.00000000000E+00  0.00000000000E+00  0.14423658298E+04  0.41604626598E+04  0.39024390267E+04 0.  0.
        4    1    3    3  502    0 -0.11514613507E+04 -0.72352755697E+03  0.22129493219E+04  0.25974028725E+04  0.12699999809E+01 0.  1.
       -4    1    3    3    0  502  0.11514613507E+04  0.72352755697E+03 -0.77058349203E+03  0.15630597874E+04  0.12699999809E+01 0. -1.
</event>
<event>
 5   0  0.3669347E-08  0.3906655E+04  0.7818609E-02  0.8023647E-01
        2   -1    0    0  501    0  0.00000000000E+00  0.00000000000E+00  0.24764517460E+04  0.24764517460E+04  0.25500000920E-02 0.  1.
       -2   -1    0    0    0  501  0.00000000000E+00  0.00000000000E+00 -0.15407077420E+04  0.15407077420E+04  0.25500000920E-02 0. -1.
    10030    2    1    2    0    0  0.00000000000E+00  0.00000000000E+00  0.93574400401E+03  0.40171594880E+04  0.39066550284E+04 0.  0.
        5    1    3    3  502    0  0.16911235868E+04 -0.20390614454E+03 -0.51519843216E+03  0.17795865295E+04  0.46999998093E+01 0. -1.
       -5    1    3    3    0  502 -0.16911235868E+04  0.20390614454E+03  0.14509424362E+04  0.22375729585E+04  0.46999998093E+01 0.  1.
</event>
<event>
 5   0  0.3724293E-08  0.3904343E+04  0.7818609E-02  0.8024127E-01
        2   -1    0    0  501    0  0.00000000000E+00  0.00000000000E+00  0.21000496738E+04  0.21000496738E+04  0.25500000920E-02 0. -1.
       -2   -1    0    0    0  501  0.00000000000E+00  0.00000000000E+00 -0.18147064941E+04  0.18147064941E+04  0.25500000920E-02 0.  1.
    10030    2    1    2    0    0  0.00000000000E+00  0.00000000000E+00  0.28534317967E+03  0.39147561679E+04  0.39043431104E+04 0.  0.
        4    1    3    3  502    0 -0.85838476692E+03  0.11032870696E+04 -0.12236459097E+04  0.18577883871E+04  0.12699999809E+01 0.  1.
       -4    1    3    3    0  502  0.85838476692E+03 -0.11032870696E+04  0.15089890894E+04  0.20569677807E+04  0.12699999809E+01 0. -1.
</event>
<event>
 5   0  0.3769985E-08  0.3953290E+04  0.7818609E-02  0.8014036E-01
        2   -1    0    0  501    0  0.00000000000E+00  0.00000000000E+00  0.19814740375E+04  0.19814740375E+04  0.25500000920E-02 0.  1.
       -2   -1    0    0    0  501  0.00000000000E+00  0.00000000000E+00 -0.19718280957E+04  0.19718280957E+04  0.25500000920E-02 0. -1.
    10030    2    1    2    0    0  0.00000000000E+00  0.00000000000E+00  0.96459418550E+01  0.39533021332E+04  0.39532903652E+04 0.  0.
        1    1    3    3  502    0 -0.33479856128E+02  0.12297134551E+04  0.15520218421E+04  0.19804261867E+04  0.50400001928E-02 0.  1.
       -1    1    3    3    0  502  0.33479856128E+02 -0.12297134551E+04 -0.15423759003E+04  0.19728759465E+04  0.50400001928E-02 0. -1.
</event>
<event>
 5   0  0.1164500E-08  0.3897575E+04  0.7818609E-02  0.8025534E-01
        1   -1    0    0  501    0  0.00000000000E+00  0.00000000000E+00  0.13357412706E+04  0.13357412706E+04  0.50400001928E-02 0.  1.
       -1   -1    0    0    0  501  0.00000000000E+00  0.00000000000E+00 -0.28431950079E+04  0.28431950079E+04  0.50400001928E-02 0. -1.
    10030    2    1    2    0    0  0.00000000000E+00  0.00000000000E+00 -0.15074537373E+04  0.41789362785E+04  0.38975750987E+04 0.  0.
        4    1    3    3  502    0 -0.20878510928E+02 -0.16810419176E+04  0.30303658573E+03  0.17082653851E+04  0.12699999809E+01 0.  1.
       -4    1    3    3    0  502  0.20878510928E+02  0.16810419176E+04 -0.18104903230E+04  0.24706708934E+04  0.12699999809E+01 0. -1.
</event>
<event>
 5   0  0.3872969E-08  0.3897079E+04  0.7818609E-02  0.8025637E-01
        2   -1    0    0  501    0  0.00000000000E+00  0.00000000000E+00  0.19898657452E+04  0.19898657452E+04  0.25500000920E-02 0. -1.
       -2   -1    0    0    0  501  0.00000000000E+00  0.00000000000E+00 -0.19080711936E+04  0.19080711936E+04  0.25500000920E-02 0.  1.
    10030    2    1    2    0    0  0.00000000000E+00  0.00000000000E+00  0.81794551563E+02  0.38979369388E+04  0.38970786533E+04 0.  0.
        2    1    3    3  502    0  0.70177363654E+03 -0.14341115332E+04  0.11581228568E+04  0.19724124006E+04  0.25500000920E-02 0. -1.
       -2    1    3    3    0  502 -0.70177363654E+03  0.14341115332E+04 -0.10763283052E+04  0.19255245382E+04  0.25500000920E-02 0.  1.
</event>
<event>
 5   0  0.3690572E-08  0.3896088E+04  0.7818609E-02  0.8025843E-01
       -2   -1    0    0    0  501  0.00000000000E+00  0.00000000000E+00  0.16519456471E+04  0.16519456471E+04  0.25500000920E-02 0.  1.
        2   -1    0    0  501    0  0.00000000000E+00  0.00000000000E+00 -0.22972153331E+04  0.22972153331E+04  0.25500000920E-02 0. -1.
    10030    2    1    2    0    0  0.00000000000E+00  0.00000000000E+00 -0.64526968597E+03  0.39491609802E+04  0.38960877146E+04 0.  0.
        3    1    3    3  502    0 -0.46562564484E+03  0.30694923676E+03 -0.22145681460E+04  0.22837112686E+04  0.10100000352E+00 0. -1.
       -3    1    3    3    0  502  0.46562564484E+03 -0.30694923676E+03  0.15692984600E+04  0.16654497116E+04  0.10100000352E+00 0.  1.
</event>
<event>
 5   0  0.1164500E-08  0.3899875E+04  0.7818609E-02  0.8025055E-01
       -4   -1    0    0    0  501  0.00000000000E+00  0.00000000000E+00  0.26498137847E+04  0.26498140891E+04  0.12699999809E+01 0. -1.
        4   -1    0    0  501    0  0.00000000000E+00  0.00000000000E+00 -0.14349137261E+04  0.14349142881E+04  0.12699999809E+01 0.  1.
    10030    2    1    2    0    0  0.00000000000E+00  0.00000000000E+00  0.12149000587E+04  0.40847283771E+04  0.38998748393E+04 0.  0.
        3    1    3    3  502    0  0.15081245041E+04  0.26837830040E+03 -0.65630182071E+03  0.16664928809E+04  0.10100000352E+00 0.  1.
       -3    1    3    3    0  502 -0.15081245041E+04 -0.26837830040E+03  0.18712018794E+04  0.24182354963E+04  0.10100000352E+00 0. -1.
</event>
<event>
 5   0  0.3769985E-08  0.3900821E+04  0.7818609E-02  0.8024858E-01
       -2   -1    0    0    0  501  0.00000000000E+00  0.00000000000E+00  0.26929926135E+04  0.26929926135E+04  0.25500000920E-02 0.  1.
        2   -1    0    0  501    0  0.00000000000E+00  0.00000000000E+00 -0.14125925003E+04  0.14125925003E+04  0.25500000920E-02 0. -1.
    10030    2    1    2    0    0  0.00000000000E+00  0.00000000000E+00  0.12804001132E+04  0.41055851137E+04  0.39008210259E+04 0.  0.
        1    1    3    3  502    0 -0.12286672922E+04  0.14798064350E+04  0.29972112185E+03  0.19466081143E+04  0.50400001928E-02 0.  1.
       -1    1    3    3    0  502  0.12286672922E+04 -0.14798064350E+04  0.98067899135E+03  0.21589769994E+04  0.50400001928E-02 0. -1.
</event>
<event>
 5   0  0.1164500E-08  0.3873364E+04  0.7818609E-02  0.8030592E-01
       -1   -1    0    0    0  501  0.00000000000E+00  0.00000000000E+00  0.23084719091E+04  0.23084719091E+04  0.50400001928E-02 0.  1.
        1   -1    0    0  501    0  0.00000000000E+00  0.00000000000E+00 -0.16247703917E+04  0.16247703917E+04  0.50400001928E-02 0. -1.
    10030    2    1    2    0    0  0.00000000000E+00  0.00000000000E+00  0.68370151738E+03  0.39332423008E+04  0.38733638135E+04 0.  0.
        1    1    3    3  502    0 -0.12210173676E+04  0.13220673787E+04  0.10684478859E+04  0.20929229443E+04  0.50400001928E-02 0.  1.
       -1    1    3    3    0  502  0.12210173676E+04 -0.13220673787E+04 -0.38474636855E+03  0.18403193565E+04  0.50400001928E-02 0. -1.
</event>
<event>
 5   0  0.3872969E-08  0.3904446E+04  0.7818609E-02  0.8024105E-01
        2   -1    0    0  501    0  0.00000000000E+00  0.00000000000E+00  0.19124515203E+04  0.19124515203E+04  0.25500000920E-02 0. -1.
       -2   -1    0    0    0  501  0.00000000000E+00  0.00000000000E+00 -0.19928218453E+04  0.19928218453E+04  0.25500000920E-02 0.  1.
    10030    2    1    2    0    0  0.00000000000E+00  0.00000000000E+00 -0.80370325026E+02  0.39052733656E+04  0.39044462694E+04 0.  0.
        2    1    3    3  502    0 -0.56755227833E+03 -0.78825116486E+03  0.16536078509E+04  0.19177785097E+04  0.25500000920E-02 0. -1.
       -2    1    3    3    0  502  0.56755227833E+03  0.78825116486E+03 -0.17339781759E+04  0.19874948559E+04  0.25500000920E-02 0.  1.
</event>
<event>
 5   0  0.1164500E-08  0.3896740E+04  0.7818609E-02  0.8025708E-01
        1   -1    0    0  501    0  0.00000000000E+00  0.00000000000E+00  0.25201668218E+04  0.25201668218E+04  0.50400001928E-02 0.  1.
       -1   -1    0    0    0  501  0.00000000000E+00  0.00000000000E+00 -0.15063072540E+04  0.15063072540E+04  0.50400001928E-02 0. -1.
    10030    2    1    2    0    0  0.00000000000E+00  0.00000000000E+00  0.10138595678E+04  0.40264740758E+04  0.38967399528E+04 0.  0.
        5    1    3    3  502    0 -0.10315253518E+04  0.15076592939E+04 -0.19315376563E+03  0.18369571484E+04  0.46999998093E+01 0.  1.
       -5    1    3    3    0  502  0.10315253518E+04 -0.15076592939E+04  0.12070133334E+04  0.21895169274E+04  0.46999998093E+01 0. -1.
</event>
<event>
 5   0  0.3669347E-08  0.3911482E+04  0.7818609E-02  0.8022645E-01
        2   -1    0    0  501    0  0.00000000000E+00  0.00000000000E+00  0.24221182849E+04  0.24221182849E+04  0.25500000920E-02 0.  1.
       -2   -1    0    0    0  501  0.00000000000E+00  0.00000000000E+00 -0.15791640140E+04  0.15791640140E+04  0.25500000920E-02 0. -1.
    10030    2    1    2    0    0  0.00000000000E+00  0.00000000000E+00  0.84295427086E+03  0.40012822989E+04  0.39114815777E+04 0.  0.
        5    1    3    3  502    0  0.10204172757E+04 -0.16672954636E+04  0.48432344393E+03  0.20138810461E+04  0.46999998093E+01 0.  1.
       -5    1    3    3    0  502 -0.10204172757E+04  0.16672954636E+04  0.35863082693E+03  0.19874012528E+04  0.46999998093E+01 0. -1.
</event>
<event>
 5   0  0.1164500E-08  0.3902288E+04  0.7818609E-02  0.8024554E-01
        1   -1    0    0  501    0  0.00000000000E+00  0.00000000000E+00  0.24824077407E+04  0.24824077407E+04  0.50400001928E-02 0.  1.
       -1   -1    0    0    0  501  0.00000000000E+00  0.00000000000E+00 -0.15335765453E+04  0.15335765453E+04  0.50400001928E-02 0. -1.
    10030    2    1    2    0    0  0.00000000000E+00  0.00000000000E+00  0.94883119538E+03  0.40159842861E+04  0.39022876814E+04 0.  0.
        4    1    3    3  502    0  0.16133627876E+04 -0.19967028280E+03  0.15848112347E+04  0.22703382940E+04  0.12699999809E+01 0.  1.
       -4    1    3    3    0  502 -0.16133627876E+04  0.19967028280E+03 -0.63598003936E+03  0.17456459921E+04  0.12699999809E+01 0. -1.
</event>
<event>
 5   0  0.3724293E-08  0.3912404E+04  0.7818609E-02  0.8022454E-01
       -2   -1    0    0    0  501  0.00000000000E+00  0.00000000000E+00  0.15459582658E+04  0.15459582658E+04  0.25500000920E-02 0.  1.
        2   -1    0    0  501    0  0.00000000000E+00  0.00000000000E+00 -0.24753103041E+04  0.24753103041E+04  0.25500000920E-02 0. -1.
    10030    2    1    2    0    0  0.00000000000E+00  0.00000000000E+00 -0.92935203829E+03  0.40212685698E+04  0.39124040818E+04 0.  0.
        4    1    3    3  502    0 -0.15014118659E+04  0.47191747410E+03 -0.16588044828E+04  0.22866083221E+04  0.12699999809E+01 0. -1.
       -4    1    3    3    0  502  0.15014118659E+04 -0.47191747410E+03  0.72945244452E+03  0.17346602478E+04  0.12699999809E+01 0.  1.
</event>
<event>
 5   0  0.1164500E-08  0.3896348E+04  0.7818609E-02  0.8025789E-01
        1   -1    0    0  501    0  0.00000000000E+00  0.00000000000E+00  0.19388843827E+04  0.19388843827E+04  0.50400001928E-02 0. -1.
       -1   -1    0    0    0  501  0.00000000000E+00  0.00000000000E+00 -0.19575084661E+04  0.19575084661E+04  0.50400001928E-02 0.  1.
    10030    2    1    2    0    0  0.00000000000E+00  0.00000000000E+00 -0.18624083356E+02  0.38963928488E+04  0.38963483386E+04 0.  0.
        1    1    3    3  502    0  0.12912623654E+04 -0.14366336248E+04 -0.26251036406E+03  0.19494066686E+04  0.50400001928E-02 0. -1.
       -1    1    3    3    0  502 -0.12912623654E+04  0.14366336248E+04  0.24388628071E+03  0.19469861803E+04  0.50400001928E-02 0.  1.
</event>
<event>
 5   0  0.3769985E-08  0.3886479E+04  0.7818609E-02  0.8027847E-01
       -2   -1    0    0    0  501  0.00000000000E+00  0.00000000000E+00  0.14152787958E+04  0.14152787958E+04  0.25500000920E-02 0. -1.
        2   -1    0    0  501    0  0.00000000000E+00  0.00000000000E+00 -0.26681530333E+04  0.26681530333E+04  0.25500000920E-02 0.  1.
    10030    2    1    2    0    0  0.00000000000E+00  0.00000000000E+00 -0.12528742375E+04  0.40834318290E+04  0.38864793383E+04 0.  0.
        1    1    3    3  502    0 -0.72424205432E+03  0.15657869963E+04  0.31329576336E+03  0.17533880649E+04  0.50400001928E-02 0. -1.
       -1    1    3    3    0  502  0.72424205432E+03 -0.15657869963E+04 -0.15661700009E+04  0.23300437641E+04  0.50400001928E-02 0.  1.
</event>
<event>
 5   0  0.1164500E-08  0.3900718E+04  0.7818609E-02  0.8024880E-01
       -1   -1    0    0    0  501  0.00000000000E+00  0.00000000000E+00  0.14666613889E+04  0.14666613889E+04  0.50400001928E-02 0. -1.
        1   -1    0    0  501    0  0.00000000000E+00  0.00000000000E+00 -0.25935772698E+04  0.25935772698E+04  0.50400001928E-02 0.  1.
    10030    2    1    2    0    0  0.00000000000E+00  0.00000000000E+00 -0.11269158809E+04  0.40602386587E+04  0.39007176984E+04 0.  0.
        4    1    3    3  502    0 -0.10893119381E+03  0.15437144756E+04 -0.17990044317E+04  0.23730442359E+04  0.12699999809E+01 0.  1.
       -4    1    3    3    0  502  0.10893119381E+03 -0.15437144756E+04  0.67208855077E+03  0.16871944228E+04  0.12699999809E+01 0. -1.
</event>
<event>
 5   0  0.3690572E-08  0.3907425E+04  0.7818609E-02  0.8023487E-01
        2   -1    0    0  501    0  0.00000000000E+00  0.00000000000E+00  0.12367859873E+04  0.12367859873E+04  0.25500000920E-02 0. -1.
       -2   -1    0    0    0  501  0.00000000000E+00  0.00000000000E+00 -0.30862185928E+04  0.30862185928E+04  0.25500000920E-02 0.  1.
    10030    2    1    2    0    0  0.00000000000E+00  0.00000000000E+00 -0.18494326055E+04  0.43230045801E+04  0.39074246809E+04 0.  0.
        3    1    3    3  502    0  0.17885637663E+04 -0.69103721657E+03 -0.13394142441E+04  0.23389149853E+04  0.10100000352E+00 0.  1.
       -3    1    3    3    0  502 -0.17885637663E+04  0.69103721657E+03 -0.51001836135E+03  0.19840895948E+04  0.10100000352E+00 0. -1.
</event>
<event>
 5   0  0.1164500E-08  0.3897535E+04  0.7818609E-02  0.8025542E-01
       -1   -1    0    0    0  501  0.00000000000E+00  0.00000000000E+00  0.30050047631E+04  0.30050047631E+04  0.50400001928E-02 0. -1.
        1   -1    0    0  501    0  0.00000000000E+00  0.00000000000E+00 -0.12637897770E+04  0.12637897770E+04  0.50400001928E-02 0.  1.
    10030    2    1    2    0    0  0.00000000000E+00  0.00000000000E+00  0.17412149861E+04  0.42687945401E+04  0.38975347590E+04 0.  0.
        3    1    3    3  502    0  0.10380918702E+03  0.10602453634E+04  0.26578535308E+04  0.28634039148E+04  0.10100000352E+00 0. -1.
       -3    1    3    3    0  502 -0.10380918702E+03 -0.10602453634E+04 -0.91663854466E+03  0.14053906253E+04  0.10100000352E+00 0.  1.
</event>
<event>
 5   0  0.3769985E-08  0.3896161E+04  0.7818609E-02  0.8025828E-01
       -2   -1    0    0    0  501  0.00000000000E+00  0.00000000000E+00  0.20743156168E+04  0.20743156168E+04  0.25500000920E-02 0. -1.
        2   -1    0    0  501    0  0.00000000000E+00  0.00000000000E+00 -0.18295276301E+04  0.18295276301E+04  0.25500000920E-02 0.  1.
    10030    2    1    2    0    0  0.00000000000E+00  0.00000000000E+00  0.24478798677E+03  0.39038432469E+04  0.38961610513E+04 0.  0.
        1    1    3    3  502    0 -0.58375792414E+03  0.15599067352E+04  0.11347997392E+04  0.20154038764E+04  0.50400001928E-02 0.  1.
       -1    1    3    3    0  502  0.58375792414E+03 -0.15599067352E+04 -0.89001175248E+03  0.18884393705E+04  0.50400001928E-02 0. -1.
</event>
<event>
 5   0  0.1164500E-08  0.3912044E+04  0.7818609E-02  0.8022529E-01
        1   -1    0    0  501    0  0.00000000000E+00  0.00000000000E+00  0.28865125928E+04  0.28865125928E+04  0.50400001928E-02 0. -1.
       -1   -1    0    0    0  501  0.00000000000E+00  0.00000000000E+00 -0.13254823862E+04  0.13254823863E+04  0.50400001928E-02 0.  1.
    10030    2    1    2    0    0  0.00000000000E+00  0.00000000000E+00  0.15610302065E+04  0.42119949790E+04  0.39120437622E+04 0.  0.
        4    1    3    3  502    0 -0.94164963808E+03 -0.13143368548E+04 -0.40472356134E+03  0.16667297870E+04  0.12699999809E+01 0.  1.
       -4    1    3    3    0  502  0.94164963808E+03  0.13143368548E+04  0.19657537679E+04  0.25452651920E+04  0.12699999809E+01 0. -1.
</event>
<event>
 5   0  0.3690572E-08  0.3893706E+04  0.7818609E-02  0.8026340E-01
        2   -1    0    0  501    0  0.00000000000E+00  0.00000000000E+00  0.19680697484E+04  0.19680697484E+04  0.25500000920E-02 0.  1.
       -2   -1    0    0    0  501  0.00000000000E+00  0.00000000000E+00 -0.19258648196E+04  0.19258648196E+04  0.25500000920E-02 0. -1.
    10030    2    1    2    0    0  0.00000000000E+00  0.00000000000E+00  0.42204928843E+02  0.38939345680E+04  0.38937058394E+04 0.  0.
        3    1    3    3  502    0 -0.27922388582E+03 -0.66912575132E+03 -0.17858077662E+04  0.19273828466E+04  0.10100000352E+00 0. -1.
       -3    1    3    3    0  502  0.27922388582E+03  0.66912575132E+03  0.18280126950E+04  0.19665517214E+04  0.10100000352E+00 0.  1.
</event>
<event>
 5   0  0.1164500E-08  0.3897854E+04  0.7818609E-02  0.8025476E-01
        1   -1    0    0  501    0  0.00000000000E+00  0.00000000000E+00  0.13895628666E+04  0.13895628666E+04  0.50400001928E-02 0.  1.
       -1   -1    0    0    0  501  0.00000000000E+00  0.00000000000E+00 -0.27334620314E+04  0.27334620314E+04  0.50400001928E-02 0. -1.
    10030    2    1    2    0    0  0.00000000000E+00  0.00000000000E+00 -0.13438991648E+04  0.41230248980E+04  0.38978544539E+04 0.  0.
        4    1    3    3  502    0 -0.44316397850E+03 -0.58437522728E+03  0.12380249645E+04  0.14389566163E+04  0.12699999809E+01 0.  1.
       -4    1    3    3    0  502  0.44316397850E+03  0.58437522728E+03 -0.25819241293E+04  0.26840682816E+04  0.12699999809E+01 0. -1.
</event>
<event>
 5   0  0.1164500E-08  0.3904020E+04  0.7818609E-02  0.8024194E-01
       -1   -1    0    0    0  501  0.00000000000E+00  0.00000000000E+00  0.19645866092E+04  0.19645866092E+04  0.50400001928E-02 0.  1.
        1   -1    0    0  501    0  0.00000000000E+00  0.00000000000E+00 -0.19395141460E+04  0.19395141460E+04  0.50400001928E-02 0. -1.
    10030    2    1    2    0    0  0.00000000000E+00  0.00000000000E+00  0.25072463215E+02  0.39041007552E+04  0.39040202456E+04 0.  0.
        4    1    3    3  502    0 -0.76893226218E+03  0.17395140259E+04  0.45206325482E+03  0.19548730571E+04  0.12699999809E+01 0.  1.
       -4    1    3    3    0  502  0.76893226218E+03 -0.17395140259E+04 -0.42699079161E+03  0.19492276981E+04  0.12699999809E+01 0. -1.
</event>
<event>
 5   0  0.1164500E-08  0.3882918E+04  0.7818609E-02  0.8028591E-01
        1   -1    0    0  501    0  0.00000000000E+00  0.00000000000E+00  0.20245661576E+04  0.20245661576E+04  0.50400001928E-02 0.  1.
       -1   -1    0    0    0  501  0.00000000000E+00  0.00000000000E+00 -0.18617636304E+04  0.18617636304E+04  0.50400001928E-02 0. -1.
    10030    2    1    2    0    0  0.00000000000E+00  0.00000000000E+00  0.16280252719E+03  0.38863297880E+04  0.38829183043E+04 0.  0.
        5    1    3    3  502    0  0.28967154891E+02 -0.14725865635E+04 -0.11845781163E+04  0.18901316586E+04  0.46999998093E+01 0. -1.
       -5    1    3    3    0  502 -0.28967154891E+02  0.14725865635E+04  0.13473806435E+04  0.19961981294E+04  0.46999998093E+01 0.  1.
</event>
<event>
 5   0  0.3872969E-08  0.3899021E+04  0.7818609E-02  0.8025233E-01
        2   -1    0    0  501    0  0.00000000000E+00  0.00000000000E+00  0.21417299697E+04  0.21417299697E+04  0.25500000920E-02 0. -1.
       -2   -1    0    0    0  501  0.00000000000E+00  0.00000000000E+00 -0.17745427892E+04  0.17745427892E+04  0.25500000920E-02 0.  1.
    10030    2    1    2    0    0  0.00000000000E+00  0.00000000000E+00  0.36718718050E+03  0.39162727588E+04  0.38990211459E+04 0.  0.
        2    1    3    3  502    0  0.19054075380E+04  0.41125532276E+03  0.21343443140E+03  0.19609342372E+04  0.25500000920E-02 0. -1.
       -2    1    3    3    0  502 -0.19054075380E+04 -0.41125532276E+03  0.15375274910E+03  0.19553385216E+04  0.25500000920E-02 0.  1.
</event>
<event>
 5   0  0.3724293E-08  0.3905348E+04  0.7818609E-02  0.8023918E-01
        2   -1    0    0  501    0  0.00000000000E+00  0.00000000000E+00  0.15945809070E+04  0.15945809070E+04  0.25500000920E-02 0. -1.
       -2   -1    0    0    0  501  0.00000000000E+00  0.00000000000E+00 -0.23911831482E+04  0.23911831482E+04  0.25500000920E-02 0.  1.
    10030    2    1    2    0    0  0.00000000000E+00  0.00000000000E+00 -0.79660224120E+03  0.39857640553E+04  0.39053476124E+04 0.  0.
        4    1    3    3  502    0  0.93009360754E+03  0.13566526920E+04  0.67567563376E+03  0.17782350296E+04  0.12699999809E+01 0. -1.
       -4    1    3    3    0  502 -0.93009360754E+03 -0.13566526920E+04 -0.14722778750E+04  0.22075290257E+04  0.12699999809E+01 0.  1.
</event>
<event>
 5   0  0.3669347E-08  0.3921146E+04  0.7818609E-02  0.8020646E-01
        2   -1    0    0  501    0  0.00000000000E+00  0.00000000000E+00  0.15790450855E+04  0.15790450855E+04  0.25500000920E-02 0. -1.
       -2   -1    0    0    0  501  0.00000000000E+00  0.00000000000E+00 -0.24342855658E+04  0.24342855658E+04  0.25500000920E-02 0.  1.
    10030    2    1    2    0    0  0.00000000000E+00  0.00000000000E+00 -0.85524048030E+03  0.40133306514E+04  0.39211460873E+04 0.  0.
        5    1    3    3  502    0 -0.10517913148E+04  0.11404749842E+04 -0.16544989399E+04  0.22681130905E+04  0.46999998093E+01 0.  1.
       -5    1    3    3    0  502  0.10517913148E+04 -0.11404749842E+04  0.79925845958E+03  0.17452175608E+04  0.46999998093E+01 0. -1.
</event>
<event>
 5   0  0.3669347E-08  0.3904133E+04  0.7818609E-02  0.8024170E-01
       -2   -1    0    0    0  501  0.00000000000E+00  0.00000000000E+00  0.14547504018E+04  0.14547504018E+04  0.25500000920E-02 0. -1.
        2   -1    0    0  501    0  0.00000000000E+00  0.00000000000E+00 -0.26193928728E+04  0.26193928728E+04  0.25500000920E-02 0.  1.
    10030    2    1    2    0    0  0.00000000000E+00  0.00000000000E+00 -0.11646424710E+04  0.40741432746E+04  0.39041325972E+04 0.  0.
        5    1    3    3  502    0 -0.17224244984E+04 -0.21607466003E+03  0.34936540494E+03  0.17707378935E+04  0.46999998093E+01 0. -1.
       -5    1    3    3    0  502  0.17224244984E+04  0.21607466003E+03 -0.15140078759E+04  0.23034053811E+04  0.46999998093E+01 0.  1.
</event>
<event>
 5   0  0.1164500E-08  0.3899149E+04  0.7818609E-02  0.8025206E-01
       -1   -1    0    0    0  501  0.00000000000E+00  0.00000000000E+00  0.30465128231E+04  0.30465128231E+04  0.50400001928E-02 0.  1.
        1   -1    0    0  501    0  0.00000000000E+00  0.00000000000E+00 -0.12476040014E+04  0.12476040014E+04  0.50400001928E-02 0. -1.
    10030    2    1    2    0    0  0.00000000000E+00  0.00000000000E+00  0.17989088217E+04  0.42941168245E+04  0.38991494398E+04 0.  0.
        4    1    3    3  502    0  0.95442122921E+03 -0.17249605035E+02  0.27715349712E+04  0.29313179870E+04  0.12699999809E+01 0.  1.
       -4    1    3    3    0  502 -0.95442122921E+03  0.17249605035E+02 -0.97262614954E+03  0.13627988374E+04  0.12699999809E+01 0. -1.
</event>
<event>
 5   0  0.1164500E-08  0.3925737E+04  0.7818609E-02  0.8019698E-01
       -1   -1    0    0    0  501  0.00000000000E+00  0.00000000000E+00  0.31125237316E+04  0.31125237316E+04  0.50400001928E-02 0.  1.
        1   -1    0    0  501    0  0.00000000000E+00  0.00000000000E+00 -0.12378548348E+04  0.12378548348E+04  0.50400001928E-02 0. -1.
    10030    2    1    2    0    0  0.00000000000E+00  0.00000000000E+00  0.18746688968E+04  0.43503785665E+04  0.39257368988E+04 0.  0.
        1    1    3    3  502    0  0.18370958555E+03 -0.63253558758E+03 -0.11117296414E+04  0.12922048123E+04  0.50400001928E-02 0. -1.
       -1    1    3    3    0  502 -0.18370958555E+03  0.63253558758E+03  0.29863985382E+04  0.30581737541E+04  0.50400001928E-02 0.  1.
</event>
<event>
 5   0  0.3690572E-08  0.3902803E+04  0.7818609E-02  0.8024446E-01
       -2   -1    0    0    0  501  0.00000000000E+00  0.00000000000E+00  0.15979168550E+04  0.15979168550E+04  0.25500000920E-02 0.  1.
        2   -1    0    0  501    0  0.00000000000E+00  0.00000000000E+00 -0.23830826187E+04  0.23830826187E+04  0.25500000920E-02 0. -1.
    10030    2    1    2    0    0  0.00000000000E+00  0.00000000000E+00 -0.78516576364E+03  0.39809994737E+04  0.39028030354E+04 0.  0.
        3    1    3    3  502    0 -0.22415000299E+03  0.97285371791E+03  0.13176984691E+04  0.16531838513E+04  0.10100000352E+00 0.  1.
       -3    1    3    3    0  502  0.22415000299E+03 -0.97285371791E+03 -0.21028642328E+04  0.23278156224E+04  0.10100000352E+00 0. -1.
</event>
<event>
 5   0  0.3769985E-08  0.3903247E+04  0.7818609E-02  0.8024354E-01
       -2   -1    0    0    0  501  0.00000000000E+00  0.00000000000E+00  0.14956368546E+04  0.14956368546E+04  0.25500000920E-02 0.  1.
        2   -1    0    0  501    0  0.00000000000E+00  0.00000000000E+00 -0.25466298979E+04  0.25466298979E+04  0.25500000920E-02 0. -1.
    10030    2    1    2    0    0  0.00000000000E+00  0.00000000000E+00 -0.10509930433E+04  0.40422667525E+04  0.39032466129E+04 0.  0.
        1    1    3    3  502    0  0.35952926714E+03  0.92193425888E+03  0.12165599422E+04  0.15681971064E+04  0.50400001928E-02 0.  1.
       -1    1    3    3    0  502 -0.35952926714E+03 -0.92193425888E+03 -0.22675529855E+04  0.24740696461E+04  0.50400001928E-02 0. -1.
</event>
<event>
 5   0  0.3669347E-08  0.3906567E+04  0.7818609E-02  0.8023665E-01
       -2   -1    0    0    0  501  0.00000000000E+00  0.00000000000E+00  0.11952076339E+04  0.11952076339E+04  0.25500000920E-02 0. -1.
        2   -1    0    0  501    0  0.00000000000E+00  0.00000000000E+00 -0.31921788659E+04  0.31921788659E+04  0.25500000920E-02 0.  1.
    10030    2    1    2    0    0  0.00000000000E+00  0.00000000000E+00 -0.19969712320E+04  0.43873864998E+04  0.39065670604E+04 0.  0.
        5    1    3    3  502    0 -0.64645786827E+03 -0.18323110313E+04 -0.77380517909E+03  0.20914272724E+04  0.46999998093E+01 0. -1.
       -5    1    3    3    0  502  0.64645786827E+03  0.18323110313E+04 -0.12231660529E+04  0.22959592273E+04  0.46999998093E+01 0.  1.
</event>
<event>
 5   0  0.1164500E-08  0.3904691E+04  0.7818609E-02  0.8024054E-01
        1   -1    0    0  501    0  0.00000000000E+00  0.00000000000E+00  0.20555706720E+04  0.20555706720E+04  0.50400001928E-02 0.  1.
       -1   -1    0    0    0  501  0.00000000000E+00  0.00000000000E+00 -0.18543038329E+04  0.18543038329E+04  0.50400001928E-02 0. -1.
    10030    2    1    2    0    0  0.00000000000E+00  0.00000000000E+00  0.20126683913E+03  0.39098745049E+04  0.39046908077E+04 0.  0.
        5    1    3    3  502    0 -0.19127465018E+04 -0.37246888820E+03 -0.19100542970E+02  0.19487737615E+04  0.46999998093E+01 0. -1.
       -5    1    3    3    0  502  0.19127465018E+04  0.37246888820E+03  0.22036738210E+03  0.19611007434E+04  0.46999998093E+01 0.  1.
</event>
<event>
 5   0  0.3872969E-08  0.3899192E+04  0.7818609E-02  0.8025197E-01
        2   -1    0    0  501    0  0.00000000000E+00  0.00000000000E+00  0.15009025037E+04  0.15009025037E+04  0.25500000920E-02 0.  1.
       -2   -1    0    0    0  501  0.00000000000E+00  0.00000000000E+00 -0.25324264291E+04  0.25324264291E+04  0.25500000920E-02 0. -1.
    10030    2    1    2    0    0  0.00000000000E+00  0.00000000000E+00 -0.10315239253E+04  0.40333289328E+04  0.38991923101E+04 0.  0.
        2    1    3    3  502    0  0.55215015168E+03  0.17169977418E+04  0.24995631759E+03  0.18208320066E+04  0.25500000920E-02 0.  1.
       -2    1    3    3    0  502 -0.55215015168E+03 -0.17169977418E+04 -0.12814802429E+04  0.22124969262E+04  0.25500000920E-02 0. -1.
</event>
<event>
 5   0  0.1164500E-08  0.3915649E+04  0.7818609E-02  0.8021782E-01
        1   -1    0    0  501    0  0.00000000000E+00  0.00000000000E+00  0.19126498975E+04  0.19126498975E+04  0.50400001928E-02 0.  1.
       -1   -1    0    0    0  501  0.00000000000E+00  0.00000000000E+00 -0.20040658931E+04  0.20040658931E+04  0.50400001928E-02 0. -1.
    10030    2    1    2    0    0  0.00000000000E+00  0.00000000000E+00 -0.91415995587E+02  0.39167157906E+04  0.39156488223E+04 0.  0.
        1    1    3    3  502    0  0.40007736072E+03  0.19382489470E+03  0.18614962239E+04  0.19138438223E+04  0.50400001928E-02 0.  1.
       -1    1    3    3    0  502 -0.40007736072E+03 -0.19382489470E+03 -0.19529122195E+04  0.20028719683E+04  0.50400001928E-02 0. -1.
</event>
<event>
 5   0  0.3690572E-08  0.3909017E+04  0.7818609E-02  0.8023157E-01
       -2   -1    0    0    0  501  0.00000000000E+00  0.00000000000E+00  0.14234239613E+04  0.14234239613E+04  0.25500000920E-02 0.  1.
        2   -1    0    0  501    0  0.00000000000E+00  0.00000000000E+00 -0.26837420690E+04  0.26837420690E+04  0.25500000920E-02 0. -1.
    10030    2    1    2    0    0  0.00000000000E+00  0.00000000000E+00 -0.12603181077E+04  0.41071660304E+04  0.39090166370E+04 0.  0.
        3    1    3    3  502    0  0.10305024461E+04  0.59575400705E+03 -0.22589814444E+04  0.25534007332E+04  0.10100000352E+00 0. -1.
       -3    1    3    3    0  502 -0.10305024461E+04 -0.59575400705E+03  0.99866333666E+03  0.15537652971E+04  0.10100000352E+00 0.  1.
</event>
<event>
 5   0  0.3872969E-08  0.3907779E+04  0.7818609E-02  0.8023413E-01
        2   -1    0    0  501    0  0.00000000000E+00  0.00000000000E+00  0.17218008231E+04  0.17218008231E+04  0.25500000920E-02 0. -1.
       -2   -1    0    0    0  501  0.00000000000E+00  0.00000000000E+00 -0.22172625285E+04  0.22172625285E+04  0.25500000920E-02 0.  1.
    10030    2    1    2    0    0  0.00000000000E+00  0.00000000000E+00 -0.49546170538E+03  0.39390633517E+04  0.39077791374E+04 0.  0.
        2    1    3    3  502    0 -0.11570091572E+04 -0.25123780769E+03  0.13190269893E+04  0.17724623619E+04  0.25500000920E-02 0. -1.
       -2    1    3    3    0  502  0.11570091572E+04  0.25123780769E+03 -0.18144886947E+04  0.21666009898E+04  0.25500000920E-02 0.  1.
</event>
<event>
 5   0  0.1164500E-08  0.3903881E+04  0.7818609E-02  0.8024223E-01
        1   -1    0    0  501    0  0.00000000000E+00  0.00000000000E+00  0.28378570126E+04  0.28378570126E+04  0.50400001928E-02 0.  1.
       -1   -1    0    0    0  501  0.00000000000E+00  0.00000000000E+00 -0.13425874997E+04  0.13425874997E+04  0.50400001928E-02 0. -1.
    10030    2    1    2    0    0  0.00000000000E+00  0.00000000000E+00  0.14952695129E+04  0.41804445123E+04  0.39038808133E+04 0.  0.
        3    1    3    3  502    0  0.18180570091E+04 -0.39563445547E+03  0.11573429570E+03  0.18642028720E+04  0.10100000352E+00 0. -1.
       -3    1    3    3    0  502 -0.18180570091E+04  0.39563445547E+03  0.13795352172E+04  0.23162416403E+04  0.10100000352E+00 0.  1.
</event>
<event>
 5   0  0.3669347E-08  0.3892323E+04  0.7818609E-02  0.8026628E-01
        2   -1    0    0  501    0  0.00000000000E+00  0.00000000000E+00  0.24563826947E+04  0.24563826947E+04  0.25500000920E-02 0.  1.
       -2   -1    0    0    0  501  0.00000000000E+00  0.00000000000E+00 -0.15419197722E+04  0.15419197722E+04  0.25500000920E-02 0. -1.
    10030    2    1    2    0    0  0.00000000000E+00  0.00000000000E+00  0.91446292248E+03  0.39983024669E+04  0.38923232368E+04 0.  0.
        5    1    3    3  502    0 -0.99501408752E+03  0.63071420516E+03 -0.11340333640E+04  0.16352086116E+04  0.46999998093E+01 0. -1.
       -5    1    3    3    0  502  0.99501408752E+03 -0.63071420516E+03  0.20484962865E+04  0.23630938552E+04  0.46999998093E+01 0.  1.
</event>
<event>
 5   0  0.3872969E-08  0.3904088E+04  0.7818609E-02  0.8024179E-01
       -2   -1    0    0    0  501  0.00000000000E+00  0.00000000000E+00  0.18550790086E+04  0.18550790086E+04  0.25500000920E-02 0.  1.
        2   -1    0    0  501    0  0.00000000000E+00  0.00000000000E+00 -0.20540775124E+04  0.20540775124E+04  0.25500000920E-02 0. -1.
    10030    2    1    2    0    0  0.00000000000E+00  0.00000000000E+00 -0.19899850383E+03  0.39091565210E+04  0.39040881523E+04 0.  0.
        2    1    3    3  502    0 -0.25408201282E+03 -0.30034058178E+02 -0.20372160500E+04  0.20532191672E+04  0.25500000920E-02 0. -1.
       -2    1    3    3    0  502  0.25408201282E+03  0.30034058178E+02  0.18382175462E+04  0.18559373538E+04  0.25500000920E-02 0.  1.
</event>
<event>
 5   0  0.3669347E-08  0.3906011E+04  0.7818609E-02  0.8023780E-01
       -2   -1    0    0    0  501  0.00000000000E+00  0.00000000000E+00  0.18789362766E+04  0.18789362766E+04  0.25500000920E-02 0. -1.
        2   -1    0    0  501    0  0.00000000000E+00  0.00000000000E+00 -0.20299950613E+04  0.20299950613E+04  0.25500000920E-02 0.  1.
    10030    2    1    2    0    0  0.00000000000E+00  0.00000000000E+00 -0.15105878472E+03  0.39089313379E+04  0.39060114500E+04 0.  0.
        5    1    3    3  502    0 -0.36386485371E+02  0.99473975862E+03  0.16060177657E+04  0.18894830821E+04  0.46999998093E+01 0. -1.
       -5    1    3    3    0  502  0.36386485371E+02 -0.99473975862E+03 -0.17570765504E+04  0.20194482558E+04  0.46999998093E+01 0.  1.
</event>
<event>
 5   0  0.1164500E-08  0.3864381E+04  0.7818609E-02  0.8032478E-01
        1   -1    0    0  501    0  0.00000000000E+00  0.00000000000E+00  0.22209862870E+04  0.22209862870E+04  0.50400001928E-02 0. -1.
       -1   -1    0    0    0  501  0.00000000000E+00  0.00000000000E+00 -0.16809469040E+04  0.16809469040E+04  0.50400001928E-02 0.  1.
    10030    2    1    2    0    0  0.00000000000E+00  0.00000000000E+00  0.54003938293E+03  0.39019331910E+04  0.38643809455E+04 0.  0.
        1    1    3    3  502    0  0.14016726089E+04  0.10314086768E+04  0.11177435957E+04  0.20682941538E+04  0.50400001928E-02 0. -1.
       -1    1    3    3    0  502 -0.14016726089E+04 -0.10314086768E+04 -0.57770421273E+03  0.18336390372E+04  0.50400001928E-02 0.  1.
</event>
<event>
 5   0  0.3724293E-08  0.3893690E+04  0.7818609E-02  0.8026343E-01
       -2   -1    0    0    0  501  0.00000000000E+00  0.00000000000E+00  0.18212185028E+04  0.18212185028E+04  0.25500000920E-02 0.  1.
        2   -1    0    0  501    0  0.00000000000E+00  0.00000000000E+00 -0.20811366589E+04  0.20811366589E+04  0.25500000920E-02 0. -1.
    10030    2    1    2    0    0  0.00000000000E+00  0.00000000000E+00 -0.25991815611E+03  0.39023551617E+04  0.38936895562E+04 0.  0.
        4    1    3    3  502    0 -0.57973690935E+03 -0.90198773641E+02 -0.19904234604E+04  0.20750946647E+04  0.12699999809E+01 0. -1.
       -4    1    3    3    0  502  0.57973690935E+03  0.90198773641E+02  0.17305053043E+04  0.18272604970E+04  0.12699999809E+01 0.  1.
</event>
<event>
 5   0  0.3690572E-08  0.3898407E+04  0.7818609E-02  0.8025361E-01
       -2   -1    0    0    0  501  0.00000000000E+00  0.00000000000E+00  0.22970578460E+04  0.22970578460E+04  0.25500000920E-02 0. -1.
        2   -1    0    0  501    0  0.00000000000E+00  0.00000000000E+00 -0.16540263265E+04  0.16540263265E+04  0.25500000920E-02 0.  1.
    10030    2    1    2    0    0  0.00000000000E+00  0.00000000000E+00  0.64303151952E+03  0.39510841725E+04  0.38984069314E+04 0.  0.
        3    1    3    3  502    0 -0.11494336290E+04 -0.88077718528E+03 -0.10008862207E+04  0.17603236505E+04  0.10100000352E+00 0.  1.
       -3    1    3    3    0  502  0.11494336290E+04  0.88077718528E+03  0.16439177402E+04  0.21907605219E+04  0.10100000352E+00 0. -1.
</event>
<event>
 5   0  0.3669347E-08  0.3898844E+04  0.7818609E-02  0.8025270E-01
       -2   -1    0    0    0  501  0.00000000000E+00  0.00000000000E+00  0.27518000263E+04  0.27518000263E+04  0.25500000920E-02 0. -1.
        2   -1    0    0  501    0  0.00000000000E+00  0.00000000000E+00 -0.13810039379E+04  0.13810039379E+04  0.25500000920E-02 0.  1.
    10030    2    1    2    0    0  0.00000000000E+00  0.00000000000E+00  0.13707960884E+04  0.41328039642E+04  0.38988442762E+04 0.  0.
        5    1    3    3  502    0  0.38273146032E+03 -0.61063055161E+03  0.26054082148E+04  0.27032438101E+04  0.46999998093E+01 0. -1.
       -5    1    3    3    0  502 -0.38273146032E+03  0.61063055161E+03 -0.12346121264E+04  0.14295601540E+04  0.46999998093E+01 0.  1.
</event>
<event>
 5   0  0.3690572E-08  0.3902256E+04  0.7818609E-02  0.8024560E-01
       -2   -1    0    0    0  501  0.00000000000E+00  0.00000000000E+00  0.18436379162E+04  0.18436379162E+04  0.25500000920E-02 0. -1.
        2   -1    0    0  501    0  0.00000000000E+00  0.00000000000E+00 -0.20648855387E+04  0.20648855387E+04  0.25500000920E-02 0.  1.
    10030    2    1    2    0    0  0.00000000000E+00  0.00000000000E+00 -0.22124762253E+03  0.39085234549E+04  0.39022564097E+04 0.  0.
        3    1    3    3  502    0 -0.13123783959E+04 -0.13001429390E+04 -0.73947968758E+03  0.19898590238E+04  0.10100000352E+00 0.  1.
       -3    1    3    3    0  502  0.13123783959E+04  0.13001429390E+04  0.51823206504E+03  0.19186644311E+04  0.10100000352E+00 0. -1.
</event>
<event>
 5   0  0.1164500E-08  0.3777588E+04  0.7818609E-02  0.8050982E-01
        1   -1    0    0  501    0  0.00000000000E+00  0.00000000000E+00  0.18198410716E+04  0.18198410716E+04  0.50400001928E-02 0.  1.
       -1   -1    0    0    0  501  0.00000000000E+00  0.00000000000E+00 -0.19603592197E+04  0.19603592197E+04  0.50400001928E-02 0. -1.
    10030    2    1    2    0    0  0.00000000000E+00  0.00000000000E+00 -0.14051814809E+03  0.37802002913E+04  0.37775877081E+04 0.  0.
        3    1    3    3  502    0 -0.18259257794E+04 -0.42767909346E+02  0.41143458056E+03  0.18721945599E+04  0.10100000352E+00 0.  1.
       -3    1    3    3    0  502  0.18259257794E+04  0.42767909346E+02 -0.55195272865E+03  0.19080057313E+04  0.10100000352E+00 0. -1.
</event>
<event>
 5   0  0.1164500E-08  0.3900534E+04  0.7818609E-02  0.8024918E-01
       -1   -1    0    0    0  501  0.00000000000E+00  0.00000000000E+00  0.27871283156E+04  0.27871283156E+04  0.50400001928E-02 0.  1.
        1   -1    0    0  501    0  0.00000000000E+00  0.00000000000E+00 -0.13646810939E+04  0.13646810939E+04  0.50400001928E-02 0. -1.
    10030    2    1    2    0    0  0.00000000000E+00  0.00000000000E+00  0.14224472217E+04  0.41518094094E+04  0.39005339729E+04 0.  0.
        5    1    3    3  502    0  0.35329113232E+03  0.43203304971E+03  0.27003102400E+04  0.27573836625E+04  0.46999998093E+01 0.  1.
       -5    1    3    3    0  502 -0.35329113232E+03 -0.43203304971E+03 -0.12778630183E+04  0.13944257469E+04  0.46999998093E+01 0. -1.
</event>
<event>
 5   0  0.3724293E-08  0.3867263E+04  0.7818609E-02  0.8031872E-01
       -2   -1    0    0    0  501  0.00000000000E+00  0.00000000000E+00  0.20333265284E+04  0.20333265284E+04  0.25500000920E-02 0.  1.
        2   -1    0    0  501    0  0.00000000000E+00  0.00000000000E+00 -0.18388247000E+04  0.18388247000E+04  0.25500000920E-02 0. -1.
    10030    2    1    2    0    0  0.00000000000E+00  0.00000000000E+00  0.19450182836E+03  0.38721512284E+04  0.38672631374E+04 0.  0.
        4    1    3    3  502    0 -0.28618189344E+03 -0.96972276660E+03 -0.15530639051E+04  0.18531787357E+04  0.12699999809E+01 0. -1.
       -4    1    3    3    0  502  0.28618189344E+03  0.96972276660E+03  0.17475657335E+04  0.20189724926E+04  0.12699999809E+01 0.  1.
</event>
<event>
 5   0  0.1164500E-08  0.3902109E+04  0.7818609E-02  0.8024591E-01
        1   -1    0    0  501    0  0.00000000000E+00  0.00000000000E+00  0.23421097950E+04  0.23421097950E+04  0.50400001928E-02 0. -1.
       -1   -1    0    0    0  501  0.00000000000E+00  0.00000000000E+00 -0.16252922293E+04  0.16252922293E+04  0.50400001928E-02 0.  1.
    10030    2    1    2    0    0  0.00000000000E+00  0.00000000000E+00  0.71681756571E+03  0.39674020244E+04  0.39021085839E+04 0.  0.
        5    1    3    3  502    0 -0.28222286180E+03 -0.51571492648E+03  0.22499088043E+04  0.23254512136E+04  0.46999998093E+01 0. -1.
       -5    1    3    3    0  502  0.28222286180E+03  0.51571492648E+03 -0.15330912386E+04  0.16419508108E+04  0.46999998093E+01 0.  1.
</event>
<event>
 5   0  0.1164500E-08  0.3925316E+04  0.7818609E-02  0.8019785E-01
       -1   -1    0    0    0  501  0.00000000000E+00  0.00000000000E+00  0.18694058318E+04  0.18694058318E+04  0.50400001928E-02 0.  1.
        1   -1    0    0  501    0  0.00000000000E+00  0.00000000000E+00 -0.20605617353E+04  0.20605617353E+04  0.50400001928E-02 0. -1.
    10030    2    1    2    0    0  0.00000000000E+00  0.00000000000E+00 -0.19115590351E+03  0.39299675671E+04  0.39253158471E+04 0.  0.
        5    1    3    3  502    0  0.71492425906E+03  0.41375691617E+02 -0.19250845250E+04  0.20539720452E+04  0.46999998093E+01 0. -1.
       -5    1    3    3    0  502 -0.71492425906E+03 -0.41375691617E+02  0.17339286215E+04  0.18759955220E+04  0.46999998093E+01 0.  1.
</event>
<event>
 5   0  0.1164500E-08  0.3840518E+04  0.7818609E-02  0.8037515E-01
        1   -1    0    0  501    0  0.00000000000E+00  0.00000000000E+00  0.24567965074E+04  0.24567965074E+04  0.50400001928E-02 0. -1.
       -1   -1    0    0    0  501  0.00000000000E+00  0.00000000000E+00 -0.15008957968E+04  0.15008957968E+04  0.50400001928E-02 0.  1.
    10030    2    1    2    0    0  0.00000000000E+00  0.00000000000E+00  0.95590071066E+03  0.39576923042E+04  0.38405184814E+04 0.  0.
        3    1    3    3  502    0  0.25026409706E+03  0.63087981785E+03 -0.13731718943E+04  0.15317449280E+04  0.10100000352E+00 0.  1.
       -3    1    3    3    0  502 -0.25026409706E+03 -0.63087981785E+03  0.23290726050E+04  0.24259473762E+04  0.10100000352E+00 0. -1.
</event>
<event>
 5   0  0.3769985E-08  0.3905226E+04  0.7818609E-02  0.8023943E-01
        2   -1    0    0  501    0  0.00000000000E+00  0.00000000000E+00  0.19025591389E+04  0.19025591389E+04  0.25500000920E-02 0.  1.
       -2   -1    0    0    0  501  0.00000000000E+00  0.00000000000E+00 -0.20039842139E+04  0.20039842139E+04  0.25500000920E-02 0. -1.
    10030    2    1    2    0    0  0.00000000000E+00  0.00000000000E+00 -0.10142507509E+03  0.39065433528E+04  0.39052264879E+04 0.  0.
        1    1    3    3  502    0  0.17499650470E+04  0.74704364723E+03 -0.48931974106E+03  0.19646591780E+04  0.50400001928E-02 0.  1.
       -1    1    3    3    0  502 -0.17499650470E+04 -0.74704364723E+03  0.38789466597E+03  0.19418841748E+04  0.50400001928E-02 0. -1.
</event>
<event>
 5   0  0.1164500E-08  0.3898688E+04  0.7818609E-02  0.8025302E-01
        1   -1    0    0  501    0  0.00000000000E+00  0.00000000000E+00  0.13995611287E+04  0.13995611287E+04  0.50400001928E-02 0. -1.
       -1   -1    0    0    0  501  0.00000000000E+00  0.00000000000E+00 -0.27150954267E+04  0.27150954267E+04  0.50400001928E-02 0.  1.
    10030    2    1    2    0    0  0.00000000000E+00  0.00000000000E+00 -0.13155342980E+04  0.41146565554E+04  0.38986879947E+04 0.  0.
        2    1    3    3  502    0  0.14391815056E+04 -0.61528696127E+03 -0.18840803046E+04  0.24494040183E+04  0.25500000920E-02 0.  1.
       -2    1    3    3    0  502 -0.14391815056E+04  0.61528696127E+03  0.56854600659E+03  0.16652525371E+04  0.25500000920E-02 0. -1.
</event>
<event>
 5   0  0.1164500E-08  0.3901041E+04  0.7818609E-02  0.8024813E-01
       -1   -1    0    0    0  501  0.00000000000E+00  0.00000000000E+00  0.19505582796E+04  0.19505582796E+04  0.50400001928E-02 0. -1.
        1   -1    0    0  501    0  0.00000000000E+00  0.00000000000E+00 -0.19504823577E+04  0.19504823577E+04  0.50400001928E-02 0.  1.
    10030    2    1    2    0    0  0.00000000000E+00  0.00000000000E+00  0.75921851637E-01  0.39010406373E+04  0.39010406366E+04 0.  0.
        5    1    3    3  502    0 -0.14002047348E+04  0.12023397589E+04  0.63115857300E+03  0.19505326015E+04  0.46999998093E+01 0. -1.
       -5    1    3    3    0  502  0.14002047348E+04 -0.12023397589E+04 -0.63108265115E+03  0.19505080358E+04  0.46999998093E+01 0.  1.
</event>
<event>
 5   0  0.1164500E-08  0.3901650E+04  0.7818609E-02  0.8024686E-01
       -1   -1    0    0    0  501  0.00000000000E+00  0.00000000000E+00  0.17141824276E+04  0.17141824276E+04  0.50400001928E-02 0.  1.
        1   -1    0    0  501    0  0.00000000000E+00  0.00000000000E+00 -0.22201355513E+04  0.22201355513E+04  0.50400001928E-02 0. -1.
    10030    2    1    2    0    0  0.00000000000E+00  0.00000000000E+00 -0.50595312367E+03  0.39343179790E+04  0.39016495737E+04 0.  0.
        2    1    3    3  502    0 -0.12629400023E+03 -0.33098325982E+03  0.16814752936E+04  0.17183885637E+04  0.25500000920E-02 0.  1.
       -2    1    3    3    0  502  0.12629400023E+03  0.33098325982E+03 -0.21874284173E+04  0.22159294153E+04  0.25500000920E-02 0. -1.
</event>
<event>
 5   0  0.1164500E-08  0.3871062E+04  0.7818609E-02  0.8031075E-01
        1   -1    0    0  501    0  0.00000000000E+00  0.00000000000E+00  0.20725798106E+04  0.20725798106E+04  0.50400001928E-02 0. -1.
       -1   -1    0    0    0  501  0.00000000000E+00  0.00000000000E+00 -0.18075445841E+04  0.18075445841E+04  0.50400001928E-02 0.  1.
    10030    2    1    2    0    0  0.00000000000E+00  0.00000000000E+00  0.26503522653E+03  0.38801243947E+04  0.38710620826E+04 0.  0.
        3    1    3    3  502    0 -0.37622042488E+03 -0.16801729807E+03  0.20281108935E+04  0.20695423231E+04  0.10100000352E+00 0. -1.
       -3    1    3    3    0  502  0.37622042488E+03  0.16801729807E+03 -0.17630756670E+04  0.18105820717E+04  0.10100000352E+00 0.  1.
</event>
<event>
 5   0  0.3669347E-08  0.3896963E+04  0.7818609E-02  0.8025661E-01
       -2   -1    0    0    0  501  0.00000000000E+00  0.00000000000E+00  0.15951908846E+04  0.15951908846E+04  0.25500000920E-02 0. -1.
        2   -1    0    0  501    0  0.00000000000E+00  0.00000000000E+00 -0.23800159225E+04  0.23800159225E+04  0.25500000920E-02 0.  1.
    10030    2    1    2    0    0  0.00000000000E+00  0.00000000000E+00 -0.78482503785E+03  0.39752068071E+04  0.38969627685E+04 0.  0.
        5    1    3    3  502    0 -0.97185910704E+03 -0.15369697317E+04 -0.11063007808E+04  0.21285463555E+04  0.46999998093E+01 0.  1.
       -5    1    3    3    0  502  0.97185910704E+03  0.15369697317E+04  0.32147574292E+03  0.18466604516E+04  0.46999998093E+01 0. -1.
</event>
<event>
 5   0  0.3769985E-08  0.3901981E+04  0.7818609E-02  0.8024617E-01
        2   -1    0    0  501    0  0.00000000000E+00  0.00000000000E+00  0.16632248593E+04  0.16632248593E+04  0.25500000920E-02 0. -1.
       -2   -1    0    0    0  501  0.00000000000E+00  0.00000000000E+00 -0.22885441081E+04  0.22885441081E+04  0.25500000920E-02 0.  1.
    10030    2    1    2    0    0  0.00000000000E+00  0.00000000000E+00 -0.62531924877E+03  0.39517689673E+04  0.39019807545E+04 0.  0.
        1    1    3    3  502    0  0.69204436379E+03 -0.12725533858E+04 -0.16362579100E+04  0.21853277716E+04  0.50400001928E-02 0.  1.
       -1    1    3    3    0  502 -0.69204436379E+03  0.12725533858E+04  0.10109386613E+04  0.17664411957E+04  0.50400001928E-02 0. -1.
</event>
<event>
 5   0  0.1164500E-08  0.3897834E+04  0.7818609E-02  0.8025480E-01
        1   -1    0    0  501    0  0.00000000000E+00  0.00000000000E+00  0.24341372835E+04  0.24341372836E+04  0.50400001928E-02 0. -1.
       -1   -1    0    0    0  501  0.00000000000E+00  0.00000000000E+00 -0.15604207135E+04  0.15604207135E+04  0.50400001928E-02 0.  1.
    10030    2    1    2    0    0  0.00000000000E+00  0.00000000000E+00  0.87371657004E+03  0.39945579971E+04  0.38978343920E+04 0.  0.
        1    1    3    3  502    0  0.64034876528E+03  0.13345250892E+04  0.17361012463E+04  0.22814581504E+04  0.50400001928E-02 0. -1.
       -1    1    3    3    0  502 -0.64034876528E+03 -0.13345250892E+04 -0.86238467623E+03  0.17130998467E+04  0.50400001928E-02 0.  1.
</event>
<event>
 5   0  0.3872969E-08  0.3896292E+04  0.7818609E-02  0.8025801E-01
       -2   -1    0    0    0  501  0.00000000000E+00  0.00000000000E+00  0.17318334457E+04  0.17318334457E+04  0.25500000920E-02 0.  1.
        2   -1    0    0  501    0  0.00000000000E+00  0.00000000000E+00 -0.21914771555E+04  0.21914771555E+04  0.25500000920E-02 0. -1.
    10030    2    1    2    0    0  0.00000000000E+00  0.00000000000E+00 -0.45964370979E+03  0.39233106013E+04  0.38962923061E+04 0.  0.
        2    1    3    3  502    0 -0.47063413486E+02 -0.10916935371E+04 -0.18538492476E+04  0.21519216475E+04  0.25500000920E-02 0. -1.
       -2    1    3    3    0  502  0.47063413486E+02  0.10916935371E+04  0.13942055379E+04  0.17713889538E+04  0.25500000920E-02 0.  1.
</event>
<event>
 5   0  0.3669347E-08  0.3892343E+04  0.7818609E-02  0.8026624E-01
        2   -1    0    0  501    0  0.00000000000E+00  0.00000000000E+00  0.13147756070E+04  0.13147756070E+04  0.25500000920E-02 0. -1.
       -2   -1    0    0    0  501  0.00000000000E+00  0.00000000000E+00 -0.28807829801E+04  0.28807829801E+04  0.25500000920E-02 0.  1.
    10030    2    1    2    0    0  0.00000000000E+00  0.00000000000E+00 -0.15660073731E+04  0.41955585871E+04  0.38923428375E+04 0.  0.
        5    1    3    3  502    0  0.11171743876E+04 -0.14637909789E+04 -0.14619941780E+04  0.23512149431E+04  0.46999998093E+01 0.  1.
       -5    1    3    3    0  502 -0.11171743876E+04  0.14637909789E+04 -0.10401319510E+03  0.18443436440E+04  0.46999998093E+01 0. -1.
</event>
<event>
 5   0  0.1164500E-08  0.3895015E+04  0.7818609E-02  0.8026067E-01
       -1   -1    0    0    0  501  0.00000000000E+00  0.00000000000E+00  0.14887223533E+04  0.14887223533E+04  0.50400001928E-02 0.  1.
        1   -1    0    0  501    0  0.00000000000E+00  0.00000000000E+00 -0.25476787782E+04  0.25476787782E+04  0.50400001928E-02 0. -1.
    10030    2    1    2    0    0  0.00000000000E+00  0.00000000000E+00 -0.10589564248E+04  0.40364011315E+04  0.38950154537E+04 0.  0.
        2    1    3    3  502    0  0.14399196979E+04 -0.11085852578E+04  0.19626888720E+03  0.18277996296E+04  0.25500000920E-02 0.  1.
       -2    1    3    3    0  502 -0.14399196979E+04  0.11085852578E+04 -0.12552253120E+04  0.22086015019E+04  0.25500000920E-02 0. -1.
</event>
<event>
 5   0  0.3872969E-08  0.3903073E+04  0.7818609E-02  0.8024390E-01
       -2   -1    0    0    0  501  0.00000000000E+00  0.00000000000E+00  0.13374125458E+04  0.13374125458E+04  0.25500000920E-02 0.  1.
        2   -1    0    0  501    0  0.00000000000E+00  0.00000000000E+00 -0.28476587973E+04  0.28476587973E+04  0.25500000920E-02 0. -1.
    10030    2    1    2    0    0  0.00000000000E+00  0.00000000000E+00 -0.15102462515E+04  0.41850713431E+04  0.39030729440E+04 0.  0.
        2    1    3    3  502    0  0.44398758415E+03 -0.33507091811E+03 -0.27608610934E+04  0.28163365339E+04  0.25500000920E-02 0. -1.
       -2    1    3    3    0  502 -0.44398758415E+03  0.33507091811E+03  0.12506148419E+04  0.13687348092E+04  0.25500000920E-02 0.  1.
</event>
<event>
 5   0  0.3690572E-08  0.3896361E+04  0.7818609E-02  0.8025786E-01
        2   -1    0    0  501    0  0.00000000000E+00  0.00000000000E+00  0.25569444081E+04  0.25569444081E+04  0.25500000920E-02 0.  1.
       -2   -1    0    0    0  501  0.00000000000E+00  0.00000000000E+00 -0.14843528485E+04  0.14843528485E+04  0.25500000920E-02 0. -1.
    10030    2    1    2    0    0  0.00000000000E+00  0.00000000000E+00  0.10725915596E+04  0.40412972566E+04  0.38963612336E+04 0.  0.
        3    1    3    3  502    0  0.25585601920E+03  0.15418948226E+04 -0.66993704827E+03  0.17005051031E+04  0.10100000352E+00 0. -1.
       -3    1    3    3    0  502 -0.25585601920E+03 -0.15418948226E+04  0.17425286078E+04  0.23407921535E+04  0.10100000352E+00 0.  1.
</event>
<event>
 5   0  0.1164500E-08  0.3795305E+04  0.7818609E-02  0.8047163E-01
       -1   -1    0    0    0  501  0.00000000000E+00  0.00000000000E+00  0.20529286958E+04  0.20529286958E+04  0.50400001928E-02 0.  1.
        1   -1    0    0  501    0  0.00000000000E+00  0.00000000000E+00 -0.17541207983E+04  0.17541207983E+04  0.50400001928E-02 0. -1.
    10030    2    1    2    0    0  0.00000000000E+00  0.00000000000E+00  0.29880789748E+03  0.38070494942E+04  0.37953049537E+04 0.  0.
        5    1    3    3  502    0 -0.55461608177E+03  0.17974697882E+04 -0.10150243936E+03  0.18838315935E+04  0.46999998093E+01 0. -1.
       -5    1    3    3    0  502  0.55461608177E+03 -0.17974697882E+04  0.40031033684E+03  0.19232179006E+04  0.46999998093E+01 0.  1.
</event>
<event>
 5   0  0.3769985E-08  0.3891467E+04  0.7818609E-02  0.8026806E-01
       -2   -1    0    0    0  501  0.00000000000E+00  0.00000000000E+00  0.13241903174E+04  0.13241903174E+04  0.25500000920E-02 0. -1.
        2   -1    0    0  501    0  0.00000000000E+00  0.00000000000E+00 -0.28590134712E+04  0.28590134712E+04  0.25500000920E-02 0.  1.
    10030    2    1    2    0    0  0.00000000000E+00  0.00000000000E+00 -0.15348231538E+04  0.41832037886E+04  0.38914665390E+04 0.  0.
        1    1    3    3  502    0 -0.17157781740E+04  0.85961704631E+03 -0.11124777034E+04  0.22182071250E+04  0.50400001928E-02 0. -1.
       -1    1    3    3    0  502  0.17157781740E+04 -0.85961704631E+03 -0.42234545040E+03  0.19649966637E+04  0.50400001928E-02 0.  1.
</event>
<event>
 5   0  0.1164500E-08  0.3897595E+04  0.7818609E-02  0.8025530E-01
        1   -1    0    0  501    0  0.00000000000E+00  0.00000000000E+00  0.25825906698E+04  0.25825906698E+04  0.50400001928E-02 0.  1.
       -1   -1    0    0    0  501  0.00000000000E+00  0.00000000000E+00 -0.14705435624E+04  0.14705435624E+04  0.50400001928E-02 0. -1.
    10030    2    1    2    0    0  0.00000000000E+00  0.00000000000E+00  0.11120471074E+04  0.40531342322E+04  0.38975951990E+04 0.  0.
        4    1    3    3  502    0  0.99617605270E+03 -0.34318734574E+03 -0.11488097445E+04  0.15588167705E+04  0.12699999809E+01 0. -1.
       -4    1    3    3    0  502 -0.99617605270E+03  0.34318734574E+03  0.22608568518E+04  0.24943174617E+04  0.12699999809E+01 0.  1.
</event>
<event>
 5   0  0.1164500E-08  0.3904609E+04  0.7818609E-02  0.8024071E-01
        1   -1    0    0  501    0  0.00000000000E+00  0.00000000000E+00  0.18986505318E+04  0.18986505318E+04  0.50400001928E-02 0. -1.
       -1   -1    0    0    0  501  0.00000000000E+00  0.00000000000E+00 -0.20074742021E+04  0.20074742021E+04  0.50400001928E-02 0.  1.
    10030    2    1    2    0    0  0.00000000000E+00  0.00000000000E+00 -0.10882367026E+03  0.39061247339E+04  0.39046085394E+04 0.  0.
        2    1    3    3  502    0 -0.88713338357E+03  0.16957243001E+04 -0.44057392798E+03  0.19638207475E+04  0.25500000920E-02 0.  1.
       -2    1    3    3    0  502  0.88713338357E+03 -0.16957243001E+04  0.33175025772E+03  0.19423039864E+04  0.25500000920E-02 0. -1.
</event>
<event>
 5   0  0.3724293E-08  0.3906133E+04  0.7818609E-02  0.8023755E-01
        2   -1    0    0  501    0  0.00000000000E+00  0.00000000000E+00  0.16706377298E+04  0.16706377298E+04  0.25500000920E-02 0. -1.
       -2   -1    0    0    0  501  0.00000000000E+00  0.00000000000E+00 -0.22832415175E+04  0.22832415175E+04  0.25500000920E-02 0.  1.
    10030    2    1    2    0    0  0.00000000000E+00  0.00000000000E+00 -0.61260378777E+03  0.39538792473E+04  0.39061333440E+04 0.  0.
        4    1    3    3  502    0  0.28406916111E+03 -0.40365213800E+03  0.16064620602E+04  0.16805809414E+04  0.12699999809E+01 0. -1.
       -4    1    3    3    0  502 -0.28406916111E+03  0.40365213800E+03 -0.22190658480E+04  0.22732983059E+04  0.12699999809E+01 0.  1.
</event>
<event>
 5   0  0.3872969E-08  0.3903201E+04  0.7818609E-02  0.8024364E-01
        2   -1    0    0  501    0  0.00000000000E+00  0.00000000000E+00  0.23471851062E+04  0.23471851062E+04  0.25500000920E-02 0.  1.
       -2   -1    0    0    0  501  0.00000000000E+00  0.00000000000E+00 -0.16226863477E+04  0.16226863477E+04  0.25500000920E-02 0. -1.
    10030    2    1    2    0    0  0.00000000000E+00  0.00000000000E+00  0.72449875850E+03  0.39698714539E+04  0.39032013667E+04 0.  0.
        2    1    3    3  502    0  0.24154977330E+02 -0.57504970343E+02  0.23461711321E+04  0.23470000566E+04  0.25500000920E-02 0.  1.
       -2    1    3    3    0  502 -0.24154977330E+02  0.57504970343E+02 -0.16216723736E+04  0.16228713972E+04  0.25500000920E-02 0. -1.
</event>
<event>
 5   0  0.3669347E-08  0.3898478E+04  0.7818609E-02  0.8025346E-01
        2   -1    0    0  501    0  0.00000000000E+00  0.00000000000E+00  0.25477577597E+04  0.25477577597E+04  0.25500000920E-02 0. -1.
       -2   -1    0    0    0  501  0.00000000000E+00  0.00000000000E+00 -0.14913240496E+04  0.14913240496E+04  0.25500000920E-02 0.  1.
    10030    2    1    2    0    0  0.00000000000E+00  0.00000000000E+00  0.10564337102E+04  0.40390818093E+04  0.38984778668E+04 0.  0.
        5    1    3    3  502    0  0.74834149417E+03  0.16057839597E+04 -0.31409504343E+03  0.17992317537E+04  0.46999998093E+01 0.  1.
       -5    1    3    3    0  502 -0.74834149417E+03 -0.16057839597E+04  0.13705287536E+04  0.22398500556E+04  0.46999998093E+01 0. -1.
</event>
<event>
 5   0  0.1164500E-08  0.3893927E+04  0.7818609E-02  0.8026293E-01
       -1   -1    0    0    0  501  0.00000000000E+00  0.00000000000E+00  0.23279406557E+04  0.23279406557E+04  0.50400001928E-02 0.  1.
        1   -1    0    0  501    0  0.00000000000E+00  0.00000000000E+00 -0.16283349388E+04  0.16283349389E+04  0.50400001928E-02 0. -1.
    10030    2    1    2    0    0  0.00000000000E+00  0.00000000000E+00  0.69960571682E+03  0.39562755945E+04  0.38939271206E+04 0.  0.
        2    1    3    3  502    0 -0.17895203252E+04  0.49770697375E+03 -0.24312671347E+03  0.18732874378E+04  0.25500000920E-02 0. -1.
       -2    1    3    3    0  502  0.17895203252E+04 -0.49770697375E+03  0.94273243028E+03  0.20829881567E+04  0.25500000920E-02 0.  1.
</event>
<event>
 5   0  0.3724293E-08  0.3904938E+04  0.7818609E-02  0.8024003E-01
        2   -1    0    0  501    0  0.00000000000E+00  0.00000000000E+00  0.20314314590E+04  0.20314314590E+04  0.25500000920E-02 0. -1.
       -2   -1    0    0    0  501  0.00000000000E+00  0.00000000000E+00 -0.18765759727E+04  0.18765759727E+04  0.25500000920E-02 0.  1.
    10030    2    1    2    0    0  0.00000000000E+00  0.00000000000E+00  0.15485548628E+03  0.39080074317E+04  0.39049381383E+04 0.  0.
        4    1    3    3  502    0  0.65397777460E+03  0.15196919948E+04  0.11150566309E+04  0.19951199442E+04  0.12699999809E+01 0. -1.
       -4    1    3    3    0  502 -0.65397777460E+03 -0.15196919948E+04 -0.96020114464E+03  0.19128874875E+04  0.12699999809E+01 0.  1.
</event>
<event>
 5   0  0.3690572E-08  0.3899747E+04  0.7818609E-02  0.8025082E-01
        2   -1    0    0  501    0  0.00000000000E+00  0.00000000000E+00  0.31875230705E+04  0.31875230705E+04  0.25500000920E-02 0. -1.
       -2   -1    0    0    0  501  0.00000000000E+00  0.00000000000E+00 -0.11927776740E+04  0.11927776740E+04  0.25500000920E-02 0.  1.
    10030    2    1    2    0    0  0.00000000000E+00  0.00000000000E+00  0.19947453965E+04  0.43803007445E+04  0.38997468399E+04 0.  0.
        3    1    3    3  502    0 -0.17533725410E+04  0.26621652093E+03  0.87059905512E+02  0.17756029796E+04  0.10100000352E+00 0.  1.
       -3    1    3    3    0  502  0.17533725410E+04 -0.26621652093E+03  0.19076854910E+04  0.26046977649E+04  0.10100000352E+00 0. -1.
</event>
<event>
 5   0  0.1164500E-08  0.3918184E+04  0.7818609E-02  0.8021258E-01
       -1   -1    0    0    0  501  0.00000000000E+00  0.00000000000E+00  0.19193453504E+04  0.19193453504E+04  0.50400001928E-02 0. -1.
        1   -1    0    0  501    0  0.00000000000E+00  0.00000000000E+00 -0.19996612597E+04  0.19996612597E+04  0.50400001928E-02 0.  1.
    10030    2    1    2    0    0  0.00000000000E+00  0.00000000000E+00 -0.80315909265E+02  0.39190066101E+04  0.39181835288E+04 0.  0.
        5    1    3    3  502    0  0.15931467797E+04 -0.61643965444E+03 -0.99947566305E+03  0.19791635102E+04  0.46999998093E+01 0.  1.
       -5    1    3    3    0  502 -0.15931467797E+04  0.61643965444E+03  0.91915975378E+03  0.19398430999E+04  0.46999998093E+01 0. -1.
</event>
<event>
 5   0  0.3690572E-08  0.3899344E+04  0.7818609E-02  0.8025166E-01
       -2   -1    0    0    0  501  0.00000000000E+00  0.00000000000E+00  0.19658636587E+04  0.19658636587E+04  0.25500000920E-02 0. -1.
        2   -1    0    0  501    0  0.00000000000E+00  0.00000000000E+00 -0.19336138887E+04  0.19336138887E+04  0.25500000920E-02 0.  1.
    10030    2    1    2    0    0  0.00000000000E+00  0.00000000000E+00  0.32249770058E+02  0.38994775474E+04  0.38993441878E+04 0.  0.
        3    1    3    3  502    0  0.17667808170E+04  0.51950547028E+03 -0.62406954423E+03  0.19444441867E+04  0.10100000352E+00 0.  1.
       -3    1    3    3    0  502 -0.17667808170E+04 -0.51950547028E+03  0.65631931429E+03  0.19550333607E+04  0.10100000352E+00 0. -1.
</event>
<event>
 5   0  0.1164500E-08  0.3901748E+04  0.7818609E-02  0.8024666E-01
        1   -1    0    0  501    0  0.00000000000E+00  0.00000000000E+00  0.22600547463E+04  0.22600547463E+04  0.50400001928E-02 0.  1.
       -1   -1    0    0    0  501  0.00000000000E+00  0.00000000000E+00 -0.16839898812E+04  0.16839898812E+04  0.50400001928E-02 0. -1.
    10030    2    1    2    0    0  0.00000000000E+00  0.00000000000E+00  0.57606486510E+03  0.39440446275E+04  0.39017479794E+04 0.  0.
        2    1    3    3  502    0  0.10041181608E+04  0.98698018176E+03 -0.10769862822E+04  0.17726484739E+04  0.25500000920E-02 0. -1.
       -2    1    3    3    0  502 -0.10041181608E+04 -0.98698018176E+03  0.16530511473E+04  0.21713961535E+04  0.25500000920E-02 0.  1.
</event>
<event>
 5   0  0.1164500E-08  0.3894414E+04  0.7818609E-02  0.8026192E-01
       -1   -1    0    0    0  501  0.00000000000E+00  0.00000000000E+00  0.29679335050E+04  0.29679335050E+04  0.50400001928E-02 0.  1.
        1   -1    0    0  501    0  0.00000000000E+00  0.00000000000E+00 -0.12775270784E+04  0.12775270784E+04  0.50400001928E-02 0. -1.
    10030    2    1    2    0    0  0.00000000000E+00  0.00000000000E+00  0.16904064266E+04  0.42454605834E+04  0.38944141637E+04 0.  0.
        1    1    3    3  502    0 -0.18724895337E+04 -0.37472150823E+03  0.43011542634E+03  0.19574556298E+04  0.50400001928E-02 0. -1.
       -1    1    3    3    0  502  0.18724895337E+04  0.37472150823E+03  0.12602910002E+04  0.22880049536E+04  0.50400001928E-02 0.  1.
</event>
<event>
 5   0  0.3724293E-08  0.3890292E+04  0.7818609E-02  0.8027051E-01
        2   -1    0    0  501    0  0.00000000000E+00  0.00000000000E+00  0.16638460477E+04  0.16638460477E+04  0.25500000920E-02 0.  1.
       -2   -1    0    0    0  501  0.00000000000E+00  0.00000000000E+00 -0.22740039267E+04  0.22740039267E+04  0.25500000920E-02 0. -1.
    10030    2    1    2    0    0  0.00000000000E+00  0.00000000000E+00 -0.61015787908E+03  0.39378499744E+04  0.38902917350E+04 0.  0.
        4    1    3    3  502    0  0.16093466775E+04 -0.10594628099E+04 -0.35111419250E+02  0.19270943409E+04  0.12699999809E+01 0. -1.
       -4    1    3    3    0  502 -0.16093466775E+04  0.10594628099E+04 -0.57504645983E+03  0.20107556335E+04  0.12699999809E+01 0.  1.
</event>
<event>
 5   0  0.3724293E-08  0.3902877E+04  0.7818609E-02  0.8024431E-01
        2   -1    0    0  501    0  0.00000000000E+00  0.00000000000E+00  0.19454217341E+04  0.19454217341E+04  0.25500000920E-02 0.  1.
       -2   -1    0    0    0  501  0.00000000000E+00  0.00000000000E+00 -0.19574738457E+04  0.19574738457E+04  0.25500000920E-02 0. -1.
    10030    2    1    2    0    0  0.00000000000E+00  0.00000000000E+00 -0.12052111603E+02  0.39028955797E+04  0.39028769713E+04 0.  0.
        4    1    3    3  502    0 -0.85841264212E+03 -0.14121183349E+04  0.10318421275E+04  0.19482428609E+04  0.12699999809E+01 0.  1.
       -4    1    3    3    0  502  0.85841264212E+03  0.14121183349E+04 -0.10438942391E+04  0.19546527188E+04  0.12699999809E+01 0. -1.
</event>
<event>
 5   0  0.3724293E-08  0.3883586E+04  0.7818609E-02  0.8028452E-01
        2   -1    0    0  501    0  0.00000000000E+00  0.00000000000E+00  0.30778372539E+04  0.30778372539E+04  0.25500000920E-02 0. -1.
       -2   -1    0    0    0  501  0.00000000000E+00  0.00000000000E+00 -0.12250680115E+04  0.12250680115E+04  0.25500000920E-02 0.  1.
    10030    2    1    2    0    0  0.00000000000E+00  0.00000000000E+00  0.18527692423E+04  0.43029052654E+04  0.38835859534E+04 0.  0.
        4    1    3    3  502    0  0.12430084921E+04  0.46019037985E+03  0.24986565321E+04  0.28284503488E+04  0.12699999809E+01 0. -1.
       -4    1    3    3    0  502 -0.12430084921E+04 -0.46019037985E+03 -0.64588728980E+03  0.14744549166E+04  0.12699999809E+01 0.  1.
</event>
<event>
 5   0  0.1164500E-08  0.3897060E+04  0.7818609E-02  0.8025641E-01
        1   -1    0    0  501    0  0.00000000000E+00  0.00000000000E+00  0.29657484727E+04  0.29657484727E+04  0.50400001928E-02 0. -1.
       -1   -1    0    0    0  501  0.00000000000E+00  0.00000000000E+00 -0.12802061148E+04  0.12802061148E+04  0.50400001928E-02 0.  1.
    10030    2    1    2    0    0  0.00000000000E+00  0.00000000000E+00  0.16855423579E+04  0.42459545876E+04  0.38970600867E+04 0.  0.
        3    1    3    3  502    0  0.61828074091E+03  0.96035576414E+03 -0.87723893305E+03  0.14401744423E+04  0.10100000352E+00 0.  1.
       -3    1    3    3    0  502 -0.61828074091E+03 -0.96035576414E+03  0.25627812909E+04  0.28057801453E+04  0.10100000352E+00 0. -1.
</event>
<event>
 5   0  0.3690572E-08  0.3905768E+04  0.7818609E-02  0.8023831E-01
       -2   -1    0    0    0  501  0.00000000000E+00  0.00000000000E+00  0.17071388358E+04  0.17071388358E+04  0.25500000920E-02 0.  1.
        2   -1    0    0  501    0  0.00000000000E+00  0.00000000000E+00 -0.22340041301E+04  0.22340041301E+04  0.25500000920E-02 0. -1.
    10030    2    1    2    0    0  0.00000000000E+00  0.00000000000E+00 -0.52686529435E+03  0.39411429659E+04  0.39057676376E+04 0.  0.
        3    1    3    3  502    0 -0.12470747861E+04  0.14640481778E+04 -0.60580296121E+03  0.20163407021E+04  0.10100000352E+00 0. -1.
       -3    1    3    3    0  502  0.12470747861E+04 -0.14640481778E+04  0.78937666867E+02  0.19248022638E+04  0.10100000352E+00 0.  1.
</event>
<event>
 5   0  0.3769985E-08  0.3904094E+04  0.7818609E-02  0.8024178E-01
        2   -1    0    0  501    0  0.00000000000E+00  0.00000000000E+00  0.24803348556E+04  0.24803348556E+04  0.25500000920E-02 0.  1.
       -2   -1    0    0    0  501  0.00000000000E+00  0.00000000000E+00 -0.15362796798E+04  0.15362796798E+04  0.25500000920E-02 0. -1.
    10030    2    1    2    0    0  0.00000000000E+00  0.00000000000E+00  0.94405517582E+03  0.40166145355E+04  0.39040942806E+04 0.  0.
        1    1    3    3  502    0 -0.12160556078E+04  0.88747563995E+03 -0.80639751500E+03  0.17078293840E+04  0.50400001928E-02 0. -1.
       -1    1    3    3    0  502  0.12160556078E+04 -0.88747563995E+03  0.17504526908E+04  0.23087851514E+04  0.50400001928E-02 0.  1.
</event>
<event>
 5   0  0.1164500E-08  0.3891979E+04  0.7818609E-02  0.8026700E-01
       -1   -1    0    0    0  501  0.00000000000E+00  0.00000000000E+00  0.19194592023E+04  0.19194592023E+04  0.50400001928E-02 0. -1.
        1   -1    0    0  501    0  0.00000000000E+00  0.00000000000E+00 -0.19728860893E+04  0.19728860893E+04  0.50400001928E-02 0.  1.
    10030    2    1    2    0    0  0.00000000000E+00  0.00000000000E+00 -0.53426886959E+02  0.38923452916E+04  0.38919786018E+04 0.  0.
        2    1    3    3  502    0 -0.95339589080E+03  0.16947564499E+04 -0.10229311324E+03  0.19472100631E+04  0.25500000920E-02 0.  1.
       -2    1    3    3    0  502  0.95339589080E+03 -0.16947564499E+04  0.48866226280E+02  0.19451352285E+04  0.25500000920E-02 0. -1.
</event>
<event>
 5   0  0.1164500E-08  0.3896454E+04  0.7818609E-02  0.8025767E-01
       -1   -1    0    0    0  501  0.00000000000E+00  0.00000000000E+00  0.21534966279E+04  0.21534966279E+04  0.50400001928E-02 0. -1.
        1   -1    0    0  501    0  0.00000000000E+00  0.00000000000E+00 -0.17625234616E+04  0.17625234616E+04  0.50400001928E-02 0.  1.
    10030    2    1    2    0    0  0.00000000000E+00  0.00000000000E+00  0.39097316624E+03  0.39160200895E+04  0.38964539423E+04 0.  0.
        1    1    3    3  502    0 -0.42720832943E+03  0.35679045217E+03  0.20718867904E+04  0.21453487492E+04  0.50400001928E-02 0. -1.
       -1    1    3    3    0  502  0.42720832943E+03 -0.35679045217E+03 -0.16809136241E+04  0.17706713403E+04  0.50400001928E-02 0.  1.
</event>
<event>
 5   0  0.1164500E-08  0.3894736E+04  0.7818609E-02  0.8026125E-01
       -1   -1    0    0    0  501  0.00000000000E+00  0.00000000000E+00  0.19320706776E+04  0.19320706776E+04  0.50400001928E-02 0.  1.
        1   -1    0    0  501    0  0.00000000000E+00  0.00000000000E+00 -0.19627868812E+04  0.19627868812E+04  0.50400001928E-02 0. -1.
    10030    2    1    2    0    0  0.00000000000E+00  0.00000000000E+00 -0.30716203647E+02  0.38948575588E+04  0.38947364375E+04 0.  0.
        2    1    3    3  502    0 -0.96710071106E+03  0.66476195076E+03  0.15387335799E+04  0.19351726709E+04  0.25500000920E-02 0.  1.
       -2    1    3    3    0  502  0.96710071106E+03 -0.66476195076E+03 -0.15694497835E+04  0.19596848878E+04  0.25500000920E-02 0. -1.
</event>
<event>
 5   0  0.3690572E-08  0.3879838E+04  0.7818609E-02  0.8029236E-01
        2   -1    0    0  501    0  0.00000000000E+00  0.00000000000E+00  0.24365966567E+04  0.24365966567E+04  0.25500000920E-02 0. -1.
       -2   -1    0    0    0  501  0.00000000000E+00  0.00000000000E+00 -0.15444844312E+04  0.15444844312E+04  0.25500000920E-02 0.  1.
    10030    2    1    2    0    0  0.00000000000E+00  0.00000000000E+00  0.89211222551E+03  0.39810810879E+04  0.38798379355E+04 0.  0.
        3    1    3    3  502    0  0.82460132376E+03  0.16621133785E+04 -0.13502282550E+03  0.18603277667E+04  0.10100000352E+00 0.  1.
       -3    1    3    3    0  502 -0.82460132376E+03 -0.16621133785E+04  0.10271350510E+04  0.21207533212E+04  0.10100000352E+00 0. -1.
</event>
<event>
 5   0  0.1164500E-08  0.3904151E+04  0.7818609E-02  0.8024167E-01
       -1   -1    0    0    0  501  0.00000000000E+00  0.00000000000E+00  0.13894677558E+04  0.13894677558E+04  0.50400001928E-02 0.  1.
        1   -1    0    0  501    0  0.00000000000E+00  0.00000000000E+00 -0.27424876079E+04  0.27424876079E+04  0.50400001928E-02 0. -1.
    10030    2    1    2    0    0  0.00000000000E+00  0.00000000000E+00 -0.13530198522E+04  0.41319553637E+04  0.39041506640E+04 0.  0.
        2    1    3    3  502    0 -0.15355048615E+04  0.11930715977E+04 -0.49503129240E+03  0.20065520171E+04  0.25500000920E-02 0.  1.
       -2    1    3    3    0  502  0.15355048615E+04 -0.11930715977E+04 -0.85798855978E+03  0.21254033466E+04  0.25500000920E-02 0. -1.
</event>
<event>
 5   0  0.3724293E-08  0.3915683E+04  0.7818609E-02  0.8021775E-01
        2   -1    0    0  501    0  0.00000000000E+00  0.00000000000E+00  0.27626513889E+04  0.27626513889E+04  0.25500000920E-02 0.  1.
       -2   -1    0    0    0  501  0.00000000000E+00  0.00000000000E+00 -0.13874873245E+04  0.13874873245E+04  0.25500000920E-02 0. -1.
    10030    2    1    2    0    0  0.00000000000E+00  0.00000000000E+00  0.13751640644E+04  0.41501387134E+04  0.39156832273E+04 0.  0.
        4    1    3    3  502    0  0.94871247014E+03 -0.99168825136E+03  0.21674821762E+04  0.25654398328E+04  0.12699999809E+01 0.  1.
       -4    1    3    3    0  502 -0.94871247014E+03  0.99168825136E+03 -0.79231811179E+03  0.15846988806E+04  0.12699999809E+01 0. -1.
</event>
<event>
 5   0  0.1164500E-08  0.3898844E+04  0.7818609E-02  0.8025270E-01
       -1   -1    0    0    0  501  0.00000000000E+00  0.00000000000E+00  0.15531818296E+04  0.15531818297E+04  0.50400001928E-02 0.  1.
        1   -1    0    0  501    0  0.00000000000E+00  0.00000000000E+00 -0.24467495962E+04  0.24467495963E+04  0.50400001928E-02 0. -1.
    10030    2    1    2    0    0  0.00000000000E+00  0.00000000000E+00 -0.89356776660E+03  0.39999314259E+04  0.38988444517E+04 0.  0.
        3    1    3    3  502    0 -0.12126245426E+04  0.38375636343E+03 -0.19624227401E+04  0.23385530246E+04  0.10100000352E+00 0. -1.
       -3    1    3    3    0  502  0.12126245426E+04 -0.38375636343E+03  0.10688549735E+04  0.16613784013E+04  0.10100000352E+00 0.  1.
</event>
<event>
 5   0  0.1164500E-08  0.3902683E+04  0.7818609E-02  0.8024472E-01
       -1   -1    0    0    0  501  0.00000000000E+00  0.00000000000E+00  0.16450347802E+04  0.16450347802E+04  0.50400001928E-02 0.  1.
        1   -1    0    0  501    0  0.00000000000E+00  0.00000000000E+00 -0.23146823321E+04  0.23146823321E+04  0.50400001928E-02 0. -1.
    10030    2    1    2    0    0  0.00000000000E+00  0.00000000000E+00 -0.66964755185E+03  0.39597171123E+04  0.39026826371E+04 0.  0.
        1    1    3    3  502    0  0.13427237029E+04  0.13052729815E+04 -0.89155806088E+03  0.20740106737E+04  0.50400001928E-02 0. -1.
       -1    1    3    3    0  502 -0.13427237029E+04 -0.13052729815E+04  0.22191050902E+03  0.18857064386E+04  0.50400001928E-02 0.  1.
</event>
<event>
 5   0  0.3724293E-08  0.3898820E+04  0.7818609E-02  0.8025275E-01
       -2   -1    0    0    0  501  0.00000000000E+00  0.00000000000E+00  0.20364001740E+04  0.20364001740E+04  0.25500000920E-02 0.  1.
        2   -1    0    0  501    0  0.00000000000E+00  0.00000000000E+00 -0.18661355128E+04  0.18661355128E+04  0.25500000920E-02 0. -1.
    10030    2    1    2    0    0  0.00000000000E+00  0.00000000000E+00  0.17026466126E+03  0.39025356868E+04  0.38988196588E+04 0.  0.
        4    1    3    3  502    0  0.80663781433E+03  0.41782867644E+03  0.18115811006E+04  0.20265914890E+04  0.12699999809E+01 0.  1.
       -4    1    3    3    0  502 -0.80663781433E+03 -0.41782867644E+03 -0.16413164393E+04  0.18759441978E+04  0.12699999809E+01 0. -1.
</event>
<event>
 5   0  0.3669347E-08  0.3899077E+04  0.7818609E-02  0.8025221E-01
       -2   -1    0    0    0  501  0.00000000000E+00  0.00000000000E+00  0.15803432828E+04  0.15803432828E+04  0.25500000920E-02 0. -1.
        2   -1    0    0  501    0  0.00000000000E+00  0.00000000000E+00 -0.24049840252E+04  0.24049840252E+04  0.25500000920E-02 0.  1.
    10030    2    1    2    0    0  0.00000000000E+00  0.00000000000E+00 -0.82464074235E+03  0.39853273080E+04  0.38990769930E+04 0.  0.
        5    1    3    3  502    0  0.17790587902E+04  0.34640903822E+03  0.32163692471E+03  0.18407937967E+04  0.46999998093E+01 0. -1.
       -5    1    3    3    0  502 -0.17790587902E+04 -0.34640903822E+03 -0.11462776671E+04  0.21445335112E+04  0.46999998093E+01 0.  1.
</event>
<event>
 5   0  0.1164500E-08  0.3901847E+04  0.7818609E-02  0.8024645E-01
        1   -1    0    0  501    0  0.00000000000E+00  0.00000000000E+00  0.17047207409E+04  0.17047207409E+04  0.50400001928E-02 0.  1.
       -1   -1    0    0    0  501  0.00000000000E+00  0.00000000000E+00 -0.22326837100E+04  0.22326837100E+04  0.50400001928E-02 0. -1.
    10030    2    1    2    0    0  0.00000000000E+00  0.00000000000E+00 -0.52796296909E+03  0.39374044509E+04  0.39018468593E+04 0.  0.
        2    1    3    3  502    0 -0.24005216182E+03  0.86394625422E+03 -0.20124205790E+04  0.22031488278E+04  0.25500000920E-02 0. -1.
       -2    1    3    3    0  502  0.24005216182E+03 -0.86394625422E+03  0.14844576099E+04  0.17342556231E+04  0.25500000920E-02 0.  1.
</event>
<event>
 5   0  0.1164500E-08  0.3916494E+04  0.7818609E-02  0.8021608E-01
       -1   -1    0    0    0  501  0.00000000000E+00  0.00000000000E+00  0.33714877086E+04  0.33714877086E+04  0.50400001928E-02 0. -1.
        1   -1    0    0  501    0  0.00000000000E+00  0.00000000000E+00 -0.11374001719E+04  0.11374001719E+04  0.50400001928E-02 0.  1.
    10030    2    1    2    0    0  0.00000000000E+00  0.00000000000E+00  0.22340875367E+04  0.45088878805E+04  0.39164936866E+04 0.  0.
        4    1    3    3  502    0 -0.11956020680E+04  0.96741005343E+03 -0.27848710004E+03  0.15629789487E+04  0.12699999809E+01 0.  1.
       -4    1    3    3    0  502  0.11956020680E+04 -0.96741005343E+03  0.25125746368E+04  0.29459089318E+04  0.12699999809E+01 0. -1.
</event>
<event>
 5   0  0.1164500E-08  0.3905858E+04  0.7818609E-02  0.8023812E-01
       -1   -1    0    0    0  501  0.00000000000E+00  0.00000000000E+00  0.19692303248E+04  0.19692303248E+04  0.50400001928E-02 0. -1.
        1   -1    0    0  501    0  0.00000000000E+00  0.00000000000E+00 -0.19367627518E+04  0.19367627518E+04  0.50400001928E-02 0.  1.
    10030    2    1    2    0    0  0.00000000000E+00  0.00000000000E+00  0.32467573065E+02  0.39059930766E+04  0.39058581351E+04 0.  0.
        1    1    3    3  502    0 -0.14435373941E+04  0.13128312197E+04 -0.65045852071E+02  0.19523209220E+04  0.50400001928E-02 0. -1.
       -1    1    3    3    0  502  0.14435373941E+04 -0.13128312197E+04  0.97513425136E+02  0.19536721546E+04  0.50400001928E-02 0.  1.
</event>
<event>
 5   0  0.1164500E-08  0.3892625E+04  0.7818609E-02  0.8026565E-01
        3   -1    0    0  501    0  0.00000000000E+00  0.00000000000E+00  0.23621148888E+04  0.23621148910E+04  0.10100000352E+00 0.  1.
       -3   -1    0    0    0  501  0.00000000000E+00  0.00000000000E+00 -0.16037040180E+04  0.16037040212E+04  0.10100000352E+00 0. -1.
    10030    2    1    2    0    0  0.00000000000E+00  0.00000000000E+00  0.75841087077E+03  0.39658189122E+04  0.38926254116E+04 0.  0.
        2    1    3    3  502    0 -0.25271812810E+03 -0.30040018265E+03 -0.15629514402E+04  0.16114974174E+04  0.25500000920E-02 0. -1.
       -2    1    3    3    0  502  0.25271812810E+03  0.30040018265E+03  0.23213623109E+04  0.23543214948E+04  0.25500000920E-02 0.  1.
</event>
<event>
 5   0  0.1164500E-08  0.3898639E+04  0.7818609E-02  0.8025312E-01
        1   -1    0    0  501    0  0.00000000000E+00  0.00000000000E+00  0.19310621383E+04  0.19310621383E+04  0.50400001928E-02 0.  1.
       -1   -1    0    0    0  501  0.00000000000E+00  0.00000000000E+00 -0.19677492816E+04  0.19677492816E+04  0.50400001928E-02 0. -1.
    10030    2    1    2    0    0  0.00000000000E+00  0.00000000000E+00 -0.36687143335E+02  0.38988114199E+04  0.38986388062E+04 0.  0.
        3    1    3    3  502    0  0.15294733913E+04  0.32952099402E+03 -0.11811388700E+04  0.19603474132E+04  0.10100000352E+00 0. -1.
       -3    1    3    3    0  502 -0.15294733913E+04 -0.32952099402E+03  0.11444517267E+04  0.19384640066E+04  0.10100000352E+00 0.  1.
</event>
<event>
 5   0  0.3769985E-08  0.3897049E+04  0.7818609E-02  0.8025643E-01
       -2   -1    0    0    0  501  0.00000000000E+00  0.00000000000E+00  0.22593521330E+04  0.22593521330E+04  0.25500000920E-02 0.  1.
        2   -1    0    0  501    0  0.00000000000E+00  0.00000000000E+00 -0.16804585367E+04  0.16804585367E+04  0.25500000920E-02 0. -1.
    10030    2    1    2    0    0  0.00000000000E+00  0.00000000000E+00  0.57889359631E+03  0.39398106697E+04  0.38970489241E+04 0.  0.
        1    1    3    3  502    0 -0.80778523916E+03  0.33684667093E+03 -0.14705651615E+04  0.17112990874E+04  0.50400001928E-02 0. -1.
       -1    1    3    3    0  502  0.80778523916E+03 -0.33684667093E+03  0.20494587578E+04  0.22285115823E+04  0.50400001928E-02 0.  1.
</event>
<event>
 5   0  0.1164500E-08  0.3906061E+04  0.7818609E-02  0.8023770E-01
        1   -1    0    0  501    0  0.00000000000E+00  0.00000000000E+00  0.11956414732E+04  0.11956414732E+04  0.50400001928E-02 0. -1.
       -1   -1    0    0    0  501  0.00000000000E+00  0.00000000000E+00 -0.31901941033E+04  0.31901941033E+04  0.50400001928E-02 0.  1.
    10030    2    1    2    0    0  0.00000000000E+00  0.00000000000E+00 -0.19945526301E+04  0.43858355765E+04  0.39060611247E+04 0.  0.
        5    1    3    3  502    0 -0.16537500329E+04  0.56503918699E+03 -0.19762304427E+04  0.26381181374E+04  0.46999998093E+01 0.  1.
       -5    1    3    3    0  502  0.16537500329E+04 -0.56503918699E+03 -0.18322187381E+02  0.17477174391E+04  0.46999998093E+01 0. -1.
</event>
<event>
 5   0  0.1164500E-08  0.3905461E+04  0.7818609E-02  0.8023894E-01
        1   -1    0    0  501    0  0.00000000000E+00  0.00000000000E+00  0.22442720171E+04  0.22442720171E+04  0.50400001928E-02 0.  1.
       -1   -1    0    0    0  501  0.00000000000E+00  0.00000000000E+00 -0.16990611694E+04  0.16990611694E+04  0.50400001928E-02 0. -1.
    10030    2    1    2    0    0  0.00000000000E+00  0.00000000000E+00  0.54521084775E+03  0.39433331865E+04  0.39054605044E+04 0.  0.
        1    1    3    3  502    0 -0.97685640363E+03  0.16129754093E+04  0.78468958045E+03  0.20424680761E+04  0.50400001928E-02 0. -1.
       -1    1    3    3    0  502  0.97685640363E+03 -0.16129754093E+04 -0.23947873270E+03  0.19008651104E+04  0.50400001928E-02 0.  1.
</event>
<event>
 5   0  0.1164500E-08  0.3858545E+04  0.7818609E-02  0.8033707E-01
        1   -1    0    0  501    0  0.00000000000E+00  0.00000000000E+00  0.23976267903E+04  0.23976267903E+04  0.50400001928E-02 0. -1.
       -1   -1    0    0    0  501  0.00000000000E+00  0.00000000000E+00 -0.15524070665E+04  0.15524070665E+04  0.50400001928E-02 0.  1.
    10030    2    1    2    0    0  0.00000000000E+00  0.00000000000E+00  0.84521972382E+03  0.39500338568E+04  0.38585452036E+04 0.  0.
        3    1    3    3  502    0  0.53761898341E+03 -0.11196800679E+04  0.19338838994E+04  0.22983960869E+04  0.10100000352E+00 0. -1.
       -3    1    3    3    0  502 -0.53761898341E+03  0.11196800679E+04 -0.10886641755E+04  0.16516377699E+04  0.10100000352E+00 0.  1.
</event>
<event>
 5   0  0.1164500E-08  0.3912399E+04  0.7818609E-02  0.8022455E-01
        1   -1    0    0  501    0  0.00000000000E+00  0.00000000000E+00  0.23070960018E+04  0.23070960018E+04  0.50400001928E-02 0. -1.
       -1   -1    0    0    0  501  0.00000000000E+00  0.00000000000E+00 -0.16586720880E+04  0.16586720880E+04  0.50400001928E-02 0.  1.
    10030    2    1    2    0    0  0.00000000000E+00  0.00000000000E+00  0.64842391379E+03  0.39657680899E+04  0.39123986211E+04 0.  0.
        4    1    3    3  502    0 -0.16884315779E+03  0.90360801627E+03  0.20745264651E+04  0.22690696609E+04  0.12699999809E+01 0.  1.
       -4    1    3    3    0  502  0.16884315779E+03 -0.90360801627E+03 -0.14261025513E+04  0.16966984289E+04  0.12699999809E+01 0. -1.
</event>
<event>
 5   0  0.1164500E-08  0.3889960E+04  0.7818609E-02  0.8027121E-01
        1   -1    0    0  501    0  0.00000000000E+00  0.00000000000E+00  0.15605395107E+04  0.15605395107E+04  0.50400001928E-02 0. -1.
       -1   -1    0    0    0  501  0.00000000000E+00  0.00000000000E+00 -0.24241275615E+04  0.24241275615E+04  0.50400001928E-02 0.  1.
    10030    2    1    2    0    0  0.00000000000E+00  0.00000000000E+00 -0.86358805079E+03  0.39846670722E+04  0.38899598140E+04 0.  0.
        5    1    3    3  502    0 -0.13990772909E+04  0.84821100929E+03 -0.15090860279E+04  0.22258126408E+04  0.46999998093E+01 0.  1.
       -5    1    3    3    0  502  0.13990772909E+04 -0.84821100929E+03  0.64549797713E+03  0.17588544314E+04  0.46999998093E+01 0. -1.
</event>
<event>
 5   0  0.3769985E-08  0.3785288E+04  0.7818609E-02  0.8049319E-01
       -2   -1    0    0    0  501  0.00000000000E+00  0.00000000000E+00  0.19236177873E+04  0.19236177873E+04  0.25500000920E-02 0.  1.
        2   -1    0    0  501    0  0.00000000000E+00  0.00000000000E+00 -0.18621690563E+04  0.18621690563E+04  0.25500000920E-02 0. -1.
    10030    2    1    2    0    0  0.00000000000E+00  0.00000000000E+00  0.61448730932E+02  0.37857868436E+04  0.37852881104E+04 0.  0.
        1    1    3    3  502    0 -0.85437701550E+03  0.36306455533E+03  0.16802826238E+04  0.19196681098E+04  0.50400001928E-02 0.  1.
       -1    1    3    3    0  502  0.85437701550E+03 -0.36306455533E+03 -0.16188338929E+04  0.18661187338E+04  0.50400001928E-02 0. -1.
</event>
<event>
 5   0  0.3690572E-08  0.3793472E+04  0.7818609E-02  0.8047557E-01
        2   -1    0    0  501    0  0.00000000000E+00  0.00000000000E+00  0.28346721070E+04  0.28346721070E+04  0.25500000920E-02 0. -1.
       -2   -1    0    0    0  501  0.00000000000E+00  0.00000000000E+00 -0.12691443656E+04  0.12691443656E+04  0.25500000920E-02 0.  1.
    10030    2    1    2    0    0  0.00000000000E+00  0.00000000000E+00  0.15655277413E+04  0.41038164726E+04  0.37934723582E+04 0.  0.
        3    1    3    3  502    0  0.16558981065E+04  0.65575421205E+03  0.14885120621E+04  0.23211377156E+04  0.10100000352E+00 0. -1.
       -3    1    3    3    0  502 -0.16558981065E+04 -0.65575421205E+03  0.77015679244E+02  0.17826787570E+04  0.10100000352E+00 0.  1.
</event>
<event>
 5   0  0.1164500E-08  0.3898794E+04  0.7818609E-02  0.8025280E-01
        1   -1    0    0  501    0  0.00000000000E+00  0.00000000000E+00  0.13535300611E+04  0.13535300611E+04  0.50400001928E-02 0. -1.
       -1   -1    0    0    0  501  0.00000000000E+00  0.00000000000E+00 -0.28075841581E+04  0.28075841581E+04  0.50400001928E-02 0.  1.
    10030    2    1    2    0    0  0.00000000000E+00  0.00000000000E+00 -0.14540540970E+04  0.41611142192E+04  0.38987944584E+04 0.  0.
        3    1    3    3  502    0  0.17042854150E+04 -0.94633354120E+03 -0.73096295858E+03  0.20819324687E+04  0.10100000352E+00 0. -1.
       -3    1    3    3    0  502 -0.17042854150E+04  0.94633354120E+03 -0.72309113839E+03  0.20791817505E+04  0.10100000352E+00 0.  1.
</event>
<event>
 5   0  0.1164500E-08  0.3893963E+04  0.7818609E-02  0.8026286E-01
        1   -1    0    0  501    0  0.00000000000E+00  0.00000000000E+00  0.20297678562E+04  0.20297678562E+04  0.50400001928E-02 0.  1.
       -1   -1    0    0    0  501  0.00000000000E+00  0.00000000000E+00 -0.18675713416E+04  0.18675713416E+04  0.50400001928E-02 0. -1.
    10030    2    1    2    0    0  0.00000000000E+00  0.00000000000E+00  0.16219651456E+03  0.38973391978E+04  0.38939626492E+04 0.  0.
        2    1    3    3  502    0  0.26997994962E+03  0.13580686611E+04  0.14510424654E+04  0.20056829007E+04  0.25500000920E-02 0.  1.
       -2    1    3    3    0  502 -0.26997994962E+03 -0.13580686611E+04 -0.12888459509E+04  0.18916562972E+04  0.25500000920E-02 0. -1.
</event>
<event>
 5   0  0.1164500E-08  0.3896215E+04  0.7818609E-02  0.8025817E-01
       -1   -1    0    0    0  501  0.00000000000E+00  0.00000000000E+00  0.24522093262E+04  0.24522093262E+04  0.50400001928E-02 0. -1.
        1   -1    0    0  501    0  0.00000000000E+00  0.00000000000E+00 -0.15476340835E+04  0.15476340835E+04  0.50400001928E-02 0.  1.
    10030    2    1    2    0    0  0.00000000000E+00  0.00000000000E+00  0.90457524275E+03  0.39998434098E+04  0.38962149495E+04 0.  0.
        4    1    3    3  502    0  0.19092242434E+04 -0.25880144208E+03  0.15651763727E+03  0.19330325350E+04  0.12699999809E+01 0. -1.
       -4    1    3    3    0  502 -0.19092242434E+04  0.25880144208E+03  0.74805760547E+03  0.20668108747E+04  0.12699999809E+01 0.  1.
</event>
<event>
 5   0  0.1164500E-08  0.3896580E+04  0.7818609E-02  0.8025741E-01
       -1   -1    0    0    0  501  0.00000000000E+00  0.00000000000E+00  0.19060120662E+04  0.19060120662E+04  0.50400001928E-02 0. -1.
        1   -1    0    0  501    0  0.00000000000E+00  0.00000000000E+00 -0.19915061182E+04  0.19915061182E+04  0.50400001928E-02 0.  1.
    10030    2    1    2    0    0  0.00000000000E+00  0.00000000000E+00 -0.85494051922E+02  0.38975181844E+04  0.38965803937E+04 0.  0.
        2    1    3    3  502    0 -0.18035806789E+04 -0.58842124151E+03  0.40085928104E+03  0.19390283613E+04  0.25500000920E-02 0. -1.
       -2    1    3    3    0  502  0.18035806789E+04  0.58842124151E+03 -0.48635333296E+03  0.19584898231E+04  0.25500000920E-02 0.  1.
</event>
<event>
 5   0  0.1164500E-08  0.3895879E+04  0.7818609E-02  0.8025887E-01
       -1   -1    0    0    0  501  0.00000000000E+00  0.00000000000E+00  0.15761862529E+04  0.15761862530E+04  0.50400001928E-02 0. -1.
        1   -1    0    0  501    0  0.00000000000E+00  0.00000000000E+00 -0.24073730410E+04  0.24073730410E+04  0.50400001928E-02 0.  1.
    10030    2    1    2    0    0  0.00000000000E+00  0.00000000000E+00 -0.83118678808E+03  0.39835592940E+04  0.38958789986E+04 0.  0.
        1    1    3    3  502    0  0.15595616665E+04 -0.10911188911E+04 -0.83928024674E+03  0.20801837319E+04  0.50400001928E-02 0.  1.
       -1    1    3    3    0  502 -0.15595616665E+04  0.10911188911E+04  0.80934586552E+01  0.19033755620E+04  0.50400001928E-02 0. -1.
</event>
<event>
 5   0  0.1164500E-08  0.3888765E+04  0.7818609E-02  0.8027370E-01
        1   -1    0    0  501    0  0.00000000000E+00  0.00000000000E+00  0.17659311036E+04  0.17659311036E+04  0.50400001928E-02 0. -1.
       -1   -1    0    0    0  501  0.00000000000E+00  0.00000000000E+00 -0.21408662863E+04  0.21408662863E+04  0.50400001928E-02 0.  1.
    10030    2    1    2    0    0  0.00000000000E+00  0.00000000000E+00 -0.37493518274E+03  0.39067973899E+04  0.38887645151E+04 0.  0.
        5    1    3    3  502    0 -0.17937092670E+04 -0.48450635908E+03 -0.76324033332E+03  0.20086555810E+04  0.46999998093E+01 0.  1.
       -5    1    3    3    0  502  0.17937092670E+04  0.48450635908E+03  0.38830515058E+03  0.18981418089E+04  0.46999998093E+01 0. -1.
</event>
<event>
 5   0  0.3669347E-08  0.3903730E+04  0.7818609E-02  0.8024254E-01
        2   -1    0    0  501    0  0.00000000000E+00  0.00000000000E+00  0.16485263101E+04  0.16485263101E+04  0.25500000920E-02 0. -1.
       -2   -1    0    0    0  501  0.00000000000E+00  0.00000000000E+00 -0.23110198345E+04  0.23110198345E+04  0.25500000920E-02 0.  1.
    10030    2    1    2    0    0  0.00000000000E+00  0.00000000000E+00 -0.66249352436E+03  0.39595461446E+04  0.39037300113E+04 0.  0.
        5    1    3    3  502    0 -0.60959436979E+03 -0.16708419423E+04  0.48426208561E+03  0.18433257849E+04  0.46999998093E+01 0. -1.
       -5    1    3    3    0  502  0.60959436979E+03  0.16708419423E+04 -0.11467556100E+04  0.21162203597E+04  0.46999998093E+01 0.  1.
</event>
<event>
 5   0  0.3724293E-08  0.3881491E+04  0.7818609E-02  0.8028890E-01
        2   -1    0    0  501    0  0.00000000000E+00  0.00000000000E+00  0.12583230827E+04  0.12583230827E+04  0.25500000920E-02 0.  1.
       -2   -1    0    0    0  501  0.00000000000E+00  0.00000000000E+00 -0.29932646187E+04  0.29932646187E+04  0.25500000920E-02 0. -1.
    10030    2    1    2    0    0  0.00000000000E+00  0.00000000000E+00 -0.17349415360E+04  0.42515877013E+04  0.38814914464E+04 0.  0.
        4    1    3    3  502    0  0.54591594651E+03  0.18492725047E+04 -0.62584926613E+03  0.20271955836E+04  0.12699999809E+01 0. -1.
       -4    1    3    3    0  502 -0.54591594651E+03 -0.18492725047E+04 -0.11090922699E+04  0.22243921177E+04  0.12699999809E+01 0.  1.
</event>
<event>
 5   0  0.1164500E-08  0.3888657E+04  0.7818609E-02  0.8027392E-01
       -3   -1    0    0    0  501  0.00000000000E+00  0.00000000000E+00  0.30081121137E+04  0.30081121154E+04  0.10100000352E+00 0. -1.
        3   -1    0    0  501    0  0.00000000000E+00  0.00000000000E+00 -0.12567397669E+04  0.12567397709E+04  0.10100000352E+00 0.  1.
    10030    2    1    2    0    0  0.00000000000E+00  0.00000000000E+00  0.17513723468E+04  0.42648518863E+04  0.38886574181E+04 0.  0.
        4    1    3    3  502    0 -0.28922375277E+03  0.16064901452E+04 -0.28289625800E+03  0.16566511013E+04  0.12699999809E+01 0.  1.
       -4    1    3    3    0  502  0.28922375277E+03 -0.16064901452E+04  0.20342686048E+04  0.26082007850E+04  0.12699999809E+01 0. -1.
</event>
<event>
 5   0  0.3690572E-08  0.3911166E+04  0.7818609E-02  0.8022711E-01
        2   -1    0    0  501    0  0.00000000000E+00  0.00000000000E+00  0.18783435137E+04  0.18783435137E+04  0.25500000920E-02 0.  1.
       -2   -1    0    0    0  501  0.00000000000E+00  0.00000000000E+00 -0.20359982974E+04  0.20359982974E+04  0.25500000920E-02 0. -1.
    10030    2    1    2    0    0  0.00000000000E+00  0.00000000000E+00 -0.15765478372E+03  0.39143418111E+04  0.39111656553E+04 0.  0.
        3    1    3    3  502    0  0.10799650720E+04 -0.14248372609E+04  0.71416598325E+03  0.19252321519E+04  0.10100000352E+00 0.  1.
       -3    1    3    3    0  502 -0.10799650720E+04  0.14248372609E+04 -0.87182076697E+03  0.19891096593E+04  0.10100000352E+00 0. -1.
</event>
<event>
 5   0  0.3724293E-08  0.3918110E+04  0.7818609E-02  0.8021273E-01
       -2   -1    0    0    0  501  0.00000000000E+00  0.00000000000E+00  0.23156608341E+04  0.23156608341E+04  0.25500000920E-02 0. -1.
        2   -1    0    0  501    0  0.00000000000E+00  0.00000000000E+00 -0.16573654496E+04  0.16573654496E+04  0.25500000920E-02 0.  1.
    10030    2    1    2    0    0  0.00000000000E+00  0.00000000000E+00  0.65829538451E+03  0.39730262836E+04  0.39181098807E+04 0.  0.
        4    1    3    3  502    0 -0.71428606218E+02  0.19075969619E+04  0.77562165301E+03  0.20604899360E+04  0.12699999809E+01 0. -1.
       -4    1    3    3    0  502  0.71428606218E+02 -0.19075969619E+04 -0.11732626850E+03  0.19125363476E+04  0.12699999809E+01 0.  1.
</event>
<event>
 5   0  0.3724293E-08  0.3898717E+04  0.7818609E-02  0.8025296E-01
       -2   -1    0    0    0  501  0.00000000000E+00  0.00000000000E+00  0.30205088583E+04  0.30205088583E+04  0.25500000920E-02 0.  1.
        2   -1    0    0  501    0  0.00000000000E+00  0.00000000000E+00 -0.12580658017E+04  0.12580658017E+04  0.25500000920E-02 0. -1.
    10030    2    1    2    0    0  0.00000000000E+00  0.00000000000E+00  0.17624430567E+04  0.42785746600E+04  0.38987171728E+04 0.  0.
        4    1    3    3  502    0  0.30629822680E+03  0.52919035552E+03 -0.11501048052E+04  0.13025374129E+04  0.12699999809E+01 0. -1.
       -4    1    3    3    0  502 -0.30629822680E+03 -0.52919035552E+03  0.29125478618E+04  0.29760372472E+04  0.12699999809E+01 0.  1.
</event>
<event>
 5   0  0.1164500E-08  0.3897331E+04  0.7818609E-02  0.8025585E-01
       -1   -1    0    0    0  501  0.00000000000E+00  0.00000000000E+00  0.14574866747E+04  0.14574866748E+04  0.50400001928E-02 0. -1.
        1   -1    0    0  501    0  0.00000000000E+00  0.00000000000E+00 -0.26053730183E+04  0.26053730183E+04  0.50400001928E-02 0.  1.
    10030    2    1    2    0    0  0.00000000000E+00  0.00000000000E+00 -0.11478863436E+04  0.40628596931E+04  0.38973306029E+04 0.  0.
        1    1    3    3  502    0 -0.12490837134E+04 -0.40887012701E+03  0.92588142349E+03  0.16076819693E+04  0.50400001928E-02 0. -1.
       -1    1    3    3    0  502  0.12490837134E+04  0.40887012701E+03 -0.20737677671E+04  0.24551777238E+04  0.50400001928E-02 0.  1.
</event>
<event>
 5   0  0.1164500E-08  0.3909962E+04  0.7818609E-02  0.8022960E-01
       -1   -1    0    0    0  501  0.00000000000E+00  0.00000000000E+00  0.16498674420E+04  0.16498674420E+04  0.50400001928E-02 0.  1.
        1   -1    0    0  501    0  0.00000000000E+00  0.00000000000E+00 -0.23165202125E+04  0.23165202125E+04  0.50400001928E-02 0. -1.
    10030    2    1    2    0    0  0.00000000000E+00  0.00000000000E+00 -0.66665277049E+03  0.39663876545E+04  0.39099622900E+04 0.  0.
        5    1    3    3  502    0  0.54726823705E+03  0.17611640565E+04 -0.99132231802E+03  0.20937868529E+04  0.46999998093E+01 0. -1.
       -5    1    3    3    0  502 -0.54726823705E+03 -0.17611640565E+04  0.32466954753E+03  0.18726008016E+04  0.46999998093E+01 0.  1.
</event>
<event>
 5   0  0.1164500E-08  0.3900908E+04  0.7818609E-02  0.8024840E-01
        1   -1    0    0  501    0  0.00000000000E+00  0.00000000000E+00  0.13400422846E+04  0.13400422846E+04  0.50400001928E-02 0. -1.
       -1   -1    0    0    0  501  0.00000000000E+00  0.00000000000E+00 -0.28389184535E+04  0.28389184535E+04  0.50400001928E-02 0.  1.
    10030    2    1    2    0    0  0.00000000000E+00  0.00000000000E+00 -0.14988761688E+04  0.41789607381E+04  0.39009079816E+04 0.  0.
        3    1    3    3  502    0  0.96156188230E+03 -0.14187358983E+04 -0.17468546000E+04  0.24472257367E+04  0.10100000352E+00 0.  1.
       -3    1    3    3    0  502 -0.96156188230E+03  0.14187358983E+04  0.24797843112E+03  0.17317350014E+04  0.10100000352E+00 0. -1.
</event>
<event>
 5   0  0.3769985E-08  0.3893473E+04  0.7818609E-02  0.8026388E-01
       -2   -1    0    0    0  501  0.00000000000E+00  0.00000000000E+00  0.11965496744E+04  0.11965496744E+04  0.25500000920E-02 0.  1.
        2   -1    0    0  501    0  0.00000000000E+00  0.00000000000E+00 -0.31672592388E+04  0.31672592388E+04  0.25500000920E-02 0. -1.
    10030    2    1    2    0    0  0.00000000000E+00  0.00000000000E+00 -0.19707095644E+04  0.43638089132E+04  0.38934730054E+04 0.  0.
        1    1    3    3  502    0 -0.15569903283E+04  0.11659675925E+04 -0.89793443811E+03  0.21424251596E+04  0.50400001928E-02 0. -1.
       -1    1    3    3    0  502  0.15569903283E+04 -0.11659675925E+04 -0.10727751263E+04  0.22213837536E+04  0.50400001928E-02 0.  1.
</event>
<event>
 5   0  0.1164500E-08  0.3895343E+04  0.7818609E-02  0.8025999E-01
        1   -1    0    0  501    0  0.00000000000E+00  0.00000000000E+00  0.16619567293E+04  0.16619567293E+04  0.50400001928E-02 0. -1.
       -1   -1    0    0    0  501  0.00000000000E+00  0.00000000000E+00 -0.22825044912E+04  0.22825044912E+04  0.50400001928E-02 0.  1.
    10030    2    1    2    0    0  0.00000000000E+00  0.00000000000E+00 -0.62054776195E+03  0.39444612205E+04  0.38953427058E+04 0.  0.
        1    1    3    3  502    0  0.12151192960E+04  0.63991152476E+03 -0.17087833663E+04  0.21922459388E+04  0.50400001928E-02 0.  1.
       -1    1    3    3    0  502 -0.12151192960E+04 -0.63991152476E+03  0.10882356043E+04  0.17522152818E+04  0.50400001928E-02 0. -1.
</event>
<event>
 5   0  0.3690572E-08  0.3902030E+04  0.7818609E-02  0.8024607E-01
       -2   -1    0    0    0  501  0.00000000000E+00  0.00000000000E+00  0.12580084561E+04  0.12580084561E+04  0.25500000920E-02 0. -1.
        2   -1    0    0  501    0  0.00000000000E+00  0.00000000000E+00 -0.30257822025E+04  0.30257822025E+04  0.25500000920E-02 0.  1.
    10030    2    1    2    0    0  0.00000000000E+00  0.00000000000E+00 -0.17677737463E+04  0.42837906586E+04  0.39020300343E+04 0.  0.
        3    1    3    3  502    0 -0.67834990471E+02  0.12387848894E+04 -0.25369492906E+04  0.28240575953E+04  0.10100000352E+00 0.  1.
       -3    1    3    3    0  502  0.67834990471E+02 -0.12387848894E+04  0.76917554430E+03  0.14597330633E+04  0.10100000352E+00 0. -1.
</event>
<event>
 5   0  0.1164500E-08  0.3894959E+04  0.7818609E-02  0.8026079E-01
        1   -1    0    0  501    0  0.00000000000E+00  0.00000000000E+00  0.28214562335E+04  0.28214562335E+04  0.50400001928E-02 0.  1.
       -1   -1    0    0    0  501  0.00000000000E+00  0.00000000000E+00 -0.13442263483E+04  0.13442263483E+04  0.50400001928E-02 0. -1.
    10030    2    1    2    0    0  0.00000000000E+00  0.00000000000E+00  0.14772298851E+04  0.41656825818E+04  0.38949586954E+04 0.  0.
        5    1    3    3  502    0 -0.10347192979E+04  0.71398968024E+03 -0.85212176374E+03  0.15187359478E+04  0.46999998093E+01 0. -1.
       -5    1    3    3    0  502  0.10347192979E+04 -0.71398968024E+03  0.23293516489E+04  0.26469466340E+04  0.46999998093E+01 0.  1.
</event>
<event>
 5   0  0.3690572E-08  0.3910613E+04  0.7818609E-02  0.8022826E-01
       -2   -1    0    0    0  501  0.00000000000E+00  0.00000000000E+00  0.24030625600E+04  0.24030625600E+04  0.25500000920E-02 0.  1.
        2   -1    0    0  501    0  0.00000000000E+00  0.00000000000E+00 -0.15909793496E+04  0.15909793496E+04  0.25500000920E-02 0. -1.
    10030    2    1    2    0    0  0.00000000000E+00  0.00000000000E+00  0.81208321036E+03  0.39940419095E+04  0.39106126930E+04 0.  0.
        3    1    3    3  502    0  0.97123025848E+02  0.18006166241E+04 -0.36610976233E+03  0.18400243144E+04  0.10100000352E+00 0.  1.
       -3    1    3    3    0  502 -0.97123025848E+02 -0.18006166241E+04  0.11781929727E+04  0.21540175952E+04  0.10100000352E+00 0. -1.
</event>
<event>
 5   0  0.3769985E-08  0.3895338E+04  0.7818609E-02  0.8025999E-01
       -2   -1    0    0    0  501  0.00000000000E+00  0.00000000000E+00  0.18129881344E+04  0.18129881344E+04  0.25500000920E-02 0. -1.
        2   -1    0    0  501    0  0.00000000000E+00  0.00000000000E+00 -0.20923551431E+04  0.20923551431E+04  0.25500000920E-02 0.  1.
    10030    2    1    2    0    0  0.00000000000E+00  0.00000000000E+00 -0.27936700875E+03  0.39053432775E+04  0.38953382638E+04 0.  0.
        1    1    3    3  502    0  0.12658741589E+04 -0.94926464605E+03  0.99895988968E+03  0.18712192858E+04  0.50400001928E-02 0. -1.
       -1    1    3    3    0  502 -0.12658741589E+04  0.94926464605E+03 -0.12783268984E+04  0.20341239917E+04  0.50400001928E-02 0.  1.
</event>
<event>
 5   0  0.1164500E-08  0.3890474E+04  0.7818609E-02  0.8027013E-01
        1   -1    0    0  501    0  0.00000000000E+00  0.00000000000E+00  0.27115989581E+04  0.27115989581E+04  0.50400001928E-02 0.  1.
       -1   -1    0    0    0  501  0.00000000000E+00  0.00000000000E+00 -0.13954667410E+04  0.13954667410E+04  0.50400001928E-02 0. -1.
    10030    2    1    2    0    0  0.00000000000E+00  0.00000000000E+00  0.13161322171E+04  0.41070656992E+04  0.38904735758E+04 0.  0.
        5    1    3    3  502    0  0.11475383838E+04 -0.98192890516E+03 -0.63611051555E+03  0.16388066985E+04  0.46999998093E+01 0.  1.
       -5    1    3    3    0  502 -0.11475383838E+04  0.98192890516E+03  0.19522427326E+04  0.24682590006E+04  0.46999998093E+01 0. -1.
</event>
<event>
 5   0  0.1164500E-08  0.3871303E+04  0.7818609E-02  0.8031024E-01
        1   -1    0    0  501    0  0.00000000000E+00  0.00000000000E+00  0.31543701330E+04  0.31543701330E+04  0.50400001928E-02 0.  1.
       -1   -1    0    0    0  501  0.00000000000E+00  0.00000000000E+00 -0.11877956599E+04  0.11877956599E+04  0.50400001928E-02 0. -1.
    10030    2    1    2    0    0  0.00000000000E+00  0.00000000000E+00  0.19665744731E+04  0.43421657930E+04  0.38713032192E+04 0.  0.
        2    1    3    3  502    0 -0.84793459205E+02 -0.34595807149E+02  0.31519388721E+04  0.31532690107E+04  0.25500000920E-02 0.  1.
       -2    1    3    3    0  502  0.84793459205E+02  0.34595807149E+02 -0.11853643989E+04  0.11888967823E+04  0.25500000920E-02 0. -1.
</event>
<event>
 5   0  0.3872969E-08  0.3899285E+04  0.7818609E-02  0.8025178E-01
       -2   -1    0    0    0  501  0.00000000000E+00  0.00000000000E+00  0.13814270603E+04  0.13814270603E+04  0.25500000920E-02 0. -1.
        2   -1    0    0  501    0  0.00000000000E+00  0.00000000000E+00 -0.27515793774E+04  0.27515793774E+04  0.25500000920E-02 0.  1.
    10030    2    1    2    0    0  0.00000000000E+00  0.00000000000E+00 -0.13701523171E+04  0.41330064378E+04  0.38992851707E+04 0.  0.
        2    1    3    3  502    0 -0.74049824796E+03 -0.31950576279E+03  0.11963342847E+04  0.14427880331E+04  0.25500000920E-02 0. -1.
       -2    1    3    3    0  502  0.74049824796E+03  0.31950576279E+03 -0.25664866018E+04  0.26902184047E+04  0.25500000920E-02 0.  1.
</event>
<event>
 5   0  0.3872969E-08  0.3899742E+04  0.7818609E-02  0.8025083E-01
       -2   -1    0    0    0  501  0.00000000000E+00  0.00000000000E+00  0.13744511451E+04  0.13744511451E+04  0.25500000920E-02 0. -1.
        2   -1    0    0  501    0  0.00000000000E+00  0.00000000000E+00 -0.27661926938E+04  0.27661926938E+04  0.25500000920E-02 0.  1.
    10030    2    1    2    0    0  0.00000000000E+00  0.00000000000E+00 -0.13917415487E+04  0.41406438390E+04  0.38997418969E+04 0.  0.
        2    1    3    3  502    0  0.15191404139E+04 -0.62614318211E+02  0.60031483719E+03  0.16346516613E+04  0.25500000920E-02 0. -1.
       -2    1    3    3    0  502 -0.15191404139E+04  0.62614318211E+02 -0.19920563859E+04  0.25059921777E+04  0.25500000920E-02 0.  1.
</event>
<event>
 5   0  0.1164500E-08  0.3899510E+04  0.7818609E-02  0.8025131E-01
       -1   -1    0    0    0  501  0.00000000000E+00  0.00000000000E+00  0.18751769509E+04  0.18751769509E+04  0.50400001928E-02 0.  1.
        1   -1    0    0  501    0  0.00000000000E+00  0.00000000000E+00 -0.20272990112E+04  0.20272990112E+04  0.50400001928E-02 0. -1.
    10030    2    1    2    0    0  0.00000000000E+00  0.00000000000E+00 -0.15212206023E+03  0.39024759621E+04  0.38995099069E+04 0.  0.
        3    1    3    3  502    0  0.16249216461E+04 -0.10721480887E+04 -0.18418249669E+03  0.19554526541E+04  0.10100000352E+00 0. -1.
       -3    1    3    3    0  502 -0.16249216461E+04  0.10721480887E+04  0.32060436458E+02  0.19470233080E+04  0.10100000352E+00 0.  1.
</event>
<event>
 5   0  0.1164500E-08  0.3900279E+04  0.7818609E-02  0.8024971E-01
        1   -1    0    0  501    0  0.00000000000E+00  0.00000000000E+00  0.12717151734E+04  0.12717151734E+04  0.50400001928E-02 0.  1.
       -1   -1    0    0    0  501  0.00000000000E+00  0.00000000000E+00 -0.29904846136E+04  0.29904846136E+04  0.50400001928E-02 0. -1.
    10030    2    1    2    0    0  0.00000000000E+00  0.00000000000E+00 -0.17187694402E+04  0.42621997869E+04  0.39002793022E+04 0.  0.
        2    1    3    3  502    0 -0.73867159401E+02  0.17133159893E+04  0.15528836740E+03  0.17219240731E+04  0.25500000920E-02 0.  1.
       -2    1    3    3    0  502  0.73867159401E+02 -0.17133159893E+04 -0.18740578076E+04  0.25402757139E+04  0.25500000920E-02 0. -1.
</event>
<event>
 5   0  0.3769985E-08  0.3898996E+04  0.7818609E-02  0.8025238E-01
       -2   -1    0    0    0  501  0.00000000000E+00  0.00000000000E+00  0.17732784747E+04  0.17732784747E+04  0.25500000920E-02 0. -1.
        2   -1    0    0  501    0  0.00000000000E+00  0.00000000000E+00 -0.21432298095E+04  0.21432298095E+04  0.25500000920E-02 0.  1.
    10030    2    1    2    0    0  0.00000000000E+00  0.00000000000E+00 -0.36995133480E+03  0.39165082841E+04  0.38989964285E+04 0.  0.
        1    1    3    3  502    0 -0.51327530344E+03 -0.18806363334E+04 -0.20233715010E+03  0.19598940987E+04  0.50400001928E-02 0. -1.
       -1    1    3    3    0  502  0.51327530344E+03  0.18806363334E+04 -0.16761418470E+03  0.19566141854E+04  0.50400001928E-02 0.  1.
</event>
<event>
 5   0  0.1164500E-08  0.3898210E+04  0.7818609E-02  0.8025402E-01
        1   -1    0    0  501    0  0.00000000000E+00  0.00000000000E+00  0.22484783613E+04  0.22484783613E+04  0.50400001928E-02 0.  1.
       -1   -1    0    0    0  501  0.00000000000E+00  0.00000000000E+00 -0.16895917813E+04  0.16895917813E+04  0.50400001928E-02 0. -1.
    10030    2    1    2    0    0  0.00000000000E+00  0.00000000000E+00  0.55888658000E+03  0.39380701426E+04  0.38982101327E+04 0.  0.
        4    1    3    3  502    0 -0.15115020239E+04  0.55953947262E+03  0.13866824509E+04  0.21261732343E+04  0.12699999809E+01 0.  1.
       -4    1    3    3    0  502  0.15115020239E+04 -0.55953947262E+03 -0.82779587093E+03  0.18118969083E+04  0.12699999809E+01 0. -1.
</event>
<event>
 5   0  0.3769985E-08  0.3886070E+04  0.7818609E-02  0.8027933E-01
       -2   -1    0    0    0  501  0.00000000000E+00  0.00000000000E+00  0.16060288406E+04  0.16060288406E+04  0.25500000920E-02 0. -1.
        2   -1    0    0  501    0  0.00000000000E+00  0.00000000000E+00 -0.23507577681E+04  0.23507577681E+04  0.25500000920E-02 0.  1.
    10030    2    1    2    0    0  0.00000000000E+00  0.00000000000E+00 -0.74472892752E+03  0.39567866087E+04  0.38860698773E+04 0.  0.
        1    1    3    3  502    0 -0.49687176927E+03 -0.16253003789E+04 -0.13312567287E+04  0.21588717781E+04  0.50400001928E-02 0.  1.
       -1    1    3    3    0  502  0.49687176927E+03  0.16253003789E+04  0.58652780115E+03  0.17979148306E+04  0.50400001928E-02 0. -1.
</event>
<event>
 5   0  0.1164500E-08  0.3891565E+04  0.7818609E-02  0.8026786E-01
       -1   -1    0    0    0  501  0.00000000000E+00  0.00000000000E+00  0.18853573504E+04  0.18853573504E+04  0.50400001928E-02 0.  1.
        1   -1    0    0  501    0  0.00000000000E+00  0.00000000000E+00 -0.20081445858E+04  0.20081445858E+04  0.50400001928E-02 0. -1.
    10030    2    1    2    0    0  0.00000000000E+00  0.00000000000E+00 -0.12278723532E+03  0.38935019362E+04  0.38915653177E+04 0.  0.
        1    1    3    3  502    0  0.88130443456E+03  0.61929046106E+03 -0.16826481039E+04  0.19978795817E+04  0.50400001928E-02 0. -1.
       -1    1    3    3    0  502 -0.88130443456E+03 -0.61929046106E+03  0.15598608686E+04  0.18956223545E+04  0.50400001928E-02 0.  1.
</event>
<event>
 5   0  0.3724293E-08  0.3919063E+04  0.7818609E-02  0.8021076E-01
        2   -1    0    0  501    0  0.00000000000E+00  0.00000000000E+00  0.13978447083E+04  0.13978447083E+04  0.25500000920E-02 0.  1.
       -2   -1    0    0    0  501  0.00000000000E+00  0.00000000000E+00 -0.27469173892E+04  0.27469173892E+04  0.25500000920E-02 0. -1.
    10030    2    1    2    0    0  0.00000000000E+00  0.00000000000E+00 -0.13490726809E+04  0.41447620975E+04  0.39190631211E+04 0.  0.
        4    1    3    3  502    0  0.23394741880E+03  0.69893577811E+03  0.12456580103E+04  0.14473797388E+04  0.12699999809E+01 0.  1.
       -4    1    3    3    0  502 -0.23394741880E+03 -0.69893577811E+03 -0.25947306912E+04  0.26973823588E+04  0.12699999809E+01 0. -1.
</event>
<event>
 5   0  0.3690572E-08  0.3897779E+04  0.7818609E-02  0.8025491E-01
       -2   -1    0    0    0  501  0.00000000000E+00  0.00000000000E+00  0.15544979094E+04  0.15544979094E+04  0.25500000920E-02 0. -1.
        2   -1    0    0  501    0  0.00000000000E+00  0.00000000000E+00 -0.24433416663E+04  0.24433416664E+04  0.25500000920E-02 0.  1.
    10030    2    1    2    0    0  0.00000000000E+00  0.00000000000E+00 -0.88884375695E+03  0.39978395758E+04  0.38977786044E+04 0.  0.
        3    1    3    3  502    0 -0.12161403905E+04  0.12824133400E+04 -0.12868396621E+04  0.21862153943E+04  0.10100000352E+00 0.  1.
       -3    1    3    3    0  502  0.12161403905E+04 -0.12824133400E+04  0.39799590517E+03  0.18116241815E+04  0.10100000352E+00 0. -1.
</event>
<event>
 5   0  0.3872969E-08  0.3903432E+04  0.7818609E-02  0.8024316E-01
        2   -1    0    0  501    0  0.00000000000E+00  0.00000000000E+00  0.17954818219E+04  0.17954818219E+04  0.25500000920E-02 0.  1.
       -2   -1    0    0    0  501  0.00000000000E+00  0.00000000000E+00 -0.21215445443E+04  0.21215445443E+04  0.25500000920E-02 0. -1.
    10030    2    1    2    0    0  0.00000000000E+00  0.00000000000E+00 -0.32606272248E+03  0.39170263662E+04  0.39034316511E+04 0.  0.
        2    1    3    3  502    0 -0.18368489180E+04  0.71261166130E+02  0.49507476023E+03  0.19037308422E+04  0.25500000920E-02 0.  1.
       -2    1    3    3    0  502  0.18368489180E+04 -0.71261166130E+02 -0.82113748271E+03  0.20132955240E+04  0.25500000920E-02 0. -1.
</event>
<event>
 5   0  0.3769985E-08  0.3902879E+04  0.7818609E-02  0.8024431E-01
        2   -1    0    0  501    0  0.00000000000E+00  0.00000000000E+00  0.31833233541E+04  0.31833233541E+04  0.25500000920E-02 0. -1.
       -2   -1    0    0    0  501  0.00000000000E+00  0.00000000000E+00 -0.11962706588E+04  0.11962706588E+04  0.25500000920E-02 0.  1.
    10030    2    1    2    0    0  0.00000000000E+00  0.00000000000E+00  0.19870526953E+04  0.43795940129E+04  0.39028791044E+04 0.  0.
        1    1    3    3  502    0  0.12077213138E+04  0.31060236551E+03  0.26778840843E+04  0.29540019922E+04  0.50400001928E-02 0. -1.
       -1    1    3    3    0  502 -0.12077213138E+04 -0.31060236551E+03 -0.69083138903E+03  0.14255920206E+04  0.50400001928E-02 0.  1.
</event>
<event>
 5   0  0.1164500E-08  0.3919283E+04  0.7818609E-02  0.8021031E-01
       -1   -1    0    0    0  501  0.00000000000E+00  0.00000000000E+00  0.34979431593E+04  0.34979431593E+04  0.50400001928E-02 0.  1.
        1   -1    0    0  501    0  0.00000000000E+00  0.00000000000E+00 -0.10978434996E+04  0.10978434996E+04  0.50400001928E-02 0. -1.
    10030    2    1    2    0    0  0.00000000000E+00  0.00000000000E+00  0.24000996597E+04  0.45957866589E+04  0.39192826688E+04 0.  0.
        4    1    3    3  502    0 -0.12816429208E+04  0.14760859559E+04  0.10394656388E+04  0.22140299801E+04  0.12699999809E+01 0. -1.
       -4    1    3    3    0  502  0.12816429208E+04 -0.14760859559E+04  0.13606340209E+04  0.23817566788E+04  0.12699999809E+01 0.  1.
</event>
<event>
 5   0  0.3872969E-08  0.3895486E+04  0.7818609E-02  0.8025969E-01
        2   -1    0    0  501    0  0.00000000000E+00  0.00000000000E+00  0.31734702668E+04  0.31734702668E+04  0.25500000920E-02 0.  1.
       -2   -1    0    0    0  501  0.00000000000E+00  0.00000000000E+00 -0.11954428738E+04  0.11954428738E+04  0.25500000920E-02 0. -1.
    10030    2    1    2    0    0  0.00000000000E+00  0.00000000000E+00  0.19780273930E+04  0.43689131406E+04  0.38954858057E+04 0.  0.
        2    1    3    3  502    0  0.16911999035E+04  0.44342873601E+03  0.26247455983E+02  0.17485637211E+04  0.25500000920E-02 0. -1.
       -2    1    3    3    0  502 -0.16911999035E+04 -0.44342873601E+03  0.19517799371E+04  0.26203494195E+04  0.25500000920E-02 0.  1.
</event>
<event>
 5   0  0.1164500E-08  0.3899249E+04  0.7818609E-02  0.8025185E-01
        1   -1    0    0  501    0  0.00000000000E+00  0.00000000000E+00  0.23375436502E+04  0.23375436503E+04  0.50400001928E-02 0. -1.
       -1   -1    0    0    0  501  0.00000000000E+00  0.00000000000E+00 -0.16260809612E+04  0.16260809612E+04  0.50400001928E-02 0.  1.
    10030    2    1    2    0    0  0.00000000000E+00  0.00000000000E+00  0.71146268904E+03  0.39636246115E+04  0.38992487613E+04 0.  0.
        5    1    3    3  502    0 -0.42622754529E+03  0.10876107919E+04 -0.12309509188E+04  0.16970060134E+04  0.46999998093E+01 0.  1.
       -5    1    3    3    0  502  0.42622754529E+03 -0.10876107919E+04  0.19424136078E+04  0.22666185981E+04  0.46999998093E+01 0. -1.
</event>
<event>
 5   0  0.1164500E-08  0.3903100E+04  0.7818609E-02  0.8024385E-01
        1   -1    0    0  501    0  0.00000000000E+00  0.00000000000E+00  0.25525390660E+04  0.25525390660E+04  0.50400001928E-02 0. -1.
       -1   -1    0    0    0  501  0.00000000000E+00  0.00000000000E+00 -0.14920621040E+04  0.14920621041E+04  0.50400001928E-02 0.  1.
    10030    2    1    2    0    0  0.00000000000E+00  0.00000000000E+00  0.10604769619E+04  0.40446011700E+04  0.39030996961E+04 0.  0.
        4    1    3    3  502    0 -0.95106776221E+03 -0.24990601168E+03  0.22770443774E+04  0.24803055482E+04  0.12699999809E+01 0. -1.
       -4    1    3    3    0  502  0.95106776221E+03  0.24990601168E+03 -0.12165674155E+04  0.15642956218E+04  0.12699999809E+01 0.  1.
</event>
<event>
 5   0  0.1164500E-08  0.3902600E+04  0.7818609E-02  0.8024489E-01
        1   -1    0    0  501    0  0.00000000000E+00  0.00000000000E+00  0.14610747141E+04  0.14610747141E+04  0.50400001928E-02 0.  1.
       -1   -1    0    0    0  501  0.00000000000E+00  0.00000000000E+00 -0.26060068565E+04  0.26060068565E+04  0.50400001928E-02 0. -1.
    10030    2    1    2    0    0  0.00000000000E+00  0.00000000000E+00 -0.11449321425E+04  0.40670815706E+04  0.39025995043E+04 0.  0.
        2    1    3    3  502    0  0.17010206327E+04 -0.84061290591E+03 -0.10471516075E+04  0.21671704454E+04  0.25500000920E-02 0.  1.
       -2    1    3    3    0  502 -0.17010206327E+04  0.84061290591E+03 -0.97780534966E+02  0.18999111252E+04  0.25500000920E-02 0. -1.
</event>
<event>
 5   0  0.1164500E-08  0.3906676E+04  0.7818609E-02  0.8023642E-01
        3   -1    0    0  501    0  0.00000000000E+00  0.00000000000E+00  0.19409274201E+04  0.19409274228E+04  0.10100000352E+00 0.  1.
       -3   -1    0    0    0  501  0.00000000000E+00  0.00000000000E+00 -0.19658274345E+04  0.19658274371E+04  0.10100000352E+00 0. -1.
    10030    2    1    2    0    0  0.00000000000E+00  0.00000000000E+00 -0.24900014359E+02  0.39067548598E+04  0.39066755079E+04 0.  0.
        2    1    3    3  502    0 -0.11643274998E+03 -0.57840206803E+03 -0.18745895574E+04  0.19652459252E+04  0.25500000920E-02 0. -1.
       -2    1    3    3    0  502  0.11643274998E+03  0.57840206803E+03  0.18496895431E+04  0.19415089347E+04  0.25500000920E-02 0.  1.
</event>
<event>
 5   0  0.3690572E-08  0.3897298E+04  0.7818609E-02  0.8025591E-01
        2   -1    0    0  501    0  0.00000000000E+00  0.00000000000E+00  0.30807906402E+04  0.30807906402E+04  0.25500000920E-02 0. -1.
       -2   -1    0    0    0  501  0.00000000000E+00  0.00000000000E+00 -0.12325516617E+04  0.12325516617E+04  0.25500000920E-02 0.  1.
    10030    2    1    2    0    0  0.00000000000E+00  0.00000000000E+00  0.18482389786E+04  0.43133423019E+04  0.38972983580E+04 0.  0.
        3    1    3    3  502    0  0.13047767546E+04  0.18205243719E+03  0.25132426003E+04  0.28376000154E+04  0.10100000352E+00 0. -1.
       -3    1    3    3    0  502 -0.13047767546E+04 -0.18205243719E+03 -0.66500362172E+03  0.14757422865E+04  0.10100000352E+00 0.  1.
</event>
<event>
 5   0  0.3724293E-08  0.3870759E+04  0.7818609E-02  0.8031138E-01
       -2   -1    0    0    0  501  0.00000000000E+00  0.00000000000E+00  0.27824862870E+04  0.27824862870E+04  0.25500000920E-02 0. -1.
        2   -1    0    0  501    0  0.00000000000E+00  0.00000000000E+00 -0.13461681208E+04  0.13461681208E+04  0.25500000920E-02 0.  1.
    10030    2    1    2    0    0  0.00000000000E+00  0.00000000000E+00  0.14363181662E+04  0.41286544078E+04  0.38707592724E+04 0.  0.
        4    1    3    3  502    0  0.84623691109E+03 -0.13003267440E+04  0.19522815132E+04  0.24936662308E+04  0.12699999809E+01 0. -1.
       -4    1    3    3    0  502 -0.84623691109E+03  0.13003267440E+04 -0.51596334694E+03  0.16349881771E+04  0.12699999809E+01 0.  1.
</event>
<event>
 5   0  0.3669347E-08  0.3900971E+04  0.7818609E-02  0.8024827E-01
        2   -1    0    0  501    0  0.00000000000E+00  0.00000000000E+00  0.16759198938E+04  0.16759198938E+04  0.25500000920E-02 0. -1.
       -2   -1    0    0    0  501  0.00000000000E+00  0.00000000000E+00 -0.22700326610E+04  0.22700326610E+04  0.25500000920E-02 0.  1.
    10030    2    1    2    0    0  0.00000000000E+00  0.00000000000E+00 -0.59411276721E+03  0.39459525549E+04  0.39009705952E+04 0.  0.
        5    1    3    3  502    0 -0.14016140805E+04  0.82210357628E+03  0.79426997257E+03  0.18086633739E+04  0.46999998093E+01 0. -1.
       -5    1    3    3    0  502  0.14016140805E+04 -0.82210357628E+03 -0.13883827398E+04  0.21372891809E+04  0.46999998093E+01 0.  1.
</event>
<event>
 5   0  0.1164500E-08  0.3897537E+04  0.7818609E-02  0.8025542E-01
        1   -1    0    0  501    0  0.00000000000E+00  0.00000000000E+00  0.30931326614E+04  0.30931326614E+04  0.50400001928E-02 0.  1.
       -1   -1    0    0    0  501  0.00000000000E+00  0.00000000000E+00 -0.12277837489E+04  0.12277837489E+04  0.50400001928E-02 0. -1.
    10030    2    1    2    0    0  0.00000000000E+00  0.00000000000E+00  0.18653489126E+04  0.43209164103E+04  0.38975366656E+04 0.  0.
        2    1    3    3  502    0 -0.74837855735E+02  0.15516848472E+04 -0.37172909253E+03  0.15973443862E+04  0.25500000920E-02 0. -1.
       -2    1    3    3    0  502  0.74837855735E+02 -0.15516848472E+04  0.22370780051E+04  0.27235720241E+04  0.25500000920E-02 0.  1.
</event>
<event>
 5   0  0.1164500E-08  0.3887125E+04  0.7818609E-02  0.8027712E-01
       -1   -1    0    0    0  501  0.00000000000E+00  0.00000000000E+00  0.14271430783E+04  0.14271430783E+04  0.50400001928E-02 0. -1.
        1   -1    0    0  501    0  0.00000000000E+00  0.00000000000E+00 -0.26468508878E+04  0.26468508878E+04  0.50400001928E-02 0.  1.
    10030    2    1    2    0    0  0.00000000000E+00  0.00000000000E+00 -0.12197078095E+04  0.40739939661E+04  0.38871248623E+04 0.  0.
        2    1    3    3  502    0  0.14405323983E+04 -0.33254740797E+03 -0.19321367009E+04  0.24328735273E+04  0.25500000920E-02 0.  1.
       -2    1    3    3    0  502 -0.14405323983E+04  0.33254740797E+03  0.71242889140E+03  0.16411204388E+04  0.25500000920E-02 0. -1.
</event>
<event>
 5   0  0.1164500E-08  0.3893946E+04  0.7818609E-02  0.8026289E-01
        1   -1    0    0  501    0  0.00000000000E+00  0.00000000000E+00  0.23261037468E+04  0.23261037468E+04  0.50400001928E-02 0.  1.
       -1   -1    0    0    0  501  0.00000000000E+00  0.00000000000E+00 -0.16296368601E+04  0.16296368601E+04  0.50400001928E-02 0. -1.
    10030    2    1    2    0    0  0.00000000000E+00  0.00000000000E+00  0.69646688667E+03  0.39557406069E+04  0.38939462791E+04 0.  0.
        4    1    3    3  502    0  0.68878360017E+01  0.19105293909E+04  0.72905953500E+03  0.20449203931E+04  0.12699999809E+01 0.  1.
       -4    1    3    3    0  502 -0.68878360017E+01 -0.19105293909E+04 -0.32592648332E+02  0.19108202138E+04  0.12699999809E+01 0. -1.
</event>
<event>
 5   0  0.1164500E-08  0.3901769E+04  0.7818609E-02  0.8024661E-01
       -1   -1    0    0    0  501  0.00000000000E+00  0.00000000000E+00  0.16581632130E+04  0.16581632130E+04  0.50400001928E-02 0. -1.
        1   -1    0    0  501    0  0.00000000000E+00  0.00000000000E+00 -0.22952803912E+04  0.22952803912E+04  0.50400001928E-02 0.  1.
    10030    2    1    2    0    0  0.00000000000E+00  0.00000000000E+00 -0.63711717824E+03  0.39534436043E+04  0.39017685776E+04 0.  0.
        3    1    3    3  502    0  0.17485603682E+04 -0.86400943489E+03 -0.27354234461E+03  0.19694672095E+04  0.10100000352E+00 0.  1.
       -3    1    3    3    0  502 -0.17485603682E+04  0.86400943489E+03 -0.36357483362E+03  0.19839763947E+04  0.10100000352E+00 0. -1.
</event>
<event>
 5   0  0.3724293E-08  0.3895395E+04  0.7818609E-02  0.8025988E-01
        2   -1    0    0  501    0  0.00000000000E+00  0.00000000000E+00  0.11990354002E+04  0.11990354002E+04  0.25500000920E-02 0.  1.
       -2   -1    0    0    0  501  0.00000000000E+00  0.00000000000E+00 -0.31638147991E+04  0.31638147991E+04  0.25500000920E-02 0. -1.
    10030    2    1    2    0    0  0.00000000000E+00  0.00000000000E+00 -0.19647793988E+04  0.43628501993E+04  0.38953952014E+04 0.  0.
        4    1    3    3  502    0  0.29962262207E+03  0.60688502861E+03 -0.30278705571E+04  0.31025932504E+04  0.12699999809E+01 0. -1.
       -4    1    3    3    0  502 -0.29962262207E+03 -0.60688502861E+03  0.10630911583E+04  0.12602569489E+04  0.12699999809E+01 0.  1.
</event>
<event>
 5   0  0.3669347E-08  0.3897559E+04  0.7818609E-02  0.8025537E-01
       -2   -1    0    0    0  501  0.00000000000E+00  0.00000000000E+00  0.14530436547E+04  0.14530436547E+04  0.25500000920E-02 0. -1.
        2   -1    0    0  501    0  0.00000000000E+00  0.00000000000E+00 -0.26136462643E+04  0.26136462643E+04  0.25500000920E-02 0.  1.
    10030    2    1    2    0    0  0.00000000000E+00  0.00000000000E+00 -0.11606026096E+04  0.40666899190E+04  0.38975592978E+04 0.  0.
        5    1    3    3  502    0  0.88945634010E+03  0.16078273861E+04 -0.12576870672E+04  0.22266657435E+04  0.46999998093E+01 0.  1.
       -5    1    3    3    0  502 -0.88945634010E+03 -0.16078273861E+04  0.97084457569E+02  0.18400241755E+04  0.46999998093E+01 0. -1.
</event>
<event>
 5   0  0.1164500E-08  0.3893946E+04  0.7818609E-02  0.8026290E-01
        1   -1    0    0  501    0  0.00000000000E+00  0.00000000000E+00  0.12513447553E+04  0.12513447553E+04  0.50400001928E-02 0.  1.
       -1   -1    0    0    0  501  0.00000000000E+00  0.00000000000E+00 -0.30293037471E+04  0.30293037471E+04  0.50400001928E-02 0. -1.
    10030    2    1    2    0    0  0.00000000000E+00  0.00000000000E+00 -0.17779589918E+04  0.42806485024E+04  0.38939457398E+04 0.  0.
        5    1    3    3  502    0 -0.10280755076E+04 -0.16307771910E+04 -0.11886450243E+04  0.22647897429E+04  0.46999998093E+01 0. -1.
       -5    1    3    3    0  502  0.10280755076E+04  0.16307771910E+04 -0.58931396754E+03  0.20158587595E+04  0.46999998093E+01 0.  1.
</event>
<event>
 5   0  0.3769985E-08  0.3901284E+04  0.7818609E-02  0.8024762E-01
        2   -1    0    0  501    0  0.00000000000E+00  0.00000000000E+00  0.26828504363E+04  0.26828504363E+04  0.25500000920E-02 0. -1.
       -2   -1    0    0    0  501  0.00000000000E+00  0.00000000000E+00 -0.14182694205E+04  0.14182694205E+04  0.25500000920E-02 0.  1.
    10030    2    1    2    0    0  0.00000000000E+00  0.00000000000E+00  0.12645810157E+04  0.41011198568E+04  0.39012842673E+04 0.  0.
        1    1    3    3  502    0  0.66007828972E+01 -0.18912294167E+03 -0.14085971177E+04  0.14212518768E+04  0.50400001928E-02 0.  1.
       -1    1    3    3    0  502 -0.66007828972E+01  0.18912294167E+03  0.26731781334E+04  0.26798679800E+04  0.50400001928E-02 0. -1.
</event>
<event>
 5   0  0.3872969E-08  0.3880218E+04  0.7818609E-02  0.8029156E-01
        2   -1    0    0  501    0  0.00000000000E+00  0.00000000000E+00  0.21692230274E+04  0.21692230274E+04  0.25500000920E-02 0.  1.
       -2   -1    0    0    0  501  0.00000000000E+00  0.00000000000E+00 -0.17351940405E+04  0.17351940405E+04  0.25500000920E-02 0. -1.
    10030    2    1    2    0    0  0.00000000000E+00  0.00000000000E+00  0.43402898683E+03  0.39044170679E+04  0.38802179679E+04 0.  0.
        2    1    3    3  502    0 -0.35359395351E+03  0.17918391216E+04  0.87554748665E+03  0.20254134203E+04  0.25500000920E-02 0.  1.
       -2    1    3    3    0  502  0.35359395351E+03 -0.17918391216E+04 -0.44151849982E+03  0.18790036476E+04  0.25500000920E-02 0. -1.
</event>
<event>
 5   0  0.3872969E-08  0.3908804E+04  0.7818609E-02  0.8023201E-01
        2   -1    0    0  501    0  0.00000000000E+00  0.00000000000E+00  0.18018638457E+04  0.18018638457E+04  0.25500000920E-02 0.  1.
       -2   -1    0    0    0  501  0.00000000000E+00  0.00000000000E+00 -0.21198533273E+04  0.21198533273E+04  0.25500000920E-02 0. -1.
    10030    2    1    2    0    0  0.00000000000E+00  0.00000000000E+00 -0.31798948158E+03  0.39217171730E+04  0.39088039442E+04 0.  0.
        2    1    3    3  502    0  0.42061841848E+03  0.69547070620E+03 -0.19422488119E+04  0.21054523990E+04  0.25500000920E-02 0. -1.
       -2    1    3    3    0  502 -0.42061841848E+03 -0.69547070620E+03  0.16242593303E+04  0.18162647740E+04  0.25500000920E-02 0.  1.
</event>
<event>
 5   0  0.1164500E-08  0.3901304E+04  0.7818609E-02  0.8024758E-01
       -1   -1    0    0    0  501  0.00000000000E+00  0.00000000000E+00  0.13320508701E+04  0.13320508701E+04  0.50400001928E-02 0. -1.
        1   -1    0    0  501    0  0.00000000000E+00  0.00000000000E+00 -0.28565293720E+04  0.28565293720E+04  0.50400001928E-02 0.  1.
    10030    2    1    2    0    0  0.00000000000E+00  0.00000000000E+00 -0.15244785019E+04  0.41885802421E+04  0.39013035951E+04 0.  0.
        4    1    3    3  502    0  0.25527272639E+03 -0.16331006965E+04 -0.18742996362E+04  0.24990363721E+04  0.12699999809E+01 0. -1.
       -4    1    3    3    0  502 -0.25527272639E+03  0.16331006965E+04  0.34982113431E+03  0.16895438700E+04  0.12699999809E+01 0.  1.
</event>
<event>
 5   0  0.1164500E-08  0.3895394E+04  0.7818609E-02  0.8025988E-01
        1   -1    0    0  501    0  0.00000000000E+00  0.00000000000E+00  0.13492864009E+04  0.13492864009E+04  0.50400001928E-02 0. -1.
       -1   -1    0    0    0  501  0.00000000000E+00  0.00000000000E+00 -0.28115032676E+04  0.28115032676E+04  0.50400001928E-02 0.  1.
    10030    2    1    2    0    0  0.00000000000E+00  0.00000000000E+00 -0.14622168667E+04  0.41607896685E+04  0.38953937542E+04 0.  0.
        1    1    3    3  502    0 -0.18979112005E+03  0.17789185592E+04  0.91387729698E+02  0.17913468750E+04  0.50400001928E-02 0. -1.
       -1    1    3    3    0  502  0.18979112005E+03 -0.17789185592E+04 -0.15536045964E+04  0.23694427934E+04  0.50400001928E-02 0.  1.
</event>
<event>
 5   0  0.3669347E-08  0.3969810E+04  0.7818609E-02  0.8010665E-01
       -2   -1    0    0    0  501  0.00000000000E+00  0.00000000000E+00  0.15119119960E+04  0.15119119960E+04  0.25500000920E-02 0. -1.
        2   -1    0    0  501    0  0.00000000000E+00  0.00000000000E+00 -0.26058712881E+04  0.26058712881E+04  0.25500000920E-02 0.  1.
    10030    2    1    2    0    0  0.00000000000E+00  0.00000000000E+00 -0.10939592921E+04  0.41177832841E+04  0.39698101015E+04 0.  0.
        5    1    3    3  502    0 -0.13170608681E+04 -0.11678823018E+04 -0.14983519461E+04  0.23116399039E+04  0.46999998093E+01 0.  1.
       -5    1    3    3    0  502  0.13170608681E+04  0.11678823018E+04  0.40439265398E+03  0.18061433802E+04  0.46999998093E+01 0. -1.
</event>
<event>
 5   0  0.1164500E-08  0.3889833E+04  0.7818609E-02  0.8027147E-01
        1   -1    0    0  501    0  0.00000000000E+00  0.00000000000E+00  0.26152656499E+04  0.26152656499E+04  0.50400001928E-02 0. -1.
       -1   -1    0    0    0  501  0.00000000000E+00  0.00000000000E+00 -0.14463922454E+04  0.14463922454E+04  0.50400001928E-02 0.  1.
    10030    2    1    2    0    0  0.00000000000E+00  0.00000000000E+00  0.11688734045E+04  0.40616578953E+04  0.38898328785E+04 0.  0.
        5    1    3    3  502    0  0.54302660292E+03  0.98269343133E+03  0.22427047002E+04  0.25080491888E+04  0.46999998093E+01 0. -1.
       -5    1    3    3    0  502 -0.54302660292E+03 -0.98269343133E+03 -0.10738312956E+04  0.15536087065E+04  0.46999998093E+01 0.  1.
</event>
<event>
 5   0  0.3872969E-08  0.3899393E+04  0.7818609E-02  0.8025156E-01
       -2   -1    0    0    0  501  0.00000000000E+00  0.00000000000E+00  0.15558833173E+04  0.15558833173E+04  0.25500000920E-02 0.  1.
        2   -1    0    0  501    0  0.00000000000E+00  0.00000000000E+00 -0.24431881331E+04  0.24431881331E+04  0.25500000920E-02 0. -1.
    10030    2    1    2    0    0  0.00000000000E+00  0.00000000000E+00 -0.88730481583E+03  0.39990714504E+04  0.38993925974E+04 0.  0.
        2    1    3    3  502    0 -0.14394444312E+04  0.90351955551E+02 -0.17891155416E+04  0.22980640043E+04  0.25500000920E-02 0. -1.
       -2    1    3    3    0  502  0.14394444312E+04 -0.90351955551E+02  0.90181072581E+03  0.17010074461E+04  0.25500000920E-02 0.  1.
</event>
<event>
 5   0  0.3724293E-08  0.3885464E+04  0.7818609E-02  0.8028059E-01
       -2   -1    0    0    0  501  0.00000000000E+00  0.00000000000E+00  0.23046967077E+04  0.23046967077E+04  0.25500000920E-02 0. -1.
        2   -1    0    0  501    0  0.00000000000E+00  0.00000000000E+00 -0.16376153536E+04  0.16376153536E+04  0.25500000920E-02 0.  1.
    10030    2    1    2    0    0  0.00000000000E+00  0.00000000000E+00  0.66708135407E+03  0.39423120612E+04  0.38854635316E+04 0.  0.
        4    1    3    3  502    0 -0.10034376686E+04  0.70518951594E+03 -0.11951638369E+04  0.17124828811E+04  0.12699999809E+01 0.  1.
       -4    1    3    3    0  502  0.10034376686E+04 -0.70518951594E+03  0.18622451910E+04  0.22298291801E+04  0.12699999809E+01 0. -1.
</event>
<event>
 5   0  0.1164500E-08  0.3884412E+04  0.7818609E-02  0.8028279E-01
       -1   -1    0    0    0  501  0.00000000000E+00  0.00000000000E+00  0.11676776175E+04  0.11676776175E+04  0.50400001928E-02 0. -1.
        1   -1    0    0  501    0  0.00000000000E+00  0.00000000000E+00 -0.32304845534E+04  0.32304845534E+04  0.50400001928E-02 0.  1.
    10030    2    1    2    0    0  0.00000000000E+00  0.00000000000E+00 -0.20628069359E+04  0.43981621709E+04  0.38844121855E+04 0.  0.
        4    1    3    3  502    0  0.14256650985E+04 -0.12066314740E+04 -0.42834123357E+03  0.19162354532E+04  0.12699999809E+01 0.  1.
       -4    1    3    3    0  502 -0.14256650985E+04  0.12066314740E+04 -0.16344657023E+04  0.24819267177E+04  0.12699999809E+01 0. -1.
</event>
<event>
 5   0  0.3669347E-08  0.3911494E+04  0.7818609E-02  0.8022643E-01
        2   -1    0    0  501    0  0.00000000000E+00  0.00000000000E+00  0.14943348293E+04  0.14943348293E+04  0.25500000920E-02 0.  1.
       -2   -1    0    0    0  501  0.00000000000E+00  0.00000000000E+00 -0.25596316846E+04  0.25596316846E+04  0.25500000920E-02 0. -1.
    10030    2    1    2    0    0  0.00000000000E+00  0.00000000000E+00 -0.10652968553E+04  0.40539665139E+04  0.39114942293E+04 0.  0.
        5    1    3    3  502    0 -0.88218381492E+03  0.14203972396E+02 -0.23416387670E+04  0.25023477458E+04  0.46999998093E+01 0. -1.
       -5    1    3    3    0  502  0.88218381492E+03 -0.14203972396E+02  0.12763419116E+04  0.15516187681E+04  0.46999998093E+01 0.  1.
</event>
<event>
 5   0  0.3690572E-08  0.3886034E+04  0.7818609E-02  0.8027940E-01
        2   -1    0    0  501    0  0.00000000000E+00  0.00000000000E+00  0.25261974946E+04  0.25261974946E+04  0.25500000920E-02 0. -1.
       -2   -1    0    0    0  501  0.00000000000E+00  0.00000000000E+00 -0.14944655209E+04  0.14944655209E+04  0.25500000920E-02 0.  1.
    10030    2    1    2    0    0  0.00000000000E+00  0.00000000000E+00  0.10317319737E+04  0.40206630155E+04  0.38860339961E+04 0.  0.
        3    1    3    3  502    0 -0.50651982015E+03  0.95555333083E+03  0.21859981186E+04  0.24388998095E+04  0.10100000352E+00 0. -1.
       -3    1    3    3    0  502  0.50651982015E+03 -0.95555333083E+03 -0.11542661449E+04  0.15817632060E+04  0.10100000352E+00 0.  1.
</event>
<event>
 5   0  0.3724293E-08  0.3888897E+04  0.7818609E-02  0.8027342E-01
        2   -1    0    0  501    0  0.00000000000E+00  0.00000000000E+00  0.25628650710E+04  0.25628650710E+04  0.25500000920E-02 0.  1.
       -2   -1    0    0    0  501  0.00000000000E+00  0.00000000000E+00 -0.14752554762E+04  0.14752554762E+04  0.25500000920E-02 0. -1.
    10030    2    1    2    0    0  0.00000000000E+00  0.00000000000E+00  0.10876095948E+04  0.40381205472E+04  0.38888973916E+04 0.  0.
        4    1    3    3  502    0  0.11828473101E+04  0.39591443484E+03 -0.10050763978E+04  0.16018914374E+04  0.12699999809E+01 0. -1.
       -4    1    3    3    0  502 -0.11828473101E+04 -0.39591443484E+03  0.20926859926E+04  0.24362291098E+04  0.12699999809E+01 0.  1.
</event>
<event>
 5   0  0.1164500E-08  0.3900129E+04  0.7818609E-02  0.8025002E-01
        1   -1    0    0  501    0  0.00000000000E+00  0.00000000000E+00  0.27742879302E+04  0.27742879302E+04  0.50400001928E-02 0. -1.
       -1   -1    0    0    0  501  0.00000000000E+00  0.00000000000E+00 -0.13707123062E+04  0.13707123062E+04  0.50400001928E-02 0.  1.
    10030    2    1    2    0    0  0.00000000000E+00  0.00000000000E+00  0.14035756240E+04  0.41450002365E+04  0.39001285143E+04 0.  0.
        2    1    3    3  502    0 -0.16783094676E+03 -0.11031726090E+04 -0.99786966052E+03  0.14969638911E+04  0.25500000920E-02 0.  1.
       -2    1    3    3    0  502  0.16783094676E+03  0.11031726090E+04  0.24014452845E+04  0.26480363454E+04  0.25500000920E-02 0. -1.
</event>
<event>
 5   0  0.3669347E-08  0.3908723E+04  0.7818609E-02  0.8023217E-01
        2   -1    0    0  501    0  0.00000000000E+00  0.00000000000E+00  0.26265767969E+04  0.26265767969E+04  0.25500000920E-02 0. -1.
       -2   -1    0    0    0  501  0.00000000000E+00  0.00000000000E+00 -0.14541851635E+04  0.14541851635E+04  0.25500000920E-02 0.  1.
    10030    2    1    2    0    0  0.00000000000E+00  0.00000000000E+00  0.11723916333E+04  0.40807619604E+04  0.39087230697E+04 0.  0.
        5    1    3    3  502    0 -0.59692143992E+03  0.23199523784E+02  0.25289187962E+04  0.25985199232E+04  0.46999998093E+01 0. -1.
       -5    1    3    3    0  502  0.59692143992E+03 -0.23199523784E+02 -0.13565271629E+04  0.14822420372E+04  0.46999998093E+01 0.  1.
</event>
<event>
 5   0  0.1164500E-08  0.3898019E+04  0.7818609E-02  0.8025441E-01
       -1   -1    0    0    0  501  0.00000000000E+00  0.00000000000E+00  0.17408254126E+04  0.17408254127E+04  0.50400001928E-02 0.  1.
        1   -1    0    0  501    0  0.00000000000E+00  0.00000000000E+00 -0.21820904074E+04  0.21820904074E+04  0.50400001928E-02 0. -1.
    10030    2    1    2    0    0  0.00000000000E+00  0.00000000000E+00 -0.44126499471E+03  0.39229158200E+04  0.38980192066E+04 0.  0.
        5    1    3    3  502    0  0.12476177129E+04  0.77660090748E+03  0.10677619640E+04  0.18165342356E+04  0.46999998093E+01 0.  1.
       -5    1    3    3    0  502 -0.12476177129E+04 -0.77660090748E+03 -0.15090269587E+04  0.21063815845E+04  0.46999998093E+01 0. -1.
</event>
<event>
 5   0  0.3724293E-08  0.3900827E+04  0.7818609E-02  0.8024857E-01
        2   -1    0    0  501    0  0.00000000000E+00  0.00000000000E+00  0.14268623431E+04  0.14268623431E+04  0.25500000920E-02 0.  1.
       -2   -1    0    0    0  501  0.00000000000E+00  0.00000000000E+00 -0.26660681232E+04  0.26660681232E+04  0.25500000920E-02 0. -1.
    10030    2    1    2    0    0  0.00000000000E+00  0.00000000000E+00 -0.12392057800E+04  0.40929304663E+04  0.39008266863E+04 0.  0.
        4    1    3    3  502    0  0.13772354569E+04 -0.45246615705E+03 -0.19887022855E+04  0.24609838521E+04  0.12699999809E+01 0. -1.
       -4    1    3    3    0  502 -0.13772354569E+04  0.45246615705E+03  0.74949650543E+03  0.16319466142E+04  0.12699999809E+01 0.  1.
</event>
<event>
 5   0  0.1164500E-08  0.3898738E+04  0.7818609E-02  0.8025292E-01
        1   -1    0    0  501    0  0.00000000000E+00  0.00000000000E+00  0.14422051936E+04  0.14422051936E+04  0.50400001928E-02 0.  1.
       -1   -1    0    0    0  501  0.00000000000E+00  0.00000000000E+00 -0.26348819510E+04  0.26348819510E+04  0.50400001928E-02 0. -1.
    10030    2    1    2    0    0  0.00000000000E+00  0.00000000000E+00 -0.11926767574E+04  0.40770871445E+04  0.38987384801E+04 0.  0.
        1    1    3    3  502    0  0.88799728885E+02 -0.17705991235E+04 -0.14440590788E+04  0.22865286508E+04  0.50400001928E-02 0. -1.
       -1    1    3    3    0  502 -0.88799728885E+02  0.17705991235E+04  0.25138232140E+03  0.17905584937E+04  0.50400001928E-02 0.  1.
</event>
<event>
 5   0  0.3669347E-08  0.3901693E+04  0.7818609E-02  0.8024677E-01
        2   -1    0    0  501    0  0.00000000000E+00  0.00000000000E+00  0.18953139093E+04  0.18953139093E+04  0.25500000920E-02 0.  1.
       -2   -1    0    0    0  501  0.00000000000E+00  0.00000000000E+00 -0.20080063206E+04  0.20080063206E+04  0.25500000920E-02 0. -1.
    10030    2    1    2    0    0  0.00000000000E+00  0.00000000000E+00 -0.11269241134E+03  0.39033202299E+04  0.39016931245E+04 0.  0.
        5    1    3    3  502    0  0.12288788745E+04  0.14942266006E+04  0.19460456608E+03  0.19444149375E+04  0.46999998093E+01 0. -1.
       -5    1    3    3    0  502 -0.12288788745E+04 -0.14942266006E+04 -0.30729697743E+03  0.19589052924E+04  0.46999998093E+01 0.  1.
</event>
<event>
 5   0  0.1164500E-08  0.3908485E+04  0.7818609E-02  0.8023267E-01
       -1   -1    0    0    0  501  0.00000000000E+00  0.00000000000E+00  0.14043831837E+04  0.14043831837E+04  0.50400001928E-02 0. -1.
        1   -1    0    0  501    0  0.00000000000E+00  0.00000000000E+00 -0.27193881716E+04  0.27193881716E+04  0.50400001928E-02 0.  1.
    10030    2    1    2    0    0  0.00000000000E+00  0.00000000000E+00 -0.13150049879E+04  0.41237713553E+04  0.39084846261E+04 0.  0.
        5    1    3    3  502    0 -0.15674293216E+04  0.11433224735E+04 -0.41001893648E+03  0.19829671139E+04  0.46999998093E+01 0. -1.
       -5    1    3    3    0  502  0.15674293216E+04 -0.11433224735E+04 -0.90498605144E+03  0.21408042414E+04  0.46999998093E+01 0.  1.
</event>
<event>
 5   0  0.1164500E-08  0.3895532E+04  0.7818609E-02  0.8025959E-01
        1   -1    0    0  501    0  0.00000000000E+00  0.00000000000E+00  0.24268402261E+04  0.24268402261E+04  0.50400001928E-02 0.  1.
       -1   -1    0    0    0  501  0.00000000000E+00  0.00000000000E+00 -0.15632638581E+04  0.15632638581E+04  0.50400001928E-02 0. -1.
    10030    2    1    2    0    0  0.00000000000E+00  0.00000000000E+00  0.86357636802E+03  0.39901040842E+04  0.38955316017E+04 0.  0.
        5    1    3    3  502    0 -0.12235666680E+04  0.15141175596E+04  0.36618525222E+03  0.19808536302E+04  0.46999998093E+01 0.  1.
       -5    1    3    3    0  502  0.12235666680E+04 -0.15141175596E+04  0.49739111580E+03  0.20092504541E+04  0.46999998093E+01 0. -1.
</event>
<event>
 5   0  0.3669347E-08  0.3899132E+04  0.7818609E-02  0.8025210E-01
        2   -1    0    0  501    0  0.00000000000E+00  0.00000000000E+00  0.18574425788E+04  0.18574425788E+04  0.25500000920E-02 0.  1.
       -2   -1    0    0    0  501  0.00000000000E+00  0.00000000000E+00 -0.20462587292E+04  0.20462587292E+04  0.25500000920E-02 0. -1.
    10030    2    1    2    0    0  0.00000000000E+00  0.00000000000E+00 -0.18881615040E+03  0.39037013080E+04  0.38991322577E+04 0.  0.
        5    1    3    3  502    0 -0.12245549929E+04  0.14157742050E+04  0.45105553185E+03  0.19254674012E+04  0.46999998093E+01 0.  1.
       -5    1    3    3    0  502  0.12245549929E+04 -0.14157742050E+04 -0.63987168225E+03  0.19782339068E+04  0.46999998093E+01 0. -1.
</event>
<event>
 5   0  0.1164500E-08  0.3898196E+04  0.7818609E-02  0.8025405E-01
       -1   -1    0    0    0  501  0.00000000000E+00  0.00000000000E+00  0.30341457734E+04  0.30341457734E+04  0.50400001928E-02 0.  1.
        1   -1    0    0  501    0  0.00000000000E+00  0.00000000000E+00 -0.12520763665E+04  0.12520763665E+04  0.50400001928E-02 0. -1.
    10030    2    1    2    0    0  0.00000000000E+00  0.00000000000E+00  0.17820694069E+04  0.42862221399E+04  0.38981955905E+04 0.  0.
        1    1    3    3  502    0 -0.17507432959E+04  0.29506003873E+03  0.67285053993E+01  0.17754457996E+04  0.50400001928E-02 0.  1.
       -1    1    3    3    0  502  0.17507432959E+04 -0.29506003873E+03  0.17753409015E+04  0.25107763403E+04  0.50400001928E-02 0. -1.
</event>
<event>
 5   0  0.1164500E-08  0.3898892E+04  0.7818609E-02  0.8025260E-01
        1   -1    0    0  501    0  0.00000000000E+00  0.00000000000E+00  0.17079287151E+04  0.17079287151E+04  0.50400001928E-02 0. -1.
       -1   -1    0    0    0  501  0.00000000000E+00  0.00000000000E+00 -0.22251157776E+04  0.22251157776E+04  0.50400001928E-02 0.  1.
    10030    2    1    2    0    0  0.00000000000E+00  0.00000000000E+00 -0.51718706253E+03  0.39330444927E+04  0.38988917046E+04 0.  0.
        4    1    3    3  502    0  0.76173059019E+03  0.47698686919E+03 -0.20036565682E+04  0.21959943583E+04  0.12699999809E+01 0.  1.
       -4    1    3    3    0  502 -0.76173059019E+03 -0.47698686919E+03  0.14864695056E+04  0.17370501344E+04  0.12699999809E+01 0. -1.
</event>
<event>
 5   0  0.1164500E-08  0.3894752E+04  0.7818609E-02  0.8026122E-01
       -1   -1    0    0    0  501  0.00000000000E+00  0.00000000000E+00  0.25509540828E+04  0.25509540828E+04  0.50400001928E-02 0. -1.
        1   -1    0    0  501    0  0.00000000000E+00  0.00000000000E+00 -0.14866094400E+04  0.14866094400E+04  0.50400001928E-02 0.  1.
    10030    2    1    2    0    0  0.00000000000E+00  0.00000000000E+00  0.10643446428E+04  0.40375635228E+04  0.38947515559E+04 0.  0.
        5    1    3    3  502    0 -0.10294545196E+04 -0.16420163587E+04  0.72956432504E+03  0.20708163908E+04  0.46999998093E+01 0.  1.
       -5    1    3    3    0  502  0.10294545196E+04  0.16420163587E+04  0.33478031775E+03  0.19667471320E+04  0.46999998093E+01 0. -1.
</event>
<event>
 5   0  0.1164500E-08  0.3900001E+04  0.7818609E-02  0.8025029E-01
       -1   -1    0    0    0  501  0.00000000000E+00  0.00000000000E+00  0.24553684521E+04  0.24553684521E+04  0.50400001928E-02 0.  1.
        1   -1    0    0  501    0  0.00000000000E+00  0.00000000000E+00 -0.15486482830E+04  0.15486482830E+04  0.50400001928E-02 0. -1.
    10030    2    1    2    0    0  0.00000000000E+00  0.00000000000E+00  0.90672016907E+03  0.40040167351E+04  0.39000010961E+04 0.  0.
        4    1    3    3  502    0 -0.14296025612E+04 -0.61811943898E+03 -0.75124683545E+03  0.17292219477E+04  0.12699999809E+01 0. -1.
       -4    1    3    3    0  502  0.14296025612E+04  0.61811943898E+03  0.16579670045E+04  0.22747947874E+04  0.12699999809E+01 0.  1.
</event>
<event>
 5   0  0.1164500E-08  0.3899569E+04  0.7818609E-02  0.8025119E-01
        1   -1    0    0  501    0  0.00000000000E+00  0.00000000000E+00  0.27586794329E+04  0.27586794329E+04  0.50400001928E-02 0. -1.
       -1   -1    0    0    0  501  0.00000000000E+00  0.00000000000E+00 -0.13780720438E+04  0.13780720438E+04  0.50400001928E-02 0.  1.
    10030    2    1    2    0    0  0.00000000000E+00  0.00000000000E+00  0.13806073890E+04  0.41367514767E+04  0.38995686963E+04 0.  0.
        4    1    3    3  502    0  0.15072195375E+04  0.11588085233E+04  0.11491748215E+04  0.22215202703E+04  0.12699999809E+01 0. -1.
       -4    1    3    3    0  502 -0.15072195375E+04 -0.11588085233E+04  0.23143256755E+03  0.19152312064E+04  0.12699999809E+01 0.  1.
</event>
<event>
 5   0  0.1164500E-08  0.3878931E+04  0.7818609E-02  0.8029426E-01
        1   -1    0    0  501    0  0.00000000000E+00  0.00000000000E+00  0.14951380510E+04  0.14951380510E+04  0.50400001928E-02 0.  1.
       -1   -1    0    0    0  501  0.00000000000E+00  0.00000000000E+00 -0.25158386382E+04  0.25158386382E+04  0.50400001928E-02 0. -1.
    10030    2    1    2    0    0  0.00000000000E+00  0.00000000000E+00 -0.10207005872E+04  0.40109766893E+04  0.38789308209E+04 0.  0.
        4    1    3    3  502    0  0.18954282050E+04 -0.34978135464E+03 -0.73340006325E+03  0.20622493404E+04  0.12699999809E+01 0. -1.
       -4    1    3    3    0  502 -0.18954282050E+04  0.34978135464E+03 -0.28730052394E+03  0.19487273489E+04  0.12699999809E+01 0.  1.
</event>
<event>
 5   0  0.1164500E-08  0.3899061E+04  0.7818609E-02  0.8025224E-01
        1   -1    0    0  501    0  0.00000000000E+00  0.00000000000E+00  0.30981743557E+04  0.30981743557E+04  0.50400001928E-02 0.  1.
       -1   -1    0    0    0  501  0.00000000000E+00  0.00000000000E+00 -0.12267448735E+04  0.12267448736E+04  0.50400001928E-02 0. -1.
    10030    2    1    2    0    0  0.00000000000E+00  0.00000000000E+00  0.18714294822E+04  0.43249192293E+04  0.38990611733E+04 0.  0.
        3    1    3    3  502    0  0.95531318444E+03  0.95583735928E+03  0.24943261487E+04  0.28368840801E+04  0.10100000352E+00 0.  1.
       -3    1    3    3    0  502 -0.95531318444E+03 -0.95583735928E+03 -0.62289666652E+03  0.14880351492E+04  0.10100000352E+00 0. -1.
</event>
<event>
 5   0  0.3872969E-08  0.3900628E+04  0.7818609E-02  0.8024899E-01
       -2   -1    0    0    0  501  0.00000000000E+00  0.00000000000E+00  0.15289254317E+04  0.15289254317E+04  0.25500000920E-02 0. -1.
        2   -1    0    0  501    0  0.00000000000E+00  0.00000000000E+00 -0.24878424657E+04  0.24878424657E+04  0.25500000920E-02 0.  1.
    10030    2    1    2    0    0  0.00000000000E+00  0.00000000000E+00 -0.95891703407E+03  0.40167678974E+04  0.39006284703E+04 0.  0.
        2    1    3    3  502    0  0.10031845401E+04  0.74682823793E+03 -0.20205442385E+04  0.23762850540E+04  0.25500000920E-02 0.  1.
       -2    1    3    3    0  502 -0.10031845401E+04 -0.74682823793E+03  0.10616272044E+04  0.16404828434E+04  0.25500000920E-02 0. -1.
</event>
<event>
 5   0  0.1164500E-08  0.3891251E+04  0.7818609E-02  0.8026851E-01
       -1   -1    0    0    0  501  0.00000000000E+00  0.00000000000E+00  0.24352235529E+04  0.24352235529E+04  0.50400001928E-02 0. -1.
        1   -1    0    0  501    0  0.00000000000E+00  0.00000000000E+00 -0.15544605420E+04  0.15544605420E+04  0.50400001928E-02 0.  1.
    10030    2    1    2    0    0  0.00000000000E+00  0.00000000000E+00  0.88076301092E+03  0.39896840949E+04  0.38912511735E+04 0.  0.
        3    1    3    3  502    0 -0.18297529120E+04  0.25529191578E+03  0.10659710511E+04  0.21329472504E+04  0.10100000352E+00 0. -1.
       -3    1    3    3    0  502  0.18297529120E+04 -0.25529191578E+03 -0.18520804018E+03  0.18567368444E+04  0.10100000352E+00 0.  1.
</event>
<event>
 5   0  0.1164500E-08  0.3895578E+04  0.7818609E-02  0.8025950E-01
       -1   -1    0    0    0  501  0.00000000000E+00  0.00000000000E+00  0.33631749332E+04  0.33631749332E+04  0.50400001928E-02 0. -1.
        1   -1    0    0  501    0  0.00000000000E+00  0.00000000000E+00 -0.11280655384E+04  0.11280655384E+04  0.50400001928E-02 0.  1.
    10030    2    1    2    0    0  0.00000000000E+00  0.00000000000E+00  0.22351093948E+04  0.44912404716E+04  0.38955778733E+04 0.  0.
        1    1    3    3  502    0  0.10980750544E+04  0.12126134918E+04  0.23364136097E+04  0.28521971989E+04  0.50400001928E-02 0.  1.
       -1    1    3    3    0  502 -0.10980750544E+04 -0.12126134918E+04 -0.10130421494E+03  0.16390432727E+04  0.50400001928E-02 0. -1.
</event>
<event>
 5   0  0.3669347E-08  0.3893114E+04  0.7818609E-02  0.8026463E-01
       -2   -1    0    0    0  501  0.00000000000E+00  0.00000000000E+00  0.27345315026E+04  0.27345315026E+04  0.25500000920E-02 0.  1.
        2   -1    0    0  501    0  0.00000000000E+00  0.00000000000E+00 -0.13856428828E+04  0.13856428828E+04  0.25500000920E-02 0. -1.
    10030    2    1    2    0    0  0.00000000000E+00  0.00000000000E+00  0.13488886198E+04  0.41201743854E+04  0.38931139795E+04 0.  0.
        5    1    3    3  502    0  0.13426592248E+04  0.10765816865E+04 -0.28816491235E+03  0.17449421275E+04  0.46999998093E+01 0. -1.
       -5    1    3    3    0  502 -0.13426592248E+04 -0.10765816865E+04  0.16370535322E+04  0.23752322579E+04  0.46999998093E+01 0.  1.
</event>
<event>
 5   0  0.1164500E-08  0.3887426E+04  0.7818609E-02  0.8027649E-01
        1   -1    0    0  501    0  0.00000000000E+00  0.00000000000E+00  0.14815636128E+04  0.14815636128E+04  0.50400001928E-02 0. -1.
       -1   -1    0    0    0  501  0.00000000000E+00  0.00000000000E+00 -0.25500221241E+04  0.25500221241E+04  0.50400001928E-02 0.  1.
    10030    2    1    2    0    0  0.00000000000E+00  0.00000000000E+00 -0.10684585113E+04  0.40315857369E+04  0.38874258789E+04 0.  0.
        2    1    3    3  502    0  0.49024759676E+03  0.30627524963E+03 -0.24588152766E+04  0.25258503121E+04  0.25500000920E-02 0.  1.
       -2    1    3    3    0  502 -0.49024759676E+03 -0.30627524963E+03  0.13903567653E+04  0.15057354248E+04  0.25500000920E-02 0. -1.
</event>
<event>
 5   0  0.1164500E-08  0.3897490E+04  0.7818609E-02  0.8025551E-01
       -1   -1    0    0    0  501  0.00000000000E+00  0.00000000000E+00  0.15706172095E+04  0.15706172095E+04  0.50400001928E-02 0.  1.
        1   -1    0    0  501    0  0.00000000000E+00  0.00000000000E+00 -0.24179077480E+04  0.24179077480E+04  0.50400001928E-02 0. -1.
    10030    2    1    2    0    0  0.00000000000E+00  0.00000000000E+00 -0.84729053854E+03  0.39885249576E+04  0.38974902284E+04 0.  0.
        5    1    3    3  502    0  0.15309817783E+04  0.83806458869E+03  0.46339238802E+03  0.18058272496E+04  0.46999998093E+01 0.  1.
       -5    1    3    3    0  502 -0.15309817783E+04 -0.83806458869E+03 -0.13106829266E+04  0.21826977079E+04  0.46999998093E+01 0. -1.
</event>
<event>
 5   0  0.1164500E-08  0.3891927E+04  0.7818609E-02  0.8026710E-01
        1   -1    0    0  501    0  0.00000000000E+00  0.00000000000E+00  0.30580990959E+04  0.30580990959E+04  0.50400001928E-02 0. -1.
       -1   -1    0    0    0  501  0.00000000000E+00  0.00000000000E+00 -0.12382771648E+04  0.12382771648E+04  0.50400001928E-02 0.  1.
    10030    2    1    2    0    0  0.00000000000E+00  0.00000000000E+00  0.18198219311E+04  0.42963762607E+04  0.38919271721E+04 0.  0.
        4    1    3    3  502    0 -0.11534896461E+04 -0.85666995970E+03  0.23586775457E+04  0.27618441594E+04  0.12699999809E+01 0. -1.
       -4    1    3    3    0  502  0.11534896461E+04  0.85666995970E+03 -0.53885561467E+03  0.15345321013E+04  0.12699999809E+01 0.  1.
</event>
<event>
 5   0  0.1164500E-08  0.3922600E+04  0.7818609E-02  0.8020345E-01
       -1   -1    0    0    0  501  0.00000000000E+00  0.00000000000E+00  0.14801060240E+04  0.14801060240E+04  0.50400001928E-02 0.  1.
        1   -1    0    0  501    0  0.00000000000E+00  0.00000000000E+00 -0.25989333498E+04  0.25989333498E+04  0.50400001928E-02 0. -1.
    10030    2    1    2    0    0  0.00000000000E+00  0.00000000000E+00 -0.11188273258E+04  0.40790393737E+04  0.39225996007E+04 0.  0.
        4    1    3    3  502    0 -0.15655224206E+04  0.11535707997E+04 -0.29407210167E+03  0.19667399556E+04  0.12699999809E+01 0.  1.
       -4    1    3    3    0  502  0.15655224206E+04 -0.11535707997E+04 -0.82475522415E+03  0.21122994181E+04  0.12699999809E+01 0. -1.
</event>
<event>
 5   0  0.3724293E-08  0.3896696E+04  0.7818609E-02  0.8025717E-01
        2   -1    0    0  501    0  0.00000000000E+00  0.00000000000E+00  0.20196221039E+04  0.20196221039E+04  0.25500000920E-02 0. -1.
       -2   -1    0    0    0  501  0.00000000000E+00  0.00000000000E+00 -0.18795895972E+04  0.18795895972E+04  0.25500000920E-02 0.  1.
    10030    2    1    2    0    0  0.00000000000E+00  0.00000000000E+00  0.14003250671E+03  0.38992117010E+04  0.38966963939E+04 0.  0.
        4    1    3    3  502    0 -0.11095140815E+03  0.19320592687E+04  0.29576296667E+03  0.19577130990E+04  0.12699999809E+01 0.  1.
       -4    1    3    3    0  502  0.11095140815E+03 -0.19320592687E+04 -0.15573045996E+03  0.19414986020E+04  0.12699999809E+01 0. -1.
</event>
<event>
 5   0  0.1164500E-08  0.3898211E+04  0.7818609E-02  0.8025401E-01
        1   -1    0    0  501    0  0.00000000000E+00  0.00000000000E+00  0.18948123995E+04  0.18948123995E+04  0.50400001928E-02 0. -1.
       -1   -1    0    0    0  501  0.00000000000E+00  0.00000000000E+00 -0.20049543382E+04  0.20049543382E+04  0.50400001928E-02 0.  1.
    10030    2    1    2    0    0  0.00000000000E+00  0.00000000000E+00 -0.11014193879E+03  0.38997667377E+04  0.38982110463E+04 0.  0.
        3    1    3    3  502    0 -0.47133104861E+03 -0.37353220527E+03 -0.19098154644E+04  0.20022673109E+04  0.10100000352E+00 0.  1.
       -3    1    3    3    0  502  0.47133104861E+03  0.37353220527E+03  0.17996735256E+04  0.18974994268E+04  0.10100000352E+00 0. -1.
</event>
<event>
 5   0  0.3872969E-08  0.3902916E+04  0.7818609E-02  0.8024423E-01
        2   -1    0    0  501    0  0.00000000000E+00  0.00000000000E+00  0.25434922938E+04  0.25434922938E+04  0.25500000920E-02 0.  1.
       -2   -1    0    0    0  501  0.00000000000E+00  0.00000000000E+00 -0.14972283475E+04  0.14972283475E+04  0.25500000920E-02 0. -1.
    10030    2    1    2    0    0  0.00000000000E+00  0.00000000000E+00  0.10462639463E+04  0.40407206413E+04  0.39029162246E+04 0.  0.
        2    1    3    3  502    0  0.74811952274E+03 -0.18018881082E+04  0.56588392127E+03  0.20314300842E+04  0.25500000920E-02 0.  1.
       -2    1    3    3    0  502 -0.74811952274E+03  0.18018881082E+04  0.48038002504E+03  0.20092905572E+04  0.25500000920E-02 0. -1.
</event>
<event>
 5   0  0.3669347E-08  0.3902356E+04  0.7818609E-02  0.8024539E-01
       -2   -1    0    0    0  501  0.00000000000E+00  0.00000000000E+00  0.14058672838E+04  0.14058672838E+04  0.25500000920E-02 0. -1.
        2   -1    0    0  501    0  0.00000000000E+00  0.00000000000E+00 -0.27080050515E+04  0.27080050515E+04  0.25500000920E-02 0.  1.
    10030    2    1    2    0    0  0.00000000000E+00  0.00000000000E+00 -0.13021377677E+04  0.41138723352E+04  0.39023560607E+04 0.  0.
        5    1    3    3  502    0 -0.42307745691E+03  0.96313601095E+03 -0.23834435944E+04  0.26052736839E+04  0.46999998093E+01 0.  1.
       -5    1    3    3    0  502  0.42307745691E+03 -0.96313601095E+03  0.10813058267E+04  0.15085986514E+04  0.46999998093E+01 0. -1.
</event>
<event>
 5   0  0.3690572E-08  0.3891281E+04  0.7818609E-02  0.8026845E-01
        2   -1    0    0  501    0  0.00000000000E+00  0.00000000000E+00  0.29246890562E+04  0.29246890562E+04  0.25500000920E-02 0.  1.
       -2   -1    0    0    0  501  0.00000000000E+00  0.00000000000E+00 -0.12943315244E+04  0.12943315244E+04  0.25500000920E-02 0. -1.
    10030    2    1    2    0    0  0.00000000000E+00  0.00000000000E+00  0.16303575318E+04  0.42190205807E+04  0.38912811488E+04 0.  0.
        3    1    3    3  502    0  0.29476321402E+03  0.13287950575E+04  0.23225760332E+04  0.26920143197E+04  0.10100000352E+00 0.  1.
       -3    1    3    3    0  502 -0.29476321402E+03 -0.13287950575E+04 -0.69221850141E+03  0.15270062610E+04  0.10100000352E+00 0. -1.
</event>
<event>
 5   0  0.1164500E-08  0.3891002E+04  0.7818609E-02  0.8026903E-01
       -1   -1    0    0    0  501  0.00000000000E+00  0.00000000000E+00  0.16864250897E+04  0.16864250897E+04  0.50400001928E-02 0. -1.
        1   -1    0    0  501    0  0.00000000000E+00  0.00000000000E+00 -0.22443771239E+04  0.22443771239E+04  0.50400001928E-02 0.  1.
    10030    2    1    2    0    0  0.00000000000E+00  0.00000000000E+00 -0.55795203416E+03  0.39308022136E+04  0.38910018722E+04 0.  0.
        2    1    3    3  502    0  0.19102771378E+03  0.14039856692E+04 -0.16257692400E+04  0.21565697226E+04  0.25500000920E-02 0.  1.
       -2    1    3    3    0  502 -0.19102771378E+03 -0.14039856692E+04  0.10678172058E+04  0.17742324909E+04  0.25500000920E-02 0. -1.
</event>
<event>
 5   0  0.3690572E-08  0.3888974E+04  0.7818609E-02  0.8027326E-01
        2   -1    0    0  501    0  0.00000000000E+00  0.00000000000E+00  0.14549725590E+04  0.14549725590E+04  0.25500000920E-02 0.  1.
       -2   -1    0    0    0  501  0.00000000000E+00  0.00000000000E+00 -0.25986943279E+04  0.25986943279E+04  0.25500000920E-02 0. -1.
    10030    2    1    2    0    0  0.00000000000E+00  0.00000000000E+00 -0.11437217689E+04  0.40536668869E+04  0.38889736108E+04 0.  0.
        3    1    3    3  502    0  0.91587445729E+03 -0.58900776477E+03 -0.22510691572E+04  0.25006136306E+04  0.10100000352E+00 0. -1.
       -3    1    3    3    0  502 -0.91587445729E+03  0.58900776477E+03  0.11073473883E+04  0.15530532563E+04  0.10100000352E+00 0.  1.
</event>
<event>
 5   0  0.1164500E-08  0.3903935E+04  0.7818609E-02  0.8024211E-01
       -1   -1    0    0    0  501  0.00000000000E+00  0.00000000000E+00  0.15740749557E+04  0.15740749557E+04  0.50400001928E-02 0.  1.
        1   -1    0    0  501    0  0.00000000000E+00  0.00000000000E+00 -0.24205816287E+04  0.24205816287E+04  0.50400001928E-02 0. -1.
    10030    2    1    2    0    0  0.00000000000E+00  0.00000000000E+00 -0.84650667296E+03  0.39946565845E+04  0.39039348970E+04 0.  0.
        5    1    3    3  502    0 -0.33808227593E+03 -0.86405198614E+03 -0.21805055663E+04  0.23697071706E+04  0.46999998093E+01 0.  1.
       -5    1    3    3    0  502  0.33808227593E+03  0.86405198614E+03  0.13339988933E+04  0.16249494138E+04  0.46999998093E+01 0. -1.
</event>
<event>
 5   0  0.1164500E-08  0.3901719E+04  0.7818609E-02  0.8024672E-01
        1   -1    0    0  501    0  0.00000000000E+00  0.00000000000E+00  0.15854129431E+04  0.15854129431E+04  0.50400001928E-02 0.  1.
       -1   -1    0    0    0  501  0.00000000000E+00  0.00000000000E+00 -0.24005436787E+04  0.24005436787E+04  0.50400001928E-02 0. -1.
    10030    2    1    2    0    0  0.00000000000E+00  0.00000000000E+00 -0.81513073560E+03  0.39859566217E+04  0.39017191178E+04 0.  0.
        5    1    3    3  502    0 -0.94707649405E+03 -0.50101759488E+03  0.12579263883E+04  0.16523841577E+04  0.46999998093E+01 0.  1.
       -5    1    3    3    0  502  0.94707649405E+03  0.50101759488E+03 -0.20730571240E+04  0.23335724641E+04  0.46999998093E+01 0. -1.
</event>
<event>
 5   0  0.1164500E-08  0.3895461E+04  0.7818609E-02  0.8025974E-01
        1   -1    0    0  501    0  0.00000000000E+00  0.00000000000E+00  0.22311484892E+04  0.22311484892E+04  0.50400001928E-02 0.  1.
       -1   -1    0    0    0  501  0.00000000000E+00  0.00000000000E+00 -0.17003145898E+04  0.17003145898E+04  0.50400001928E-02 0. -1.
    10030    2    1    2    0    0  0.00000000000E+00  0.00000000000E+00  0.53083389940E+03  0.39314630790E+04  0.38954611168E+04 0.  0.
        1    1    3    3  502    0 -0.12804258616E+04 -0.64316866109E+03 -0.10660552217E+04  0.17859535407E+04  0.50400001928E-02 0. -1.
       -1    1    3    3    0  502  0.12804258616E+04  0.64316866109E+03  0.15968891211E+04  0.21455095383E+04  0.50400001928E-02 0.  1.
</event>
<event>
 5   0  0.3724293E-08  0.3904829E+04  0.7818609E-02  0.8024026E-01
        2   -1    0    0  501    0  0.00000000000E+00  0.00000000000E+00  0.22973085964E+04  0.22973085964E+04  0.25500000920E-02 0. -1.
       -2   -1    0    0    0  501  0.00000000000E+00  0.00000000000E+00 -0.16592995774E+04  0.16592995774E+04  0.25500000920E-02 0.  1.
    10030    2    1    2    0    0  0.00000000000E+00  0.00000000000E+00  0.63800901899E+03  0.39566081738E+04  0.39048294115E+04 0.  0.
        4    1    3    3  502    0 -0.16132474962E+04 -0.74686462761E+03 -0.49888371880E+03  0.18464183799E+04  0.12699999809E+01 0. -1.
       -4    1    3    3    0  502  0.16132474962E+04  0.74686462761E+03  0.11368927378E+04  0.21101897939E+04  0.12699999809E+01 0.  1.
</event>
<event>
 5   0  0.1164500E-08  0.3892063E+04  0.7818609E-02  0.8026682E-01
        1   -1    0    0  501    0  0.00000000000E+00  0.00000000000E+00  0.15495376022E+04  0.15495376022E+04  0.50400001928E-02 0. -1.
       -1   -1    0    0    0  501  0.00000000000E+00  0.00000000000E+00 -0.24439798010E+04  0.24439798010E+04  0.50400001928E-02 0.  1.
    10030    2    1    2    0    0  0.00000000000E+00  0.00000000000E+00 -0.89444219880E+03  0.39935174033E+04  0.38920630009E+04 0.  0.
        1    1    3    3  502    0  0.13870125708E+04  0.20611934932E+03 -0.18317461712E+04  0.23068556724E+04  0.50400001928E-02 0.  1.
       -1    1    3    3    0  502 -0.13870125708E+04 -0.20611934932E+03  0.93730397235E+03  0.16866617309E+04  0.50400001928E-02 0. -1.
</event>
<event>
 5   0  0.1164500E-08  0.3901157E+04  0.7818609E-02  0.8024789E-01
        4   -1    0    0  501    0  0.00000000000E+00  0.00000000000E+00  0.21012617166E+04  0.21012621004E+04  0.12699999809E+01 0. -1.
       -4   -1    0    0    0  501  0.00000000000E+00  0.00000000000E+00 -0.18107004041E+04  0.18107008495E+04  0.12699999809E+01 0.  1.
    10030    2    1    2    0    0  0.00000000000E+00  0.00000000000E+00  0.29056131252E+03  0.39119629499E+04  0.39011572956E+04 0.  0.
        2    1    3    3  502    0  0.89498812466E+03 -0.10608839278E+04 -0.12290184933E+04  0.18539053127E+04  0.25500000920E-02 0.  1.
       -2    1    3    3    0  502 -0.89498812466E+03  0.10608839278E+04  0.15195798058E+04  0.20580576372E+04  0.25500000920E-02 0. -1.
</event>
<event>
 5   0  0.1164500E-08  0.3882545E+04  0.7818609E-02  0.8028669E-01
       -1   -1    0    0    0  501  0.00000000000E+00  0.00000000000E+00  0.24680483087E+04  0.24680483087E+04  0.50400001928E-02 0. -1.
        1   -1    0    0  501    0  0.00000000000E+00  0.00000000000E+00 -0.15269311055E+04  0.15269311055E+04  0.50400001928E-02 0.  1.
    10030    2    1    2    0    0  0.00000000000E+00  0.00000000000E+00  0.94111720315E+03  0.39949794142E+04  0.38825454189E+04 0.  0.
        5    1    3    3  502    0  0.50631198795E+03  0.30241572903E+03 -0.14325175362E+04  0.15491725804E+04  0.46999998093E+01 0.  1.
       -5    1    3    3    0  502 -0.50631198795E+03 -0.30241572903E+03  0.23736347394E+04  0.24458068338E+04  0.46999998093E+01 0. -1.
</event>
<event>
 5   0  0.3872969E-08  0.3897812E+04  0.7818609E-02  0.8025484E-01
        2   -1    0    0  501    0  0.00000000000E+00  0.00000000000E+00  0.19467678418E+04  0.19467678418E+04  0.25500000920E-02 0.  1.
       -2   -1    0    0    0  501  0.00000000000E+00  0.00000000000E+00 -0.19510461546E+04  0.19510461546E+04  0.25500000920E-02 0. -1.
    10030    2    1    2    0    0  0.00000000000E+00  0.00000000000E+00 -0.42783127543E+01  0.38978139964E+04  0.38978116484E+04 0.  0.
        2    1    3    3  502    0  0.11654355119E+04  0.31329310507E+03 -0.15324476975E+04  0.19505866931E+04  0.25500000920E-02 0. -1.
       -2    1    3    3    0  502 -0.11654355119E+04 -0.31329310507E+03  0.15281693847E+04  0.19472273032E+04  0.25500000920E-02 0.  1.
</event>
<event>
 5   0  0.3724293E-08  0.3904659E+04  0.7818609E-02  0.8024061E-01
       -2   -1    0    0    0  501  0.00000000000E+00  0.00000000000E+00  0.19390644722E+04  0.19390644722E+04  0.25500000920E-02 0. -1.
        2   -1    0    0  501    0  0.00000000000E+00  0.00000000000E+00 -0.19656854846E+04  0.19656854846E+04  0.25500000920E-02 0.  1.
    10030    2    1    2    0    0  0.00000000000E+00  0.00000000000E+00 -0.26621012394E+02  0.39047499568E+04  0.39046592101E+04 0.  0.
        4    1    3    3  502    0 -0.95792637783E+03  0.11183732983E+03 -0.17108359627E+04  0.19639480232E+04  0.12699999809E+01 0.  1.
       -4    1    3    3    0  502  0.95792637783E+03 -0.11183732983E+03  0.16842149503E+04  0.19408019336E+04  0.12699999809E+01 0. -1.
</event>
<event>
 5   0  0.3872969E-08  0.3902311E+04  0.7818609E-02  0.8024549E-01
       -2   -1    0    0    0  501  0.00000000000E+00  0.00000000000E+00  0.16313691205E+04  0.16313691205E+04  0.25500000920E-02 0.  1.
        2   -1    0    0  501    0  0.00000000000E+00  0.00000000000E+00 -0.23336278595E+04  0.23336278595E+04  0.25500000920E-02 0. -1.
    10030    2    1    2    0    0  0.00000000000E+00  0.00000000000E+00 -0.70225873894E+03  0.39649969800E+04  0.39023113299E+04 0.  0.
        2    1    3    3  502    0  0.17279216655E+04 -0.59558070248E+03 -0.10451676651E+04  0.21054227850E+04  0.25500000920E-02 0.  1.
       -2    1    3    3    0  502 -0.17279216655E+04  0.59558070248E+03  0.34290892616E+03  0.18595741951E+04  0.25500000920E-02 0. -1.
</event>
<event>
 5   0  0.1164500E-08  0.3895083E+04  0.7818609E-02  0.8026053E-01
        1   -1    0    0  501    0  0.00000000000E+00  0.00000000000E+00  0.25566610340E+04  0.25566610340E+04  0.50400001928E-02 0.  1.
       -1   -1    0    0    0  501  0.00000000000E+00  0.00000000000E+00 -0.14835435931E+04  0.14835435931E+04  0.50400001928E-02 0. -1.
    10030    2    1    2    0    0  0.00000000000E+00  0.00000000000E+00  0.10731174409E+04  0.40402046272E+04  0.38950831041E+04 0.  0.
        4    1    3    3  502    0  0.16326699592E+04 -0.81783454612E+03 -0.16575886475E+03  0.18335599675E+04  0.12699999809E+01 0. -1.
       -4    1    3    3    0  502 -0.16326699592E+04  0.81783454612E+03  0.12388763056E+04  0.22066446597E+04  0.12699999809E+01 0.  1.
</event>
<event>
 5   0  0.3669347E-08  0.3965156E+04  0.7818609E-02  0.8011613E-01
       -2   -1    0    0    0  501  0.00000000000E+00  0.00000000000E+00  0.20116575330E+04  0.20116575330E+04  0.25500000920E-02 0.  1.
        2   -1    0    0  501    0  0.00000000000E+00  0.00000000000E+00 -0.19539188418E+04  0.19539188418E+04  0.25500000920E-02 0. -1.
    10030    2    1    2    0    0  0.00000000000E+00  0.00000000000E+00  0.57738691211E+02  0.39655763747E+04  0.39651560155E+04 0.  0.
        5    1    3    3  502    0 -0.77219628659E+03 -0.57698410327E+03  0.17615066752E+04  0.20080153428E+04  0.46999998093E+01 0.  1.
       -5    1    3    3    0  502  0.77219628659E+03  0.57698410327E+03 -0.17037679839E+04  0.19575610319E+04  0.46999998093E+01 0. -1.
</event>
<event>
 5   0  0.1164500E-08  0.3896045E+04  0.7818609E-02  0.8025852E-01
        1   -1    0    0  501    0  0.00000000000E+00  0.00000000000E+00  0.22738139512E+04  0.22738139512E+04  0.50400001928E-02 0.  1.
       -1   -1    0    0    0  501  0.00000000000E+00  0.00000000000E+00 -0.16689101382E+04  0.16689101382E+04  0.50400001928E-02 0. -1.
    10030    2    1    2    0    0  0.00000000000E+00  0.00000000000E+00  0.60490381300E+03  0.39427240894E+04  0.38960447408E+04 0.  0.
        2    1    3    3  502    0 -0.90524266868E+02 -0.59365100866E+02  0.22707676735E+04  0.22733465827E+04  0.25500000920E-02 0.  1.
       -2    1    3    3    0  502  0.90524266868E+02  0.59365100866E+02 -0.16658638605E+04  0.16693775067E+04  0.25500000920E-02 0. -1.
</event>
<event>
 5   0  0.1164500E-08  0.3892223E+04  0.7818609E-02  0.8026649E-01
       -1   -1    0    0    0  501  0.00000000000E+00  0.00000000000E+00  0.17791985126E+04  0.17791985126E+04  0.50400001928E-02 0.  1.
        1   -1    0    0  501    0  0.00000000000E+00  0.00000000000E+00 -0.21286836581E+04  0.21286836581E+04  0.50400001928E-02 0. -1.
    10030    2    1    2    0    0  0.00000000000E+00  0.00000000000E+00 -0.34948514549E+03  0.39078821707E+04  0.38922234254E+04 0.  0.
        1    1    3    3  502    0  0.50194153453E+03 -0.96392719717E+03 -0.17956257778E+04  0.20988980155E+04  0.50400001928E-02 0. -1.
       -1    1    3    3    0  502 -0.50194153453E+03  0.96392719717E+03  0.14461406323E+04  0.18089841553E+04  0.50400001928E-02 0.  1.
</event>
<event>
 5   0  0.1164500E-08  0.3905829E+04  0.7818609E-02  0.8023818E-01
        1   -1    0    0  501    0  0.00000000000E+00  0.00000000000E+00  0.12204385190E+04  0.12204385190E+04  0.50400001928E-02 0. -1.
       -1   -1    0    0    0  501  0.00000000000E+00  0.00000000000E+00 -0.31250042087E+04  0.31250042087E+04  0.50400001928E-02 0.  1.
    10030    2    1    2    0    0  0.00000000000E+00  0.00000000000E+00 -0.19045656897E+04  0.43454427276E+04  0.39058292376E+04 0.  0.
        5    1    3    3  502    0  0.17075976866E+04 -0.93330966261E+03 -0.76982197787E+03  0.20927505234E+04  0.46999998093E+01 0.  1.
       -5    1    3    3    0  502 -0.17075976866E+04  0.93330966261E+03 -0.11347437118E+04  0.22526922043E+04  0.46999998093E+01 0. -1.
</event>
<event>
 5   0  0.1164500E-08  0.3885838E+04  0.7818609E-02  0.8027981E-01
       -1   -1    0    0    0  501  0.00000000000E+00  0.00000000000E+00  0.19972990060E+04  0.19972990060E+04  0.50400001928E-02 0.  1.
        1   -1    0    0  501    0  0.00000000000E+00  0.00000000000E+00 -0.18900195013E+04  0.18900195013E+04  0.50400001928E-02 0. -1.
    10030    2    1    2    0    0  0.00000000000E+00  0.00000000000E+00  0.10727950470E+03  0.38873185073E+04  0.38858379129E+04 0.  0.
        4    1    3    3  502    0 -0.11880781158E+04 -0.15307124321E+04  0.19625037173E+03  0.19475949221E+04  0.12699999809E+01 0. -1.
       -4    1    3    3    0  502  0.11880781158E+04  0.15307124321E+04 -0.88970867026E+02  0.19397235853E+04  0.12699999809E+01 0.  1.
</event>
<event>
 5   0  0.3769985E-08  0.3899842E+04  0.7818609E-02  0.8025062E-01
        2   -1    0    0  501    0  0.00000000000E+00  0.00000000000E+00  0.21969003548E+04  0.21969003548E+04  0.25500000920E-02 0.  1.
       -2   -1    0    0    0  501  0.00000000000E+00  0.00000000000E+00 -0.17307072517E+04  0.17307072517E+04  0.25500000920E-02 0. -1.
    10030    2    1    2    0    0  0.00000000000E+00  0.00000000000E+00  0.46619310305E+03  0.39276076065E+04  0.38998417277E+04 0.  0.
        1    1    3    3  502    0 -0.91563697604E+03  0.38553741456E+02  0.19664880001E+04  0.21695512249E+04  0.50400001928E-02 0.  1.
       -1    1    3    3    0  502  0.91563697604E+03 -0.38553741456E+02 -0.15002948970E+04  0.17580563816E+04  0.50400001928E-02 0. -1.
</event>
<event>
 5   0  0.1164500E-08  0.3896690E+04  0.7818609E-02  0.8025718E-01
       -1   -1    0    0    0  501  0.00000000000E+00  0.00000000000E+00  0.13294710392E+04  0.13294710392E+04  0.50400001928E-02 0. -1.
        1   -1    0    0  501    0  0.00000000000E+00  0.00000000000E+00 -0.28553070710E+04  0.28553070710E+04  0.50400001928E-02 0.  1.
    10030    2    1    2    0    0  0.00000000000E+00  0.00000000000E+00 -0.15258360318E+04  0.41847781102E+04  0.38966899076E+04 0.  0.
        1    1    3    3  502    0 -0.17606481162E+04 -0.70702337345E+03 -0.12387123665E+04  0.22658711717E+04  0.50400001928E-02 0.  1.
       -1    1    3    3    0  502  0.17606481162E+04  0.70702337345E+03 -0.28712366532E+03  0.19189069386E+04  0.50400001928E-02 0. -1.
</event>
<event>
 5   0  0.3690572E-08  0.3897769E+04  0.7818609E-02  0.8025493E-01
        2   -1    0    0  501    0  0.00000000000E+00  0.00000000000E+00  0.19540829230E+04  0.19540829230E+04  0.25500000920E-02 0. -1.
       -2   -1    0    0    0  501  0.00000000000E+00  0.00000000000E+00 -0.19436995011E+04  0.19436995011E+04  0.25500000920E-02 0.  1.
    10030    2    1    2    0    0  0.00000000000E+00  0.00000000000E+00  0.10383421910E+02  0.38977824240E+04  0.38977685937E+04 0.  0.
        3    1    3    3  502    0 -0.11321477112E+04 -0.37723663954E+03 -0.15356200614E+04  0.19447865964E+04  0.10100000352E+00 0.  1.
       -3    1    3    3    0  502  0.11321477112E+04  0.37723663954E+03  0.15460034834E+04  0.19529958277E+04  0.10100000352E+00 0. -1.
</event>
<event>
 5   0  0.3769985E-08  0.3901411E+04  0.7818609E-02  0.8024736E-01
       -2   -1    0    0    0  501  0.00000000000E+00  0.00000000000E+00  0.17085872852E+04  0.17085872852E+04  0.25500000920E-02 0.  1.
        2   -1    0    0  501    0  0.00000000000E+00  0.00000000000E+00 -0.22271340172E+04  0.22271340172E+04  0.25500000920E-02 0. -1.
    10030    2    1    2    0    0  0.00000000000E+00  0.00000000000E+00 -0.51854673197E+03  0.39357213024E+04  0.39014114699E+04 0.  0.
        1    1    3    3  502    0 -0.17606783906E+04  0.45536699321E+03  0.45255614075E+03  0.18740743193E+04  0.50400001928E-02 0.  1.
       -1    1    3    3    0  502  0.17606783906E+04 -0.45536699321E+03 -0.97110287272E+03  0.20616469831E+04  0.50400001928E-02 0. -1.
</event>
<event>
 5   0  0.3769985E-08  0.3902917E+04  0.7818609E-02  0.8024423E-01
        2   -1    0    0  501    0  0.00000000000E+00  0.00000000000E+00  0.26079164568E+04  0.26079164568E+04  0.25500000920E-02 0.  1.
       -2   -1    0    0    0  501  0.00000000000E+00  0.00000000000E+00 -0.14602425271E+04  0.14602425271E+04  0.25500000920E-02 0. -1.
    10030    2    1    2    0    0  0.00000000000E+00  0.00000000000E+00  0.11476739296E+04  0.40681589839E+04  0.39029171231E+04 0.  0.
        1    1    3    3  502    0  0.54004258563E+02 -0.68827534853E+03  0.24763683381E+04  0.25708052360E+04  0.50400001928E-02 0.  1.
       -1    1    3    3    0  502 -0.54004258563E+02  0.68827534853E+03 -0.13286944085E+04  0.14973537479E+04  0.50400001928E-02 0. -1.
</event>
<event>
 5   0  0.3669347E-08  0.3921440E+04  0.7818609E-02  0.8020585E-01
        2   -1    0    0  501    0  0.00000000000E+00  0.00000000000E+00  0.22709559085E+04  0.22709559085E+04  0.25500000920E-02 0.  1.
       -2   -1    0    0    0  501  0.00000000000E+00  0.00000000000E+00 -0.16928653067E+04  0.16928653067E+04  0.25500000920E-02 0. -1.
    10030    2    1    2    0    0  0.00000000000E+00  0.00000000000E+00  0.57809060176E+03  0.39638212152E+04  0.39214397716E+04 0.  0.
        5    1    3    3  502    0  0.15741228937E+04 -0.10915912477E+04 -0.13376483957E+03  0.19202472390E+04  0.46999998093E+01 0. -1.
       -5    1    3    3    0  502 -0.15741228937E+04  0.10915912477E+04  0.71185544133E+03  0.20435739762E+04  0.46999998093E+01 0.  1.
</event>
<event>
 5   0  0.1164500E-08  0.3901627E+04  0.7818609E-02  0.8024691E-01
        1   -1    0    0  501    0  0.00000000000E+00  0.00000000000E+00  0.18300879164E+04  0.18300879164E+04  0.50400001928E-02 0. -1.
       -1   -1    0    0    0  501  0.00000000000E+00  0.00000000000E+00 -0.20795031460E+04  0.20795031460E+04  0.50400001928E-02 0.  1.
    10030    2    1    2    0    0  0.00000000000E+00  0.00000000000E+00 -0.24941522957E+03  0.39095910623E+04  0.39016271372E+04 0.  0.
        5    1    3    3  502    0 -0.18373259900E+04  0.54645152707E+03 -0.48776668053E+03  0.19779571506E+04  0.46999998093E+01 0.  1.
       -5    1    3    3    0  502  0.18373259900E+04 -0.54645152707E+03  0.23835145096E+03  0.19316339118E+04  0.46999998093E+01 0. -1.
</event>
<event>
 5   0  0.3690572E-08  0.3882021E+04  0.7818609E-02  0.8028779E-01
        2   -1    0    0  501    0  0.00000000000E+00  0.00000000000E+00  0.29560255912E+04  0.29560255912E+04  0.25500000920E-02 0. -1.
       -2   -1    0    0    0  501  0.00000000000E+00  0.00000000000E+00 -0.12745226628E+04  0.12745226628E+04  0.25500000920E-02 0.  1.
    10030    2    1    2    0    0  0.00000000000E+00  0.00000000000E+00  0.16815029285E+04  0.42305482540E+04  0.38820209210E+04 0.  0.
        3    1    3    3  502    0 -0.12643871392E+04 -0.28396746355E+03 -0.73404992034E+03  0.14893426919E+04  0.10100000352E+00 0.  1.
       -3    1    3    3    0  502  0.12643871392E+04  0.28396746355E+03  0.24155528488E+04  0.27412055621E+04  0.10100000352E+00 0. -1.
</event>
<event>
 5   0  0.1164500E-08  0.3902407E+04  0.7818609E-02  0.8024529E-01
       -1   -1    0    0    0  501  0.00000000000E+00  0.00000000000E+00  0.12909519893E+04  0.12909519893E+04  0.50400001928E-02 0. -1.
        1   -1    0    0  501    0  0.00000000000E+00  0.00000000000E+00 -0.29491370218E+04  0.29491370218E+04  0.50400001928E-02 0.  1.
    10030    2    1    2    0    0  0.00000000000E+00  0.00000000000E+00 -0.16581850325E+04  0.42400890111E+04  0.39024065934E+04 0.  0.
        4    1    3    3  502    0 -0.17958230449E+04 -0.73769799650E+03 -0.10409354365E+04  0.22028905870E+04  0.12699999809E+01 0.  1.
       -4    1    3    3    0  502  0.17958230449E+04  0.73769799650E+03 -0.61724959597E+03  0.20371984241E+04  0.12699999809E+01 0. -1.
</event>
<event>
 5   0  0.1164500E-08  0.3902085E+04  0.7818609E-02  0.8024596E-01
       -1   -1    0    0    0  501  0.00000000000E+00  0.00000000000E+00  0.25508878286E+04  0.25508878286E+04  0.50400001928E-02 0. -1.
        1   -1    0    0  501    0  0.00000000000E+00  0.00000000000E+00 -0.14922518298E+04  0.14922518298E+04  0.50400001928E-02 0.  1.
    10030    2    1    2    0    0  0.00000000000E+00  0.00000000000E+00  0.10586359988E+04  0.40431396584E+04  0.39020850989E+04 0.  0.
        1    1    3    3  502    0 -0.34822623460E+03 -0.12668290065E+04 -0.96519819619E+03  0.16302529865E+04  0.50400001928E-02 0.  1.
       -1    1    3    3    0  502  0.34822623460E+03  0.12668290065E+04  0.20238341950E+04  0.24128866718E+04  0.50400001928E-02 0. -1.
</event>
<event>
 5   0  0.1164500E-08  0.3900543E+04  0.7818609E-02  0.8024916E-01
        1   -1    0    0  501    0  0.00000000000E+00  0.00000000000E+00  0.21433940806E+04  0.21433940806E+04  0.50400001928E-02 0. -1.
       -1   -1    0    0    0  501  0.00000000000E+00  0.00000000000E+00 -0.17745493790E+04  0.17745493790E+04  0.50400001928E-02 0.  1.
    10030    2    1    2    0    0  0.00000000000E+00  0.00000000000E+00  0.36884470159E+03  0.39179434596E+04  0.39005428518E+04 0.  0.
        3    1    3    3  502    0  0.14339246196E+03 -0.19119433354E+04 -0.17419966550E+03  0.19252101832E+04  0.10100000352E+00 0.  1.
       -3    1    3    3    0  502 -0.14339246196E+03  0.19119433354E+04  0.54304436709E+03  0.19927332764E+04  0.10100000352E+00 0. -1.
</event>
<event>
 5   0  0.1164500E-08  0.3900474E+04  0.7818609E-02  0.8024931E-01
        1   -1    0    0  501    0  0.00000000000E+00  0.00000000000E+00  0.23258148616E+04  0.23258148616E+04  0.50400001928E-02 0.  1.
       -1   -1    0    0    0  501  0.00000000000E+00  0.00000000000E+00 -0.16353081233E+04  0.16353081233E+04  0.50400001928E-02 0. -1.
    10030    2    1    2    0    0  0.00000000000E+00  0.00000000000E+00  0.69050673830E+03  0.39611229848E+04  0.39004737847E+04 0.  0.
        3    1    3    3  502    0  0.40842186906E+03  0.13275921463E+04 -0.10450162574E+04  0.17382083646E+04  0.10100000352E+00 0. -1.
       -3    1    3    3    0  502 -0.40842186906E+03 -0.13275921463E+04  0.17355229957E+04  0.22229146203E+04  0.10100000352E+00 0.  1.
</event>
<event>
 5   0  0.3872969E-08  0.3885890E+04  0.7818609E-02  0.8027970E-01
        2   -1    0    0  501    0  0.00000000000E+00  0.00000000000E+00  0.28571819147E+04  0.28571819147E+04  0.25500000920E-02 0.  1.
       -2   -1    0    0    0  501  0.00000000000E+00  0.00000000000E+00 -0.13212445385E+04  0.13212445385E+04  0.25500000920E-02 0. -1.
    10030    2    1    2    0    0  0.00000000000E+00  0.00000000000E+00  0.15359373762E+04  0.41784264532E+04  0.38858903743E+04 0.  0.
        2    1    3    3  502    0  0.13670353817E+04  0.12257879397E+03  0.22467153730E+04  0.26327820386E+04  0.25500000920E-02 0.  1.
       -2    1    3    3    0  502 -0.13670353817E+04 -0.12257879397E+03 -0.71077799676E+03  0.15456444146E+04  0.25500000920E-02 0. -1.
</event>
<event>
 5   0  0.1164500E-08  0.3894849E+04  0.7818609E-02  0.8026101E-01
        1   -1    0    0  501    0  0.00000000000E+00  0.00000000000E+00  0.21171401712E+04  0.21171401712E+04  0.50400001928E-02 0. -1.
       -1   -1    0    0    0  501  0.00000000000E+00  0.00000000000E+00 -0.17913140129E+04  0.17913140129E+04  0.50400001928E-02 0.  1.
    10030    2    1    2    0    0  0.00000000000E+00  0.00000000000E+00  0.32582615832E+03  0.39084541841E+04  0.38948493455E+04 0.  0.
        5    1    3    3  502    0 -0.14786049523E+04 -0.38647708274E+03 -0.10482841499E+04  0.18532562935E+04  0.46999998093E+01 0.  1.
       -5    1    3    3    0  502  0.14786049523E+04  0.38647708274E+03  0.13741103082E+04  0.20551978906E+04  0.46999998093E+01 0. -1.
</event>
<event>
 5   0  0.3669347E-08  0.3845834E+04  0.7818609E-02  0.8036390E-01
        2   -1    0    0  501    0  0.00000000000E+00  0.00000000000E+00  0.22546266180E+04  0.22546266180E+04  0.25500000920E-02 0.  1.
       -2   -1    0    0    0  501  0.00000000000E+00  0.00000000000E+00 -0.16400095890E+04  0.16400095890E+04  0.25500000920E-02 0. -1.
    10030    2    1    2    0    0  0.00000000000E+00  0.00000000000E+00  0.61461702899E+03  0.38946362069E+04  0.38458337317E+04 0.  0.
        5    1    3    3  502    0  0.10704062106E+04 -0.94042166071E+03  0.16149826219E+04  0.21536836616E+04  0.46999998093E+01 0.  1.
       -5    1    3    3    0  502 -0.10704062106E+04  0.94042166071E+03 -0.10003655929E+04  0.17409525453E+04  0.46999998093E+01 0. -1.
</event>
<event>
 5   0  0.1164500E-08  0.3810262E+04  0.7818609E-02  0.8043956E-01
        1   -1    0    0  501    0  0.00000000000E+00  0.00000000000E+00  0.17073366810E+04  0.17073366810E+04  0.50400001928E-02 0. -1.
       -1   -1    0    0    0  501  0.00000000000E+00  0.00000000000E+00 -0.21258394353E+04  0.21258394353E+04  0.50400001928E-02 0.  1.
    10030    2    1    2    0    0  0.00000000000E+00  0.00000000000E+00 -0.41850275424E+03  0.38331761163E+04  0.38102617474E+04 0.  0.
        2    1    3    3  502    0 -0.65810534652E+03 -0.14675873201E+04  0.81797126680E+03  0.18044368048E+04  0.25500000920E-02 0. -1.
       -2    1    3    3    0  502  0.65810534652E+03  0.14675873201E+04 -0.12364740210E+04  0.20287393115E+04  0.25500000920E-02 0.  1.
</event>
<event>
 5   0  0.1164500E-08  0.3891864E+04  0.7818609E-02  0.8026724E-01
       -1   -1    0    0    0  501  0.00000000000E+00  0.00000000000E+00  0.28868811758E+04  0.28868811758E+04  0.50400001928E-02 0.  1.
        1   -1    0    0  501    0  0.00000000000E+00  0.00000000000E+00 -0.13116752079E+04  0.13116752079E+04  0.50400001928E-02 0. -1.
    10030    2    1    2    0    0  0.00000000000E+00  0.00000000000E+00  0.15752059678E+04  0.41985563837E+04  0.38918635467E+04 0.  0.
        2    1    3    3  502    0  0.17671286621E+04  0.64153193416E+03  0.13295270985E+04  0.23025961948E+04  0.25500000920E-02 0.  1.
       -2    1    3    3    0  502 -0.17671286621E+04 -0.64153193416E+03  0.24567886934E+03  0.18959601889E+04  0.25500000920E-02 0. -1.
</event>
<event>
 5   0  0.1164500E-08  0.3910058E+04  0.7818609E-02  0.8022941E-01
       -1   -1    0    0    0  501  0.00000000000E+00  0.00000000000E+00  0.18201762861E+04  0.18201762861E+04  0.50400001928E-02 0. -1.
        1   -1    0    0  501    0  0.00000000000E+00  0.00000000000E+00 -0.20998721951E+04  0.20998721951E+04  0.50400001928E-02 0.  1.
    10030    2    1    2    0    0  0.00000000000E+00  0.00000000000E+00 -0.27969590899E+03  0.39200484813E+04  0.39100575819E+04 0.  0.
        1    1    3    3  502    0 -0.51788419932E+03 -0.47416087664E+03  0.16893976962E+04  0.18295073535E+04  0.50400001928E-02 0. -1.
       -1    1    3    3    0  502  0.51788419932E+03  0.47416087664E+03 -0.19690936052E+04  0.20905411277E+04  0.50400001928E-02 0.  1.
</event>
<event>
 5   0  0.1164500E-08  0.3902718E+04  0.7818609E-02  0.8024464E-01
       -1   -1    0    0    0  501  0.00000000000E+00  0.00000000000E+00  0.20329271253E+04  0.20329271253E+04  0.50400001928E-02 0. -1.
        1   -1    0    0  501    0  0.00000000000E+00  0.00000000000E+00 -0.18730634720E+04  0.18730634720E+04  0.50400001928E-02 0.  1.
    10030    2    1    2    0    0  0.00000000000E+00  0.00000000000E+00  0.15986365328E+03  0.39059905974E+04  0.39027177914E+04 0.  0.
        2    1    3    3  502    0  0.13151843071E+04 -0.14163800958E+03  0.15157185847E+04  0.20117589108E+04  0.25500000920E-02 0. -1.
       -2    1    3    3    0  502 -0.13151843071E+04  0.14163800958E+03 -0.13558549314E+04  0.18942316865E+04  0.25500000920E-02 0.  1.
</event>
<event>
 5   0  0.3769985E-08  0.3902844E+04  0.7818609E-02  0.8024438E-01
       -2   -1    0    0    0  501  0.00000000000E+00  0.00000000000E+00  0.14333200976E+04  0.14333200976E+04  0.25500000920E-02 0. -1.
        2   -1    0    0  501    0  0.00000000000E+00  0.00000000000E+00 -0.26568026112E+04  0.26568026112E+04  0.25500000920E-02 0.  1.
    10030    2    1    2    0    0  0.00000000000E+00  0.00000000000E+00 -0.12234825136E+04  0.40901227088E+04  0.39028443873E+04 0.  0.
        1    1    3    3  502    0  0.60492951228E+03 -0.18153495806E+04 -0.10130179666E+04  0.21650956596E+04  0.50400001928E-02 0.  1.
       -1    1    3    3    0  502 -0.60492951228E+03  0.18153495806E+04 -0.21046454703E+03  0.19250270492E+04  0.50400001928E-02 0. -1.
</event>
<event>
 5   0  0.3769985E-08  0.3902543E+04  0.7818609E-02  0.8024501E-01
       -2   -1    0    0    0  501  0.00000000000E+00  0.00000000000E+00  0.29583134523E+04  0.29583134523E+04  0.25500000920E-02 0. -1.
        2   -1    0    0  501    0  0.00000000000E+00  0.00000000000E+00 -0.12870373033E+04  0.12870373034E+04  0.25500000920E-02 0.  1.
    10030    2    1    2    0    0  0.00000000000E+00  0.00000000000E+00  0.16712761490E+04  0.42453507557E+04  0.39025426420E+04 0.  0.
        1    1    3    3  502    0  0.28098536923E+03  0.19132489210E+04  0.11192824976E+04  0.22343382737E+04  0.50400001928E-02 0. -1.
       -1    1    3    3    0  502 -0.28098536923E+03 -0.19132489210E+04  0.55199365131E+03  0.20110124820E+04  0.50400001928E-02 0.  1.
</event>
<event>
 5   0  0.1164500E-08  0.3900755E+04  0.7818609E-02  0.8024872E-01
       -1   -1    0    0    0  501  0.00000000000E+00  0.00000000000E+00  0.16139194719E+04  0.16139194719E+04  0.50400001928E-02 0.  1.
        1   -1    0    0  501    0  0.00000000000E+00  0.00000000000E+00 -0.23569781116E+04  0.23569781117E+04  0.50400001928E-02 0. -1.
    10030    2    1    2    0    0  0.00000000000E+00  0.00000000000E+00 -0.74305863972E+03  0.39708975836E+04  0.39007552445E+04 0.  0.
        4    1    3    3  502    0  0.24471489726E+03  0.10312548363E+04  0.12951649332E+04  0.16735667705E+04  0.12699999809E+01 0.  1.
       -4    1    3    3    0  502 -0.24471489726E+03 -0.10312548363E+04 -0.20382235729E+04  0.22973308130E+04  0.12699999809E+01 0. -1.
</event>
<event>
 5   0  0.3669347E-08  0.3894426E+04  0.7818609E-02  0.8026189E-01
        2   -1    0    0  501    0  0.00000000000E+00  0.00000000000E+00  0.22159248099E+04  0.22159248099E+04  0.25500000920E-02 0. -1.
       -2   -1    0    0    0  501  0.00000000000E+00  0.00000000000E+00 -0.17110863586E+04  0.17110863586E+04  0.25500000920E-02 0.  1.
    10030    2    1    2    0    0  0.00000000000E+00  0.00000000000E+00  0.50483845136E+03  0.39270111685E+04  0.38944261266E+04 0.  0.
        5    1    3    3  502    0 -0.19430112224E+04 -0.74435776456E+02  0.14770755494E+03  0.19500443346E+04  0.46999998093E+01 0.  1.
       -5    1    3    3    0  502  0.19430112224E+04  0.74435776456E+02  0.35713089642E+03  0.19769668339E+04  0.46999998093E+01 0. -1.
</event>
<event>
 5   0  0.1164500E-08  0.3899642E+04  0.7818609E-02  0.8025104E-01
       -1   -1    0    0    0  501  0.00000000000E+00  0.00000000000E+00  0.18102268861E+04  0.18102268861E+04  0.50400001928E-02 0.  1.
        1   -1    0    0  501    0  0.00000000000E+00  0.00000000000E+00 -0.21001799689E+04  0.21001799690E+04  0.50400001928E-02 0. -1.
    10030    2    1    2    0    0  0.00000000000E+00  0.00000000000E+00 -0.28995308284E+03  0.39104068551E+04  0.38996421607E+04 0.  0.
        5    1    3    3  502    0  0.32963477201E+01 -0.18793808275E+04 -0.66573369216E+03  0.19938170928E+04  0.46999998093E+01 0. -1.
       -5    1    3    3    0  502 -0.32963477201E+01  0.18793808275E+04  0.37578060932E+03  0.19165897623E+04  0.46999998093E+01 0.  1.
</event>
<event>
 5   0  0.1164500E-08  0.3904461E+04  0.7818609E-02  0.8024102E-01
        1   -1    0    0  501    0  0.00000000000E+00  0.00000000000E+00  0.19590947280E+04  0.19590947280E+04  0.50400001928E-02 0.  1.
       -1   -1    0    0    0  501  0.00000000000E+00  0.00000000000E+00 -0.19453904509E+04  0.19453904509E+04  0.50400001928E-02 0. -1.
    10030    2    1    2    0    0  0.00000000000E+00  0.00000000000E+00  0.13704277114E+02  0.39044851789E+04  0.39044611287E+04 0.  0.
        2    1    3    3  502    0 -0.97709866662E+03 -0.10946690326E+03  0.16934268958E+04  0.19581622656E+04  0.25500000920E-02 0.  1.
       -2    1    3    3    0  502  0.97709866662E+03  0.10946690326E+03 -0.16797226186E+04  0.19463229133E+04  0.25500000920E-02 0. -1.
</event>
<event>
 5   0  0.3669347E-08  0.3905976E+04  0.7818609E-02  0.8023787E-01
       -2   -1    0    0    0  501  0.00000000000E+00  0.00000000000E+00  0.15759303493E+04  0.15759303493E+04  0.25500000920E-02 0. -1.
        2   -1    0    0  501    0  0.00000000000E+00  0.00000000000E+00 -0.24202607265E+04  0.24202607265E+04  0.25500000920E-02 0.  1.
    10030    2    1    2    0    0  0.00000000000E+00  0.00000000000E+00 -0.84433037717E+03  0.39961910758E+04  0.39059761045E+04 0.  0.
        5    1    3    3  502    0  0.66406475270E+03 -0.11213944025E+04 -0.19102812821E+04  0.23125103391E+04  0.46999998093E+01 0.  1.
       -5    1    3    3    0  502 -0.66406475270E+03  0.11213944025E+04  0.10659509049E+04  0.16836807368E+04  0.46999998093E+01 0. -1.
</event>
<event>
 5   0  0.3769985E-08  0.3920354E+04  0.7818609E-02  0.8020809E-01
       -2   -1    0    0    0  501  0.00000000000E+00  0.00000000000E+00  0.21253050510E+04  0.21253050510E+04  0.25500000920E-02 0. -1.
        2   -1    0    0  501    0  0.00000000000E+00  0.00000000000E+00 -0.18078783645E+04  0.18078783645E+04  0.25500000920E-02 0.  1.
    10030    2    1    2    0    0  0.00000000000E+00  0.00000000000E+00  0.31742668658E+03  0.39331834155E+04  0.39203535655E+04 0.  0.
        1    1    3    3  502    0  0.17566877789E+04 -0.75769399559E+03  0.58700721475E+03  0.20011570687E+04  0.50400001928E-02 0.  1.
       -1    1    3    3    0  502 -0.17566877789E+04  0.75769399559E+03 -0.26958052817E+03  0.19320263468E+04  0.50400001928E-02 0. -1.
</event>
<event>
 5   0  0.1164500E-08  0.3896996E+04  0.7818609E-02  0.8025654E-01
        1   -1    0    0  501    0  0.00000000000E+00  0.00000000000E+00  0.25345158119E+04  0.25345158119E+04  0.50400001928E-02 0.  1.
       -1   -1    0    0    0  501  0.00000000000E+00  0.00000000000E+00 -0.14979761804E+04  0.14979761804E+04  0.50400001928E-02 0. -1.
    10030    2    1    2    0    0  0.00000000000E+00  0.00000000000E+00  0.10365396315E+04  0.40324919923E+04  0.38969959277E+04 0.  0.
        4    1    3    3  502    0  0.15633705930E+03  0.16633012594E+04 -0.51940851318E+03  0.17495139816E+04  0.12699999809E+01 0. -1.
       -4    1    3    3    0  502 -0.15633705930E+03 -0.16633012594E+04  0.15559481446E+04  0.22829780107E+04  0.12699999809E+01 0.  1.
</event>
<event>
 5   0  0.1164500E-08  0.3898935E+04  0.7818609E-02  0.8025251E-01
        1   -1    0    0  501    0  0.00000000000E+00  0.00000000000E+00  0.20253674865E+04  0.20253674865E+04  0.50400001928E-02 0. -1.
       -1   -1    0    0    0  501  0.00000000000E+00  0.00000000000E+00 -0.18764121181E+04  0.18764121181E+04  0.50400001928E-02 0.  1.
    10030    2    1    2    0    0  0.00000000000E+00  0.00000000000E+00  0.14895536847E+03  0.39017796046E+04  0.38989352881E+04 0.  0.
        5    1    3    3  502    0  0.60857902173E+03  0.12949025952E+03  0.19233280566E+04  0.20214720023E+04  0.46999998093E+01 0. -1.
       -5    1    3    3    0  502 -0.60857902173E+03 -0.12949025952E+03 -0.17743726881E+04  0.18803076023E+04  0.46999998093E+01 0.  1.
</event>
<event>
 5   0  0.1164500E-08  0.3891086E+04  0.7818609E-02  0.8026886E-01
        1   -1    0    0  501    0  0.00000000000E+00  0.00000000000E+00  0.27937748342E+04  0.27937748342E+04  0.50400001928E-02 0.  1.
       -1   -1    0    0    0  501  0.00000000000E+00  0.00000000000E+00 -0.13548472259E+04  0.13548472259E+04  0.50400001928E-02 0. -1.
    10030    2    1    2    0    0  0.00000000000E+00  0.00000000000E+00  0.14389276083E+04  0.41486220601E+04  0.38910862668E+04 0.  0.
        3    1    3    3  502    0 -0.86848235555E+03 -0.15940097018E+04  0.14658013356E+04  0.23331742534E+04  0.10100000352E+00 0.  1.
       -3    1    3    3    0  502  0.86848235555E+03  0.15940097018E+04 -0.26873727304E+02  0.18154478067E+04  0.10100000352E+00 0. -1.
</event>
<event>
 5   0  0.1164500E-08  0.3898911E+04  0.7818609E-02  0.8025256E-01
        3   -1    0    0  501    0  0.00000000000E+00  0.00000000000E+00  0.26061915614E+04  0.26061915634E+04  0.10100000352E+00 0. -1.
       -3   -1    0    0    0  501  0.00000000000E+00  0.00000000000E+00 -0.14582105953E+04  0.14582105988E+04  0.10100000352E+00 0.  1.
    10030    2    1    2    0    0  0.00000000000E+00  0.00000000000E+00  0.11479809661E+04  0.40644021622E+04  0.38989106988E+04 0.  0.
        1    1    3    3  502    0  0.50972513150E+03 -0.10114965074E+04  0.22279778814E+04  0.24993659864E+04  0.50400001928E-02 0. -1.
       -1    1    3    3    0  502 -0.50972513150E+03  0.10114965074E+04 -0.10799969153E+04  0.15650361757E+04  0.50400001928E-02 0.  1.
</event>
<event>
 5   0  0.1164500E-08  0.3901209E+04  0.7818609E-02  0.8024778E-01
       -1   -1    0    0    0  501  0.00000000000E+00  0.00000000000E+00  0.16025244326E+04  0.16025244326E+04  0.50400001928E-02 0.  1.
        1   -1    0    0  501    0  0.00000000000E+00  0.00000000000E+00 -0.23742902954E+04  0.23742902954E+04  0.50400001928E-02 0. -1.
    10030    2    1    2    0    0  0.00000000000E+00  0.00000000000E+00 -0.77176586286E+03  0.39768147280E+04  0.39012091503E+04 0.  0.
        4    1    3    3  502    0 -0.63505340222E+03 -0.13231561223E+04  0.92386041845E+03  0.17342302711E+04  0.12699999809E+01 0.  1.
       -4    1    3    3    0  502  0.63505340222E+03  0.13231561223E+04 -0.16956262813E+04  0.22425844569E+04  0.12699999809E+01 0. -1.
</event>
<event>
 5   0  0.1164500E-08  0.3901266E+04  0.7818609E-02  0.8024766E-01
       -1   -1    0    0    0  501  0.00000000000E+00  0.00000000000E+00  0.15853288159E+04  0.15853288159E+04  0.50400001928E-02 0. -1.
        1   -1    0    0  501    0  0.00000000000E+00  0.00000000000E+00 -0.24001135579E+04  0.24001135579E+04  0.50400001928E-02 0.  1.
    10030    2    1    2    0    0  0.00000000000E+00  0.00000000000E+00 -0.81478474200E+03  0.39854423737E+04  0.39012660431E+04 0.  0.
        5    1    3    3  502    0 -0.18916636768E+03 -0.14779331891E+04  0.87868975485E+03  0.17297942656E+04  0.46999998093E+01 0. -1.
       -5    1    3    3    0  502  0.18916636768E+03  0.14779331891E+04 -0.16934744968E+04  0.22556481081E+04  0.46999998093E+01 0.  1.
</event>
<event>
 5   0  0.3724293E-08  0.3896819E+04  0.7818609E-02  0.8025691E-01
        2   -1    0    0  501    0  0.00000000000E+00  0.00000000000E+00  0.20607674885E+04  0.20607674885E+04  0.25500000920E-02 0. -1.
       -2   -1    0    0    0  501  0.00000000000E+00  0.00000000000E+00 -0.18421773807E+04  0.18421773807E+04  0.25500000920E-02 0.  1.
    10030    2    1    2    0    0  0.00000000000E+00  0.00000000000E+00  0.21859010782E+03  0.39029448691E+04  0.38968188329E+04 0.  0.
        4    1    3    3  502    0 -0.97188661293E+01  0.65115630091E+02 -0.18410625811E+04  0.18422398166E+04  0.12699999809E+01 0.  1.
       -4    1    3    3    0  502  0.97188661293E+01 -0.65115630091E+02  0.20596526889E+04  0.20607050525E+04  0.12699999809E+01 0. -1.
</event>
<event>
 5   0  0.1164500E-08  0.3901785E+04  0.7818609E-02  0.8024658E-01
        1   -1    0    0  501    0  0.00000000000E+00  0.00000000000E+00  0.23528081060E+04  0.23528081060E+04  0.50400001928E-02 0. -1.
       -1   -1    0    0    0  501  0.00000000000E+00  0.00000000000E+00 -0.16176335190E+04  0.16176335190E+04  0.50400001928E-02 0.  1.
    10030    2    1    2    0    0  0.00000000000E+00  0.00000000000E+00  0.73517458699E+03  0.39704416250E+04  0.39017848511E+04 0.  0.
        5    1    3    3  502    0  0.84610614660E+01  0.24815708564E+03  0.23366572365E+04  0.23498175800E+04  0.46999998093E+01 0. -1.
       -5    1    3    3    0  502 -0.84610614660E+01 -0.24815708564E+03 -0.16014826495E+04  0.16206240450E+04  0.46999998093E+01 0.  1.
</event>
<event>
 5   0  0.3690572E-08  0.3901908E+04  0.7818609E-02  0.8024633E-01
        2   -1    0    0  501    0  0.00000000000E+00  0.00000000000E+00  0.11305384375E+04  0.11305384375E+04  0.25500000920E-02 0.  1.
       -2   -1    0    0    0  501  0.00000000000E+00  0.00000000000E+00 -0.33667325311E+04  0.33667325311E+04  0.25500000920E-02 0. -1.
    10030    2    1    2    0    0  0.00000000000E+00  0.00000000000E+00 -0.22361940936E+04  0.44972709687E+04  0.39019075004E+04 0.  0.
        3    1    3    3  502    0 -0.77744104474E+02 -0.11109848768E+04 -0.29643492080E+04  0.31666540354E+04  0.10100000352E+00 0. -1.
       -3    1    3    3    0  502  0.77744104474E+02  0.11109848768E+04  0.72815511443E+03  0.13306169333E+04  0.10100000352E+00 0.  1.
</event>
<event>
 5   0  0.3690572E-08  0.3912074E+04  0.7818609E-02  0.8022523E-01
       -2   -1    0    0    0  501  0.00000000000E+00  0.00000000000E+00  0.15020018955E+04  0.15020018955E+04  0.25500000920E-02 0.  1.
        2   -1    0    0  501    0  0.00000000000E+00  0.00000000000E+00 -0.25473212947E+04  0.25473212947E+04  0.25500000920E-02 0. -1.
    10030    2    1    2    0    0  0.00000000000E+00  0.00000000000E+00 -0.10453193992E+04  0.40493231903E+04  0.39120743414E+04 0.  0.
        3    1    3    3  502    0 -0.11132950807E+03  0.17029001891E+04 -0.15121355908E+04  0.22800915264E+04  0.10100000352E+00 0. -1.
       -3    1    3    3    0  502  0.11132950807E+03 -0.17029001891E+04  0.46681619161E+03  0.17692316639E+04  0.10100000352E+00 0.  1.
</event>
<event>
 5   0  0.1164500E-08  0.3901411E+04  0.7818609E-02  0.8024736E-01
        1   -1    0    0  501    0  0.00000000000E+00  0.00000000000E+00  0.15105491932E+04  0.15105491933E+04  0.50400001928E-02 0.  1.
       -1   -1    0    0    0  501  0.00000000000E+00  0.00000000000E+00 -0.25191183860E+04  0.25191183860E+04  0.50400001928E-02 0. -1.
    10030    2    1    2    0    0  0.00000000000E+00  0.00000000000E+00 -0.10085691927E+04  0.40296675792E+04  0.39014111527E+04 0.  0.
        2    1    3    3  502    0  0.11178667892E+04 -0.15591561067E+04 -0.13960779335E+03  0.19235603082E+04  0.25500000920E-02 0.  1.
       -2    1    3    3    0  502 -0.11178667892E+04  0.15591561067E+04 -0.86896139938E+03  0.21061072710E+04  0.25500000920E-02 0. -1.
</event>
<event>
 5   0  0.3669347E-08  0.3903823E+04  0.7818609E-02  0.8024234E-01
        2   -1    0    0  501    0  0.00000000000E+00  0.00000000000E+00  0.16055632839E+04  0.16055632839E+04  0.25500000920E-02 0. -1.
       -2   -1    0    0    0  501  0.00000000000E+00  0.00000000000E+00 -0.23729735021E+04  0.23729735021E+04  0.25500000920E-02 0.  1.
    10030    2    1    2    0    0  0.00000000000E+00  0.00000000000E+00 -0.76741021820E+03  0.39785367861E+04  0.39038233202E+04 0.  0.
        5    1    3    3  502    0 -0.12009002462E+04 -0.15327724326E+04 -0.24552139518E+03  0.19626144748E+04  0.46999998093E+01 0. -1.
       -5    1    3    3    0  502  0.12009002462E+04  0.15327724326E+04 -0.52188882302E+03  0.20159223112E+04  0.46999998093E+01 0.  1.
</event>
<event>
 5   0  0.1164500E-08  0.3909005E+04  0.7818609E-02  0.8023159E-01
        3   -1    0    0  501    0  0.00000000000E+00  0.00000000000E+00  0.28257087937E+04  0.28257087955E+04  0.10100000352E+00 0.  1.
       -3   -1    0    0    0  501  0.00000000000E+00  0.00000000000E+00 -0.13519015979E+04  0.13519016017E+04  0.10100000352E+00 0. -1.
    10030    2    1    2    0    0  0.00000000000E+00  0.00000000000E+00  0.14738071958E+04  0.41776103972E+04  0.39090051139E+04 0.  0.
        4    1    3    3  502    0  0.19420874364E+04 -0.10151156387E+03  0.94542736051E+03  0.21623696990E+04  0.12699999809E+01 0.  1.
       -4    1    3    3    0  502 -0.19420874364E+04  0.10151156387E+03  0.52837983529E+03  0.20152406982E+04  0.12699999809E+01 0. -1.
</event>
<event>
 5   0  0.1164500E-08  0.3896739E+04  0.7818609E-02  0.8025708E-01
        1   -1    0    0  501    0  0.00000000000E+00  0.00000000000E+00  0.31280641288E+04  0.31280641288E+04  0.50400001928E-02 0.  1.
       -1   -1    0    0    0  501  0.00000000000E+00  0.00000000000E+00 -0.12135763095E+04  0.12135763095E+04  0.50400001928E-02 0. -1.
    10030    2    1    2    0    0  0.00000000000E+00  0.00000000000E+00  0.19144878193E+04  0.43416404383E+04  0.38967394172E+04 0.  0.
        2    1    3    3  502    0 -0.13814263722E+04  0.54530565863E+03 -0.44787199453E+03  0.15512209406E+04  0.25500000920E-02 0. -1.
       -2    1    3    3    0  502  0.13814263722E+04 -0.54530565863E+03  0.23623598138E+04  0.27904194977E+04  0.25500000920E-02 0.  1.
</event>
<event>
 5   0  0.3669347E-08  0.3904271E+04  0.7818609E-02  0.8024142E-01
        2   -1    0    0  501    0  0.00000000000E+00  0.00000000000E+00  0.21295689533E+04  0.21295689533E+04  0.25500000920E-02 0. -1.
       -2   -1    0    0    0  501  0.00000000000E+00  0.00000000000E+00 -0.17894853754E+04  0.17894853754E+04  0.25500000920E-02 0.  1.
    10030    2    1    2    0    0  0.00000000000E+00  0.00000000000E+00  0.34008357794E+03  0.39190543287E+04  0.39042707375E+04 0.  0.
        5    1    3    3  502    0  0.71590753471E+03  0.17182068481E+04  0.76053113100E+03  0.20107680279E+04  0.46999998093E+01 0. -1.
       -5    1    3    3    0  502 -0.71590753471E+03 -0.17182068481E+04 -0.42044755306E+03  0.19082863008E+04  0.46999998093E+01 0.  1.
</event>
<event>
 5   0  0.3769985E-08  0.3897268E+04  0.7818609E-02  0.8025598E-01
        2   -1    0    0  501    0  0.00000000000E+00  0.00000000000E+00  0.26733437479E+04  0.26733437479E+04  0.25500000920E-02 0. -1.
       -2   -1    0    0    0  501  0.00000000000E+00  0.00000000000E+00 -0.14203841230E+04  0.14203841230E+04  0.25500000920E-02 0.  1.
    10030    2    1    2    0    0  0.00000000000E+00  0.00000000000E+00  0.12529596249E+04  0.40937278708E+04  0.38972682816E+04 0.  0.
        1    1    3    3  502    0  0.17162291553E+04  0.72229006303E+03  0.12299211968E+04  0.22315581101E+04  0.50400001928E-02 0. -1.
       -1    1    3    3    0  502 -0.17162291553E+04 -0.72229006303E+03  0.23038428119E+02  0.18621697607E+04  0.50400001928E-02 0.  1.
</event>
<event>
 5   0  0.1164500E-08  0.3900983E+04  0.7818609E-02  0.8024825E-01
       -1   -1    0    0    0  501  0.00000000000E+00  0.00000000000E+00  0.15254102423E+04  0.15254102423E+04  0.50400001928E-02 0. -1.
        1   -1    0    0  501    0  0.00000000000E+00  0.00000000000E+00 -0.24940291744E+04  0.24940291744E+04  0.50400001928E-02 0.  1.
    10030    2    1    2    0    0  0.00000000000E+00  0.00000000000E+00 -0.96861893216E+03  0.40194394167E+04  0.39009832849E+04 0.  0.
        2    1    3    3  502    0 -0.16610979078E+04 -0.99486295990E+03 -0.24174842430E+03  0.19512664782E+04  0.25500000920E-02 0.  1.
       -2    1    3    3    0  502  0.16610979078E+04  0.99486295990E+03 -0.72687050786E+03  0.20681729385E+04  0.25500000920E-02 0. -1.
</event>
<event>
 5   0  0.3769985E-08  0.3896083E+04  0.7818609E-02  0.8025844E-01
       -2   -1    0    0    0  501  0.00000000000E+00  0.00000000000E+00  0.15351612087E+04  0.15351612087E+04  0.25500000920E-02 0. -1.
        2   -1    0    0  501    0  0.00000000000E+00  0.00000000000E+00 -0.24719652202E+04  0.24719652202E+04  0.25500000920E-02 0.  1.
    10030    2    1    2    0    0  0.00000000000E+00  0.00000000000E+00 -0.93680401159E+03  0.40071264289E+04  0.38960827072E+04 0.  0.
        1    1    3    3  502    0  0.10404786228E+04 -0.53177123519E+03 -0.20715083010E+04  0.23783446033E+04  0.50400001928E-02 0.  1.
       -1    1    3    3    0  502 -0.10404786228E+04  0.53177123519E+03  0.11347042894E+04  0.16287818256E+04  0.50400001928E-02 0. -1.
</event>
<event>
 5   0  0.1164500E-08  0.3913734E+04  0.7818609E-02  0.8022179E-01
        1   -1    0    0  501    0  0.00000000000E+00  0.00000000000E+00  0.17820265964E+04  0.17820265964E+04  0.50400001928E-02 0. -1.
       -1   -1    0    0    0  501  0.00000000000E+00  0.00000000000E+00 -0.21488610725E+04  0.21488610725E+04  0.50400001928E-02 0.  1.
    10030    2    1    2    0    0  0.00000000000E+00  0.00000000000E+00 -0.36683447612E+03  0.39308876688E+04  0.39137335541E+04 0.  0.
        4    1    3    3  502    0 -0.13622347839E+04  0.34891932638E+03  0.11833918884E+04  0.18378918024E+04  0.12699999809E+01 0. -1.
       -4    1    3    3    0  502  0.13622347839E+04 -0.34891932638E+03 -0.15502263645E+04  0.20929958665E+04  0.12699999809E+01 0.  1.
</event>
<event>
 5   0  0.3690572E-08  0.3892076E+04  0.7818609E-02  0.8026679E-01
        2   -1    0    0  501    0  0.00000000000E+00  0.00000000000E+00  0.20985728497E+04  0.20985728497E+04  0.25500000920E-02 0. -1.
       -2   -1    0    0    0  501  0.00000000000E+00  0.00000000000E+00 -0.18045905548E+04  0.18045905548E+04  0.25500000920E-02 0.  1.
    10030    2    1    2    0    0  0.00000000000E+00  0.00000000000E+00  0.29398229487E+03  0.39031634045E+04  0.38920764345E+04 0.  0.
        3    1    3    3  502    0 -0.10617303652E+04  0.11654225464E+04  0.12911107205E+04  0.20377556240E+04  0.10100000352E+00 0. -1.
       -3    1    3    3    0  502  0.10617303652E+04 -0.11654225464E+04 -0.99712842562E+03  0.18654077805E+04  0.10100000352E+00 0.  1.
</event>
<event>
 5   0  0.1164500E-08  0.3904973E+04  0.7818609E-02  0.8023996E-01
        1   -1    0    0  501    0  0.00000000000E+00  0.00000000000E+00  0.27294214103E+04  0.27294214103E+04  0.50400001928E-02 0. -1.
       -1   -1    0    0    0  501  0.00000000000E+00  0.00000000000E+00 -0.13967077506E+04  0.13967077506E+04  0.50400001928E-02 0.  1.
    10030    2    1    2    0    0  0.00000000000E+00  0.00000000000E+00  0.13327136597E+04  0.41261291609E+04  0.39049732590E+04 0.  0.
        4    1    3    3  502    0 -0.17082225559E+04 -0.89676411402E+03  0.98333350531E+03  0.21654460447E+04  0.12699999809E+01 0. -1.
       -4    1    3    3    0  502  0.17082225559E+04  0.89676411402E+03  0.34938015440E+03  0.19606831162E+04  0.12699999809E+01 0.  1.
</event>
<event>
 5   0  0.3690572E-08  0.3901867E+04  0.7818609E-02  0.8024641E-01
       -2   -1    0    0    0  501  0.00000000000E+00  0.00000000000E+00  0.21165129552E+04  0.21165129552E+04  0.25500000920E-02 0.  1.
        2   -1    0    0  501    0  0.00000000000E+00  0.00000000000E+00 -0.17983075781E+04  0.17983075781E+04  0.25500000920E-02 0. -1.
    10030    2    1    2    0    0  0.00000000000E+00  0.00000000000E+00  0.31820537706E+03  0.39148205333E+04  0.39018668795E+04 0.  0.
        3    1    3    3  502    0 -0.85075010367E+03  0.72292728492E+03  0.17643334697E+04  0.20878870182E+04  0.10100000352E+00 0.  1.
       -3    1    3    3    0  502  0.85075010367E+03 -0.72292728492E+03 -0.14461280926E+04  0.18269335151E+04  0.10100000352E+00 0. -1.
</event>
<event>
 5   0  0.3724293E-08  0.3896560E+04  0.7818609E-02  0.8025745E-01
       -2   -1    0    0    0  501  0.00000000000E+00  0.00000000000E+00  0.14847585407E+04  0.14847585407E+04  0.25500000920E-02 0. -1.
        2   -1    0    0  501    0  0.00000000000E+00  0.00000000000E+00 -0.25565068680E+04  0.25565068680E+04  0.25500000920E-02 0.  1.
    10030    2    1    2    0    0  0.00000000000E+00  0.00000000000E+00 -0.10717483273E+04  0.40412654086E+04  0.38965602300E+04 0.  0.
        4    1    3    3  502    0  0.61348477151E+03  0.78001061622E+02  0.13802609993E+04  0.15124714112E+04  0.12699999809E+01 0. -1.
       -4    1    3    3    0  502 -0.61348477151E+03 -0.78001061622E+02 -0.24520093266E+04  0.25287939974E+04  0.12699999809E+01 0.  1.
</event>
<event>
 5   0  0.3872969E-08  0.3908935E+04  0.7818609E-02  0.8023173E-01
        2   -1    0    0  501    0  0.00000000000E+00  0.00000000000E+00  0.13272372920E+04  0.13272372920E+04  0.25500000920E-02 0.  1.
       -2   -1    0    0    0  501  0.00000000000E+00  0.00000000000E+00 -0.28781163735E+04  0.28781163735E+04  0.25500000920E-02 0. -1.
    10030    2    1    2    0    0  0.00000000000E+00  0.00000000000E+00 -0.15508790814E+04  0.42053536655E+04  0.39089350886E+04 0.  0.
        2    1    3    3  502    0  0.17713030793E+04 -0.23474916309E+03 -0.16275368464E+04  0.24169191039E+04  0.25500000920E-02 0. -1.
       -2    1    3    3    0  502 -0.17713030793E+04  0.23474916309E+03  0.76657764969E+02  0.17884345616E+04  0.25500000920E-02 0.  1.
</event>
<event>
 5   0  0.3872969E-08  0.3912824E+04  0.7818609E-02  0.8022367E-01
       -2   -1    0    0    0  501  0.00000000000E+00  0.00000000000E+00  0.22575777567E+04  0.22575777567E+04  0.25500000920E-02 0.  1.
        2   -1    0    0  501    0  0.00000000000E+00  0.00000000000E+00 -0.16954220733E+04  0.16954220733E+04  0.25500000920E-02 0. -1.
    10030    2    1    2    0    0  0.00000000000E+00  0.00000000000E+00  0.56215568336E+03  0.39529998300E+04  0.39128236152E+04 0.  0.
        2    1    3    3  502    0  0.16795736033E+04 -0.58264669696E+03  0.11062276598E+04  0.20938443824E+04  0.25500000920E-02 0.  1.
       -2    1    3    3    0  502 -0.16795736033E+04  0.58264669696E+03 -0.54407197645E+03  0.18591554475E+04  0.25500000920E-02 0. -1.
</event>
<event>
 5   0  0.1164500E-08  0.3914081E+04  0.7818609E-02  0.8022107E-01
       -1   -1    0    0    0  501  0.00000000000E+00  0.00000000000E+00  0.17994855386E+04  0.17994855386E+04  0.50400001928E-02 0. -1.
        1   -1    0    0  501    0  0.00000000000E+00  0.00000000000E+00 -0.21283899252E+04  0.21283899252E+04  0.50400001928E-02 0.  1.
    10030    2    1    2    0    0  0.00000000000E+00  0.00000000000E+00 -0.32890438662E+03  0.39278754639E+04  0.39140806793E+04 0.  0.
        4    1    3    3  502    0  0.27129091829E+03 -0.19322200150E+04 -0.12484237064E+02  0.19512125506E+04  0.12699999809E+01 0.  1.
       -4    1    3    3    0  502 -0.27129091829E+03  0.19322200150E+04 -0.31642014955E+03  0.19766629132E+04  0.12699999809E+01 0. -1.
</event>
<event>
 5   0  0.3872969E-08  0.3906858E+04  0.7818609E-02  0.8023604E-01
       -2   -1    0    0    0  501  0.00000000000E+00  0.00000000000E+00  0.27700999020E+04  0.27700999020E+04  0.25500000920E-02 0.  1.
        2   -1    0    0  501    0  0.00000000000E+00  0.00000000000E+00 -0.13775263709E+04  0.13775263709E+04  0.25500000920E-02 0. -1.
    10030    2    1    2    0    0  0.00000000000E+00  0.00000000000E+00  0.13925735311E+04  0.41476262729E+04  0.39068584131E+04 0.  0.
        2    1    3    3  502    0  0.10285282467E+04 -0.10616496910E+04 -0.65948829389E+03  0.16186090419E+04  0.25500000920E-02 0. -1.
       -2    1    3    3    0  502 -0.10285282467E+04  0.10616496910E+04  0.20520618250E+04  0.25290172309E+04  0.25500000920E-02 0.  1.
</event>
<event>
 5   0  0.3669347E-08  0.3900134E+04  0.7818609E-02  0.8025001E-01
        2   -1    0    0  501    0  0.00000000000E+00  0.00000000000E+00  0.28095188676E+04  0.28095188676E+04  0.25500000920E-02 0.  1.
       -2   -1    0    0    0  501  0.00000000000E+00  0.00000000000E+00 -0.13535273469E+04  0.13535273469E+04  0.25500000920E-02 0. -1.
    10030    2    1    2    0    0  0.00000000000E+00  0.00000000000E+00  0.14559915207E+04  0.41630462145E+04  0.39001336485E+04 0.  0.
        5    1    3    3  502    0  0.36933159091E+02 -0.47966752431E+03  0.27451751235E+04  0.27870151670E+04  0.46999998093E+01 0.  1.
       -5    1    3    3    0  502 -0.36933159091E+02  0.47966752431E+03 -0.12891836028E+04  0.13760310476E+04  0.46999998093E+01 0. -1.
</event>
<event>
 5   0  0.3669347E-08  0.3878878E+04  0.7818609E-02  0.8029437E-01
        2   -1    0    0  501    0  0.00000000000E+00  0.00000000000E+00  0.15051785479E+04  0.15051785479E+04  0.25500000920E-02 0.  1.
       -2   -1    0    0    0  501  0.00000000000E+00  0.00000000000E+00 -0.24989886170E+04  0.24989886170E+04  0.25500000920E-02 0. -1.
    10030    2    1    2    0    0  0.00000000000E+00  0.00000000000E+00 -0.99381006910E+03  0.40041671649E+04  0.38788782181E+04 0.  0.
        5    1    3    3  502    0 -0.54699048420E+03 -0.27396213921E+03 -0.23967718190E+04  0.24736190261E+04  0.46999998093E+01 0. -1.
       -5    1    3    3    0  502  0.54699048420E+03  0.27396213921E+03  0.14029617499E+04  0.15305481389E+04  0.46999998093E+01 0.  1.
</event>
<event>
 5   0  0.3690572E-08  0.3883060E+04  0.7818609E-02  0.8028562E-01
       -2   -1    0    0    0  501  0.00000000000E+00  0.00000000000E+00  0.15565139928E+04  0.15565139928E+04  0.25500000920E-02 0. -1.
        2   -1    0    0  501    0  0.00000000000E+00  0.00000000000E+00 -0.24217821677E+04  0.24217821677E+04  0.25500000920E-02 0.  1.
    10030    2    1    2    0    0  0.00000000000E+00  0.00000000000E+00 -0.86526817498E+03  0.39782961605E+04  0.38830595316E+04 0.  0.
        3    1    3    3  502    0 -0.13076713551E+04 -0.11791629833E+04 -0.12706865526E+04  0.21714221236E+04  0.10100000352E+00 0.  1.
       -3    1    3    3    0  502  0.13076713551E+04  0.11791629833E+04  0.40541837758E+03  0.18068740368E+04  0.10100000352E+00 0. -1.
</event>
<event>
 5   0  0.1164500E-08  0.3902909E+04  0.7818609E-02  0.8024425E-01
        1   -1    0    0  501    0  0.00000000000E+00  0.00000000000E+00  0.27638344381E+04  0.27638344381E+04  0.50400001928E-02 0.  1.
       -1   -1    0    0    0  501  0.00000000000E+00  0.00000000000E+00 -0.13778590005E+04  0.13778590005E+04  0.50400001928E-02 0. -1.
    10030    2    1    2    0    0  0.00000000000E+00  0.00000000000E+00  0.13859754376E+04  0.41416934386E+04  0.39029087391E+04 0.  0.
        5    1    3    3  502    0  0.11058938106E+04 -0.88972326632E+03  0.21141559980E+04  0.25464261790E+04  0.46999998093E+01 0.  1.
       -5    1    3    3    0  502 -0.11058938106E+04  0.88972326632E+03 -0.72818056044E+03  0.15952672596E+04  0.46999998093E+01 0. -1.
</event>
<event>
 5   0  0.1164500E-08  0.3901255E+04  0.7818609E-02  0.8024768E-01
        1   -1    0    0  501    0  0.00000000000E+00  0.00000000000E+00  0.15874230636E+04  0.15874230636E+04  0.50400001928E-02 0.  1.
       -1   -1    0    0    0  501  0.00000000000E+00  0.00000000000E+00 -0.23969334207E+04  0.23969334207E+04  0.50400001928E-02 0. -1.
    10030    2    1    2    0    0  0.00000000000E+00  0.00000000000E+00 -0.80951035708E+03  0.39843564843E+04  0.39012548720E+04 0.  0.
        1    1    3    3  502    0  0.26699972506E+03 -0.14295996574E+04 -0.17324088445E+04  0.22619205199E+04  0.50400001928E-02 0. -1.
       -1    1    3    3    0  502 -0.26699972506E+03  0.14295996574E+04  0.92289848741E+03  0.17224359645E+04  0.50400001928E-02 0.  1.
</event>
<event>
 5   0  0.3690572E-08  0.3908620E+04  0.7818609E-02  0.8023239E-01
       -2   -1    0    0    0  501  0.00000000000E+00  0.00000000000E+00  0.18363116267E+04  0.18363116267E+04  0.25500000920E-02 0. -1.
        2   -1    0    0  501    0  0.00000000000E+00  0.00000000000E+00 -0.20798909094E+04  0.20798909094E+04  0.25500000920E-02 0.  1.
    10030    2    1    2    0    0  0.00000000000E+00  0.00000000000E+00 -0.24357928276E+03  0.39162025361E+04  0.39086201448E+04 0.  0.
        3    1    3    3  502    0  0.11741927669E+03 -0.29155328551E+03 -0.20544009055E+04  0.20783054866E+04  0.10100000352E+00 0.  1.
       -3    1    3    3    0  502 -0.11741927669E+03  0.29155328551E+03  0.18108216228E+04  0.18378970495E+04  0.10100000352E+00 0. -1.
</event>
<event>
 5   0  0.1164500E-08  0.3904586E+04  0.7818609E-02  0.8024076E-01
       -1   -1    0    0    0  501  0.00000000000E+00  0.00000000000E+00  0.19313210271E+04  0.19313210271E+04  0.50400001928E-02 0.  1.
        1   -1    0    0  501    0  0.00000000000E+00  0.00000000000E+00 -0.19734922839E+04  0.19734922839E+04  0.50400001928E-02 0. -1.
    10030    2    1    2    0    0  0.00000000000E+00  0.00000000000E+00 -0.42171256792E+02  0.39048133111E+04  0.39045855836E+04 0.  0.
        2    1    3    3  502    0 -0.28044963598E+03  0.67725364024E+03 -0.18306448505E+04  0.19719495583E+04  0.25500000920E-02 0. -1.
       -2    1    3    3    0  502  0.28044963598E+03 -0.67725364024E+03  0.17884735937E+04  0.19328637528E+04  0.25500000920E-02 0.  1.
</event>
<event>
 5   0  0.3724293E-08  0.3904084E+04  0.7818609E-02  0.8024180E-01
        2   -1    0    0  501    0  0.00000000000E+00  0.00000000000E+00  0.17347004462E+04  0.17347004462E+04  0.25500000920E-02 0. -1.
       -2   -1    0    0    0  501  0.00000000000E+00  0.00000000000E+00 -0.21966148776E+04  0.21966148776E+04  0.25500000920E-02 0.  1.
    10030    2    1    2    0    0  0.00000000000E+00  0.00000000000E+00 -0.46191443132E+03  0.39313153238E+04  0.39040844296E+04 0.  0.
        4    1    3    3  502    0 -0.47354813988E+03 -0.11054023853E+04  0.13173973575E+04  0.17837319543E+04  0.12699999809E+01 0. -1.
       -4    1    3    3    0  502  0.47354813988E+03  0.11054023853E+04 -0.17793117889E+04  0.21475833695E+04  0.12699999809E+01 0.  1.
</event>
<event>
 5   0  0.1164500E-08  0.3899289E+04  0.7818609E-02  0.8025177E-01
        1   -1    0    0  501    0  0.00000000000E+00  0.00000000000E+00  0.24074728337E+04  0.24074728337E+04  0.50400001928E-02 0. -1.
       -1   -1    0    0    0  501  0.00000000000E+00  0.00000000000E+00 -0.15788815772E+04  0.15788815772E+04  0.50400001928E-02 0.  1.
    10030    2    1    2    0    0  0.00000000000E+00  0.00000000000E+00  0.82859125648E+03  0.39863544109E+04  0.38992894249E+04 0.  0.
        4    1    3    3  502    0  0.16473857546E+04 -0.29441741299E+03  0.14369058968E+04  0.22057338023E+04  0.12699999809E+01 0. -1.
       -4    1    3    3    0  502 -0.16473857546E+04  0.29441741299E+03 -0.60831464027E+03  0.17806206086E+04  0.12699999809E+01 0.  1.
</event>
<event>
 5   0  0.3724293E-08  0.3895698E+04  0.7818609E-02  0.8025925E-01
        2   -1    0    0  501    0  0.00000000000E+00  0.00000000000E+00  0.24133540261E+04  0.24133540261E+04  0.25500000920E-02 0. -1.
       -2   -1    0    0    0  501  0.00000000000E+00  0.00000000000E+00 -0.15721339267E+04  0.15721339267E+04  0.25500000920E-02 0.  1.
    10030    2    1    2    0    0  0.00000000000E+00  0.00000000000E+00  0.84122009934E+03  0.39854879528E+04  0.38956980076E+04 0.  0.
        4    1    3    3  502    0 -0.48622874486E+03  0.12607164277E+04  0.18559036261E+04  0.22956925286E+04  0.12699999809E+01 0. -1.
       -4    1    3    3    0  502  0.48622874486E+03 -0.12607164277E+04 -0.10146835268E+04  0.16897954242E+04  0.12699999809E+01 0.  1.
</event>
<event>
 5   0  0.3769985E-08  0.3904497E+04  0.7818609E-02  0.8024095E-01
        2   -1    0    0  501    0  0.00000000000E+00  0.00000000000E+00  0.23122922372E+04  0.23122922372E+04  0.25500000920E-02 0.  1.
       -2   -1    0    0    0  501  0.00000000000E+00  0.00000000000E+00 -0.16482668892E+04  0.16482668892E+04  0.25500000920E-02 0. -1.
    10030    2    1    2    0    0  0.00000000000E+00  0.00000000000E+00  0.66402534802E+03  0.39605591264E+04  0.39044972699E+04 0.  0.
        1    1    3    3  502    0 -0.18220621800E+04  0.14551159538E+02 -0.37887259820E+03  0.18610928966E+04  0.50400001928E-02 0.  1.
       -1    1    3    3    0  502  0.18220621800E+04 -0.14551159538E+02  0.10428979462E+04  0.20994662298E+04  0.50400001928E-02 0. -1.
</event>
<event>
 5   0  0.3872969E-08  0.3897534E+04  0.7818609E-02  0.8025542E-01
        2   -1    0    0  501    0  0.00000000000E+00  0.00000000000E+00  0.31514875967E+04  0.31514875967E+04  0.25500000920E-02 0.  1.
       -2   -1    0    0    0  501  0.00000000000E+00  0.00000000000E+00 -0.12050477229E+04  0.12050477229E+04  0.25500000920E-02 0. -1.
    10030    2    1    2    0    0  0.00000000000E+00  0.00000000000E+00  0.19464398738E+04  0.43565353195E+04  0.38975340676E+04 0.  0.
        2    1    3    3  502    0  0.12263156311E+04  0.28363910083E+03  0.26361748183E+04  0.29212529570E+04  0.25500000920E-02 0.  1.
       -2    1    3    3    0  502 -0.12263156311E+04 -0.28363910083E+03 -0.68973494444E+03  0.14352823625E+04  0.25500000920E-02 0. -1.
</event>
<event>
 5   0  0.1164500E-08  0.3901348E+04  0.7818609E-02  0.8024749E-01
        1   -1    0    0  501    0  0.00000000000E+00  0.00000000000E+00  0.23140676487E+04  0.23140676487E+04  0.50400001928E-02 0. -1.
       -1   -1    0    0    0  501  0.00000000000E+00  0.00000000000E+00 -0.16443464621E+04  0.16443464621E+04  0.50400001928E-02 0.  1.
    10030    2    1    2    0    0  0.00000000000E+00  0.00000000000E+00  0.66972118655E+03  0.39584141108E+04  0.39013479472E+04 0.  0.
        3    1    3    3  502    0 -0.10292134399E+04 -0.10393363985E+04  0.16443307672E+04  0.22007553558E+04  0.10100000352E+00 0. -1.
       -3    1    3    3    0  502  0.10292134399E+04  0.10393363985E+04 -0.97460958064E+03  0.17576587550E+04  0.10100000352E+00 0.  1.
</event>
<event>
 5   0  0.1164500E-08  0.3891603E+04  0.7818609E-02  0.8026778E-01
        1   -1    0    0  501    0  0.00000000000E+00  0.00000000000E+00  0.24075620403E+04  0.24075620403E+04  0.50400001928E-02 0. -1.
       -1   -1    0    0    0  501  0.00000000000E+00  0.00000000000E+00 -0.15726045266E+04  0.15726045266E+04  0.50400001928E-02 0.  1.
    10030    2    1    2    0    0  0.00000000000E+00  0.00000000000E+00  0.83495751367E+03  0.39801665669E+04  0.38916027355E+04 0.  0.
        1    1    3    3  502    0 -0.10652494957E+04  0.15489250431E+04  0.93112074119E+03  0.20978348629E+04  0.50400001928E-02 0. -1.
       -1    1    3    3    0  502  0.10652494957E+04 -0.15489250431E+04 -0.96163227525E+02  0.18823317040E+04  0.50400001928E-02 0.  1.
</event>
<event>
 5   0  0.1164500E-08  0.3895407E+04  0.7818609E-02  0.8025985E-01
       -1   -1    0    0    0  501  0.00000000000E+00  0.00000000000E+00  0.30722099315E+04  0.30722099315E+04  0.50400001928E-02 0.  1.
        1   -1    0    0  501    0  0.00000000000E+00  0.00000000000E+00 -0.12347945218E+04  0.12347945218E+04  0.50400001928E-02 0. -1.
    10030    2    1    2    0    0  0.00000000000E+00  0.00000000000E+00  0.18374154097E+04  0.43070044533E+04  0.38954065222E+04 0.  0.
        2    1    3    3  502    0  0.16167110832E+04 -0.10849006053E+04  0.86036954348E+03  0.21286145262E+04  0.25500000920E-02 0. -1.
       -2    1    3    3    0  502 -0.16167110832E+04  0.10849006053E+04  0.97704586623E+03  0.21783899271E+04  0.25500000920E-02 0.  1.
</event>
<event>
 5   0  0.3872969E-08  0.3901875E+04  0.7818609E-02  0.8024639E-01
       -2   -1    0    0    0  501  0.00000000000E+00  0.00000000000E+00  0.13640232612E+04  0.13640232612E+04  0.25500000920E-02 0. -1.
        2   -1    0    0  501    0  0.00000000000E+00  0.00000000000E+00 -0.27903907338E+04  0.27903907338E+04  0.25500000920E-02 0.  1.
    10030    2    1    2    0    0  0.00000000000E+00  0.00000000000E+00 -0.14263674726E+04  0.41544139951E+04  0.39018753793E+04 0.  0.
        2    1    3    3  502    0 -0.12817533124E+03 -0.92852233122E+03 -0.25349405829E+04  0.27026850342E+04  0.25500000920E-02 0.  1.
       -2    1    3    3    0  502  0.12817533124E+03  0.92852233122E+03  0.11085731103E+04  0.14517289609E+04  0.25500000920E-02 0. -1.
</event>
<event>
 5   0  0.3669347E-08  0.3902505E+04  0.7818609E-02  0.8024508E-01
       -2   -1    0    0    0  501  0.00000000000E+00  0.00000000000E+00  0.20592582911E+04  0.20592582911E+04  0.25500000920E-02 0. -1.
        2   -1    0    0  501    0  0.00000000000E+00  0.00000000000E+00 -0.18489112241E+04  0.18489112241E+04  0.25500000920E-02 0.  1.
    10030    2    1    2    0    0  0.00000000000E+00  0.00000000000E+00  0.21034706704E+03  0.39081695152E+04  0.39025047176E+04 0.  0.
        5    1    3    3  502    0 -0.12406155191E+04 -0.84748684469E+03  0.13519718458E+04  0.20211904364E+04  0.46999998093E+01 0. -1.
       -5    1    3    3    0  502  0.12406155191E+04  0.84748684469E+03 -0.11416247788E+04  0.18869790788E+04  0.46999998093E+01 0.  1.
</event>
<event>
 5   0  0.1164500E-08  0.3890271E+04  0.7818609E-02  0.8027056E-01
       -1   -1    0    0    0  501  0.00000000000E+00  0.00000000000E+00  0.13778708825E+04  0.13778708825E+04  0.50400001928E-02 0. -1.
        1   -1    0    0  501    0  0.00000000000E+00  0.00000000000E+00 -0.27459416624E+04  0.27459416624E+04  0.50400001928E-02 0.  1.
    10030    2    1    2    0    0  0.00000000000E+00  0.00000000000E+00 -0.13680707799E+04  0.41238125450E+04  0.38902714876E+04 0.  0.
        1    1    3    3  502    0 -0.98128598363E+03  0.14646460210E+04  0.18715550934E+03  0.17728895434E+04  0.50400001928E-02 0. -1.
       -1    1    3    3    0  502  0.98128598363E+03 -0.14646460210E+04 -0.15552262892E+04  0.23509230016E+04  0.50400001928E-02 0.  1.
</event>
<event>
 5   0  0.3769985E-08  0.3898496E+04  0.7818609E-02  0.8025342E-01
        2   -1    0    0  501    0  0.00000000000E+00  0.00000000000E+00  0.31121605311E+04  0.31121605311E+04  0.25500000920E-02 0.  1.
       -2   -1    0    0    0  501  0.00000000000E+00  0.00000000000E+00 -0.12208778250E+04  0.12208778250E+04  0.25500000920E-02 0. -1.
    10030    2    1    2    0    0  0.00000000000E+00  0.00000000000E+00  0.18912827062E+04  0.43330383561E+04  0.38984960075E+04 0.  0.
        1    1    3    3  502    0 -0.16876404909E+04  0.69481072758E+03  0.18473445382E+03  0.18343988640E+04  0.50400001928E-02 0. -1.
       -1    1    3    3    0  502  0.16876404909E+04 -0.69481072758E+03  0.17065482523E+04  0.24986394921E+04  0.50400001928E-02 0.  1.
</event>
<event>
 5   0  0.1164500E-08  0.3894884E+04  0.7818609E-02  0.8026094E-01
        1   -1    0    0  501    0  0.00000000000E+00  0.00000000000E+00  0.10704090660E+04  0.10704090660E+04  0.50400001928E-02 0.  1.
       -1   -1    0    0    0  501  0.00000000000E+00  0.00000000000E+00 -0.35430655563E+04  0.35430655563E+04  0.50400001928E-02 0. -1.
    10030    2    1    2    0    0  0.00000000000E+00  0.00000000000E+00 -0.24726564903E+04  0.46134746223E+04  0.38948835633E+04 0.  0.
        1    1    3    3  502    0 -0.17951029559E+04  0.38536048319E+03 -0.20054596169E+04  0.27189640673E+04  0.50400001928E-02 0.  1.
       -1    1    3    3    0  502  0.17951029559E+04 -0.38536048319E+03 -0.46719687343E+03  0.18945105550E+04  0.50400001928E-02 0. -1.
</event>
<event>
 5   0  0.3669347E-08  0.3897436E+04  0.7818609E-02  0.8025563E-01
       -2   -1    0    0    0  501  0.00000000000E+00  0.00000000000E+00  0.15406571517E+04  0.15406571517E+04  0.25500000920E-02 0.  1.
        2   -1    0    0  501    0  0.00000000000E+00  0.00000000000E+00 -0.24648588084E+04  0.24648588084E+04  0.25500000920E-02 0. -1.
    10030    2    1    2    0    0  0.00000000000E+00  0.00000000000E+00 -0.92420165666E+03  0.40055159601E+04  0.38974362605E+04 0.  0.
        5    1    3    3  502    0  0.18343966497E+03  0.11343830829E+03 -0.24525485323E+04  0.24620184309E+04  0.46999998093E+01 0. -1.
       -5    1    3    3    0  502 -0.18343966497E+03 -0.11343830829E+03  0.15283468757E+04  0.15434975293E+04  0.46999998093E+01 0.  1.
</event>
<event>
 5   0  0.3769985E-08  0.3897911E+04  0.7818609E-02  0.8025464E-01
       -2   -1    0    0    0  501  0.00000000000E+00  0.00000000000E+00  0.20487765248E+04  0.20487765248E+04  0.25500000920E-02 0. -1.
        2   -1    0    0  501    0  0.00000000000E+00  0.00000000000E+00 -0.18539979391E+04  0.18539979391E+04  0.25500000920E-02 0.  1.
    10030    2    1    2    0    0  0.00000000000E+00  0.00000000000E+00  0.19477858566E+03  0.39027744639E+04  0.38979109557E+04 0.  0.
        1    1    3    3  502    0 -0.80682268262E+03  0.13481792948E+04 -0.10572526024E+04  0.18937616845E+04  0.50400001928E-02 0.  1.
       -1    1    3    3    0  502  0.80682268262E+03 -0.13481792948E+04  0.12520311881E+04  0.20090127795E+04  0.50400001928E-02 0. -1.
</event>
<event>
 5   0  0.3669347E-08  0.3901851E+04  0.7818609E-02  0.8024644E-01
       -2   -1    0    0    0  501  0.00000000000E+00  0.00000000000E+00  0.19415876530E+04  0.19415876530E+04  0.25500000920E-02 0.  1.
        2   -1    0    0  501    0  0.00000000000E+00  0.00000000000E+00 -0.19603087324E+04  0.19603087324E+04  0.25500000920E-02 0. -1.
    10030    2    1    2    0    0  0.00000000000E+00  0.00000000000E+00 -0.18721079433E+02  0.39018963854E+04  0.39018514738E+04 0.  0.
        5    1    3    3  502    0  0.79900967645E+03 -0.15526279844E+04  0.86071787457E+03  0.19467736054E+04  0.46999998093E+01 0.  1.
       -5    1    3    3    0  502 -0.79900967645E+03  0.15526279844E+04 -0.87943895401E+03  0.19551227800E+04  0.46999998093E+01 0. -1.
</event>
<event>
 5   0  0.3669347E-08  0.3900859E+04  0.7818609E-02  0.8024851E-01
        2   -1    0    0  501    0  0.00000000000E+00  0.00000000000E+00  0.23423075307E+04  0.23423075307E+04  0.25500000920E-02 0.  1.
       -2   -1    0    0    0  501  0.00000000000E+00  0.00000000000E+00 -0.16241143265E+04  0.16241143265E+04  0.25500000920E-02 0. -1.
    10030    2    1    2    0    0  0.00000000000E+00  0.00000000000E+00  0.71819320422E+03  0.39664218571E+04  0.39008589913E+04 0.  0.
        5    1    3    3  502    0 -0.97027643721E+03  0.64871756337E+03  0.19480128760E+04  0.22709132737E+04  0.46999998093E+01 0.  1.
       -5    1    3    3    0  502  0.97027643721E+03 -0.64871756337E+03 -0.12298196717E+04  0.16955085835E+04  0.46999998093E+01 0. -1.
</event>
<event>
 5   0  0.1164500E-08  0.3892322E+04  0.7818609E-02  0.8026628E-01
        1   -1    0    0  501    0  0.00000000000E+00  0.00000000000E+00  0.11203689680E+04  0.11203689680E+04  0.50400001928E-02 0. -1.
       -1   -1    0    0    0  501  0.00000000000E+00  0.00000000000E+00 -0.33806215509E+04  0.33806215509E+04  0.50400001928E-02 0.  1.
    10030    2    1    2    0    0  0.00000000000E+00  0.00000000000E+00 -0.22602525829E+04  0.45009905188E+04  0.38923224317E+04 0.  0.
        2    1    3    3  502    0  0.15391231217E+03  0.11697799812E+04 -0.29198854411E+04  0.31492547044E+04  0.25500000920E-02 0.  1.
       -2    1    3    3    0  502 -0.15391231217E+03 -0.11697799812E+04  0.65963285822E+03  0.13517358144E+04  0.25500000920E-02 0. -1.
</event>
<event>
 5   0  0.3690572E-08  0.3900848E+04  0.7818609E-02  0.8024853E-01
       -2   -1    0    0    0  501  0.00000000000E+00  0.00000000000E+00  0.18416364074E+04  0.18416364074E+04  0.25500000920E-02 0.  1.
        2   -1    0    0  501    0  0.00000000000E+00  0.00000000000E+00 -0.20656373317E+04  0.20656373317E+04  0.25500000920E-02 0. -1.
    10030    2    1    2    0    0  0.00000000000E+00  0.00000000000E+00 -0.22400092429E+03  0.39072737391E+04  0.39008475564E+04 0.  0.
        3    1    3    3  502    0 -0.29453597778E+03  0.40614489432E+03 -0.19998992674E+04  0.20618686203E+04  0.10100000352E+00 0. -1.
       -3    1    3    3    0  502  0.29453597778E+03 -0.40614489432E+03  0.17758983431E+04  0.18454051188E+04  0.10100000352E+00 0.  1.
</event>
<event>
 5   0  0.1164500E-08  0.3900490E+04  0.7818609E-02  0.8024927E-01
       -1   -1    0    0    0  501  0.00000000000E+00  0.00000000000E+00  0.28107086401E+04  0.28107086401E+04  0.50400001928E-02 0.  1.
        1   -1    0    0  501    0  0.00000000000E+00  0.00000000000E+00 -0.13532017293E+04  0.13532017293E+04  0.50400001928E-02 0. -1.
    10030    2    1    2    0    0  0.00000000000E+00  0.00000000000E+00  0.14575069108E+04  0.41639103694E+04  0.39004901191E+04 0.  0.
        2    1    3    3  502    0  0.18321005315E+04  0.45045963150E+03  0.12560224159E+04  0.22665168312E+04  0.25500000920E-02 0.  1.
       -2    1    3    3    0  502 -0.18321005315E+04 -0.45045963150E+03  0.20148449488E+03  0.18973935382E+04  0.25500000920E-02 0. -1.
</event>
<event>
 5   0  0.3724293E-08  0.3897269E+04  0.7818609E-02  0.8025597E-01
       -2   -1    0    0    0  501  0.00000000000E+00  0.00000000000E+00  0.11992095925E+04  0.11992095925E+04  0.25500000920E-02 0.  1.
        2   -1    0    0  501    0  0.00000000000E+00  0.00000000000E+00 -0.31663996916E+04  0.31663996916E+04  0.25500000920E-02 0. -1.
    10030    2    1    2    0    0  0.00000000000E+00  0.00000000000E+00 -0.19671900991E+04  0.43656092841E+04  0.38972692408E+04 0.  0.
        4    1    3    3  502    0  0.73595298676E+03 -0.16498705089E+04 -0.16542833618E+03  0.18141299959E+04  0.12699999809E+01 0.  1.
       -4    1    3    3    0  502 -0.73595298676E+03  0.16498705089E+04 -0.18017617629E+04  0.25514792881E+04  0.12699999809E+01 0. -1.
</event>
<event>
 5   0  0.1164500E-08  0.3893612E+04  0.7818609E-02  0.8026359E-01
        1   -1    0    0  501    0  0.00000000000E+00  0.00000000000E+00  0.22134731660E+04  0.22134731660E+04  0.50400001928E-02 0.  1.
       -1   -1    0    0    0  501  0.00000000000E+00  0.00000000000E+00 -0.17122655720E+04  0.17122655720E+04  0.50400001928E-02 0. -1.
    10030    2    1    2    0    0  0.00000000000E+00  0.00000000000E+00  0.50120759396E+03  0.39257387380E+04  0.38936121516E+04 0.  0.
        3    1    3    3  502    0 -0.92149363604E+03 -0.27011009889E+03  0.19580775273E+04  0.21808662499E+04  0.10100000352E+00 0.  1.
       -3    1    3    3    0  502  0.92149363604E+03  0.27011009889E+03 -0.14568699334E+04  0.17448724881E+04  0.10100000352E+00 0. -1.
</event>
<event>
 5   0  0.3690572E-08  0.3897504E+04  0.7818609E-02  0.8025548E-01
       -2   -1    0    0    0  501  0.00000000000E+00  0.00000000000E+00  0.22110832490E+04  0.22110832490E+04  0.25500000920E-02 0.  1.
        2   -1    0    0  501    0  0.00000000000E+00  0.00000000000E+00 -0.17175450180E+04  0.17175450180E+04  0.25500000920E-02 0. -1.
    10030    2    1    2    0    0  0.00000000000E+00  0.00000000000E+00  0.49353823100E+03  0.39286282670E+04  0.38975043393E+04 0.  0.
        3    1    3    3  502    0 -0.10236897955E+03 -0.14937109217E+04 -0.10105826418E+04  0.18063579412E+04  0.10100000352E+00 0. -1.
       -3    1    3    3    0  502  0.10236897955E+03  0.14937109217E+04  0.15041208728E+04  0.21222703258E+04  0.10100000352E+00 0.  1.
</event>
<event>
 5   0  0.1164500E-08  0.3893618E+04  0.7818609E-02  0.8026358E-01
       -1   -1    0    0    0  501  0.00000000000E+00  0.00000000000E+00  0.31520763828E+04  0.31520763828E+04  0.50400001928E-02 0.  1.
        1   -1    0    0  501    0  0.00000000000E+00  0.00000000000E+00 -0.12024026251E+04  0.12024026251E+04  0.50400001928E-02 0. -1.
    10030    2    1    2    0    0  0.00000000000E+00  0.00000000000E+00  0.19496737577E+04  0.43544790080E+04  0.38936178124E+04 0.  0.
        4    1    3    3  502    0  0.43322531382E+03 -0.10687123334E+04  0.27290041674E+04  0.29626500945E+04  0.12699999809E+01 0.  1.
       -4    1    3    3    0  502 -0.43322531382E+03  0.10687123334E+04 -0.77933040964E+03  0.13918289134E+04  0.12699999809E+01 0. -1.
</event>
<event>
 5   0  0.3769985E-08  0.3898053E+04  0.7818609E-02  0.8025434E-01
        2   -1    0    0  501    0  0.00000000000E+00  0.00000000000E+00  0.23018645234E+04  0.23018645234E+04  0.25500000920E-02 0. -1.
       -2   -1    0    0    0  501  0.00000000000E+00  0.00000000000E+00 -0.16502729610E+04  0.16502729610E+04  0.25500000920E-02 0.  1.
    10030    2    1    2    0    0  0.00000000000E+00  0.00000000000E+00  0.65159156237E+03  0.39521374844E+04  0.38980532490E+04 0.  0.
        1    1    3    3  502    0  0.47564470054E+03 -0.54039592132E+03 -0.15105322759E+04  0.16733121017E+04  0.50400001928E-02 0.  1.
       -1    1    3    3    0  502 -0.47564470054E+03  0.54039592132E+03  0.21621238383E+04  0.22788253828E+04  0.50400001928E-02 0. -1.
</event>
<event>
 5   0  0.1164500E-08  0.3928140E+04  0.7818609E-02  0.8019202E-01
       -1   -1    0    0    0  501  0.00000000000E+00  0.00000000000E+00  0.26752012781E+04  0.26752012781E+04  0.50400001928E-02 0.  1.
        1   -1    0    0  501    0  0.00000000000E+00  0.00000000000E+00 -0.14419740516E+04  0.14419740516E+04  0.50400001928E-02 0. -1.
    10030    2    1    2    0    0  0.00000000000E+00  0.00000000000E+00  0.12332272265E+04  0.41171753297E+04  0.39281399292E+04 0.  0.
        5    1    3    3  502    0 -0.12762878575E+04 -0.11553490097E+04 -0.37429639851E+03  0.17617780545E+04  0.46999998093E+01 0.  1.
       -5    1    3    3    0  502  0.12762878575E+04  0.11553490097E+04  0.16075236250E+04  0.23553972752E+04  0.46999998093E+01 0. -1.
</event>
<event>
 5   0  0.1164500E-08  0.3903330E+04  0.7818609E-02  0.8024337E-01
        1   -1    0    0  501    0  0.00000000000E+00  0.00000000000E+00  0.14751338186E+04  0.14751338186E+04  0.50400001928E-02 0.  1.
       -1   -1    0    0    0  501  0.00000000000E+00  0.00000000000E+00 -0.25821363723E+04  0.25821363723E+04  0.50400001928E-02 0. -1.
    10030    2    1    2    0    0  0.00000000000E+00  0.00000000000E+00 -0.11070025537E+04  0.40572701908E+04  0.39033302125E+04 0.  0.
        4    1    3    3  502    0 -0.66276833021E+03 -0.13545915707E+04  0.73423413636E+03  0.16772839840E+04  0.12699999809E+01 0.  1.
       -4    1    3    3    0  502  0.66276833021E+03  0.13545915707E+04 -0.18412366900E+04  0.23799862068E+04  0.12699999809E+01 0. -1.
</event>
<event>
 5   0  0.3690572E-08  0.3905272E+04  0.7818609E-02  0.8023934E-01
        2   -1    0    0  501    0  0.00000000000E+00  0.00000000000E+00  0.19351081240E+04  0.19351081240E+04  0.25500000920E-02 0. -1.
       -2   -1    0    0    0  501  0.00000000000E+00  0.00000000000E+00 -0.19703230717E+04  0.19703230717E+04  0.25500000920E-02 0.  1.
    10030    2    1    2    0    0  0.00000000000E+00  0.00000000000E+00 -0.35214947643E+02  0.39054311957E+04  0.39052724273E+04 0.  0.
        3    1    3    3  502    0  0.16538209917E+03 -0.18434056262E+04 -0.63996116947E+03  0.19583273093E+04  0.10100000352E+00 0.  1.
       -3    1    3    3    0  502 -0.16538209917E+03  0.18434056262E+04  0.60474622183E+03  0.19471038864E+04  0.10100000352E+00 0. -1.
</event>
<event>
 5   0  0.1164500E-08  0.3901564E+04  0.7818609E-02  0.8024704E-01
       -3   -1    0    0    0  501  0.00000000000E+00  0.00000000000E+00  0.28757883746E+04  0.28757883764E+04  0.10100000352E+00 0.  1.
        3   -1    0    0  501    0  0.00000000000E+00  0.00000000000E+00 -0.13233068051E+04  0.13233068090E+04  0.10100000352E+00 0. -1.
    10030    2    1    2    0    0  0.00000000000E+00  0.00000000000E+00  0.15524815695E+04  0.41990951854E+04  0.39015639623E+04 0.  0.
        5    1    3    3  502    0 -0.12476289955E+04 -0.39825649447E+02 -0.83720249852E+03  0.15030283784E+04  0.46999998093E+01 0. -1.
       -5    1    3    3    0  502  0.12476289955E+04  0.39825649447E+02  0.23896840680E+04  0.26960668070E+04  0.46999998093E+01 0.  1.
</event>
<event>
 5   0  0.1164500E-08  0.3901893E+04  0.7818609E-02  0.8024636E-01
        1   -1    0    0  501    0  0.00000000000E+00  0.00000000000E+00  0.15365446712E+04  0.15365446712E+04  0.50400001928E-02 0.  1.
       -1   -1    0    0    0  501  0.00000000000E+00  0.00000000000E+00 -0.24771117701E+04  0.24771117701E+04  0.50400001928E-02 0. -1.
    10030    2    1    2    0    0  0.00000000000E+00  0.00000000000E+00 -0.94056709895E+03  0.40136564413E+04  0.39018933303E+04 0.  0.
        3    1    3    3  502    0  0.10288574019E+04 -0.29116401233E+03  0.12082873550E+04  0.16134690508E+04  0.10100000352E+00 0.  1.
       -3    1    3    3    0  502 -0.10288574019E+04  0.29116401233E+03 -0.21488544539E+04  0.24001873905E+04  0.10100000352E+00 0. -1.
</event>
<event>
 5   0  0.1164500E-08  0.3905659E+04  0.7818609E-02  0.8023853E-01
       -1   -1    0    0    0  501  0.00000000000E+00  0.00000000000E+00  0.15335318825E+04  0.15335318826E+04  0.50400001928E-02 0. -1.
        1   -1    0    0  501    0  0.00000000000E+00  0.00000000000E+00 -0.24867710193E+04  0.24867710193E+04  0.50400001928E-02 0.  1.
    10030    2    1    2    0    0  0.00000000000E+00  0.00000000000E+00 -0.95323913671E+03  0.40203029018E+04  0.39056587883E+04 0.  0.
        2    1    3    3  502    0  0.14806068800E+04 -0.85951741383E+02  0.83108794395E+03  0.17000857642E+04  0.25500000920E-02 0. -1.
       -2    1    3    3    0  502 -0.14806068800E+04  0.85951741383E+02 -0.17843270807E+04  0.23202171376E+04  0.25500000920E-02 0.  1.
</event>
<event>
 5   0  0.3872969E-08  0.3929541E+04  0.7818609E-02  0.8018913E-01
       -2   -1    0    0    0  501  0.00000000000E+00  0.00000000000E+00  0.23054338889E+04  0.23054338889E+04  0.25500000920E-02 0. -1.
        2   -1    0    0  501    0  0.00000000000E+00  0.00000000000E+00 -0.16744457867E+04  0.16744457867E+04  0.25500000920E-02 0.  1.
    10030    2    1    2    0    0  0.00000000000E+00  0.00000000000E+00  0.63098810218E+03  0.39798796756E+04  0.39295414805E+04 0.  0.
        2    1    3    3  502    0 -0.98404008715E+03 -0.16837958470E+04  0.55691858896E+03  0.20282163746E+04  0.25500000920E-02 0.  1.
       -2    1    3    3    0  502  0.98404008715E+03  0.16837958470E+04  0.74069513226E+02  0.19516633010E+04  0.25500000920E-02 0. -1.
</event>
<event>
 5   0  0.1164500E-08  0.3880445E+04  0.7818609E-02  0.8029109E-01
       -1   -1    0    0    0  501  0.00000000000E+00  0.00000000000E+00  0.26910007447E+04  0.26910007447E+04  0.50400001928E-02 0.  1.
        1   -1    0    0  501    0  0.00000000000E+00  0.00000000000E+00 -0.13989079735E+04  0.13989079735E+04  0.50400001928E-02 0. -1.
    10030    2    1    2    0    0  0.00000000000E+00  0.00000000000E+00  0.12920927712E+04  0.40899087181E+04  0.38804445097E+04 0.  0.
        4    1    3    3  502    0 -0.16174454694E+04  0.10708654910E+04  0.68791523385E+03  0.20581816558E+04  0.12699999809E+01 0. -1.
       -4    1    3    3    0  502  0.16174454694E+04 -0.10708654910E+04  0.60417753734E+03  0.20317270623E+04  0.12699999809E+01 0.  1.
</event>
<event>
 5   0  0.1164500E-08  0.3900066E+04  0.7818609E-02  0.8025015E-01
        1   -1    0    0  501    0  0.00000000000E+00  0.00000000000E+00  0.14243327051E+04  0.14243327051E+04  0.50400001928E-02 0. -1.
       -1   -1    0    0    0  501  0.00000000000E+00  0.00000000000E+00 -0.26697615156E+04  0.26697615156E+04  0.50400001928E-02 0.  1.
    10030    2    1    2    0    0  0.00000000000E+00  0.00000000000E+00 -0.12454288105E+04  0.40940942208E+04  0.39000659695E+04 0.  0.
        2    1    3    3  502    0 -0.15500525924E+04 -0.29884520281E+03  0.57908069796E+03  0.16814594700E+04  0.25500000920E-02 0.  1.
       -2    1    3    3    0  502  0.15500525924E+04  0.29884520281E+03 -0.18245095085E+04  0.24126347508E+04  0.25500000920E-02 0. -1.
</event>
<event>
 5   0  0.1164500E-08  0.3894996E+04  0.7818609E-02  0.8026071E-01
       -1   -1    0    0    0  501  0.00000000000E+00  0.00000000000E+00  0.18708024422E+04  0.18708024422E+04  0.50400001928E-02 0. -1.
        1   -1    0    0  501    0  0.00000000000E+00  0.00000000000E+00 -0.20273372758E+04  0.20273372758E+04  0.50400001928E-02 0.  1.
    10030    2    1    2    0    0  0.00000000000E+00  0.00000000000E+00 -0.15653483361E+03  0.38981397179E+04  0.38949955207E+04 0.  0.
        3    1    3    3  502    0  0.11693494490E+04 -0.14860142175E+04 -0.54461688191E+03  0.19677967239E+04  0.10100000352E+00 0.  1.
       -3    1    3    3    0  502 -0.11693494490E+04  0.14860142175E+04  0.38808204830E+03  0.19303429940E+04  0.10100000352E+00 0. -1.
</event>
<event>
 5   0  0.3769985E-08  0.3898730E+04  0.7818609E-02  0.8025293E-01
        2   -1    0    0  501    0  0.00000000000E+00  0.00000000000E+00  0.15274170655E+04  0.15274170655E+04  0.25500000920E-02 0. -1.
       -2   -1    0    0    0  501  0.00000000000E+00  0.00000000000E+00 -0.24878759238E+04  0.24878759238E+04  0.25500000920E-02 0.  1.
    10030    2    1    2    0    0  0.00000000000E+00  0.00000000000E+00 -0.96045885828E+03  0.40152929893E+04  0.38987301230E+04 0.  0.
        1    1    3    3  502    0  0.45065041661E+03 -0.16275487698E+04 -0.14830046260E+04  0.22475105154E+04  0.50400001928E-02 0.  1.
       -1    1    3    3    0  502 -0.45065041661E+03  0.16275487698E+04  0.52254576767E+03  0.17677824740E+04  0.50400001928E-02 0. -1.
</event>
<event>
 5   0  0.3724293E-08  0.3895327E+04  0.7818609E-02  0.8026002E-01
        2   -1    0    0  501    0  0.00000000000E+00  0.00000000000E+00  0.31351380191E+04  0.31351380191E+04  0.25500000920E-02 0.  1.
       -2   -1    0    0    0  501  0.00000000000E+00  0.00000000000E+00 -0.12099602448E+04  0.12099602449E+04  0.25500000920E-02 0. -1.
    10030    2    1    2    0    0  0.00000000000E+00  0.00000000000E+00  0.19251777742E+04  0.43450982639E+04  0.38953266180E+04 0.  0.
        4    1    3    3  502    0  0.17261001093E+04 -0.38419708901E+03  0.18731534776E+04  0.25759919553E+04  0.12699999809E+01 0.  1.
       -4    1    3    3    0  502 -0.17261001093E+04  0.38419708901E+03  0.52024296650E+02  0.17691063086E+04  0.12699999809E+01 0. -1.
</event>
<event>
 5   0  0.1164500E-08  0.3902728E+04  0.7818609E-02  0.8024462E-01
       -1   -1    0    0    0  501  0.00000000000E+00  0.00000000000E+00  0.22309277691E+04  0.22309277691E+04  0.50400001928E-02 0. -1.
        1   -1    0    0  501    0  0.00000000000E+00  0.00000000000E+00 -0.17068330788E+04  0.17068330788E+04  0.50400001928E-02 0.  1.
    10030    2    1    2    0    0  0.00000000000E+00  0.00000000000E+00  0.52409469033E+03  0.39377608479E+04  0.39027279242E+04 0.  0.
        3    1    3    3  502    0 -0.15516633334E+04 -0.47797856740E+03  0.13542143025E+04  0.21142419442E+04  0.10100000352E+00 0. -1.
       -3    1    3    3    0  502  0.15516633334E+04  0.47797856740E+03 -0.83011961220E+03  0.18235189037E+04  0.10100000352E+00 0.  1.
</event>
<event>
 5   0  0.3769985E-08  0.3911323E+04  0.7818609E-02  0.8022678E-01
       -2   -1    0    0    0  501  0.00000000000E+00  0.00000000000E+00  0.15246167839E+04  0.15246167839E+04  0.25500000920E-02 0. -1.
        2   -1    0    0  501    0  0.00000000000E+00  0.00000000000E+00 -0.25085724718E+04  0.25085724718E+04  0.25500000920E-02 0.  1.
    10030    2    1    2    0    0  0.00000000000E+00  0.00000000000E+00 -0.98395568787E+03  0.40331892557E+04  0.39113228934E+04 0.  0.
        1    1    3    3  502    0 -0.29833222459E+03  0.17299214460E+04 -0.13807979970E+04  0.22334353436E+04  0.50400001928E-02 0. -1.
       -1    1    3    3    0  502  0.29833222459E+03 -0.17299214460E+04  0.39684230911E+03  0.17997539121E+04  0.50400001928E-02 0.  1.
</event>
<event>
 5   0  0.3724293E-08  0.3900382E+04  0.7818609E-02  0.8024950E-01
       -2   -1    0    0    0  501  0.00000000000E+00  0.00000000000E+00  0.14912561819E+04  0.14912561819E+04  0.25500000920E-02 0.  1.
        2   -1    0    0  501    0  0.00000000000E+00  0.00000000000E+00 -0.25503628532E+04  0.25503628532E+04  0.25500000920E-02 0. -1.
    10030    2    1    2    0    0  0.00000000000E+00  0.00000000000E+00 -0.10591066714E+04  0.40416190351E+04  0.39003817100E+04 0.  0.
        4    1    3    3  502    0  0.21001082668E+03 -0.35079249763E+03 -0.25054541821E+04  0.25385945315E+04  0.12699999809E+01 0. -1.
       -4    1    3    3    0  502 -0.21001082668E+03  0.35079249763E+03  0.14463475107E+04  0.15030245036E+04  0.12699999809E+01 0.  1.
</event>
<event>
 5   0  0.3669347E-08  0.3900583E+04  0.7818609E-02  0.8024908E-01
        2   -1    0    0  501    0  0.00000000000E+00  0.00000000000E+00  0.23072694957E+04  0.23072694957E+04  0.25500000920E-02 0.  1.
       -2   -1    0    0    0  501  0.00000000000E+00  0.00000000000E+00 -0.16485448583E+04  0.16485448583E+04  0.25500000920E-02 0. -1.
    10030    2    1    2    0    0  0.00000000000E+00  0.00000000000E+00  0.65872463739E+03  0.39558143540E+04  0.39005831687E+04 0.  0.
        5    1    3    3  502    0  0.17409852913E+04  0.10537599190E+03  0.12143474578E+04  0.21252754463E+04  0.46999998093E+01 0.  1.
       -5    1    3    3    0  502 -0.17409852913E+04 -0.10537599190E+03 -0.55562282045E+03  0.18305389078E+04  0.46999998093E+01 0. -1.
</event>
<event>
 5   0  0.3769985E-08  0.3903717E+04  0.7818609E-02  0.8024257E-01
        2   -1    0    0  501    0  0.00000000000E+00  0.00000000000E+00  0.24669920306E+04  0.24669920306E+04  0.25500000920E-02 0. -1.
       -2   -1    0    0    0  501  0.00000000000E+00  0.00000000000E+00 -0.15442902644E+04  0.15442902644E+04  0.25500000920E-02 0.  1.
    10030    2    1    2    0    0  0.00000000000E+00  0.00000000000E+00  0.92270176615E+03  0.40112822950E+04  0.39037170877E+04 0.  0.
        1    1    3    3  502    0 -0.17523527932E+04  0.62353856638E+03  0.10694436764E+04  0.21455186862E+04  0.50400001928E-02 0.  1.
       -1    1    3    3    0  502  0.17523527932E+04 -0.62353856638E+03 -0.14674191023E+03  0.18657636088E+04  0.50400001928E-02 0. -1.
</event>
<event>
 5   0  0.3669347E-08  0.3908929E+04  0.7818609E-02  0.8023175E-01
        2   -1    0    0  501    0  0.00000000000E+00  0.00000000000E+00  0.32013268104E+04  0.32013268104E+04  0.25500000920E-02 0. -1.
       -2   -1    0    0    0  501  0.00000000000E+00  0.00000000000E+00 -0.11932339682E+04  0.11932339682E+04  0.25500000920E-02 0.  1.
    10030    2    1    2    0    0  0.00000000000E+00  0.00000000000E+00  0.20080928421E+04  0.43945607786E+04  0.39089292107E+04 0.  0.
        5    1    3    3  502    0  0.14226157343E+04  0.68901685429E+02 -0.50063682572E+03  0.15097159637E+04  0.46999998093E+01 0.  1.
       -5    1    3    3    0  502 -0.14226157343E+04 -0.68901685429E+02  0.25087296679E+04  0.28848448149E+04  0.46999998093E+01 0. -1.
</event>
<event>
 5   0  0.3769985E-08  0.3899115E+04  0.7818609E-02  0.8025213E-01
        2   -1    0    0  501    0  0.00000000000E+00  0.00000000000E+00  0.17507649107E+04  0.17507649107E+04  0.25500000920E-02 0.  1.
       -2   -1    0    0    0  501  0.00000000000E+00  0.00000000000E+00 -0.21709227260E+04  0.21709227260E+04  0.25500000920E-02 0. -1.
    10030    2    1    2    0    0  0.00000000000E+00  0.00000000000E+00 -0.42015781533E+03  0.39216876368E+04  0.38991154549E+04 0.  0.
        1    1    3    3  502    0 -0.17675943333E+04 -0.74972151490E+03  0.12996594409E+03  0.19244124360E+04  0.50400001928E-02 0. -1.
       -1    1    3    3    0  502  0.17675943333E+04  0.74972151490E+03 -0.55012375942E+03  0.19972752008E+04  0.50400001928E-02 0.  1.
</event>
<event>
 5   0  0.1164500E-08  0.3905217E+04  0.7818609E-02  0.8023945E-01
        1   -1    0    0  501    0  0.00000000000E+00  0.00000000000E+00  0.20398594878E+04  0.20398594878E+04  0.50400001928E-02 0. -1.
       -1   -1    0    0    0  501  0.00000000000E+00  0.00000000000E+00 -0.18690893279E+04  0.18690893279E+04  0.50400001928E-02 0.  1.
    10030    2    1    2    0    0  0.00000000000E+00  0.00000000000E+00  0.17077015988E+03  0.39089488157E+04  0.39052168181E+04 0.  0.
        4    1    3    3  502    0 -0.76335322870E+03  0.66059234364E+03 -0.15876150673E+04  0.18813860877E+04  0.12699999809E+01 0.  1.
       -4    1    3    3    0  502  0.76335322870E+03 -0.66059234364E+03  0.17583852271E+04  0.20275627281E+04  0.12699999809E+01 0. -1.
</event>
<event>
 5   0  0.1164500E-08  0.3902138E+04  0.7818609E-02  0.8024585E-01
       -1   -1    0    0    0  501  0.00000000000E+00  0.00000000000E+00  0.15222408354E+04  0.15222408354E+04  0.50400001928E-02 0. -1.
        1   -1    0    0  501    0  0.00000000000E+00  0.00000000000E+00 -0.25007013425E+04  0.25007013425E+04  0.50400001928E-02 0.  1.
    10030    2    1    2    0    0  0.00000000000E+00  0.00000000000E+00 -0.97846050707E+03  0.40229421779E+04  0.39021377222E+04 0.  0.
        3    1    3    3  502    0 -0.44939883754E+03 -0.95897362171E+03  0.12001204205E+04  0.16005870036E+04  0.10100000352E+00 0. -1.
       -3    1    3    3    0  502  0.44939883754E+03  0.95897362171E+03 -0.21785809275E+04  0.24223551743E+04  0.10100000352E+00 0.  1.
</event>
<event>
 5   0  0.3769985E-08  0.3891616E+04  0.7818609E-02  0.8026775E-01
        2   -1    0    0  501    0  0.00000000000E+00  0.00000000000E+00  0.18132094931E+04  0.18132094931E+04  0.25500000920E-02 0. -1.
       -2   -1    0    0    0  501  0.00000000000E+00  0.00000000000E+00 -0.20881029325E+04  0.20881029325E+04  0.25500000920E-02 0.  1.
    10030    2    1    2    0    0  0.00000000000E+00  0.00000000000E+00 -0.27489343945E+03  0.39013124256E+04  0.38916156335E+04 0.  0.
        1    1    3    3  502    0  0.55106742482E+03  0.41057888699E+03 -0.19623995887E+04  0.20792456505E+04  0.50400001928E-02 0.  1.
       -1    1    3    3    0  502 -0.55106742482E+03 -0.41057888699E+03  0.16875061493E+04  0.18220667751E+04  0.50400001928E-02 0. -1.
</event>
<event>
 5   0  0.1164500E-08  0.3902103E+04  0.7818609E-02  0.8024592E-01
        1   -1    0    0  501    0  0.00000000000E+00  0.00000000000E+00  0.16468342532E+04  0.16468342532E+04  0.50400001928E-02 0.  1.
       -1   -1    0    0    0  501  0.00000000000E+00  0.00000000000E+00 -0.23114668426E+04  0.23114668426E+04  0.50400001928E-02 0. -1.
    10030    2    1    2    0    0  0.00000000000E+00  0.00000000000E+00 -0.66463258939E+03  0.39583010959E+04  0.39021034182E+04 0.  0.
        2    1    3    3  502    0  0.15375634453E+04 -0.73612534571E+03 -0.12949943265E+04  0.21407924184E+04  0.25500000920E-02 0. -1.
       -2    1    3    3    0  502 -0.15375634453E+04  0.73612534571E+03  0.63036173715E+03  0.18175086775E+04  0.25500000920E-02 0.  1.
</event>
<event>
 5   0  0.3872969E-08  0.3916859E+04  0.7818609E-02  0.8021532E-01
       -2   -1    0    0    0  501  0.00000000000E+00  0.00000000000E+00  0.12676194468E+04  0.12676194468E+04  0.25500000920E-02 0.  1.
        2   -1    0    0  501    0  0.00000000000E+00  0.00000000000E+00 -0.30257075864E+04  0.30257075864E+04  0.25500000920E-02 0. -1.
    10030    2    1    2    0    0  0.00000000000E+00  0.00000000000E+00 -0.17580881396E+04  0.42933270332E+04  0.39168588316E+04 0.  0.
        2    1    3    3  502    0  0.12973322837E+04 -0.14092308801E+04 -0.43185736503E+03  0.19635436108E+04  0.25500000920E-02 0.  1.
       -2    1    3    3    0  502 -0.12973322837E+04  0.14092308801E+04 -0.13262307746E+04  0.23297834224E+04  0.25500000920E-02 0. -1.
</event>
<event>
 5   0  0.1164500E-08  0.3900265E+04  0.7818609E-02  0.8024974E-01
       -1   -1    0    0    0  501  0.00000000000E+00  0.00000000000E+00  0.22026614607E+04  0.22026614607E+04  0.50400001928E-02 0.  1.
        1   -1    0    0  501    0  0.00000000000E+00  0.00000000000E+00 -0.17265552511E+04  0.17265552511E+04  0.50400001928E-02 0. -1.
    10030    2    1    2    0    0  0.00000000000E+00  0.00000000000E+00  0.47610620959E+03  0.39292167118E+04  0.39002649712E+04 0.  0.
        4    1    3    3  502    0 -0.18098250796E+04  0.13275810051E+03  0.95744312997E+03  0.20517773983E+04  0.12699999809E+01 0.  1.
       -4    1    3    3    0  502  0.18098250796E+04 -0.13275810051E+03 -0.48133692038E+03  0.18774393135E+04  0.12699999809E+01 0. -1.
</event>
<event>
 5   0  0.3669347E-08  0.3881834E+04  0.7818609E-02  0.8028818E-01
       -2   -1    0    0    0  501  0.00000000000E+00  0.00000000000E+00  0.30642602325E+04  0.30642602325E+04  0.25500000920E-02 0.  1.
        2   -1    0    0  501    0  0.00000000000E+00  0.00000000000E+00 -0.12293862022E+04  0.12293862022E+04  0.25500000920E-02 0. -1.
    10030    2    1    2    0    0  0.00000000000E+00  0.00000000000E+00  0.18348740303E+04  0.42936464348E+04  0.38818342313E+04 0.  0.
        5    1    3    3  502    0 -0.98585098789E+03  0.93222377952E+03 -0.61767222413E+03  0.14907999235E+04  0.46999998093E+01 0.  1.
       -5    1    3    3    0  502  0.98585098789E+03 -0.93222377952E+03  0.24525462545E+04  0.28028465113E+04  0.46999998093E+01 0. -1.
</event>
<event>
 5   0  0.1164500E-08  0.3893510E+04  0.7818609E-02  0.8026380E-01
        1   -1    0    0  501    0  0.00000000000E+00  0.00000000000E+00  0.22134044395E+04  0.22134044395E+04  0.50400001928E-02 0. -1.
       -1   -1    0    0    0  501  0.00000000000E+00  0.00000000000E+00 -0.17122292958E+04  0.17122292959E+04  0.50400001928E-02 0.  1.
    10030    2    1    2    0    0  0.00000000000E+00  0.00000000000E+00  0.50117514366E+03  0.39256337354E+04  0.38935104597E+04 0.  0.
        1    1    3    3  502    0 -0.99563866849E+03  0.48134189362E+03  0.18659513127E+04  0.21690460295E+04  0.50400001928E-02 0. -1.
       -1    1    3    3    0  502  0.99563866849E+03 -0.48134189362E+03 -0.13647761690E+04  0.17565877059E+04  0.50400001928E-02 0.  1.
</event>
<event>
 5   0  0.3769985E-08  0.3902271E+04  0.7818609E-02  0.8024557E-01
       -2   -1    0    0    0  501  0.00000000000E+00  0.00000000000E+00  0.12976843681E+04  0.12976843681E+04  0.25500000920E-02 0. -1.
        2   -1    0    0  501    0  0.00000000000E+00  0.00000000000E+00 -0.29336335454E+04  0.29336335454E+04  0.25500000920E-02 0.  1.
    10030    2    1    2    0    0  0.00000000000E+00  0.00000000000E+00 -0.16359491773E+04  0.42313179135E+04  0.39022713353E+04 0.  0.
        1    1    3    3  502    0  0.18103407881E+04 -0.30971723164E+03 -0.10390783244E+03  0.18395802157E+04  0.50400001928E-02 0. -1.
       -1    1    3    3    0  502 -0.18103407881E+04  0.30971723164E+03 -0.15320413448E+04  0.23917376977E+04  0.50400001928E-02 0.  1.
</event>
<event>
 5   0  0.1164500E-08  0.3904574E+04  0.7818609E-02  0.8024079E-01
        1   -1    0    0  501    0  0.00000000000E+00  0.00000000000E+00  0.12805241229E+04  0.12805241229E+04  0.50400001928E-02 0. -1.
       -1   -1    0    0    0  501  0.00000000000E+00  0.00000000000E+00 -0.29764570117E+04  0.29764570117E+04  0.50400001928E-02 0.  1.
    10030    2    1    2    0    0  0.00000000000E+00  0.00000000000E+00 -0.16959328888E+04  0.42569811346E+04  0.39045742428E+04 0.  0.
        2    1    3    3  502    0  0.96008522528E+03  0.40048994326E+03 -0.26491220132E+04  0.28460504696E+04  0.25500000920E-02 0.  1.
       -2    1    3    3    0  502 -0.96008522528E+03 -0.40048994326E+03  0.95318912447E+03  0.14109306650E+04  0.25500000920E-02 0. -1.
</event>
<event>
 5   0  0.1164500E-08  0.3889044E+04  0.7818609E-02  0.8027312E-01
        1   -1    0    0  501    0  0.00000000000E+00  0.00000000000E+00  0.13142580482E+04  0.13142580482E+04  0.50400001928E-02 0. -1.
       -1   -1    0    0    0  501  0.00000000000E+00  0.00000000000E+00 -0.28770348452E+04  0.28770348452E+04  0.50400001928E-02 0.  1.
    10030    2    1    2    0    0  0.00000000000E+00  0.00000000000E+00 -0.15627767970E+04  0.41912928934E+04  0.38890442015E+04 0.  0.
        2    1    3    3  502    0 -0.64517384198E+03 -0.58396162946E+03  0.10926964767E+04  0.13968700946E+04  0.25500000920E-02 0. -1.
       -2    1    3    3    0  502  0.64517384198E+03  0.58396162946E+03 -0.26554732737E+04  0.27944227988E+04  0.25500000920E-02 0.  1.
</event>
<event>
 5   0  0.1164500E-08  0.3898113E+04  0.7818609E-02  0.8025422E-01
        1   -1    0    0  501    0  0.00000000000E+00  0.00000000000E+00  0.22899190501E+04  0.22899190501E+04  0.50400001928E-02 0.  1.
       -1   -1    0    0    0  501  0.00000000000E+00  0.00000000000E+00 -0.16589326561E+04  0.16589326561E+04  0.50400001928E-02 0. -1.
    10030    2    1    2    0    0  0.00000000000E+00  0.00000000000E+00  0.63098639397E+03  0.39488517062E+04  0.38981131292E+04 0.  0.
        5    1    3    3  502    0 -0.17542481031E+03  0.76101254839E+03  0.21244818577E+04  0.22634838671E+04  0.46999998093E+01 0.  1.
       -5    1    3    3    0  502  0.17542481031E+03 -0.76101254839E+03 -0.14934954637E+04  0.16853678391E+04  0.46999998093E+01 0. -1.
</event>
<event>
 5   0  0.1164500E-08  0.3903846E+04  0.7818609E-02  0.8024230E-01
        1   -1    0    0  501    0  0.00000000000E+00  0.00000000000E+00  0.17450447742E+04  0.17450447742E+04  0.50400001928E-02 0.  1.
       -1   -1    0    0    0  501  0.00000000000E+00  0.00000000000E+00 -0.21833270576E+04  0.21833270576E+04  0.50400001928E-02 0. -1.
    10030    2    1    2    0    0  0.00000000000E+00  0.00000000000E+00 -0.43828228334E+03  0.39283718318E+04  0.39038460381E+04 0.  0.
        5    1    3    3  502    0 -0.76989115243E+03 -0.10008835518E+04  0.12786592256E+04  0.17970786783E+04  0.46999998093E+01 0.  1.
       -5    1    3    3    0  502  0.76989115243E+03  0.10008835518E+04 -0.17169415089E+04  0.21312931535E+04  0.46999998093E+01 0. -1.
</event>
<event>
 5   0  0.1164500E-08  0.3898892E+04  0.7818609E-02  0.8025260E-01
        1   -1    0    0  501    0  0.00000000000E+00  0.00000000000E+00  0.15332303595E+04  0.15332303595E+04  0.50400001928E-02 0.  1.
       -1   -1    0    0    0  501  0.00000000000E+00  0.00000000000E+00 -0.24786490540E+04  0.24786490540E+04  0.50400001928E-02 0. -1.
    10030    2    1    2    0    0  0.00000000000E+00  0.00000000000E+00 -0.94541869450E+03  0.40118794136E+04  0.38988921402E+04 0.  0.
        4    1    3    3  502    0  0.53888693553E+03  0.84892583253E+03  0.12457983188E+04  0.16009651035E+04  0.12699999809E+01 0.  1.
       -4    1    3    3    0  502 -0.53888693553E+03 -0.84892583253E+03 -0.21912170133E+04  0.24109143101E+04  0.12699999809E+01 0. -1.
</event>
<event>
 5   0  0.3724293E-08  0.3899079E+04  0.7818609E-02  0.8025221E-01
       -2   -1    0    0    0  501  0.00000000000E+00  0.00000000000E+00  0.16951603381E+04  0.16951603381E+04  0.25500000920E-02 0. -1.
        2   -1    0    0  501    0  0.00000000000E+00  0.00000000000E+00 -0.22420911398E+04  0.22420911398E+04  0.25500000920E-02 0.  1.
    10030    2    1    2    0    0  0.00000000000E+00  0.00000000000E+00 -0.54693080168E+03  0.39372514779E+04  0.38990788525E+04 0.  0.
        4    1    3    3  502    0  0.99877512925E+03 -0.16313381005E+04  0.10690072628E+03  0.19157883848E+04  0.12699999809E+01 0. -1.
       -4    1    3    3    0  502 -0.99877512925E+03  0.16313381005E+04 -0.65383152795E+03  0.20214630931E+04  0.12699999809E+01 0.  1.
</event>
<event>
 5   0  0.3769985E-08  0.3901670E+04  0.7818609E-02  0.8024682E-01
        2   -1    0    0  501    0  0.00000000000E+00  0.00000000000E+00  0.27155983281E+04  0.27155983281E+04  0.25500000920E-02 0.  1.
       -2   -1    0    0    0  501  0.00000000000E+00  0.00000000000E+00 -0.14014431545E+04  0.14014431545E+04  0.25500000920E-02 0. -1.
    10030    2    1    2    0    0  0.00000000000E+00  0.00000000000E+00  0.13141551736E+04  0.41170414826E+04  0.39016697386E+04 0.  0.
        1    1    3    3  502    0  0.81513230000E+03  0.21320339241E+03  0.25137078173E+04  0.26511550961E+04  0.50400001928E-02 0.  1.
       -1    1    3    3    0  502 -0.81513230000E+03 -0.21320339241E+03 -0.11995526437E+04  0.14658863865E+04  0.50400001928E-02 0. -1.
</event>
<event>
 5   0  0.3669347E-08  0.3898751E+04  0.7818609E-02  0.8025289E-01
        2   -1    0    0  501    0  0.00000000000E+00  0.00000000000E+00  0.23235816389E+04  0.23235816389E+04  0.25500000920E-02 0. -1.
       -2   -1    0    0    0  501  0.00000000000E+00  0.00000000000E+00 -0.16354339699E+04  0.16354339699E+04  0.25500000920E-02 0.  1.
    10030    2    1    2    0    0  0.00000000000E+00  0.00000000000E+00  0.68814766901E+03  0.39590156089E+04  0.38987507457E+04 0.  0.
        5    1    3    3  502    0  0.15262331075E+04  0.24839750983E+03 -0.86126753599E+03  0.17699979322E+04  0.46999998093E+01 0.  1.
       -5    1    3    3    0  502 -0.15262331075E+04 -0.24839750983E+03  0.15494152050E+04  0.21890176767E+04  0.46999998093E+01 0. -1.
</event>
<event>
 5   0  0.3872969E-08  0.3902881E+04  0.7818609E-02  0.8024430E-01
        2   -1    0    0  501    0  0.00000000000E+00  0.00000000000E+00  0.20584010241E+04  0.20584010241E+04  0.25500000920E-02 0.  1.
       -2   -1    0    0    0  501  0.00000000000E+00  0.00000000000E+00 -0.18500381187E+04  0.18500381187E+04  0.25500000920E-02 0. -1.
    10030    2    1    2    0    0  0.00000000000E+00  0.00000000000E+00  0.20836290536E+03  0.39084391428E+04  0.39028811707E+04 0.  0.
        2    1    3    3  502    0  0.16275816245E+04 -0.79514089972E+03  0.83105900167E+03  0.19929701601E+04  0.25500000920E-02 0.  1.
       -2    1    3    3    0  502 -0.16275816245E+04  0.79514089972E+03 -0.62269609632E+03  0.19154689826E+04  0.25500000920E-02 0. -1.
</event>
<event>
 5   0  0.1164500E-08  0.3808371E+04  0.7818609E-02  0.8044361E-01
        1   -1    0    0  501    0  0.00000000000E+00  0.00000000000E+00  0.34882982282E+04  0.34882982282E+04  0.50400001928E-02 0. -1.
       -1   -1    0    0    0  501  0.00000000000E+00  0.00000000000E+00 -0.10394528771E+04  0.10394528771E+04  0.50400001928E-02 0.  1.
    10030    2    1    2    0    0  0.00000000000E+00  0.00000000000E+00  0.24488453511E+04  0.45277511053E+04  0.38083705857E+04 0.  0.
        2    1    3    3  502    0 -0.51626601309E+03  0.18125016661E+04  0.15483364361E+04  0.24390651088E+04  0.25500000920E-02 0. -1.
       -2    1    3    3    0  502  0.51626601309E+03 -0.18125016661E+04  0.90050891506E+03  0.20886859965E+04  0.25500000920E-02 0.  1.
</event>
<event>
 5   0  0.1164500E-08  0.3900057E+04  0.7818609E-02  0.8025017E-01
        1   -1    0    0  501    0  0.00000000000E+00  0.00000000000E+00  0.18065195800E+04  0.18065195800E+04  0.50400001928E-02 0.  1.
       -1   -1    0    0    0  501  0.00000000000E+00  0.00000000000E+00 -0.21049371648E+04  0.21049371648E+04  0.50400001928E-02 0. -1.
    10030    2    1    2    0    0  0.00000000000E+00  0.00000000000E+00 -0.29841758477E+03  0.39114567447E+04  0.39000565138E+04 0.  0.
        1    1    3    3  502    0  0.11474583229E+03 -0.84473116500E+03 -0.19081520169E+04  0.20899237944E+04  0.50400001928E-02 0. -1.
       -1    1    3    3    0  502 -0.11474583229E+03  0.84473116500E+03  0.16097344321E+04  0.18215329503E+04  0.50400001928E-02 0.  1.
</event>
<event>
 5   0  0.3669347E-08  0.3901512E+04  0.7818609E-02  0.8024715E-01
        2   -1    0    0  501    0  0.00000000000E+00  0.00000000000E+00  0.16393964225E+04  0.16393964225E+04  0.25500000920E-02 0. -1.
       -2   -1    0    0    0  501  0.00000000000E+00  0.00000000000E+00 -0.23212495959E+04  0.23212495959E+04  0.25500000920E-02 0.  1.
    10030    2    1    2    0    0  0.00000000000E+00  0.00000000000E+00 -0.68185317342E+03  0.39606460184E+04  0.39015116472E+04 0.  0.
        5    1    3    3  502    0 -0.15458356570E+04 -0.94561083297E+03  0.39226576608E+03  0.18540987695E+04  0.46999998093E+01 0. -1.
       -5    1    3    3    0  502  0.15458356570E+04  0.94561083297E+03 -0.10741189395E+04  0.21065472489E+04  0.46999998093E+01 0.  1.
</event>
<event>
 5   0  0.3769985E-08  0.3907581E+04  0.7818609E-02  0.8023454E-01
       -2   -1    0    0    0  501  0.00000000000E+00  0.00000000000E+00  0.16393274649E+04  0.16393274649E+04  0.25500000920E-02 0. -1.
        2   -1    0    0  501    0  0.00000000000E+00  0.00000000000E+00 -0.23285750705E+04  0.23285750705E+04  0.25500000920E-02 0.  1.
    10030    2    1    2    0    0  0.00000000000E+00  0.00000000000E+00 -0.68924760566E+03  0.39679025354E+04  0.39075808717E+04 0.  0.
        1    1    3    3  502    0 -0.15803896565E+04 -0.55468223142E+03 -0.13661319224E+04  0.21613931326E+04  0.50400001928E-02 0.  1.
       -1    1    3    3    0  502  0.15803896565E+04  0.55468223142E+03  0.67688431674E+03  0.18065094028E+04  0.50400001928E-02 0. -1.
</event>
<event>
 5   0  0.1164500E-08  0.3902599E+04  0.7818609E-02  0.8024489E-01
        1   -1    0    0  501    0  0.00000000000E+00  0.00000000000E+00  0.19241890378E+04  0.19241890378E+04  0.50400001928E-02 0.  1.
       -1   -1    0    0    0  501  0.00000000000E+00  0.00000000000E+00 -0.19787914813E+04  0.19787914813E+04  0.50400001928E-02 0. -1.
    10030    2    1    2    0    0  0.00000000000E+00  0.00000000000E+00 -0.54602443448E+02  0.39029805191E+04  0.39025985581E+04 0.  0.
        3    1    3    3  502    0 -0.10450317342E+04  0.16475574517E+04 -0.59428873534E+02  0.19519397233E+04  0.10100000352E+00 0.  1.
       -3    1    3    3    0  502  0.10450317342E+04 -0.16475574517E+04  0.48264300853E+01  0.19510407958E+04  0.10100000352E+00 0. -1.
</event>
<event>
 5   0  0.3669347E-08  0.3901355E+04  0.7818609E-02  0.8024748E-01
        2   -1    0    0  501    0  0.00000000000E+00  0.00000000000E+00  0.23989463054E+04  0.23989463054E+04  0.25500000920E-02 0.  1.
       -2   -1    0    0    0  501  0.00000000000E+00  0.00000000000E+00 -0.15861721498E+04  0.15861721498E+04  0.25500000920E-02 0. -1.
    10030    2    1    2    0    0  0.00000000000E+00  0.00000000000E+00  0.81277415564E+03  0.39851184552E+04  0.39013545434E+04 0.  0.
        5    1    3    3  502    0 -0.51555652814E+03  0.18029503441E+04 -0.14244896841E+03  0.18806228425E+04  0.46999998093E+01 0.  1.
       -5    1    3    3    0  502  0.51555652814E+03 -0.18029503441E+04  0.95522312405E+03  0.21044956127E+04  0.46999998093E+01 0. -1.
</event>
<event>
 5   0  0.1164500E-08  0.3839227E+04  0.7818609E-02  0.8037789E-01
        1   -1    0    0  501    0  0.00000000000E+00  0.00000000000E+00  0.13545315893E+04  0.13545315893E+04  0.50400001928E-02 0. -1.
       -1   -1    0    0    0  501  0.00000000000E+00  0.00000000000E+00 -0.27204354313E+04  0.27204354313E+04  0.50400001928E-02 0.  1.
    10030    2    1    2    0    0  0.00000000000E+00  0.00000000000E+00 -0.13659038420E+04  0.40749670206E+04  0.38392268640E+04 0.  0.
        3    1    3    3  502    0 -0.12402410791E+04  0.14280600458E+04 -0.33517063855E+03  0.19209093669E+04  0.10100000352E+00 0. -1.
       -3    1    3    3    0  502  0.12402410791E+04 -0.14280600458E+04 -0.10307332034E+04  0.21540576537E+04  0.10100000352E+00 0.  1.
</event>
<event>
 5   0  0.3669347E-08  0.3897671E+04  0.7818609E-02  0.8025514E-01
       -2   -1    0    0    0  501  0.00000000000E+00  0.00000000000E+00  0.20530554218E+04  0.20530554218E+04  0.25500000920E-02 0.  1.
        2   -1    0    0  501    0  0.00000000000E+00  0.00000000000E+00 -0.18499061011E+04  0.18499061011E+04  0.25500000920E-02 0. -1.
    10030    2    1    2    0    0  0.00000000000E+00  0.00000000000E+00  0.20314932072E+03  0.39029615228E+04  0.38976709715E+04 0.  0.
        5    1    3    3  502    0 -0.16239131212E+04  0.10767381727E+04  0.14008128252E+03  0.19534850328E+04  0.46999998093E+01 0.  1.
       -5    1    3    3    0  502  0.16239131212E+04 -0.10767381727E+04  0.63068038191E+02  0.19494764900E+04  0.46999998093E+01 0. -1.
</event>
<event>
 5   0  0.1164500E-08  0.3868965E+04  0.7818609E-02  0.8031515E-01
        1   -1    0    0  501    0  0.00000000000E+00  0.00000000000E+00  0.31345190528E+04  0.31345190529E+04  0.50400001928E-02 0.  1.
       -1   -1    0    0    0  501  0.00000000000E+00  0.00000000000E+00 -0.11938743661E+04  0.11938743661E+04  0.50400001928E-02 0. -1.
    10030    2    1    2    0    0  0.00000000000E+00  0.00000000000E+00  0.19406446867E+04  0.43283934190E+04  0.38689646922E+04 0.  0.
        2    1    3    3  502    0  0.18870493501E+04 -0.26218545366E+03  0.59504062434E+03  0.19959383273E+04  0.25500000920E-02 0. -1.
       -2    1    3    3    0  502 -0.18870493501E+04  0.26218545366E+03  0.13456040624E+04  0.23324550917E+04  0.25500000920E-02 0.  1.
</event>
<event>
 5   0  0.3769985E-08  0.3900753E+04  0.7818609E-02  0.8024873E-01
        2   -1    0    0  501    0  0.00000000000E+00  0.00000000000E+00  0.16645104951E+04  0.16645104951E+04  0.25500000920E-02 0. -1.
       -2   -1    0    0    0  501  0.00000000000E+00  0.00000000000E+00 -0.22853374594E+04  0.22853374594E+04  0.25500000920E-02 0.  1.
    10030    2    1    2    0    0  0.00000000000E+00  0.00000000000E+00 -0.62082696427E+03  0.39498479546E+04  0.39007528433E+04 0.  0.
        1    1    3    3  502    0  0.68375907009E+03  0.98615924712E+03 -0.18672729174E+04  0.22196271477E+04  0.50400001928E-02 0.  1.
       -1    1    3    3    0  502 -0.68375907009E+03 -0.98615924712E+03  0.12464459531E+04  0.17302208069E+04  0.50400001928E-02 0. -1.
</event>
<event>
 5   0  0.1164500E-08  0.3901600E+04  0.7818609E-02  0.8024696E-01
        1   -1    0    0  501    0  0.00000000000E+00  0.00000000000E+00  0.17949895454E+04  0.17949895455E+04  0.50400001928E-02 0.  1.
       -1   -1    0    0    0  501  0.00000000000E+00  0.00000000000E+00 -0.21201356848E+04  0.21201356848E+04  0.50400001928E-02 0. -1.
    10030    2    1    2    0    0  0.00000000000E+00  0.00000000000E+00 -0.32514613932E+03  0.39151252302E+04  0.39016003840E+04 0.  0.
        2    1    3    3  502    0 -0.14944893446E+03  0.14184851730E+04 -0.14980456788E+04  0.20684719060E+04  0.25500000920E-02 0.  1.
       -2    1    3    3    0  502  0.14944893446E+03 -0.14184851730E+04  0.11728995395E+04  0.18466533242E+04  0.25500000920E-02 0. -1.
</event>
<event>
 5   0  0.3724293E-08  0.3901309E+04  0.7818609E-02  0.8024757E-01
        2   -1    0    0  501    0  0.00000000000E+00  0.00000000000E+00  0.12851507244E+04  0.12851507244E+04  0.25500000920E-02 0.  1.
       -2   -1    0    0    0  501  0.00000000000E+00  0.00000000000E+00 -0.29607827427E+04  0.29607827427E+04  0.25500000920E-02 0. -1.
    10030    2    1    2    0    0  0.00000000000E+00  0.00000000000E+00 -0.16756320182E+04  0.42459334671E+04  0.39013085429E+04 0.  0.
        4    1    3    3  502    0  0.22794340793E+03  0.18941160856E+04 -0.12804577243E+04  0.22976526151E+04  0.12699999809E+01 0. -1.
       -4    1    3    3    0  502 -0.22794340793E+03 -0.18941160856E+04 -0.39517429397E+03  0.19482808521E+04  0.12699999809E+01 0.  1.
</event>
<event>
 5   0  0.1164500E-08  0.3846148E+04  0.7818609E-02  0.8036323E-01
        1   -1    0    0  501    0  0.00000000000E+00  0.00000000000E+00  0.13821285575E+04  0.13821285575E+04  0.50400001928E-02 0.  1.
       -1   -1    0    0    0  501  0.00000000000E+00  0.00000000000E+00 -0.26757383575E+04  0.26757383575E+04  0.50400001928E-02 0. -1.
    10030    2    1    2    0    0  0.00000000000E+00  0.00000000000E+00 -0.12936098000E+04  0.40578669150E+04  0.38461484092E+04 0.  0.
        4    1    3    3  502    0 -0.17687961251E+04  0.47812988467E+03 -0.12628699560E+04  0.22253292020E+04  0.12699999809E+01 0.  1.
       -4    1    3    3    0  502  0.17687961251E+04 -0.47812988467E+03 -0.30739844061E+02  0.18325377130E+04  0.12699999809E+01 0. -1.
</event>
<event>
 5   0  0.1164500E-08  0.3903437E+04  0.7818609E-02  0.8024315E-01
        1   -1    0    0  501    0  0.00000000000E+00  0.00000000000E+00  0.26260210335E+04  0.26260210335E+04  0.50400001928E-02 0.  1.
       -1   -1    0    0    0  501  0.00000000000E+00  0.00000000000E+00 -0.14505614140E+04  0.14505614140E+04  0.50400001928E-02 0. -1.
    10030    2    1    2    0    0  0.00000000000E+00  0.00000000000E+00  0.11754596195E+04  0.40765824475E+04  0.39034368362E+04 0.  0.
        2    1    3    3  502    0  0.63806759311E+03 -0.90441688707E+03  0.22665497567E+04  0.25223695127E+04  0.25500000920E-02 0.  1.
       -2    1    3    3    0  502 -0.63806759311E+03  0.90441688707E+03 -0.10910901372E+04  0.15542129347E+04  0.25500000920E-02 0. -1.
</event>
<event>
 5   0  0.1164500E-08  0.3892368E+04  0.7818609E-02  0.8026618E-01
        1   -1    0    0  501    0  0.00000000000E+00  0.00000000000E+00  0.23610179080E+04  0.23610179080E+04  0.50400001928E-02 0.  1.
       -1   -1    0    0    0  501  0.00000000000E+00  0.00000000000E+00 -0.16042369193E+04  0.16042369193E+04  0.50400001928E-02 0. -1.
    10030    2    1    2    0    0  0.00000000000E+00  0.00000000000E+00  0.75678098862E+03  0.39652548273E+04  0.38923679658E+04 0.  0.
        5    1    3    3  502    0 -0.61407054032E+03  0.76915829466E+03  0.20887949187E+04  0.23090633195E+04  0.46999998093E+01 0.  1.
       -5    1    3    3    0  502  0.61407054032E+03 -0.76915829466E+03 -0.13320139301E+04  0.16561915079E+04  0.46999998093E+01 0. -1.
</event>
<event>
 5   0  0.1164500E-08  0.3891991E+04  0.7818609E-02  0.8026697E-01
       -1   -1    0    0    0  501  0.00000000000E+00  0.00000000000E+00  0.16913495293E+04  0.16913495293E+04  0.50400001928E-02 0. -1.
        1   -1    0    0  501    0  0.00000000000E+00  0.00000000000E+00 -0.22389800320E+04  0.22389800320E+04  0.50400001928E-02 0.  1.
    10030    2    1    2    0    0  0.00000000000E+00  0.00000000000E+00 -0.54763050276E+03  0.39303295613E+04  0.38919906594E+04 0.  0.
        2    1    3    3  502    0 -0.15706430789E+04 -0.41969688053E+03 -0.13538517368E+04  0.21156511239E+04  0.25500000920E-02 0.  1.
       -2    1    3    3    0  502  0.15706430789E+04  0.41969688053E+03  0.80622123401E+03  0.18146784374E+04  0.25500000920E-02 0. -1.
</event>
<event>
 5   0  0.1164500E-08  0.3898724E+04  0.7818609E-02  0.8025295E-01
       -1   -1    0    0    0  501  0.00000000000E+00  0.00000000000E+00  0.13781186361E+04  0.13781186361E+04  0.50400001928E-02 0. -1.
        1   -1    0    0  501    0  0.00000000000E+00  0.00000000000E+00 -0.27573905461E+04  0.27573905461E+04  0.50400001928E-02 0.  1.
    10030    2    1    2    0    0  0.00000000000E+00  0.00000000000E+00 -0.13792719100E+04  0.41355091822E+04  0.38987235340E+04 0.  0.
        3    1    3    3  502    0 -0.62053254191E+03 -0.17868889915E+04 -0.11893964157E+04  0.22344343238E+04  0.10100000352E+00 0. -1.
       -3    1    3    3    0  502  0.62053254191E+03  0.17868889915E+04 -0.18987549439E+03  0.19010748584E+04  0.10100000352E+00 0.  1.
</event>
<event>
 5   0  0.1164500E-08  0.3891823E+04  0.7818609E-02  0.8026732E-01
        1   -1    0    0  501    0  0.00000000000E+00  0.00000000000E+00  0.22530219894E+04  0.22530219894E+04  0.50400001928E-02 0.  1.
       -1   -1    0    0    0  501  0.00000000000E+00  0.00000000000E+00 -0.16806632628E+04  0.16806632628E+04  0.50400001928E-02 0. -1.
    10030    2    1    2    0    0  0.00000000000E+00  0.00000000000E+00  0.57235872657E+03  0.39336852522E+04  0.38918228571E+04 0.  0.
        5    1    3    3  502    0  0.15591572660E+03 -0.11169431139E+04  0.18890102277E+04  0.22000575820E+04  0.46999998093E+01 0.  1.
       -5    1    3    3    0  502 -0.15591572660E+03  0.11169431139E+04 -0.13166515012E+04  0.17336276702E+04  0.46999998093E+01 0. -1.
</event>
<event>
 5   0  0.1164500E-08  0.3923650E+04  0.7818609E-02  0.8020128E-01
        1   -1    0    0  501    0  0.00000000000E+00  0.00000000000E+00  0.26636802305E+04  0.26636802305E+04  0.50400001928E-02 0.  1.
       -1   -1    0    0    0  501  0.00000000000E+00  0.00000000000E+00 -0.14449020439E+04  0.14449020439E+04  0.50400001928E-02 0. -1.
    10030    2    1    2    0    0  0.00000000000E+00  0.00000000000E+00  0.12187781866E+04  0.41085822744E+04  0.39236498363E+04 0.  0.
        5    1    3    3  502    0  0.22812166410E+03  0.18110353726E+04  0.13621940223E+04  0.22776047196E+04  0.46999998093E+01 0.  1.
       -5    1    3    3    0  502 -0.22812166410E+03 -0.18110353726E+04 -0.14341583573E+03  0.18309775548E+04  0.46999998093E+01 0. -1.
</event>
<event>
 5   0  0.1164500E-08  0.3899949E+04  0.7818609E-02  0.8025040E-01
       -1   -1    0    0    0  501  0.00000000000E+00  0.00000000000E+00  0.18442702320E+04  0.18442702320E+04  0.50400001928E-02 0. -1.
        1   -1    0    0  501    0  0.00000000000E+00  0.00000000000E+00 -0.20617370962E+04  0.20617370962E+04  0.50400001928E-02 0.  1.
    10030    2    1    2    0    0  0.00000000000E+00  0.00000000000E+00 -0.21746686416E+03  0.39060073282E+04  0.38999488985E+04 0.  0.
        5    1    3    3  502    0 -0.15814358917E+04  0.84647854583E+03  0.65725060687E+03  0.19103575211E+04  0.46999998093E+01 0. -1.
       -5    1    3    3    0  502  0.15814358917E+04 -0.84647854583E+03 -0.87471747104E+03  0.19956498071E+04  0.46999998093E+01 0.  1.
</event>
<event>
 5   0  0.3724293E-08  0.3903465E+04  0.7818609E-02  0.8024309E-01
        2   -1    0    0  501    0  0.00000000000E+00  0.00000000000E+00  0.21369546060E+04  0.21369546060E+04  0.25500000920E-02 0.  1.
       -2   -1    0    0    0  501  0.00000000000E+00  0.00000000000E+00 -0.17825644428E+04  0.17825644428E+04  0.25500000920E-02 0. -1.
    10030    2    1    2    0    0  0.00000000000E+00  0.00000000000E+00  0.35439016320E+03  0.39195190488E+04  0.39034647669E+04 0.  0.
        4    1    3    3  502    0  0.16329053388E+04 -0.82912926287E+03  0.85482061000E+03  0.20210282205E+04  0.12699999809E+01 0.  1.
       -4    1    3    3    0  502 -0.16329053388E+04  0.82912926287E+03 -0.50043044680E+03  0.18984908283E+04  0.12699999809E+01 0. -1.
</event>
<event>
 5   0  0.1164500E-08  0.3924203E+04  0.7818609E-02  0.8020014E-01
        1   -1    0    0  501    0  0.00000000000E+00  0.00000000000E+00  0.13318093328E+04  0.13318093328E+04  0.50400001928E-02 0. -1.
       -1   -1    0    0    0  501  0.00000000000E+00  0.00000000000E+00 -0.28906859936E+04  0.28906859936E+04  0.50400001928E-02 0.  1.
    10030    2    1    2    0    0  0.00000000000E+00  0.00000000000E+00 -0.15588766607E+04  0.42224953264E+04  0.39242031469E+04 0.  0.
        4    1    3    3  502    0 -0.13138188120E+04  0.12442051250E+04 -0.15958444857E+04  0.24126515495E+04  0.12699999809E+01 0.  1.
       -4    1    3    3    0  502  0.13138188120E+04 -0.12442051250E+04  0.36967824994E+02  0.18098437769E+04  0.12699999809E+01 0. -1.
</event>
<event>
 5   0  0.3690572E-08  0.3900877E+04  0.7818609E-02  0.8024847E-01
       -2   -1    0    0    0  501  0.00000000000E+00  0.00000000000E+00  0.12795334324E+04  0.12795334324E+04  0.25500000920E-02 0. -1.
        2   -1    0    0  501    0  0.00000000000E+00  0.00000000000E+00 -0.29731226918E+04  0.29731226918E+04  0.25500000920E-02 0.  1.
    10030    2    1    2    0    0  0.00000000000E+00  0.00000000000E+00 -0.16935892594E+04  0.42526561242E+04  0.39008767644E+04 0.  0.
        3    1    3    3  502    0 -0.11893099436E+04 -0.15116733035E+04 -0.49421708564E+03  0.19859166288E+04  0.10100000352E+00 0. -1.
       -3    1    3    3    0  502  0.11893099436E+04  0.15116733035E+04 -0.11993721738E+04  0.22667394954E+04  0.10100000352E+00 0.  1.
</event>
<event>
 5   0  0.3769985E-08  0.3901407E+04  0.7818609E-02  0.8024737E-01
       -2   -1    0    0    0  501  0.00000000000E+00  0.00000000000E+00  0.18814711464E+04  0.18814711464E+04  0.25500000920E-02 0. -1.
        2   -1    0    0  501    0  0.00000000000E+00  0.00000000000E+00 -0.20224830377E+04  0.20224830377E+04  0.25500000920E-02 0.  1.
    10030    2    1    2    0    0  0.00000000000E+00  0.00000000000E+00 -0.14101189134E+03  0.39039541840E+04  0.39014066588E+04 0.  0.
        1    1    3    3  502    0  0.81717795240E+03 -0.11336547370E+04  0.12913715832E+04  0.19027857037E+04  0.50400001928E-02 0. -1.
       -1    1    3    3    0  502 -0.81717795240E+03  0.11336547370E+04 -0.14323834745E+04  0.20011684803E+04  0.50400001928E-02 0.  1.
</event>
<event>
 5   0  0.1164500E-08  0.3916697E+04  0.7818609E-02  0.8021566E-01
       -1   -1    0    0    0  501  0.00000000000E+00  0.00000000000E+00  0.21376028844E+04  0.21376028844E+04  0.50400001928E-02 0.  1.
        1   -1    0    0  501    0  0.00000000000E+00  0.00000000000E+00 -0.17941257421E+04  0.17941257421E+04  0.50400001928E-02 0. -1.
    10030    2    1    2    0    0  0.00000000000E+00  0.00000000000E+00  0.34347714225E+03  0.39317286265E+04  0.39166967517E+04 0.  0.
        4    1    3    3  502    0  0.44997644947E+03 -0.38866421849E+03 -0.17013239735E+04  0.18022329360E+04  0.12699999809E+01 0. -1.
       -4    1    3    3    0  502 -0.44997644947E+03  0.38866421849E+03  0.20448011158E+04  0.21294956905E+04  0.12699999809E+01 0.  1.
</event>
<event>
 5   0  0.3769985E-08  0.3900329E+04  0.7818609E-02  0.8024961E-01
        2   -1    0    0  501    0  0.00000000000E+00  0.00000000000E+00  0.23647914675E+04  0.23647914675E+04  0.25500000920E-02 0. -1.
       -2   -1    0    0    0  501  0.00000000000E+00  0.00000000000E+00 -0.16082355780E+04  0.16082355780E+04  0.25500000920E-02 0.  1.
    10030    2    1    2    0    0  0.00000000000E+00  0.00000000000E+00  0.75655588950E+03  0.39730270456E+04  0.39003291003E+04 0.  0.
        1    1    3    3  502    0  0.54031435325E+03  0.18738201694E+04  0.37866613607E+03  0.19865874434E+04  0.50400001928E-02 0. -1.
       -1    1    3    3    0  502 -0.54031435325E+03 -0.18738201694E+04  0.37788975343E+03  0.19864396022E+04  0.50400001928E-02 0.  1.
</event>
<event>
 5   0  0.3690572E-08  0.3907474E+04  0.7818609E-02  0.8023476E-01
       -2   -1    0    0    0  501  0.00000000000E+00  0.00000000000E+00  0.13652452289E+04  0.13652452289E+04  0.25500000920E-02 0. -1.
        2   -1    0    0  501    0  0.00000000000E+00  0.00000000000E+00 -0.27958999107E+04  0.27958999107E+04  0.25500000920E-02 0.  1.
    10030    2    1    2    0    0  0.00000000000E+00  0.00000000000E+00 -0.14306546818E+04  0.41611451396E+04  0.39074743830E+04 0.  0.
        3    1    3    3  502    0 -0.16066890589E+04 -0.85024966044E+03 -0.14778533221E+04  0.23427387112E+04  0.10100000352E+00 0. -1.
       -3    1    3    3    0  502  0.16066890589E+04  0.85024966044E+03  0.47198640311E+02  0.18184064284E+04  0.10100000352E+00 0.  1.
</event>
<event>
 5   0  0.1164500E-08  0.3883473E+04  0.7818609E-02  0.8028475E-01
        1   -1    0    0  501    0  0.00000000000E+00  0.00000000000E+00  0.27169032255E+04  0.27169032255E+04  0.50400001928E-02 0. -1.
       -1   -1    0    0    0  501  0.00000000000E+00  0.00000000000E+00 -0.13877347522E+04  0.13877347522E+04  0.50400001928E-02 0.  1.
    10030    2    1    2    0    0  0.00000000000E+00  0.00000000000E+00  0.13291684733E+04  0.41046379778E+04  0.38834732004E+04 0.  0.
        2    1    3    3  502    0 -0.15591481236E+04 -0.18856062548E+03 -0.54230441526E+03  0.16615029521E+04  0.25500000920E-02 0.  1.
       -2    1    3    3    0  502  0.15591481236E+04  0.18856062548E+03  0.18714728886E+04  0.24431350257E+04  0.25500000920E-02 0. -1.
</event>
<event>
 5   0  0.3690572E-08  0.3903576E+04  0.7818609E-02  0.8024286E-01
       -2   -1    0    0    0  501  0.00000000000E+00  0.00000000000E+00  0.14250370452E+04  0.14250370452E+04  0.25500000920E-02 0.  1.
        2   -1    0    0  501    0  0.00000000000E+00  0.00000000000E+00 -0.26732478212E+04  0.26732478212E+04  0.25500000920E-02 0. -1.
    10030    2    1    2    0    0  0.00000000000E+00  0.00000000000E+00 -0.12482107759E+04  0.40982848664E+04  0.39035763993E+04 0.  0.
        3    1    3    3  502    0  0.16452015757E+04 -0.40732393722E+02  0.47758286703E+03  0.17136022752E+04  0.10100000352E+00 0.  1.
       -3    1    3    3    0  502 -0.16452015757E+04  0.40732393722E+02 -0.17257936430E+04  0.23846825912E+04  0.10100000352E+00 0. -1.
</event>
<event>
 5   0  0.1164500E-08  0.3903703E+04  0.7818609E-02  0.8024259E-01
        1   -1    0    0  501    0  0.00000000000E+00  0.00000000000E+00  0.16721002184E+04  0.16721002184E+04  0.50400001928E-02 0. -1.
       -1   -1    0    0    0  501  0.00000000000E+00  0.00000000000E+00 -0.22784066491E+04  0.22784066491E+04  0.50400001928E-02 0.  1.
    10030    2    1    2    0    0  0.00000000000E+00  0.00000000000E+00 -0.60630643077E+03  0.39505068675E+04  0.39037029885E+04 0.  0.
        1    1    3    3  502    0 -0.46792677916E+03  0.15944677551E+04  0.73305761480E+03  0.18162203499E+04  0.50400001928E-02 0. -1.
       -1    1    3    3    0  502  0.46792677916E+03 -0.15944677551E+04 -0.13393640456E+04  0.21342865176E+04  0.50400001928E-02 0.  1.
</event>
<event>
 5   0  0.1164500E-08  0.3910133E+04  0.7818609E-02  0.8022925E-01
        1   -1    0    0  501    0  0.00000000000E+00  0.00000000000E+00  0.18981158340E+04  0.18981158340E+04  0.50400001928E-02 0. -1.
       -1   -1    0    0    0  501  0.00000000000E+00  0.00000000000E+00 -0.20137256131E+04  0.20137256131E+04  0.50400001928E-02 0.  1.
    10030    2    1    2    0    0  0.00000000000E+00  0.00000000000E+00 -0.11560977909E+03  0.39118414470E+04  0.39101327197E+04 0.  0.
        2    1    3    3  502    0 -0.80884706077E+03 -0.37078830105E+03 -0.17994180018E+04  0.20073920088E+04  0.25500000920E-02 0.  1.
       -2    1    3    3    0  502  0.80884706077E+03  0.37078830105E+03  0.16838082227E+04  0.19044494382E+04  0.25500000920E-02 0. -1.
</event>
<event>
 5   0  0.1164500E-08  0.3906450E+04  0.7818609E-02  0.8023689E-01
        1   -1    0    0  501    0  0.00000000000E+00  0.00000000000E+00  0.18382240933E+04  0.18382240933E+04  0.50400001928E-02 0.  1.
       -1   -1    0    0    0  501  0.00000000000E+00  0.00000000000E+00 -0.20754201858E+04  0.20754201858E+04  0.50400001928E-02 0. -1.
    10030    2    1    2    0    0  0.00000000000E+00  0.00000000000E+00 -0.23719609252E+03  0.39136442791E+04  0.39064497382E+04 0.  0.
        1    1    3    3  502    0 -0.18289229645E+03 -0.16747725624E+04 -0.11087373509E+04  0.20168319814E+04  0.50400001928E-02 0. -1.
       -1    1    3    3    0  502  0.18289229645E+03  0.16747725624E+04  0.87154125837E+03  0.18968122977E+04  0.50400001928E-02 0.  1.
</event>
<event>
 5   0  0.3769985E-08  0.3933532E+04  0.7818609E-02  0.8018091E-01
       -2   -1    0    0    0  501  0.00000000000E+00  0.00000000000E+00  0.17380974007E+04  0.17380974007E+04  0.25500000920E-02 0. -1.
        2   -1    0    0  501    0  0.00000000000E+00  0.00000000000E+00 -0.22255187199E+04  0.22255187199E+04  0.25500000920E-02 0.  1.
    10030    2    1    2    0    0  0.00000000000E+00  0.00000000000E+00 -0.48742131918E+03  0.39636161206E+04  0.39335319001E+04 0.  0.
        1    1    3    3  502    0 -0.40245596529E+03  0.18769358773E+04 -0.67513143351E+03  0.20348615540E+04  0.50400001928E-02 0.  1.
       -1    1    3    3    0  502  0.40245596529E+03 -0.18769358773E+04  0.18771011433E+03  0.19287545667E+04  0.50400001928E-02 0. -1.
</event>
<event>
 5   0  0.1164500E-08  0.3900591E+04  0.7818609E-02  0.8024906E-01
        1   -1    0    0  501    0  0.00000000000E+00  0.00000000000E+00  0.14535851006E+04  0.14535851006E+04  0.50400001928E-02 0. -1.
       -1   -1    0    0    0  501  0.00000000000E+00  0.00000000000E+00 -0.26167392665E+04  0.26167392665E+04  0.50400001928E-02 0.  1.
    10030    2    1    2    0    0  0.00000000000E+00  0.00000000000E+00 -0.11631541660E+04  0.40703243671E+04  0.39005913449E+04 0.  0.
        1    1    3    3  502    0  0.14326321807E+04  0.10172053232E+03  0.79525787629E+03  0.16417116439E+04  0.50400001928E-02 0. -1.
       -1    1    3    3    0  502 -0.14326321807E+04 -0.10172053232E+03 -0.19584120423E+04  0.24286127232E+04  0.50400001928E-02 0.  1.
</event>
<event>
 5   0  0.1164500E-08  0.3904561E+04  0.7818609E-02  0.8024081E-01
       -1   -1    0    0    0  501  0.00000000000E+00  0.00000000000E+00  0.15363847827E+04  0.15363847827E+04  0.50400001928E-02 0.  1.
        1   -1    0    0  501    0  0.00000000000E+00  0.00000000000E+00 -0.24807583374E+04  0.24807583374E+04  0.50400001928E-02 0. -1.
    10030    2    1    2    0    0  0.00000000000E+00  0.00000000000E+00 -0.94437355471E+03  0.40171431201E+04  0.39045611068E+04 0.  0.
        4    1    3    3  502    0 -0.15951050891E+03  0.22814309050E+03  0.15158604886E+04  0.15412097541E+04  0.12699999809E+01 0.  1.
       -4    1    3    3    0  502  0.15951050891E+03 -0.22814309050E+03 -0.24602340433E+04  0.24759333660E+04  0.12699999809E+01 0. -1.
</event>
<event>
 5   0  0.3872969E-08  0.3912099E+04  0.7818609E-02  0.8022518E-01
        2   -1    0    0  501    0  0.00000000000E+00  0.00000000000E+00  0.19034444222E+04  0.19034444222E+04  0.25500000920E-02 0.  1.
       -2   -1    0    0    0  501  0.00000000000E+00  0.00000000000E+00 -0.20101079694E+04  0.20101079694E+04  0.25500000920E-02 0. -1.
    10030    2    1    2    0    0  0.00000000000E+00  0.00000000000E+00 -0.10666354719E+03  0.39135523916E+04  0.39120985685E+04 0.  0.
        2    1    3    3  502    0  0.20028640156E+03  0.15682122441E+04  0.10989315563E+04  0.19253713539E+04  0.25500000920E-02 0.  1.
       -2    1    3    3    0  502 -0.20028640156E+03 -0.15682122441E+04 -0.12055951035E+04  0.19881810377E+04  0.25500000920E-02 0. -1.
</event>
<event>
 5   0  0.3872969E-08  0.3901972E+04  0.7818609E-02  0.8024619E-01
       -2   -1    0    0    0  501  0.00000000000E+00  0.00000000000E+00  0.15307189114E+04  0.15307189114E+04  0.25500000920E-02 0.  1.
        2   -1    0    0  501    0  0.00000000000E+00  0.00000000000E+00 -0.24866391686E+04  0.24866391686E+04  0.25500000920E-02 0. -1.
    10030    2    1    2    0    0  0.00000000000E+00  0.00000000000E+00 -0.95592025726E+03  0.40173580800E+04  0.39019716048E+04 0.  0.
        2    1    3    3  502    0 -0.14825274736E+04  0.11150329908E+04  0.14419349366E+03  0.18606391494E+04  0.25500000920E-02 0.  1.
       -2    1    3    3    0  502  0.14825274736E+04 -0.11150329908E+04 -0.11001137509E+04  0.21567189306E+04  0.25500000920E-02 0. -1.
</event>
<event>
 5   0  0.1164500E-08  0.3898274E+04  0.7818609E-02  0.8025388E-01
       -4   -1    0    0    0  501  0.00000000000E+00  0.00000000000E+00  0.22237951235E+04  0.22237954861E+04  0.12699999809E+01 0. -1.
        4   -1    0    0  501    0  0.00000000000E+00  0.00000000000E+00 -0.17084010421E+04  0.17084015142E+04  0.12699999809E+01 0.  1.
    10030    2    1    2    0    0  0.00000000000E+00  0.00000000000E+00  0.51539408137E+03  0.39321970003E+04  0.38982742580E+04 0.  0.
        5    1    3    3  502    0 -0.94426704982E+01 -0.10455775877E+04 -0.14015462330E+04  0.17486210536E+04  0.46999998093E+01 0.  1.
       -5    1    3    3    0  502  0.94426704982E+01  0.10455775877E+04  0.19169403144E+04  0.21835759467E+04  0.46999998093E+01 0. -1.
</event>
<event>
 5   0  0.3769985E-08  0.3913226E+04  0.7818609E-02  0.8022284E-01
        2   -1    0    0  501    0  0.00000000000E+00  0.00000000000E+00  0.28692491123E+04  0.28692491123E+04  0.25500000920E-02 0.  1.
       -2   -1    0    0    0  501  0.00000000000E+00  0.00000000000E+00 -0.13342634578E+04  0.13342634578E+04  0.25500000920E-02 0. -1.
    10030    2    1    2    0    0  0.00000000000E+00  0.00000000000E+00  0.15349856545E+04  0.42035125701E+04  0.39132259030E+04 0.  0.
        1    1    3    3  502    0  0.16047026083E+04  0.10703527954E+04  0.11198645673E+04  0.22304309487E+04  0.50400001928E-02 0.  1.
       -1    1    3    3    0  502 -0.16047026083E+04 -0.10703527954E+04  0.41512108715E+03  0.19730816214E+04  0.50400001928E-02 0. -1.
</event>
<event>
 5   0  0.1164500E-08  0.3899433E+04  0.7818609E-02  0.8025147E-01
       -1   -1    0    0    0  501  0.00000000000E+00  0.00000000000E+00  0.14811253860E+04  0.14811253860E+04  0.50400001928E-02 0. -1.
        1   -1    0    0  501    0  0.00000000000E+00  0.00000000000E+00 -0.25665579467E+04  0.25665579467E+04  0.50400001928E-02 0.  1.
    10030    2    1    2    0    0  0.00000000000E+00  0.00000000000E+00 -0.10854325607E+04  0.40476833327E+04  0.38994328457E+04 0.  0.
        3    1    3    3  502    0 -0.91092704655E+02  0.14042322586E+04 -0.19435521140E+04  0.23994918102E+04  0.10100000352E+00 0.  1.
       -3    1    3    3    0  502  0.91092704655E+02 -0.14042322586E+04  0.85811955337E+03  0.16481915226E+04  0.10100000352E+00 0. -1.
</event>
<event>
 5   0  0.3724293E-08  0.3884018E+04  0.7818609E-02  0.8028361E-01
        2   -1    0    0  501    0  0.00000000000E+00  0.00000000000E+00  0.18034011250E+04  0.18034011250E+04  0.25500000920E-02 0.  1.
       -2   -1    0    0    0  501  0.00000000000E+00  0.00000000000E+00 -0.20912701289E+04  0.20912701289E+04  0.25500000920E-02 0. -1.
    10030    2    1    2    0    0  0.00000000000E+00  0.00000000000E+00 -0.28786900390E+03  0.38946712540E+04  0.38840179728E+04 0.  0.
        4    1    3    3  502    0 -0.14031106481E+04  0.49800588755E+03  0.11063486962E+04  0.18549227491E+04  0.12699999809E+01 0.  1.
       -4    1    3    3    0  502  0.14031106481E+04 -0.49800588755E+03 -0.13942177001E+04  0.20397485048E+04  0.12699999809E+01 0. -1.
</event>
<event>
 5   0  0.3669347E-08  0.3893300E+04  0.7818609E-02  0.8026424E-01
       -2   -1    0    0    0  501  0.00000000000E+00  0.00000000000E+00  0.12925028016E+04  0.12925028016E+04  0.25500000920E-02 0.  1.
        2   -1    0    0  501    0  0.00000000000E+00  0.00000000000E+00 -0.29318666158E+04  0.29318666158E+04  0.25500000920E-02 0. -1.
    10030    2    1    2    0    0  0.00000000000E+00  0.00000000000E+00 -0.16393638142E+04  0.42243694175E+04  0.38932997907E+04 0.  0.
        5    1    3    3  502    0  0.12409116155E+04  0.29733715261E+03 -0.24147777048E+04  0.27311983585E+04  0.46999998093E+01 0. -1.
       -5    1    3    3    0  502 -0.12409116155E+04 -0.29733715261E+03  0.77541389062E+03  0.14931710590E+04  0.46999998093E+01 0.  1.
</event>
<event>
 5   0  0.3690572E-08  0.3900306E+04  0.7818609E-02  0.8024966E-01
       -2   -1    0    0    0  501  0.00000000000E+00  0.00000000000E+00  0.14984421499E+04  0.14984421500E+04  0.25500000920E-02 0. -1.
        2   -1    0    0  501    0  0.00000000000E+00  0.00000000000E+00 -0.25380334447E+04  0.25380334447E+04  0.25500000920E-02 0.  1.
    10030    2    1    2    0    0  0.00000000000E+00  0.00000000000E+00 -0.10395912947E+04  0.40364755946E+04  0.39003057785E+04 0.  0.
        3    1    3    3  502    0  0.45911609961E+03 -0.12097340139E+04  0.99020259053E+03  0.16293388714E+04  0.10100000352E+00 0. -1.
       -3    1    3    3    0  502 -0.45911609961E+03  0.12097340139E+04 -0.20297938853E+04  0.24071367232E+04  0.10100000352E+00 0.  1.
</event>
<event>
 5   0  0.1164500E-08  0.3900109E+04  0.7818609E-02  0.8025007E-01
       -1   -1    0    0    0  501  0.00000000000E+00  0.00000000000E+00  0.32889225121E+04  0.32889225121E+04  0.50400001928E-02 0. -1.
        1   -1    0    0  501    0  0.00000000000E+00  0.00000000000E+00 -0.11562181403E+04  0.11562181403E+04  0.50400001928E-02 0.  1.
    10030    2    1    2    0    0  0.00000000000E+00  0.00000000000E+00  0.21327043719E+04  0.44451406524E+04  0.39001086500E+04 0.  0.
        1    1    3    3  502    0 -0.17627109552E+04  0.76294453474E+03  0.68241174023E+03  0.20383621017E+04  0.50400001928E-02 0.  1.
       -1    1    3    3    0  502  0.17627109552E+04 -0.76294453474E+03  0.14502926316E+04  0.24067785507E+04  0.50400001928E-02 0. -1.
</event>
<event>
 5   0  0.1164500E-08  0.3899724E+04  0.7818609E-02  0.8025087E-01
       -1   -1    0    0    0  501  0.00000000000E+00  0.00000000000E+00  0.18168162279E+04  0.18168162279E+04  0.50400001928E-02 0. -1.
        1   -1    0    0  501    0  0.00000000000E+00  0.00000000000E+00 -0.20926502705E+04  0.20926502705E+04  0.50400001928E-02 0.  1.
    10030    2    1    2    0    0  0.00000000000E+00  0.00000000000E+00 -0.27583404261E+03  0.39094664984E+04  0.38997235649E+04 0.  0.
        2    1    3    3  502    0  0.98380305754E+03  0.16834753136E+04 -0.13976091808E+03  0.19548633461E+04  0.25500000920E-02 0. -1.
       -2    1    3    3    0  502 -0.98380305754E+03 -0.16834753136E+04 -0.13607312453E+03  0.19546031523E+04  0.25500000920E-02 0.  1.
</event>
<event>
 5   0  0.1164500E-08  0.3902004E+04  0.7818609E-02  0.8024612E-01
        1   -1    0    0  501    0  0.00000000000E+00  0.00000000000E+00  0.19601951770E+04  0.19601951770E+04  0.50400001928E-02 0.  1.
       -1   -1    0    0    0  501  0.00000000000E+00  0.00000000000E+00 -0.19418523341E+04  0.19418523341E+04  0.50400001928E-02 0. -1.
    10030    2    1    2    0    0  0.00000000000E+00  0.00000000000E+00  0.18342842918E+02  0.39020475111E+04  0.39020043976E+04 0.  0.
        2    1    3    3  502    0  0.12909117168E+04 -0.14562494784E+04  0.14807571274E+03  0.19516767203E+04  0.25500000920E-02 0.  1.
       -2    1    3    3    0  502 -0.12909117168E+04  0.14562494784E+04 -0.12973286983E+03  0.19503707908E+04  0.25500000920E-02 0. -1.
</event>
<event>
 5   0  0.3872969E-08  0.3898708E+04  0.7818609E-02  0.8025298E-01
        2   -1    0    0  501    0  0.00000000000E+00  0.00000000000E+00  0.24410384974E+04  0.24410384974E+04  0.25500000920E-02 0. -1.
       -2   -1    0    0    0  501  0.00000000000E+00  0.00000000000E+00 -0.15567069980E+04  0.15567069980E+04  0.25500000920E-02 0.  1.
    10030    2    1    2    0    0  0.00000000000E+00  0.00000000000E+00  0.88433149934E+03  0.39977454954E+04  0.38987083560E+04 0.  0.
        2    1    3    3  502    0 -0.75978455750E+03  0.14006722809E+04 -0.70922311033E+03  0.17441768352E+04  0.25500000920E-02 0.  1.
       -2    1    3    3    0  502  0.75978455750E+03 -0.14006722809E+04  0.15935546097E+04  0.22535686602E+04  0.25500000920E-02 0. -1.
</event>
<event>
 5   0  0.3724293E-08  0.3893435E+04  0.7818609E-02  0.8026396E-01
       -2   -1    0    0    0  501  0.00000000000E+00  0.00000000000E+00  0.14580641913E+04  0.14580641913E+04  0.25500000920E-02 0. -1.
        2   -1    0    0  501    0  0.00000000000E+00  0.00000000000E+00 -0.25991371103E+04  0.25991371103E+04  0.25500000920E-02 0.  1.
    10030    2    1    2    0    0  0.00000000000E+00  0.00000000000E+00 -0.11410729190E+04  0.40572013016E+04  0.38934348582E+04 0.  0.
        4    1    3    3  502    0  0.18655532659E+04  0.31350567632E+03 -0.91717848438E+02  0.18939346804E+04  0.12699999809E+01 0. -1.
       -4    1    3    3    0  502 -0.18655532659E+04 -0.31350567632E+03 -0.10493550706E+04  0.21632666211E+04  0.12699999809E+01 0.  1.
</event>
<event>
 5   0  0.3669347E-08  0.3899909E+04  0.7818609E-02  0.8025048E-01
        2   -1    0    0  501    0  0.00000000000E+00  0.00000000000E+00  0.20448613688E+04  0.20448613688E+04  0.25500000920E-02 0.  1.
       -2   -1    0    0    0  501  0.00000000000E+00  0.00000000000E+00 -0.18594529388E+04  0.18594529388E+04  0.25500000920E-02 0. -1.
    10030    2    1    2    0    0  0.00000000000E+00  0.00000000000E+00  0.18540842998E+03  0.39043143076E+04  0.38999094768E+04 0.  0.
        5    1    3    3  502    0  0.15769953788E+04  0.37397614806E+03  0.11781468696E+04  0.20037027525E+04  0.46999998093E+01 0.  1.
       -5    1    3    3    0  502 -0.15769953788E+04 -0.37397614806E+03 -0.99273843966E+03  0.19006115551E+04  0.46999998093E+01 0. -1.
</event>
<event>
 5   0  0.1164500E-08  0.3903677E+04  0.7818609E-02  0.8024265E-01
        1   -1    0    0  501    0  0.00000000000E+00  0.00000000000E+00  0.10845685234E+04  0.10845685234E+04  0.50400001928E-02 0. -1.
       -1   -1    0    0    0  501  0.00000000000E+00  0.00000000000E+00 -0.35126176015E+04  0.35126176015E+04  0.50400001928E-02 0.  1.
    10030    2    1    2    0    0  0.00000000000E+00  0.00000000000E+00 -0.24280490781E+04  0.45971861249E+04  0.39036774894E+04 0.  0.
        1    1    3    3  502    0 -0.19225068398E+04 -0.11680376511E+03 -0.84161946705E+03  0.21019036600E+04  0.50400001928E-02 0.  1.
       -1    1    3    3    0  502  0.19225068398E+04  0.11680376511E+03 -0.15864296111E+04  0.24952824649E+04  0.50400001928E-02 0. -1.
</event>
<event>
 5   0  0.1164500E-08  0.3886776E+04  0.7818609E-02  0.8027785E-01
       -1   -1    0    0    0  501  0.00000000000E+00  0.00000000000E+00  0.20088802427E+04  0.20088802427E+04  0.50400001928E-02 0.  1.
        1   -1    0    0  501    0  0.00000000000E+00  0.00000000000E+00 -0.18800305376E+04  0.18800305376E+04  0.50400001928E-02 0. -1.
    10030    2    1    2    0    0  0.00000000000E+00  0.00000000000E+00  0.12884970518E+03  0.38889107803E+04  0.38867756316E+04 0.  0.
        4    1    3    3  502    0  0.28313760630E+03  0.41792526400E+03  0.19421353386E+04  0.20066688109E+04  0.12699999809E+01 0.  1.
       -4    1    3    3    0  502 -0.28313760630E+03 -0.41792526400E+03 -0.18132856334E+04  0.18822419694E+04  0.12699999809E+01 0. -1.
</event>
<event>
 5   0  0.3872969E-08  0.3897287E+04  0.7818609E-02  0.8025594E-01
        2   -1    0    0  501    0  0.00000000000E+00  0.00000000000E+00  0.16542167038E+04  0.16542167038E+04  0.25500000920E-02 0. -1.
       -2   -1    0    0    0  501  0.00000000000E+00  0.00000000000E+00 -0.22954743749E+04  0.22954743749E+04  0.25500000920E-02 0.  1.
    10030    2    1    2    0    0  0.00000000000E+00  0.00000000000E+00 -0.64125767107E+03  0.39496910787E+04  0.38972872895E+04 0.  0.
        2    1    3    3  502    0 -0.11568939264E+04  0.13257447564E+04  0.52801322674E+03  0.18370630593E+04  0.25500000920E-02 0. -1.
       -2    1    3    3    0  502  0.11568939264E+04 -0.13257447564E+04 -0.11692708978E+04  0.21126280195E+04  0.25500000920E-02 0.  1.
</event>
<event>
 5   0  0.3769985E-08  0.3909987E+04  0.7818609E-02  0.8022955E-01
        2   -1    0    0  501    0  0.00000000000E+00  0.00000000000E+00  0.21491203662E+04  0.21491203662E+04  0.25500000920E-02 0. -1.
       -2   -1    0    0    0  501  0.00000000000E+00  0.00000000000E+00 -0.17784015451E+04  0.17784015451E+04  0.25500000920E-02 0.  1.
    10030    2    1    2    0    0  0.00000000000E+00  0.00000000000E+00  0.37071882105E+03  0.39275219113E+04  0.39099866905E+04 0.  0.
        1    1    3    3  502    0  0.13222252396E+04  0.10405859865E+04 -0.81454456623E+03  0.18693800122E+04  0.50400001928E-02 0.  1.
       -1    1    3    3    0  502 -0.13222252396E+04 -0.10405859865E+04  0.11852633873E+04  0.20581418991E+04  0.50400001928E-02 0. -1.
</event>
<event>
 5   0  0.3769985E-08  0.3941403E+04  0.7818609E-02  0.8016473E-01
        2   -1    0    0  501    0  0.00000000000E+00  0.00000000000E+00  0.23815135897E+04  0.23815135897E+04  0.25500000920E-02 0. -1.
       -2   -1    0    0    0  501  0.00000000000E+00  0.00000000000E+00 -0.16307545617E+04  0.16307545617E+04  0.25500000920E-02 0.  1.
    10030    2    1    2    0    0  0.00000000000E+00  0.00000000000E+00  0.75075902802E+03  0.40122681515E+04  0.39414028722E+04 0.  0.
        1    1    3    3  502    0  0.58425670248E+03  0.16452542766E+04 -0.55508213028E+03  0.18320299398E+04  0.50400001928E-02 0.  1.
       -1    1    3    3    0  502 -0.58425670248E+03 -0.16452542766E+04  0.13058411583E+04  0.21802382117E+04  0.50400001928E-02 0. -1.
</event>
<event>
 5   0  0.1164500E-08  0.3901090E+04  0.7818609E-02  0.8024803E-01
       -1   -1    0    0    0  501  0.00000000000E+00  0.00000000000E+00  0.31832920653E+04  0.31832920653E+04  0.50400001928E-02 0. -1.
        1   -1    0    0  501    0  0.00000000000E+00  0.00000000000E+00 -0.11951857395E+04  0.11951857395E+04  0.50400001928E-02 0.  1.
    10030    2    1    2    0    0  0.00000000000E+00  0.00000000000E+00  0.19881063258E+04  0.43784778049E+04  0.39010897356E+04 0.  0.
        2    1    3    3  502    0  0.13450461680E+04 -0.40520531489E+02 -0.59077335685E+03  0.14696272544E+04  0.25500000920E-02 0.  1.
       -2    1    3    3    0  502 -0.13450461680E+04  0.40520531489E+02  0.25788796826E+04  0.29088505505E+04  0.25500000920E-02 0. -1.
</event>
<event>
 5   0  0.3669347E-08  0.3905098E+04  0.7818609E-02  0.8023970E-01
        2   -1    0    0  501    0  0.00000000000E+00  0.00000000000E+00  0.21913978891E+04  0.21913978891E+04  0.25500000920E-02 0. -1.
       -2   -1    0    0    0  501  0.00000000000E+00  0.00000000000E+00 -0.17397327491E+04  0.17397327491E+04  0.25500000920E-02 0.  1.
    10030    2    1    2    0    0  0.00000000000E+00  0.00000000000E+00  0.45166514001E+03  0.39311306382E+04  0.39050975270E+04 0.  0.
        5    1    3    3  502    0  0.18339812911E+04  0.52708176535E+03 -0.19059410513E+03  0.19177202003E+04  0.46999998093E+01 0.  1.
       -5    1    3    3    0  502 -0.18339812911E+04 -0.52708176535E+03  0.64225924514E+03  0.20134104379E+04  0.46999998093E+01 0. -1.
</event>
<event>
 5   0  0.1164500E-08  0.3936803E+04  0.7818609E-02  0.8017418E-01
        1   -1    0    0  501    0  0.00000000000E+00  0.00000000000E+00  0.14255258184E+04  0.14255258185E+04  0.50400001928E-02 0.  1.
       -1   -1    0    0    0  501  0.00000000000E+00  0.00000000000E+00 -0.27180173487E+04  0.27180173487E+04  0.50400001928E-02 0. -1.
    10030    2    1    2    0    0  0.00000000000E+00  0.00000000000E+00 -0.12924915303E+04  0.41435431672E+04  0.39368027157E+04 0.  0.
        4    1    3    3  502    0 -0.11426803373E+04  0.32619460065E+03  0.10053914582E+04  0.15565779350E+04  0.12699999809E+01 0.  1.
       -4    1    3    3    0  502  0.11426803373E+04 -0.32619460065E+03 -0.22978829885E+04  0.25869652322E+04  0.12699999809E+01 0. -1.
</event>
<event>
 5   0  0.1164500E-08  0.3896952E+04  0.7818609E-02  0.8025663E-01
        1   -1    0    0  501    0  0.00000000000E+00  0.00000000000E+00  0.13929529542E+04  0.13929529542E+04  0.50400001928E-02 0.  1.
       -1   -1    0    0    0  501  0.00000000000E+00  0.00000000000E+00 -0.27255468370E+04  0.27255468370E+04  0.50400001928E-02 0. -1.
    10030    2    1    2    0    0  0.00000000000E+00  0.00000000000E+00 -0.13325938829E+04  0.41184997912E+04  0.38969518952E+04 0.  0.
        1    1    3    3  502    0  0.10738464984E+04 -0.14911384554E+03 -0.23773449720E+04  0.26128816194E+04  0.50400001928E-02 0. -1.
       -1    1    3    3    0  502 -0.10738464984E+04  0.14911384554E+03  0.10447510892E+04  0.15056181718E+04  0.50400001928E-02 0.  1.
</event>
<event>
 5   0  0.1164500E-08  0.3911998E+04  0.7818609E-02  0.8022538E-01
       -1   -1    0    0    0  501  0.00000000000E+00  0.00000000000E+00  0.32632382064E+04  0.32632382064E+04  0.50400001928E-02 0.  1.
        1   -1    0    0  501    0  0.00000000000E+00  0.00000000000E+00 -0.11724341948E+04  0.11724341948E+04  0.50400001928E-02 0. -1.
    10030    2    1    2    0    0  0.00000000000E+00  0.00000000000E+00  0.20908040116E+04  0.44356724012E+04  0.39119979852E+04 0.  0.
        1    1    3    3  502    0 -0.12792528624E+04 -0.12986431716E+04  0.24126153594E+03  0.18387955573E+04  0.50400001928E-02 0. -1.
       -1    1    3    3    0  502  0.12792528624E+04  0.12986431716E+04  0.18495424757E+04  0.25968768439E+04  0.50400001928E-02 0.  1.
</event>
<event>
 5   0  0.1164500E-08  0.3930793E+04  0.7818609E-02  0.8018655E-01
       -1   -1    0    0    0  501  0.00000000000E+00  0.00000000000E+00  0.12393699287E+04  0.12393699287E+04  0.50400001928E-02 0.  1.
        1   -1    0    0  501    0  0.00000000000E+00  0.00000000000E+00 -0.31167309339E+04  0.31167309339E+04  0.50400001928E-02 0. -1.
    10030    2    1    2    0    0  0.00000000000E+00  0.00000000000E+00 -0.18773610053E+04  0.43561008626E+04  0.39307925894E+04 0.  0.
        2    1    3    3  502    0 -0.13526383162E+04  0.47841163434E+03  0.54988895068E+03  0.15365174794E+04  0.25500000920E-02 0.  1.
       -2    1    3    3    0  502  0.13526383162E+04 -0.47841163434E+03 -0.24272499560E+04  0.28195833832E+04  0.25500000920E-02 0. -1.
</event>
<event>
 5   0  0.1164500E-08  0.3900994E+04  0.7818609E-02  0.8024823E-01
        1   -1    0    0  501    0  0.00000000000E+00  0.00000000000E+00  0.16522072835E+04  0.16522072835E+04  0.50400001928E-02 0.  1.
       -1   -1    0    0    0  501  0.00000000000E+00  0.00000000000E+00 -0.23026393961E+04  0.23026393961E+04  0.50400001928E-02 0. -1.
    10030    2    1    2    0    0  0.00000000000E+00  0.00000000000E+00 -0.65043211257E+03  0.39548466796E+04  0.39009935050E+04 0.  0.
        3    1    3    3  502    0 -0.13804784804E+04  0.13658564802E+04 -0.14062331927E+03  0.19470643768E+04  0.10100000352E+00 0. -1.
       -3    1    3    3    0  502  0.13804784804E+04 -0.13658564802E+04 -0.50980879330E+03  0.20077823028E+04  0.10100000352E+00 0.  1.
</event>
<event>
 5   0  0.3690572E-08  0.3907069E+04  0.7818609E-02  0.8023561E-01
        2   -1    0    0  501    0  0.00000000000E+00  0.00000000000E+00  0.30760161748E+04  0.30760161748E+04  0.25500000920E-02 0. -1.
       -2   -1    0    0    0  501  0.00000000000E+00  0.00000000000E+00 -0.12406623895E+04  0.12406623895E+04  0.25500000920E-02 0.  1.
    10030    2    1    2    0    0  0.00000000000E+00  0.00000000000E+00  0.18353537853E+04  0.43166785643E+04  0.39070692739E+04 0.  0.
        3    1    3    3  502    0  0.12055814816E+04  0.40930142011E+03 -0.71932737493E+03  0.14623222093E+04  0.10100000352E+00 0.  1.
       -3    1    3    3    0  502 -0.12055814816E+04 -0.40930142011E+03  0.25546811602E+04  0.28543563551E+04  0.10100000352E+00 0. -1.
</event>
<event>
 5   0  0.1164500E-08  0.3916966E+04  0.7818609E-02  0.8021510E-01
       -1   -1    0    0    0  501  0.00000000000E+00  0.00000000000E+00  0.15628496853E+04  0.15628496853E+04  0.50400001928E-02 0.  1.
        1   -1    0    0  501    0  0.00000000000E+00  0.00000000000E+00 -0.24542698196E+04  0.24542698196E+04  0.50400001928E-02 0. -1.
    10030    2    1    2    0    0  0.00000000000E+00  0.00000000000E+00 -0.89142013434E+03  0.40171195049E+04  0.39169655680E+04 0.  0.
        3    1    3    3  502    0  0.15089728749E+04  0.34063734140E+03 -0.16775130562E+04  0.22819033721E+04  0.10100000352E+00 0. -1.
       -3    1    3    3    0  502 -0.15089728749E+04 -0.34063734140E+03  0.78609292189E+03  0.17352161328E+04  0.10100000352E+00 0.  1.
</event>
<event>
 5   0  0.3724293E-08  0.3916834E+04  0.7818609E-02  0.8021537E-01
       -2   -1    0    0    0  501  0.00000000000E+00  0.00000000000E+00  0.20227874703E+04  0.20227874703E+04  0.25500000920E-02 0.  1.
        2   -1    0    0  501    0  0.00000000000E+00  0.00000000000E+00 -0.18960945272E+04  0.18960945272E+04  0.25500000920E-02 0. -1.
    10030    2    1    2    0    0  0.00000000000E+00  0.00000000000E+00  0.12669294309E+03  0.39188819975E+04  0.39168335437E+04 0.  0.
        4    1    3    3  502    0 -0.12870773550E+04 -0.36231434667E+03 -0.13683298487E+04  0.19131565517E+04  0.12699999809E+01 0. -1.
       -4    1    3    3    0  502  0.12870773550E+04  0.36231434667E+03  0.14950227918E+04  0.20057254459E+04  0.12699999809E+01 0.  1.
</event>
<event>
 5   0  0.3690572E-08  0.3903207E+04  0.7818609E-02  0.8024363E-01
       -2   -1    0    0    0  501  0.00000000000E+00  0.00000000000E+00  0.19644050492E+04  0.19644050492E+04  0.25500000920E-02 0. -1.
        2   -1    0    0  501    0  0.00000000000E+00  0.00000000000E+00 -0.19388850414E+04  0.19388850414E+04  0.25500000920E-02 0.  1.
    10030    2    1    2    0    0  0.00000000000E+00  0.00000000000E+00  0.25520007790E+02  0.39032900907E+04  0.39032066639E+04 0.  0.
        3    1    3    3  502    0 -0.18439026266E+03  0.18452929536E+04  0.62076124040E+03  0.19556202037E+04  0.10100000352E+00 0. -1.
       -3    1    3    3    0  502  0.18439026266E+03 -0.18452929536E+04 -0.59524123261E+03  0.19476698870E+04  0.10100000352E+00 0.  1.
</event>
<event>
 5   0  0.3872969E-08  0.3892191E+04  0.7818609E-02  0.8026655E-01
       -2   -1    0    0    0  501  0.00000000000E+00  0.00000000000E+00  0.13632301770E+04  0.13632301770E+04  0.25500000920E-02 0.  1.
        2   -1    0    0  501    0  0.00000000000E+00  0.00000000000E+00 -0.27781714133E+04  0.27781714133E+04  0.25500000920E-02 0. -1.
    10030    2    1    2    0    0  0.00000000000E+00  0.00000000000E+00 -0.14149412362E+04  0.41414015903E+04  0.38921906981E+04 0.  0.
        2    1    3    3  502    0  0.33446672306E+03 -0.18351330901E+04 -0.12977002080E+04  0.22723572072E+04  0.25500000920E-02 0. -1.
       -2    1    3    3    0  502 -0.33446672306E+03  0.18351330901E+04 -0.11724102822E+03  0.18690443831E+04  0.25500000920E-02 0.  1.
</event>
<event>
 5   0  0.1164500E-08  0.3901030E+04  0.7818609E-02  0.8024815E-01
        1   -1    0    0  501    0  0.00000000000E+00  0.00000000000E+00  0.10094806901E+04  0.10094806901E+04  0.50400001928E-02 0.  1.
       -1   -1    0    0    0  501  0.00000000000E+00  0.00000000000E+00 -0.37687778637E+04  0.37687778638E+04  0.50400001928E-02 0. -1.
    10030    2    1    2    0    0  0.00000000000E+00  0.00000000000E+00 -0.27592971737E+04  0.47782585538E+04  0.39010298531E+04 0.  0.
        5    1    3    3  502    0  0.53959601661E+03 -0.27799457790E+03 -0.36501384906E+04  0.37002672791E+04  0.46999998093E+01 0. -1.
       -5    1    3    3    0  502 -0.53959601661E+03  0.27799457790E+03  0.89084131691E+03  0.10779912747E+04  0.46999998093E+01 0.  1.
</event>
<event>
 5   0  0.1164500E-08  0.3897986E+04  0.7818609E-02  0.8025448E-01
        1   -1    0    0  501    0  0.00000000000E+00  0.00000000000E+00  0.24457739106E+04  0.24457739106E+04  0.50400001928E-02 0. -1.
       -1   -1    0    0    0  501  0.00000000000E+00  0.00000000000E+00 -0.15531169501E+04  0.15531169501E+04  0.50400001928E-02 0.  1.
    10030    2    1    2    0    0  0.00000000000E+00  0.00000000000E+00  0.89265696044E+03  0.39988908607E+04  0.38979855909E+04 0.  0.
        1    1    3    3  502    0 -0.14770576440E+04  0.12069106212E+04  0.35665728892E+02  0.19077747706E+04  0.50400001928E-02 0. -1.
       -1    1    3    3    0  502  0.14770576440E+04 -0.12069106212E+04  0.85699123155E+03  0.20911160901E+04  0.50400001928E-02 0.  1.
</event>
<event>
 5   0  0.3769985E-08  0.3893480E+04  0.7818609E-02  0.8026387E-01
       -2   -1    0    0    0  501  0.00000000000E+00  0.00000000000E+00  0.25120415625E+04  0.25120415625E+04  0.25500000920E-02 0.  1.
        2   -1    0    0  501    0  0.00000000000E+00  0.00000000000E+00 -0.15086518934E+04  0.15086518934E+04  0.25500000920E-02 0. -1.
    10030    2    1    2    0    0  0.00000000000E+00  0.00000000000E+00  0.10033896691E+04  0.40206934560E+04  0.38934798110E+04 0.  0.
        1    1    3    3  502    0 -0.26359174276E+03 -0.13793612157E+04 -0.89056901263E+03  0.16628984143E+04  0.50400001928E-02 0. -1.
       -1    1    3    3    0  502  0.26359174276E+03  0.13793612157E+04  0.18939586818E+04  0.23577950416E+04  0.50400001928E-02 0.  1.
</event>
<event>
 5   0  0.3724293E-08  0.3900976E+04  0.7818609E-02  0.8024826E-01
       -2   -1    0    0    0  501  0.00000000000E+00  0.00000000000E+00  0.12416970674E+04  0.12416970674E+04  0.25500000920E-02 0. -1.
        2   -1    0    0  501    0  0.00000000000E+00  0.00000000000E+00 -0.30638734276E+04  0.30638734276E+04  0.25500000920E-02 0.  1.
    10030    2    1    2    0    0  0.00000000000E+00  0.00000000000E+00 -0.18221763602E+04  0.43055704950E+04  0.39009755958E+04 0.  0.
        4    1    3    3  502    0  0.18717342470E+04  0.23792332933E+03 -0.14567354818E+04  0.23837106534E+04  0.12699999809E+01 0. -1.
       -4    1    3    3    0  502 -0.18717342470E+04 -0.23792332933E+03 -0.36544087845E+03  0.19218598416E+04  0.12699999809E+01 0.  1.
</event>
<event>
 5   0  0.3669347E-08  0.3894728E+04  0.7818609E-02  0.8026127E-01
        2   -1    0    0  501    0  0.00000000000E+00  0.00000000000E+00  0.19173532948E+04  0.19173532948E+04  0.25500000920E-02 0.  1.
       -2   -1    0    0    0  501  0.00000000000E+00  0.00000000000E+00 -0.19778446293E+04  0.19778446293E+04  0.25500000920E-02 0. -1.
    10030    2    1    2    0    0  0.00000000000E+00  0.00000000000E+00 -0.60491334468E+02  0.38951979241E+04  0.38947281890E+04 0.  0.
        5    1    3    3  502    0 -0.10470034609E+04 -0.15879127373E+04 -0.44805401823E+03  0.19540874089E+04  0.46999998093E+01 0. -1.
       -5    1    3    3    0  502  0.10470034609E+04  0.15879127373E+04  0.38756268377E+03  0.19411105152E+04  0.46999998093E+01 0.  1.
</event>
<event>
 5   0  0.3690572E-08  0.3900745E+04  0.7818609E-02  0.8024874E-01
       -2   -1    0    0    0  501  0.00000000000E+00  0.00000000000E+00  0.18715727447E+04  0.18715727447E+04  0.25500000920E-02 0. -1.
        2   -1    0    0  501    0  0.00000000000E+00  0.00000000000E+00 -0.20324896688E+04  0.20324896688E+04  0.25500000920E-02 0.  1.
    10030    2    1    2    0    0  0.00000000000E+00  0.00000000000E+00 -0.16091692415E+03  0.39040624135E+04  0.39007446818E+04 0.  0.
        3    1    3    3  502    0 -0.39304757842E+03  0.19182550392E+03 -0.19827772769E+04  0.20304406326E+04  0.10100000352E+00 0.  1.
       -3    1    3    3    0  502  0.39304757842E+03 -0.19182550392E+03  0.18218603527E+04  0.18736217809E+04  0.10100000352E+00 0. -1.
</event>
<event>
 5   0  0.3724293E-08  0.3923579E+04  0.7818609E-02  0.8020143E-01
        2   -1    0    0  501    0  0.00000000000E+00  0.00000000000E+00  0.27504397913E+04  0.27504397913E+04  0.25500000920E-02 0. -1.
       -2   -1    0    0    0  501  0.00000000000E+00  0.00000000000E+00 -0.13992735663E+04  0.13992735663E+04  0.25500000920E-02 0.  1.
    10030    2    1    2    0    0  0.00000000000E+00  0.00000000000E+00  0.13511662250E+04  0.41497133575E+04  0.39235788232E+04 0.  0.
        4    1    3    3  502    0  0.66163866470E+03 -0.58012195701E+03 -0.11788427108E+04  0.14710468916E+04  0.12699999809E+01 0.  1.
       -4    1    3    3    0  502 -0.66163866470E+03  0.58012195701E+03  0.25300089358E+04  0.26786664659E+04  0.12699999809E+01 0. -1.
</event>
<event>
 5   0  0.1164500E-08  0.3886602E+04  0.7818609E-02  0.8027821E-01
       -1   -1    0    0    0  501  0.00000000000E+00  0.00000000000E+00  0.19214805843E+04  0.19214805843E+04  0.50400001928E-02 0.  1.
        1   -1    0    0  501    0  0.00000000000E+00  0.00000000000E+00 -0.19653693484E+04  0.19653693485E+04  0.50400001928E-02 0. -1.
    10030    2    1    2    0    0  0.00000000000E+00  0.00000000000E+00 -0.43888764142E+02  0.38868499328E+04  0.38866021376E+04 0.  0.
        5    1    3    3  502    0 -0.95326592995E+03  0.66553842439E+02 -0.17141668021E+04  0.19625328692E+04  0.46999998093E+01 0. -1.
       -5    1    3    3    0  502  0.95326592995E+03 -0.66553842439E+02  0.16702780380E+04  0.19243170636E+04  0.46999998093E+01 0.  1.
</event>
<event>
 5   0  0.1164500E-08  0.3892251E+04  0.7818609E-02  0.8026643E-01
        1   -1    0    0  501    0  0.00000000000E+00  0.00000000000E+00  0.21330293174E+04  0.21330293174E+04  0.50400001928E-02 0.  1.
       -1   -1    0    0    0  501  0.00000000000E+00  0.00000000000E+00 -0.17755993324E+04  0.17755993324E+04  0.50400001928E-02 0. -1.
    10030    2    1    2    0    0  0.00000000000E+00  0.00000000000E+00  0.35742998497E+03  0.39086286498E+04  0.38922514985E+04 0.  0.
        2    1    3    3  502    0 -0.69666371200E+02  0.17029965785E+04 -0.76457475418E+03  0.18680538816E+04  0.25500000920E-02 0.  1.
       -2    1    3    3    0  502  0.69666371200E+02 -0.17029965785E+04  0.11220047392E+04  0.20405747682E+04  0.25500000920E-02 0. -1.
</event>
<event>
 5   0  0.3724293E-08  0.3909945E+04  0.7818609E-02  0.8022964E-01
        2   -1    0    0  501    0  0.00000000000E+00  0.00000000000E+00  0.26429831336E+04  0.26429831336E+04  0.25500000920E-02 0.  1.
       -2   -1    0    0    0  501  0.00000000000E+00  0.00000000000E+00 -0.14460618621E+04  0.14460618621E+04  0.25500000920E-02 0. -1.
    10030    2    1    2    0    0  0.00000000000E+00  0.00000000000E+00  0.11969212715E+04  0.40890449956E+04  0.39099448137E+04 0.  0.
        4    1    3    3  502    0 -0.80225822357E+03  0.16871770793E+04  0.12008039907E+04  0.22208369123E+04  0.12699999809E+01 0. -1.
       -4    1    3    3    0  502  0.80225822357E+03 -0.16871770793E+04 -0.38827192591E+01  0.18682080833E+04  0.12699999809E+01 0.  1.
</event>
<event>
 5   0  0.3690572E-08  0.3912211E+04  0.7818609E-02  0.8022494E-01
       -2   -1    0    0    0  501  0.00000000000E+00  0.00000000000E+00  0.15379160521E+04  0.15379160521E+04  0.25500000920E-02 0. -1.
        2   -1    0    0  501    0  0.00000000000E+00  0.00000000000E+00 -0.24880086503E+04  0.24880086503E+04  0.25500000920E-02 0.  1.
    10030    2    1    2    0    0  0.00000000000E+00  0.00000000000E+00 -0.95009259817E+03  0.40259247024E+04  0.39122108537E+04 0.  0.
        3    1    3    3  502    0  0.10123350799E+04  0.50505737410E+03 -0.21171870861E+04  0.24004971220E+04  0.10100000352E+00 0.  1.
       -3    1    3    3    0  502 -0.10123350799E+04 -0.50505737410E+03  0.11670944879E+04  0.16254275804E+04  0.10100000352E+00 0. -1.
</event>
<event>
 5   0  0.3872969E-08  0.3911581E+04  0.7818609E-02  0.8022625E-01
       -2   -1    0    0    0  501  0.00000000000E+00  0.00000000000E+00  0.14549434397E+04  0.14549434397E+04  0.25500000920E-02 0.  1.
        2   -1    0    0  501    0  0.00000000000E+00  0.00000000000E+00 -0.26290484398E+04  0.26290484398E+04  0.25500000920E-02 0. -1.
    10030    2    1    2    0    0  0.00000000000E+00  0.00000000000E+00 -0.11741050001E+04  0.40839918795E+04  0.39115811535E+04 0.  0.
        2    1    3    3  502    0 -0.11153815179E+04  0.19040291234E+03 -0.22526048717E+04  0.25208248466E+04  0.25500000920E-02 0. -1.
       -2    1    3    3    0  502  0.11153815179E+04 -0.19040291234E+03  0.10784998716E+04  0.15631670329E+04  0.25500000920E-02 0.  1.
</event>
<event>
 5   0  0.3724293E-08  0.3908852E+04  0.7818609E-02  0.8023191E-01
       -2   -1    0    0    0  501  0.00000000000E+00  0.00000000000E+00  0.12338663775E+04  0.12338663775E+04  0.25500000920E-02 0.  1.
        2   -1    0    0  501    0  0.00000000000E+00  0.00000000000E+00 -0.30957814553E+04  0.30957814553E+04  0.25500000920E-02 0. -1.
    10030    2    1    2    0    0  0.00000000000E+00  0.00000000000E+00 -0.18619150778E+04  0.43296478328E+04  0.39088518262E+04 0.  0.
        4    1    3    3  502    0  0.15533994959E+04  0.15601347649E+03 -0.22332798305E+04  0.27248725865E+04  0.12699999809E+01 0. -1.
       -4    1    3    3    0  502 -0.15533994959E+04 -0.15601347649E+03  0.37136475264E+03  0.16047752463E+04  0.12699999809E+01 0.  1.
</event>
<event>
 5   0  0.1164500E-08  0.3897443E+04  0.7818609E-02  0.8025561E-01
        1   -1    0    0  501    0  0.00000000000E+00  0.00000000000E+00  0.25137587446E+04  0.25137587446E+04  0.50400001928E-02 0.  1.
       -1   -1    0    0    0  501  0.00000000000E+00  0.00000000000E+00 -0.15106922633E+04  0.15106922633E+04  0.50400001928E-02 0. -1.
    10030    2    1    2    0    0  0.00000000000E+00  0.00000000000E+00  0.10030664813E+04  0.40244510079E+04  0.38974432066E+04 0.  0.
        1    1    3    3  502    0 -0.29734917937E+03  0.40280721689E+03 -0.14431460851E+04  0.15275276794E+04  0.50400001928E-02 0. -1.
       -1    1    3    3    0  502  0.29734917937E+03 -0.40280721689E+03  0.24462125664E+04  0.24969233285E+04  0.50400001928E-02 0.  1.
</event>
<event>
 5   0  0.3872969E-08  0.3905203E+04  0.7818609E-02  0.8023948E-01
        2   -1    0    0  501    0  0.00000000000E+00  0.00000000000E+00  0.23611003389E+04  0.23611003389E+04  0.25500000920E-02 0.  1.
       -2   -1    0    0    0  501  0.00000000000E+00  0.00000000000E+00 -0.16147776788E+04  0.16147776788E+04  0.25500000920E-02 0. -1.
    10030    2    1    2    0    0  0.00000000000E+00  0.00000000000E+00  0.74632266008E+03  0.39758780177E+04  0.39052027475E+04 0.  0.
        2    1    3    3  502    0 -0.55106027925E+03 -0.10938836244E+04 -0.11750179702E+04  0.16973261459E+04  0.25500000920E-02 0. -1.
       -2    1    3    3    0  502  0.55106027925E+03  0.10938836244E+04  0.19213406303E+04  0.22785518718E+04  0.25500000920E-02 0.  1.
</event>
<event>
 5   0  0.1164500E-08  0.3902977E+04  0.7818609E-02  0.8024410E-01
       -1   -1    0    0    0  501  0.00000000000E+00  0.00000000000E+00  0.20591690111E+04  0.20591690111E+04  0.50400001928E-02 0. -1.
        1   -1    0    0  501    0  0.00000000000E+00  0.00000000000E+00 -0.18494392318E+04  0.18494392318E+04  0.50400001928E-02 0.  1.
    10030    2    1    2    0    0  0.00000000000E+00  0.00000000000E+00  0.20972977929E+03  0.39086082429E+04  0.39029773015E+04 0.  0.
        5    1    3    3  502    0 -0.18397140787E+04 -0.86598075798E+02  0.75096136255E+03  0.19889726434E+04  0.46999998093E+01 0. -1.
       -5    1    3    3    0  502  0.18397140787E+04  0.86598075798E+02 -0.54123158327E+03  0.19196355995E+04  0.46999998093E+01 0.  1.
</event>
<event>
 5   0  0.1164500E-08  0.3900048E+04  0.7818609E-02  0.8025019E-01
       -1   -1    0    0    0  501  0.00000000000E+00  0.00000000000E+00  0.27868508503E+04  0.27868508503E+04  0.50400001928E-02 0.  1.
        1   -1    0    0  501    0  0.00000000000E+00  0.00000000000E+00 -0.13644766199E+04  0.13644766199E+04  0.50400001928E-02 0. -1.
    10030    2    1    2    0    0  0.00000000000E+00  0.00000000000E+00  0.14223742304E+04  0.41513274702E+04  0.39000476040E+04 0.  0.
        3    1    3    3  502    0 -0.11421745516E+04 -0.15428685801E+04  0.34618439133E+03  0.19506024210E+04  0.10100000352E+00 0. -1.
       -3    1    3    3    0  502  0.11421745516E+04  0.15428685801E+04  0.10761898391E+04  0.22007250492E+04  0.10100000352E+00 0.  1.
</event>
<event>
 5   0  0.3669347E-08  0.3876497E+04  0.7818609E-02  0.8029935E-01
        2   -1    0    0  501    0  0.00000000000E+00  0.00000000000E+00  0.28462303400E+04  0.28462303400E+04  0.25500000920E-02 0.  1.
       -2   -1    0    0    0  501  0.00000000000E+00  0.00000000000E+00 -0.13199237563E+04  0.13199237563E+04  0.25500000920E-02 0. -1.
    10030    2    1    2    0    0  0.00000000000E+00  0.00000000000E+00  0.15263065837E+04  0.41661540962E+04  0.38764968936E+04 0.  0.
        5    1    3    3  502    0  0.19258667975E+04 -0.11718893901E+03  0.56472589562E+03  0.20103814554E+04  0.46999998093E+01 0.  1.
       -5    1    3    3    0  502 -0.19258667975E+04  0.11718893901E+03  0.96158068806E+03  0.21557726408E+04  0.46999998093E+01 0. -1.
</event>
<event>
 5   0  0.1164500E-08  0.3902929E+04  0.7818609E-02  0.8024420E-01
        1   -1    0    0  501    0  0.00000000000E+00  0.00000000000E+00  0.12374610333E+04  0.12374610333E+04  0.50400001928E-02 0.  1.
       -1   -1    0    0    0  501  0.00000000000E+00  0.00000000000E+00 -0.30774413745E+04  0.30774413745E+04  0.50400001928E-02 0. -1.
    10030    2    1    2    0    0  0.00000000000E+00  0.00000000000E+00 -0.18399803412E+04  0.43149024079E+04  0.39029290454E+04 0.  0.
        5    1    3    3  502    0  0.46752472656E+03 -0.16855814474E+04  0.36444238423E+02  0.17496040862E+04  0.46999998093E+01 0. -1.
       -5    1    3    3    0  502 -0.46752472656E+03  0.16855814474E+04 -0.18764245797E+04  0.25652983217E+04  0.46999998093E+01 0.  1.
</event>
<event>
 5   0  0.3690572E-08  0.3892207E+04  0.7818609E-02  0.8026652E-01
        2   -1    0    0  501    0  0.00000000000E+00  0.00000000000E+00  0.13072848108E+04  0.13072848108E+04  0.25500000920E-02 0.  1.
       -2   -1    0    0    0  501  0.00000000000E+00  0.00000000000E+00 -0.28970881995E+04  0.28970881995E+04  0.25500000920E-02 0. -1.
    10030    2    1    2    0    0  0.00000000000E+00  0.00000000000E+00 -0.15898033888E+04  0.42043730103E+04  0.38922072908E+04 0.  0.
        3    1    3    3  502    0  0.64838293810E+03  0.56239671503E+03 -0.26815891722E+04  0.28156013564E+04  0.10100000352E+00 0. -1.
       -3    1    3    3    0  502 -0.64838293810E+03 -0.56239671503E+03  0.10917857835E+04  0.13887716539E+04  0.10100000352E+00 0.  1.
</event>
<event>
 5   0  0.1164500E-08  0.3902252E+04  0.7818609E-02  0.8024561E-01
       -1   -1    0    0    0  501  0.00000000000E+00  0.00000000000E+00  0.28757576333E+04  0.28757576333E+04  0.50400001928E-02 0.  1.
        1   -1    0    0  501    0  0.00000000000E+00  0.00000000000E+00 -0.13237874339E+04  0.13237874339E+04  0.50400001928E-02 0. -1.
    10030    2    1    2    0    0  0.00000000000E+00  0.00000000000E+00  0.15519701994E+04  0.41995450672E+04  0.39022515644E+04 0.  0.
        1    1    3    3  502    0  0.72012867492E+03  0.16896696590E+04  0.14844083885E+04  0.23615751372E+04  0.50400001928E-02 0.  1.
       -1    1    3    3    0  502 -0.72012867492E+03 -0.16896696590E+04  0.67561810886E+02  0.18379699299E+04  0.50400001928E-02 0. -1.
</event>
<event>
 5   0  0.1164500E-08  0.3900603E+04  0.7818609E-02  0.8024904E-01
        1   -1    0    0  501    0  0.00000000000E+00  0.00000000000E+00  0.15576308752E+04  0.15576308752E+04  0.50400001928E-02 0. -1.
       -1   -1    0    0    0  501  0.00000000000E+00  0.00000000000E+00 -0.24419626390E+04  0.24419626390E+04  0.50400001928E-02 0.  1.
    10030    2    1    2    0    0  0.00000000000E+00  0.00000000000E+00 -0.88433176382E+03  0.39995935142E+04  0.39006032367E+04 0.  0.
        5    1    3    3  502    0  0.10945157140E+04  0.12362200621E+03 -0.20924856555E+04  0.23646913873E+04  0.46999998093E+01 0.  1.
       -5    1    3    3    0  502 -0.10945157140E+04 -0.12362200621E+03  0.12081538916E+04  0.16349021269E+04  0.46999998093E+01 0. -1.
</event>
<event>
 5   0  0.3690572E-08  0.3898046E+04  0.7818609E-02  0.8025436E-01
        2   -1    0    0  501    0  0.00000000000E+00  0.00000000000E+00  0.24299767408E+04  0.24299767408E+04  0.25500000920E-02 0.  1.
       -2   -1    0    0    0  501  0.00000000000E+00  0.00000000000E+00 -0.15632618493E+04  0.15632618493E+04  0.25500000920E-02 0. -1.
    10030    2    1    2    0    0  0.00000000000E+00  0.00000000000E+00  0.86671489144E+03  0.39932385901E+04  0.38980456301E+04 0.  0.
        3    1    3    3  502    0 -0.12579450364E+03  0.11576892590E+04  0.20344130161E+04  0.23441213723E+04  0.10100000352E+00 0.  1.
       -3    1    3    3    0  502  0.12579450364E+03 -0.11576892590E+04 -0.11676981247E+04  0.16491172178E+04  0.10100000352E+00 0. -1.
</event>
<event>
 5   0  0.3669347E-08  0.3886222E+04  0.7818609E-02  0.8027901E-01
        2   -1    0    0  501    0  0.00000000000E+00  0.00000000000E+00  0.15685927955E+04  0.15685927955E+04  0.25500000920E-02 0. -1.
       -2   -1    0    0    0  501  0.00000000000E+00  0.00000000000E+00 -0.24070491714E+04  0.24070491714E+04  0.25500000920E-02 0.  1.
    10030    2    1    2    0    0  0.00000000000E+00  0.00000000000E+00 -0.83845637592E+03  0.39756419670E+04  0.38862218098E+04 0.  0.
        5    1    3    3  502    0  0.91569813934E+03 -0.13350217318E+03  0.13286913002E+04  0.16191876278E+04  0.46999998093E+01 0. -1.
       -5    1    3    3    0  502 -0.91569813934E+03  0.13350217318E+03 -0.21671476761E+04  0.23564543392E+04  0.46999998093E+01 0.  1.
</event>
<event>
 5   0  0.3669347E-08  0.3894203E+04  0.7818609E-02  0.8026236E-01
       -2   -1    0    0    0  501  0.00000000000E+00  0.00000000000E+00  0.19644516787E+04  0.19644516787E+04  0.25500000920E-02 0. -1.
        2   -1    0    0  501    0  0.00000000000E+00  0.00000000000E+00 -0.19299042089E+04  0.19299042089E+04  0.25500000920E-02 0.  1.
    10030    2    1    2    0    0  0.00000000000E+00  0.00000000000E+00  0.34547469784E+02  0.38943558876E+04  0.38942026465E+04 0.  0.
        5    1    3    3  502    0  0.27614827687E+03  0.19155922721E+04  0.23042491254E+03  0.19490688429E+04  0.46999998093E+01 0. -1.
       -5    1    3    3    0  502 -0.27614827687E+03 -0.19155922721E+04 -0.19587744276E+03  0.19452870447E+04  0.46999998093E+01 0.  1.
</event>
<event>
 5   0  0.1164500E-08  0.3904166E+04  0.7818609E-02  0.8024163E-01
       -1   -1    0    0    0  501  0.00000000000E+00  0.00000000000E+00  0.16331638805E+04  0.16331638805E+04  0.50400001928E-02 0. -1.
        1   -1    0    0  501    0  0.00000000000E+00  0.00000000000E+00 -0.23332800326E+04  0.23332800326E+04  0.50400001928E-02 0.  1.
    10030    2    1    2    0    0  0.00000000000E+00  0.00000000000E+00 -0.70011615216E+03  0.39664439131E+04  0.39041663245E+04 0.  0.
        4    1    3    3  502    0 -0.56653574888E+03 -0.38975973231E+03  0.15060361361E+04  0.16556031710E+04  0.12699999809E+01 0. -1.
       -4    1    3    3    0  502  0.56653574888E+03  0.38975973231E+03 -0.22061522882E+04  0.23108407421E+04  0.12699999809E+01 0.  1.
</event>
<event>
 5   0  0.1164500E-08  0.3900841E+04  0.7818609E-02  0.8024854E-01
       -1   -1    0    0    0  501  0.00000000000E+00  0.00000000000E+00  0.18503623805E+04  0.18503623805E+04  0.50400001928E-02 0.  1.
        1   -1    0    0  501    0  0.00000000000E+00  0.00000000000E+00 -0.20558897366E+04  0.20558897366E+04  0.50400001928E-02 0. -1.
    10030    2    1    2    0    0  0.00000000000E+00  0.00000000000E+00 -0.20552735607E+03  0.39062521171E+04  0.39008414616E+04 0.  0.
        4    1    3    3  502    0  0.51783133739E+03 -0.73927634426E+03  0.16286402064E+04  0.18620282871E+04  0.12699999809E+01 0.  1.
       -4    1    3    3    0  502 -0.51783133739E+03  0.73927634426E+03 -0.18341675624E+04  0.20442238300E+04  0.12699999809E+01 0. -1.
</event>
<event>
 5   0  0.1164500E-08  0.3903120E+04  0.7818609E-02  0.8024381E-01
       -1   -1    0    0    0  501  0.00000000000E+00  0.00000000000E+00  0.26274717571E+04  0.26274717571E+04  0.50400001928E-02 0.  1.
        1   -1    0    0  501    0  0.00000000000E+00  0.00000000000E+00 -0.14495253051E+04  0.14495253051E+04  0.50400001928E-02 0. -1.
    10030    2    1    2    0    0  0.00000000000E+00  0.00000000000E+00  0.11779464520E+04  0.40769970621E+04  0.39031201879E+04 0.  0.
        3    1    3    3  502    0 -0.14497445458E+03 -0.43329372049E+02 -0.14433889277E+04  0.14512982580E+04  0.10100000352E+00 0. -1.
       -3    1    3    3    0  502  0.14497445458E+03  0.43329372049E+02  0.26213353797E+04  0.26256988041E+04  0.10100000352E+00 0.  1.
</event>
<event>
 5   0  0.1164500E-08  0.3898347E+04  0.7818609E-02  0.8025373E-01
       -1   -1    0    0    0  501  0.00000000000E+00  0.00000000000E+00  0.29955922883E+04  0.29955922883E+04  0.50400001928E-02 0.  1.
        1   -1    0    0  501    0  0.00000000000E+00  0.00000000000E+00 -0.12682889828E+04  0.12682889828E+04  0.50400001928E-02 0. -1.
    10030    2    1    2    0    0  0.00000000000E+00  0.00000000000E+00  0.17273033055E+04  0.42638812710E+04  0.38983466732E+04 0.  0.
        1    1    3    3  502    0  0.75624563680E+02 -0.16979677057E+04  0.19073040281E+04  0.25547254372E+04  0.50400001928E-02 0.  1.
       -1    1    3    3    0  502 -0.75624563680E+02  0.16979677057E+04 -0.18000072257E+03  0.17091558338E+04  0.50400001928E-02 0. -1.
</event>
<event>
 5   0  0.3690572E-08  0.3877771E+04  0.7818609E-02  0.8029668E-01
        2   -1    0    0  501    0  0.00000000000E+00  0.00000000000E+00  0.23007996895E+04  0.23007996895E+04  0.25500000920E-02 0. -1.
       -2   -1    0    0    0  501  0.00000000000E+00  0.00000000000E+00 -0.16339001100E+04  0.16339001100E+04  0.25500000920E-02 0.  1.
    10030    2    1    2    0    0  0.00000000000E+00  0.00000000000E+00  0.66689957947E+03  0.39346997995E+04  0.38777709400E+04 0.  0.
        3    1    3    3  502    0  0.19320922647E+04 -0.14960996851E+03  0.39692368178E+03  0.19781082077E+04  0.10100000352E+00 0. -1.
       -3    1    3    3    0  502 -0.19320922647E+04  0.14960996851E+03  0.26997589769E+03  0.19565915919E+04  0.10100000352E+00 0.  1.
</event>
<event>
 5   0  0.3669347E-08  0.3888001E+04  0.7818609E-02  0.8027529E-01
        2   -1    0    0  501    0  0.00000000000E+00  0.00000000000E+00  0.21792947391E+04  0.21792947391E+04  0.25500000920E-02 0.  1.
       -2   -1    0    0    0  501  0.00000000000E+00  0.00000000000E+00 -0.17341109063E+04  0.17341109063E+04  0.25500000920E-02 0. -1.
    10030    2    1    2    0    0  0.00000000000E+00  0.00000000000E+00  0.44518383284E+03  0.39134056454E+04  0.38880014275E+04 0.  0.
        5    1    3    3  502    0 -0.37598123084E+03 -0.18924591277E+04  0.46153140626E+03  0.19838842620E+04  0.46999998093E+01 0.  1.
       -5    1    3    3    0  502  0.37598123084E+03  0.18924591277E+04 -0.16347573421E+02  0.19295213834E+04  0.46999998093E+01 0. -1.
</event>
<event>
 5   0  0.3669347E-08  0.3897274E+04  0.7818609E-02  0.8025596E-01
       -2   -1    0    0    0  501  0.00000000000E+00  0.00000000000E+00  0.20923195208E+04  0.20923195208E+04  0.25500000920E-02 0. -1.
        2   -1    0    0  501    0  0.00000000000E+00  0.00000000000E+00 -0.18148211166E+04  0.18148211166E+04  0.25500000920E-02 0.  1.
    10030    2    1    2    0    0  0.00000000000E+00  0.00000000000E+00  0.27749840417E+03  0.39071406375E+04  0.38972737390E+04 0.  0.
        5    1    3    3  502    0  0.12389270146E+03  0.14082392760E+04 -0.12057936211E+04  0.18580763188E+04  0.46999998093E+01 0.  1.
       -5    1    3    3    0  502 -0.12389270146E+03 -0.14082392760E+04  0.14832920252E+04  0.20490643187E+04  0.46999998093E+01 0. -1.
</event>
<event>
 5   0  0.1164500E-08  0.3905376E+04  0.7818609E-02  0.8023912E-01
       -1   -1    0    0    0  501  0.00000000000E+00  0.00000000000E+00  0.28194115225E+04  0.28194115225E+04  0.50400001928E-02 0.  1.
        1   -1    0    0  501    0  0.00000000000E+00  0.00000000000E+00 -0.13524065819E+04  0.13524065819E+04  0.50400001928E-02 0. -1.
    10030    2    1    2    0    0  0.00000000000E+00  0.00000000000E+00  0.14670049406E+04  0.41718181044E+04  0.39053761407E+04 0.  0.
        1    1    3    3  502    0  0.56166744746E+03  0.18700639099E+04  0.75436299404E+03  0.20932445809E+04  0.50400001928E-02 0. -1.
       -1    1    3    3    0  502 -0.56166744746E+03 -0.18700639099E+04  0.71264194657E+03  0.20785735235E+04  0.50400001928E-02 0.  1.
</event>
<event>
 5   0  0.3769985E-08  0.3954419E+04  0.7818609E-02  0.8013805E-01
        2   -1    0    0  501    0  0.00000000000E+00  0.00000000000E+00  0.14183903076E+04  0.14183903076E+04  0.25500000920E-02 0.  1.
       -2   -1    0    0    0  501  0.00000000000E+00  0.00000000000E+00 -0.27561935508E+04  0.27561935508E+04  0.25500000920E-02 0. -1.
    10030    2    1    2    0    0  0.00000000000E+00  0.00000000000E+00 -0.13378032433E+04  0.41745838584E+04  0.39544194104E+04 0.  0.
        1    1    3    3  502    0  0.10625755473E+04  0.16231540521E+04 -0.10718079723E+04  0.22164088522E+04  0.50400001928E-02 0.  1.
       -1    1    3    3    0  502 -0.10625755473E+04 -0.16231540521E+04 -0.26599527098E+03  0.19581750062E+04  0.50400001928E-02 0. -1.
</event>
<event>
 5   0  0.3769985E-08  0.3901264E+04  0.7818609E-02  0.8024766E-01
       -2   -1    0    0    0  501  0.00000000000E+00  0.00000000000E+00  0.13226528553E+04  0.13226528553E+04  0.25500000920E-02 0.  1.
        2   -1    0    0  501    0  0.00000000000E+00  0.00000000000E+00 -0.28767674339E+04  0.28767674339E+04  0.25500000920E-02 0. -1.
    10030    2    1    2    0    0  0.00000000000E+00  0.00000000000E+00 -0.15541145786E+04  0.41994202893E+04  0.39012637238E+04 0.  0.
        1    1    3    3  502    0 -0.18775902758E+04 -0.34111741124E+03 -0.12119896337E+04  0.22606691939E+04  0.50400001928E-02 0. -1.
       -1    1    3    3    0  502  0.18775902758E+04  0.34111741124E+03 -0.34212494492E+03  0.19387510954E+04  0.50400001928E-02 0.  1.
</event>
<event>
 5   0  0.1164500E-08  0.3893030E+04  0.7818609E-02  0.8026480E-01
       -1   -1    0    0    0  501  0.00000000000E+00  0.00000000000E+00  0.16438543249E+04  0.16438543249E+04  0.50400001928E-02 0.  1.
        1   -1    0    0  501    0  0.00000000000E+00  0.00000000000E+00 -0.23049000728E+04  0.23049000728E+04  0.50400001928E-02 0. -1.
    10030    2    1    2    0    0  0.00000000000E+00  0.00000000000E+00 -0.66104574793E+03  0.39487543977E+04  0.38930296445E+04 0.  0.
        3    1    3    3  502    0  0.12245856323E+04 -0.13744659596E+04  0.31110853053E+03  0.18669641595E+04  0.10100000352E+00 0.  1.
       -3    1    3    3    0  502 -0.12245856323E+04  0.13744659596E+04 -0.97215427846E+03  0.20817902383E+04  0.10100000352E+00 0. -1.
</event>
<event>
 5   0  0.3724293E-08  0.3895988E+04  0.7818609E-02  0.8025864E-01
       -2   -1    0    0    0  501  0.00000000000E+00  0.00000000000E+00  0.14670444087E+04  0.14670444087E+04  0.25500000920E-02 0. -1.
        2   -1    0    0  501    0  0.00000000000E+00  0.00000000000E+00 -0.25866159455E+04  0.25866159455E+04  0.25500000920E-02 0.  1.
    10030    2    1    2    0    0  0.00000000000E+00  0.00000000000E+00 -0.11195715368E+04  0.40536603541E+04  0.38959879159E+04 0.  0.
        4    1    3    3  502    0  0.54652163947E+03 -0.65904825632E+03  0.12607843468E+04  0.15240109214E+04  0.12699999809E+01 0. -1.
       -4    1    3    3    0  502 -0.54652163947E+03  0.65904825632E+03 -0.23803558836E+04  0.25296494327E+04  0.12699999809E+01 0.  1.
</event>
<event>
 5   0  0.1164500E-08  0.3895002E+04  0.7818609E-02  0.8026069E-01
        1   -1    0    0  501    0  0.00000000000E+00  0.00000000000E+00  0.22260175640E+04  0.22260175640E+04  0.50400001928E-02 0. -1.
       -1   -1    0    0    0  501  0.00000000000E+00  0.00000000000E+00 -0.17038323785E+04  0.17038323785E+04  0.50400001928E-02 0.  1.
    10030    2    1    2    0    0  0.00000000000E+00  0.00000000000E+00  0.52218518549E+03  0.39298499425E+04  0.38950023367E+04 0.  0.
        2    1    3    3  502    0 -0.18345047425E+03 -0.16729509237E+04  0.12498305137E+04  0.20963051263E+04  0.25500000920E-02 0. -1.
       -2    1    3    3    0  502  0.18345047425E+03  0.16729509237E+04 -0.72764532823E+03  0.18335448162E+04  0.25500000920E-02 0.  1.
</event>
<event>
 5   0  0.3872969E-08  0.3909259E+04  0.7818609E-02  0.8023106E-01
       -2   -1    0    0    0  501  0.00000000000E+00  0.00000000000E+00  0.22360704276E+04  0.22360704276E+04  0.25500000920E-02 0. -1.
        2   -1    0    0  501    0  0.00000000000E+00  0.00000000000E+00 -0.17086114621E+04  0.17086114621E+04  0.25500000920E-02 0.  1.
    10030    2    1    2    0    0  0.00000000000E+00  0.00000000000E+00  0.52745896557E+03  0.39446818897E+04  0.39092585295E+04 0.  0.
        2    1    3    3  502    0  0.62553852146E+03  0.23649300279E+03  0.21170399494E+04  0.22201543932E+04  0.25500000920E-02 0. -1.
       -2    1    3    3    0  502 -0.62553852146E+03 -0.23649300279E+03 -0.15895809838E+04  0.17245274965E+04  0.25500000920E-02 0.  1.
</event>
<event>
 5   0  0.1164500E-08  0.3900805E+04  0.7818609E-02  0.8024862E-01
        1   -1    0    0  501    0  0.00000000000E+00  0.00000000000E+00  0.23633803182E+04  0.23633803183E+04  0.50400001928E-02 0. -1.
       -1   -1    0    0    0  501  0.00000000000E+00  0.00000000000E+00 -0.16095884058E+04  0.16095884058E+04  0.50400001928E-02 0.  1.
    10030    2    1    2    0    0  0.00000000000E+00  0.00000000000E+00  0.75379191245E+03  0.39729687241E+04  0.39008048189E+04 0.  0.
        3    1    3    3  502    0  0.19100444170E+03  0.16320995582E+04  0.14469693682E+04  0.21895095404E+04  0.10100000352E+00 0. -1.
       -3    1    3    3    0  502 -0.19100444170E+03 -0.16320995582E+04 -0.69317745578E+03  0.17834591837E+04  0.10100000352E+00 0.  1.
</event>
<event>
 5   0  0.3872969E-08  0.3999809E+04  0.7818609E-02  0.8004585E-01
       -2   -1    0    0    0  501  0.00000000000E+00  0.00000000000E+00  0.27928760177E+04  0.27928760177E+04  0.25500000920E-02 0. -1.
        2   -1    0    0  501    0  0.00000000000E+00  0.00000000000E+00 -0.14320783439E+04  0.14320783439E+04  0.25500000920E-02 0.  1.
    10030    2    1    2    0    0  0.00000000000E+00  0.00000000000E+00  0.13607976738E+04  0.42249543615E+04  0.39998086264E+04 0.  0.
        2    1    3    3  502    0  0.13897948219E+03  0.15844086243E+04  0.19610601173E+04  0.25249599539E+04  0.25500000920E-02 0. -1.
       -2    1    3    3    0  502 -0.13897948219E+03 -0.15844086243E+04 -0.60026244347E+03  0.16999944077E+04  0.25500000920E-02 0.  1.
</event>
<event>
 5   0  0.3669347E-08  0.3893249E+04  0.7818609E-02  0.8026435E-01
        2   -1    0    0  501    0  0.00000000000E+00  0.00000000000E+00  0.26607589708E+04  0.26607589708E+04  0.25500000920E-02 0.  1.
       -2   -1    0    0    0  501  0.00000000000E+00  0.00000000000E+00 -0.14241602098E+04  0.14241602098E+04  0.25500000920E-02 0. -1.
    10030    2    1    2    0    0  0.00000000000E+00  0.00000000000E+00  0.12365987610E+04  0.40849191806E+04  0.38932490566E+04 0.  0.
        5    1    3    3  502    0  0.13826093439E+04 -0.51619722134E+03  0.19501443124E+04  0.24456396093E+04  0.46999998093E+01 0.  1.
       -5    1    3    3    0  502 -0.13826093439E+04  0.51619722134E+03 -0.71354555140E+03  0.16392795714E+04  0.46999998093E+01 0. -1.
</event>
<event>
 5   0  0.3669347E-08  0.3894821E+04  0.7818609E-02  0.8026107E-01
        2   -1    0    0  501    0  0.00000000000E+00  0.00000000000E+00  0.14909259757E+04  0.14909259758E+04  0.25500000920E-02 0.  1.
       -2   -1    0    0    0  501  0.00000000000E+00  0.00000000000E+00 -0.25436589700E+04  0.25436589700E+04  0.25500000920E-02 0. -1.
    10030    2    1    2    0    0  0.00000000000E+00  0.00000000000E+00 -0.10527329942E+04  0.40345849457E+04  0.38948207824E+04 0.  0.
        5    1    3    3  502    0 -0.33450077817E+03 -0.88782199162E+03 -0.22880607492E+04  0.24769664393E+04  0.46999998093E+01 0. -1.
       -5    1    3    3    0  502  0.33450077817E+03  0.88782199162E+03  0.12353277550E+04  0.15576185064E+04  0.46999998093E+01 0.  1.
</event>
<event>
 5   0  0.1164500E-08  0.3892867E+04  0.7818609E-02  0.8026514E-01
       -4   -1    0    0    0  501  0.00000000000E+00  0.00000000000E+00  0.19519415672E+04  0.19519419804E+04  0.12699999809E+01 0. -1.
        4   -1    0    0  501    0  0.00000000000E+00  0.00000000000E+00 -0.19409397247E+04  0.19409401402E+04  0.12699999809E+01 0.  1.
    10030    2    1    2    0    0  0.00000000000E+00  0.00000000000E+00  0.11001842482E+02  0.38928821206E+04  0.38928665742E+04 0.  0.
        4    1    3    3  502    0 -0.12287742209E+03 -0.11618225688E+04  0.15623213168E+04  0.19508408577E+04  0.12699999809E+01 0. -1.
       -4    1    3    3    0  502  0.12287742209E+03  0.11618225688E+04 -0.15513194744E+04  0.19420412629E+04  0.12699999809E+01 0.  1.
</event>
<event>
 5   0  0.1164500E-08  0.3897933E+04  0.7818609E-02  0.8025459E-01
        1   -1    0    0  501    0  0.00000000000E+00  0.00000000000E+00  0.21499661761E+04  0.21499661761E+04  0.50400001928E-02 0. -1.
       -1   -1    0    0    0  501  0.00000000000E+00  0.00000000000E+00 -0.17667579530E+04  0.17667579530E+04  0.50400001928E-02 0.  1.
    10030    2    1    2    0    0  0.00000000000E+00  0.00000000000E+00  0.38320822310E+03  0.39167241290E+04  0.38979327035E+04 0.  0.
        3    1    3    3  502    0  0.11413166307E+04 -0.18818896421E+02  0.17789387019E+04  0.21136652331E+04  0.10100000352E+00 0. -1.
       -3    1    3    3    0  502 -0.11413166307E+04  0.18818896421E+02 -0.13957304788E+04  0.18030588959E+04  0.10100000352E+00 0.  1.
</event>
<event>
 5   0  0.1164500E-08  0.3907091E+04  0.7818609E-02  0.8023556E-01
       -1   -1    0    0    0  501  0.00000000000E+00  0.00000000000E+00  0.27540300820E+04  0.27540300820E+04  0.50400001928E-02 0.  1.
        1   -1    0    0  501    0  0.00000000000E+00  0.00000000000E+00 -0.13857288999E+04  0.13857288999E+04  0.50400001928E-02 0. -1.
    10030    2    1    2    0    0  0.00000000000E+00  0.00000000000E+00  0.13683011821E+04  0.41397589819E+04  0.39070905164E+04 0.  0.
        3    1    3    3  502    0  0.15997002220E+04  0.56391196439E+03 -0.34273983908E+03  0.17304647097E+04  0.10100000352E+00 0. -1.
       -3    1    3    3    0  502 -0.15997002220E+04 -0.56391196439E+03  0.17110410212E+04  0.24092942722E+04  0.10100000352E+00 0.  1.
</event>
<event>
 5   0  0.1164500E-08  0.3901324E+04  0.7818609E-02  0.8024754E-01
       -1   -1    0    0    0  501  0.00000000000E+00  0.00000000000E+00  0.14616952607E+04  0.14616952607E+04  0.50400001928E-02 0.  1.
        1   -1    0    0  501    0  0.00000000000E+00  0.00000000000E+00 -0.26031981216E+04  0.26031981216E+04  0.50400001928E-02 0. -1.
    10030    2    1    2    0    0  0.00000000000E+00  0.00000000000E+00 -0.11415028609E+04  0.40648933823E+04  0.39013240609E+04 0.  0.
        5    1    3    3  502    0 -0.16681627400E+04 -0.15561471133E+03 -0.16116759627E+04  0.23247589906E+04  0.46999998093E+01 0. -1.
       -5    1    3    3    0  502  0.16681627400E+04  0.15561471133E+03  0.47017310179E+03  0.17401343917E+04  0.46999998093E+01 0.  1.
</event>
<event>
 5   0  0.3769985E-08  0.3904956E+04  0.7818609E-02  0.8023999E-01
       -2   -1    0    0    0  501  0.00000000000E+00  0.00000000000E+00  0.29584861571E+04  0.29584861571E+04  0.25500000920E-02 0.  1.
        2   -1    0    0  501    0  0.00000000000E+00  0.00000000000E+00 -0.12885545153E+04  0.12885545153E+04  0.25500000920E-02 0. -1.
    10030    2    1    2    0    0  0.00000000000E+00  0.00000000000E+00  0.16699316418E+04  0.42470406724E+04  0.39049561821E+04 0.  0.
        1    1    3    3  502    0  0.87054849911E+03  0.92094142828E+03  0.24504064872E+04  0.27587097992E+04  0.50400001928E-02 0.  1.
       -1    1    3    3    0  502 -0.87054849911E+03 -0.92094142828E+03 -0.78047484542E+03  0.14883308732E+04  0.50400001928E-02 0. -1.
</event>
<event>
 5   0  0.1164500E-08  0.3879478E+04  0.7818609E-02  0.8029311E-01
       -1   -1    0    0    0  501  0.00000000000E+00  0.00000000000E+00  0.13481378259E+04  0.13481378260E+04  0.50400001928E-02 0.  1.
        1   -1    0    0  501    0  0.00000000000E+00  0.00000000000E+00 -0.27909516232E+04  0.27909516232E+04  0.50400001928E-02 0. -1.
    10030    2    1    2    0    0  0.00000000000E+00  0.00000000000E+00 -0.14428137973E+04  0.41390894492E+04  0.38794780338E+04 0.  0.
        5    1    3    3  502    0  0.15283081334E+04 -0.10198268775E+04 -0.57861443076E+02  0.18382444470E+04  0.46999998093E+01 0.  1.
       -5    1    3    3    0  502 -0.15283081334E+04  0.10198268775E+04 -0.13849523542E+04  0.23008450021E+04  0.46999998093E+01 0. -1.
</event>
<event>
 5   0  0.3769985E-08  0.3899865E+04  0.7818609E-02  0.8025057E-01
        2   -1    0    0  501    0  0.00000000000E+00  0.00000000000E+00  0.13148530625E+04  0.13148530625E+04  0.25500000920E-02 0. -1.
       -2   -1    0    0    0  501  0.00000000000E+00  0.00000000000E+00 -0.28917581794E+04  0.28917581794E+04  0.25500000920E-02 0.  1.
    10030    2    1    2    0    0  0.00000000000E+00  0.00000000000E+00 -0.15769051169E+04  0.42066112419E+04  0.38998651763E+04 0.  0.
        1    1    3    3  502    0  0.84398417268E+03  0.77153127293E+03  0.91523166994E+03  0.14646565463E+04  0.50400001928E-02 0. -1.
       -1    1    3    3    0  502 -0.84398417268E+03 -0.77153127293E+03 -0.24921367868E+04  0.27419546957E+04  0.50400001928E-02 0.  1.
</event>
<event>
 5   0  0.3690572E-08  0.3884883E+04  0.7818609E-02  0.8028181E-01
        2   -1    0    0  501    0  0.00000000000E+00  0.00000000000E+00  0.17275262885E+04  0.17275262885E+04  0.25500000920E-02 0.  1.
       -2   -1    0    0    0  501  0.00000000000E+00  0.00000000000E+00 -0.21840939885E+04  0.21840939885E+04  0.25500000920E-02 0. -1.
    10030    2    1    2    0    0  0.00000000000E+00  0.00000000000E+00 -0.45656770004E+03  0.39116202770E+04  0.38848834122E+04 0.  0.
        3    1    3    3  502    0 -0.22568306183E+03 -0.80043260001E+03 -0.19957722988E+04  0.21621129181E+04  0.10100000352E+00 0. -1.
       -3    1    3    3    0  502  0.22568306183E+03  0.80043260001E+03  0.15392045988E+04  0.17495073589E+04  0.10100000352E+00 0.  1.
</event>
<event>
 5   0  0.3872969E-08  0.3892789E+04  0.7818609E-02  0.8026531E-01
        2   -1    0    0  501    0  0.00000000000E+00  0.00000000000E+00  0.23965213762E+04  0.23965213762E+04  0.25500000920E-02 0. -1.
       -2   -1    0    0    0  501  0.00000000000E+00  0.00000000000E+00 -0.15808124657E+04  0.15808124657E+04  0.25500000920E-02 0.  1.
    10030    2    1    2    0    0  0.00000000000E+00  0.00000000000E+00  0.81570891049E+03  0.39773338420E+04  0.38927886487E+04 0.  0.
        2    1    3    3  502    0 -0.51828041397E+03 -0.16633890573E+04 -0.47873172513E+03  0.18068375157E+04  0.25500000920E-02 0.  1.
       -2    1    3    3    0  502  0.51828041397E+03  0.16633890573E+04  0.12944406356E+04  0.21704963263E+04  0.25500000920E-02 0. -1.
</event>
<event>
 5   0  0.1164500E-08  0.3824321E+04  0.7818609E-02  0.8040956E-01
        1   -1    0    0  501    0  0.00000000000E+00  0.00000000000E+00  0.17162106810E+04  0.17162106810E+04  0.50400001928E-02 0. -1.
       -1   -1    0    0    0  501  0.00000000000E+00  0.00000000000E+00 -0.21304833061E+04  0.21304833061E+04  0.50400001928E-02 0.  1.
    10030    2    1    2    0    0  0.00000000000E+00  0.00000000000E+00 -0.41427262506E+03  0.38466939871E+04  0.38243212237E+04 0.  0.
        4    1    3    3  502    0  0.17959253295E+04  0.13048272872E+03  0.44004290215E+03  0.18536485374E+04  0.12699999809E+01 0. -1.
       -4    1    3    3    0  502 -0.17959253295E+04 -0.13048272872E+03 -0.85431552720E+03  0.19930454497E+04  0.12699999809E+01 0.  1.
</event>
<event>
 5   0  0.3669347E-08  0.3894590E+04  0.7818609E-02  0.8026155E-01
        2   -1    0    0  501    0  0.00000000000E+00  0.00000000000E+00  0.23356418281E+04  0.23356418281E+04  0.25500000920E-02 0. -1.
       -2   -1    0    0    0  501  0.00000000000E+00  0.00000000000E+00 -0.16235189245E+04  0.16235189245E+04  0.25500000920E-02 0.  1.
    10030    2    1    2    0    0  0.00000000000E+00  0.00000000000E+00  0.71212290358E+03  0.39591607526E+04  0.38945904580E+04 0.  0.
        5    1    3    3  502    0 -0.64768200605E+02 -0.87197120560E+03  0.21248536388E+04  0.22977279603E+04  0.46999998093E+01 0. -1.
       -5    1    3    3    0  502  0.64768200605E+02  0.87197120560E+03 -0.14127307352E+04  0.16614327923E+04  0.46999998093E+01 0.  1.
</event>
<event>
 5   0  0.3669347E-08  0.3902300E+04  0.7818609E-02  0.8024551E-01
        2   -1    0    0  501    0  0.00000000000E+00  0.00000000000E+00  0.22059826988E+04  0.22059826988E+04  0.25500000920E-02 0.  1.
       -2   -1    0    0    0  501  0.00000000000E+00  0.00000000000E+00 -0.17257551930E+04  0.17257551930E+04  0.25500000920E-02 0. -1.
    10030    2    1    2    0    0  0.00000000000E+00  0.00000000000E+00  0.48022750577E+03  0.39317378918E+04  0.39022998850E+04 0.  0.
        5    1    3    3  502    0 -0.87882288040E+03 -0.17062562490E+04 -0.11371054846E+03  0.19226523922E+04  0.46999998093E+01 0.  1.
       -5    1    3    3    0  502  0.87882288040E+03  0.17062562490E+04  0.59393805423E+03  0.20090854996E+04  0.46999998093E+01 0. -1.
</event>
<event>
 5   0  0.3769985E-08  0.3945986E+04  0.7818609E-02  0.8015532E-01
       -2   -1    0    0    0  501  0.00000000000E+00  0.00000000000E+00  0.25287463645E+04  0.25287463645E+04  0.25500000920E-02 0. -1.
        2   -1    0    0  501    0  0.00000000000E+00  0.00000000000E+00 -0.15393798897E+04  0.15393798897E+04  0.25500000920E-02 0.  1.
    10030    2    1    2    0    0  0.00000000000E+00  0.00000000000E+00  0.98936647475E+03  0.40681262542E+04  0.39459859603E+04 0.  0.
        1    1    3    3  502    0 -0.10616977047E+04 -0.12569682663E+04  0.16172060413E+04  0.23070601680E+04  0.50400001928E-02 0. -1.
       -1    1    3    3    0  502  0.10616977047E+04  0.12569682663E+04 -0.62783956655E+03  0.17610660862E+04  0.50400001928E-02 0.  1.
</event>
<event>
 5   0  0.3724293E-08  0.3897790E+04  0.7818609E-02  0.8025489E-01
       -2   -1    0    0    0  501  0.00000000000E+00  0.00000000000E+00  0.15538376701E+04  0.15538376701E+04  0.25500000920E-02 0. -1.
        2   -1    0    0  501    0  0.00000000000E+00  0.00000000000E+00 -0.24443939601E+04  0.24443939601E+04  0.25500000920E-02 0.  1.
    10030    2    1    2    0    0  0.00000000000E+00  0.00000000000E+00 -0.89055629002E+03  0.39982316301E+04  0.38977898433E+04 0.  0.
        4    1    3    3  502    0 -0.42110957904E+03  0.17527739881E+04 -0.12050675167E+04  0.21683494330E+04  0.12699999809E+01 0.  1.
       -4    1    3    3    0  502  0.42110957904E+03 -0.17527739881E+04  0.31451122665E+03  0.18298821971E+04  0.12699999809E+01 0. -1.
</event>
<event>
 5   0  0.1164500E-08  0.3901600E+04  0.7818609E-02  0.8024696E-01
        1   -1    0    0  501    0  0.00000000000E+00  0.00000000000E+00  0.14164024610E+04  0.14164024610E+04  0.50400001928E-02 0. -1.
       -1   -1    0    0    0  501  0.00000000000E+00  0.00000000000E+00 -0.26868220460E+04  0.26868220460E+04  0.50400001928E-02 0.  1.
    10030    2    1    2    0    0  0.00000000000E+00  0.00000000000E+00 -0.12704195850E+04  0.41032245070E+04  0.39016003681E+04 0.  0.
        2    1    3    3  502    0 -0.86728925484E+03 -0.62854625378E+01 -0.24729060088E+04  0.26205904462E+04  0.25500000920E-02 0.  1.
       -2    1    3    3    0  502  0.86728925484E+03  0.62854625378E+01  0.12024864238E+04  0.14826340607E+04  0.25500000920E-02 0. -1.
</event>
<event>
 5   0  0.1164500E-08  0.3899133E+04  0.7818609E-02  0.8025210E-01
       -1   -1    0    0    0  501  0.00000000000E+00  0.00000000000E+00  0.13096712121E+04  0.13096712122E+04  0.50400001928E-02 0. -1.
        1   -1    0    0  501    0  0.00000000000E+00  0.00000000000E+00 -0.29021092637E+04  0.29021092637E+04  0.50400001928E-02 0.  1.
    10030    2    1    2    0    0  0.00000000000E+00  0.00000000000E+00 -0.15924380515E+04  0.42117804758E+04  0.38991327021E+04 0.  0.
        2    1    3    3  502    0 -0.17525557658E+04 -0.79908952992E+03 -0.11217348639E+04  0.22289649826E+04  0.25500000920E-02 0. -1.
       -2    1    3    3    0  502  0.17525557658E+04  0.79908952992E+03 -0.47070318766E+03  0.19828154932E+04  0.25500000920E-02 0.  1.
</event>
<event>
 5   0  0.3669347E-08  0.3890341E+04  0.7818609E-02  0.8027041E-01
       -2   -1    0    0    0  501  0.00000000000E+00  0.00000000000E+00  0.16235467531E+04  0.16235467531E+04  0.25500000920E-02 0.  1.
        2   -1    0    0  501    0  0.00000000000E+00  0.00000000000E+00 -0.23305076985E+04  0.23305076985E+04  0.25500000920E-02 0. -1.
    10030    2    1    2    0    0  0.00000000000E+00  0.00000000000E+00 -0.70696094531E+03  0.39540544516E+04  0.38903409655E+04 0.  0.
        5    1    3    3  502    0 -0.25342885319E+03  0.23785404948E+03  0.15917248909E+04  0.16292363090E+04  0.46999998093E+01 0.  1.
       -5    1    3    3    0  502  0.25342885319E+03 -0.23785404948E+03 -0.22986858362E+04  0.23248181426E+04  0.46999998093E+01 0. -1.
</event>
<event>
 5   0  0.3690572E-08  0.3900036E+04  0.7818609E-02  0.8025022E-01
        2   -1    0    0  501    0  0.00000000000E+00  0.00000000000E+00  0.28468627356E+04  0.28468627356E+04  0.25500000920E-02 0. -1.
       -2   -1    0    0    0  501  0.00000000000E+00  0.00000000000E+00 -0.13357056371E+04  0.13357056371E+04  0.25500000920E-02 0.  1.
    10030    2    1    2    0    0  0.00000000000E+00  0.00000000000E+00  0.15111570986E+04  0.41825683727E+04  0.39000362070E+04 0.  0.
        3    1    3    3  502    0 -0.50845315339E+01 -0.18044465500E+04 -0.37244746856E+02  0.18048380497E+04  0.10100000352E+00 0.  1.
       -3    1    3    3    0  502  0.50845315339E+01  0.18044465500E+04  0.15484018454E+04  0.23777303231E+04  0.10100000352E+00 0. -1.
</event>
<event>
 5   0  0.1164500E-08  0.3885184E+04  0.7818609E-02  0.8028118E-01
        1   -1    0    0  501    0  0.00000000000E+00  0.00000000000E+00  0.22167039827E+04  0.22167039827E+04  0.50400001928E-02 0. -1.
       -1   -1    0    0    0  501  0.00000000000E+00  0.00000000000E+00 -0.17023761213E+04  0.17023761213E+04  0.50400001928E-02 0.  1.
    10030    2    1    2    0    0  0.00000000000E+00  0.00000000000E+00  0.51432786140E+03  0.39190801040E+04  0.38851841285E+04 0.  0.
        2    1    3    3  502    0  0.64611594467E+03  0.12723716911E+04 -0.10723901083E+04  0.17850535227E+04  0.25500000920E-02 0.  1.
       -2    1    3    3    0  502 -0.64611594467E+03 -0.12723716911E+04  0.15867179697E+04  0.21340265813E+04  0.25500000920E-02 0. -1.
</event>
<event>
 5   0  0.3724293E-08  0.3899566E+04  0.7818609E-02  0.8025119E-01
       -2   -1    0    0    0  501  0.00000000000E+00  0.00000000000E+00  0.13532198497E+04  0.13532198497E+04  0.25500000920E-02 0.  1.
        2   -1    0    0  501    0  0.00000000000E+00  0.00000000000E+00 -0.28093397526E+04  0.28093397526E+04  0.25500000920E-02 0. -1.
    10030    2    1    2    0    0  0.00000000000E+00  0.00000000000E+00 -0.14561199029E+04  0.41625596023E+04  0.38995662927E+04 0.  0.
        4    1    3    3  502    0  0.59253716025E+03 -0.14764366238E+04  0.47521119965E+03  0.16603592044E+04  0.12699999809E+01 0.  1.
       -4    1    3    3    0  502 -0.59253716025E+03  0.14764366238E+04 -0.19313311026E+04  0.25022003979E+04  0.12699999809E+01 0. -1.
</event>
<event>
 5   0  0.1164500E-08  0.3907422E+04  0.7818609E-02  0.8023487E-01
        1   -1    0    0  501    0  0.00000000000E+00  0.00000000000E+00  0.18710781319E+04  0.18710781319E+04  0.50400001928E-02 0. -1.
       -1   -1    0    0    0  501  0.00000000000E+00  0.00000000000E+00 -0.20399928489E+04  0.20399928489E+04  0.50400001928E-02 0.  1.
    10030    2    1    2    0    0  0.00000000000E+00  0.00000000000E+00 -0.16891471698E+03  0.39110709807E+04  0.39074216607E+04 0.  0.
        4    1    3    3  502    0  0.32886237667E+03 -0.12930103900E+04  0.13440959860E+04  0.18938378927E+04  0.12699999809E+01 0. -1.
       -4    1    3    3    0  502 -0.32886237667E+03  0.12930103900E+04 -0.15130107030E+04  0.20172330880E+04  0.12699999809E+01 0.  1.
</event>
<event>
 5   0  0.1164500E-08  0.3887194E+04  0.7818609E-02  0.8027698E-01
        1   -1    0    0  501    0  0.00000000000E+00  0.00000000000E+00  0.11886647222E+04  0.11886647222E+04  0.50400001928E-02 0.  1.
       -1   -1    0    0    0  501  0.00000000000E+00  0.00000000000E+00 -0.31779940164E+04  0.31779940164E+04  0.50400001928E-02 0. -1.
    10030    2    1    2    0    0  0.00000000000E+00  0.00000000000E+00 -0.19893292941E+04  0.43666587386E+04  0.38871940393E+04 0.  0.
        5    1    3    3  502    0  0.62728483362E+03  0.16801979403E+04 -0.18360459896E+04  0.25666395047E+04  0.46999998093E+01 0. -1.
       -5    1    3    3    0  502 -0.62728483362E+03 -0.16801979403E+04 -0.15328330451E+03  0.18000192339E+04  0.46999998093E+01 0.  1.
</event>
<event>
 5   0  0.3690572E-08  0.3903363E+04  0.7818609E-02  0.8024330E-01
        2   -1    0    0  501    0  0.00000000000E+00  0.00000000000E+00  0.27414209336E+04  0.27414209336E+04  0.25500000920E-02 0. -1.
       -2   -1    0    0    0  501  0.00000000000E+00  0.00000000000E+00 -0.13894478056E+04  0.13894478056E+04  0.25500000920E-02 0.  1.
    10030    2    1    2    0    0  0.00000000000E+00  0.00000000000E+00  0.13519731280E+04  0.41308687391E+04  0.39033633191E+04 0.  0.
        3    1    3    3  502    0  0.10901336393E+03  0.19020465407E+04  0.22774801880E+03  0.19187324271E+04  0.10100000352E+00 0.  1.
       -3    1    3    3    0  502 -0.10901336393E+03 -0.19020465407E+04  0.11242251092E+04  0.22121363120E+04  0.10100000352E+00 0. -1.
</event>
<event>
 5   0  0.1164500E-08  0.3882310E+04  0.7818609E-02  0.8028718E-01
        1   -1    0    0  501    0  0.00000000000E+00  0.00000000000E+00  0.15083859443E+04  0.15083859443E+04  0.50400001928E-02 0. -1.
       -1   -1    0    0    0  501  0.00000000000E+00  0.00000000000E+00 -0.24980896920E+04  0.24980896920E+04  0.50400001928E-02 0.  1.
    10030    2    1    2    0    0  0.00000000000E+00  0.00000000000E+00 -0.98970374768E+03  0.40064756364E+04  0.38823103324E+04 0.  0.
        2    1    3    3  502    0 -0.13428631012E+04  0.13819719070E+04 -0.73677573492E+03  0.20629993078E+04  0.25500000920E-02 0.  1.
       -2    1    3    3    0  502  0.13428631012E+04 -0.13819719070E+04 -0.25292801276E+03  0.19434763286E+04  0.25500000920E-02 0. -1.
</event>
<event>
 5   0  0.3769985E-08  0.3896624E+04  0.7818609E-02  0.8025732E-01
       -2   -1    0    0    0  501  0.00000000000E+00  0.00000000000E+00  0.19681648119E+04  0.19681648119E+04  0.25500000920E-02 0.  1.
        2   -1    0    0  501    0  0.00000000000E+00  0.00000000000E+00 -0.19286590967E+04  0.19286590968E+04  0.25500000920E-02 0. -1.
    10030    2    1    2    0    0  0.00000000000E+00  0.00000000000E+00  0.39505715158E+02  0.38968239087E+04  0.38966236505E+04 0.  0.
        1    1    3    3  502    0  0.16073108179E+04  0.91560097382E+03  0.63145884693E+03  0.19546133848E+04  0.50400001928E-02 0.  1.
       -1    1    3    3    0  502 -0.16073108179E+04 -0.91560097382E+03 -0.59195313177E+03  0.19422105238E+04  0.50400001928E-02 0. -1.
</event>
<event>
 5   0  0.3690572E-08  0.3904897E+04  0.7818609E-02  0.8024012E-01
       -2   -1    0    0    0  501  0.00000000000E+00  0.00000000000E+00  0.18150027747E+04  0.18150027747E+04  0.25500000920E-02 0.  1.
        2   -1    0    0  501    0  0.00000000000E+00  0.00000000000E+00 -0.21003022018E+04  0.21003022018E+04  0.25500000920E-02 0. -1.
    10030    2    1    2    0    0  0.00000000000E+00  0.00000000000E+00 -0.28529942712E+03  0.39153049765E+04  0.39048965794E+04 0.  0.
        3    1    3    3  502    0 -0.66432556412E+03 -0.10506943225E+04 -0.16522415190E+04  0.20676530322E+04  0.10100000352E+00 0. -1.
       -3    1    3    3    0  502  0.66432556412E+03  0.10506943225E+04  0.13669420919E+04  0.18476519443E+04  0.10100000352E+00 0.  1.
</event>
<event>
 5   0  0.1164500E-08  0.3831720E+04  0.7818609E-02  0.8039382E-01
       -1   -1    0    0    0  501  0.00000000000E+00  0.00000000000E+00  0.18431844029E+04  0.18431844029E+04  0.50400001928E-02 0.  1.
        1   -1    0    0  501    0  0.00000000000E+00  0.00000000000E+00 -0.19914006709E+04  0.19914006709E+04  0.50400001928E-02 0. -1.
    10030    2    1    2    0    0  0.00000000000E+00  0.00000000000E+00 -0.14821626797E+03  0.38345850738E+04  0.38317195391E+04 0.  0.
        3    1    3    3  502    0 -0.12511009116E+04 -0.45021597112E+03 -0.14544767287E+04  0.19706472227E+04  0.10100000352E+00 0. -1.
       -3    1    3    3    0  502  0.12511009116E+04  0.45021597112E+03  0.13062604607E+04  0.18639378512E+04  0.10100000352E+00 0.  1.
</event>
<event>
 5   0  0.1164500E-08  0.3904381E+04  0.7818609E-02  0.8024119E-01
        1   -1    0    0  501    0  0.00000000000E+00  0.00000000000E+00  0.16863576176E+04  0.16863576176E+04  0.50400001928E-02 0. -1.
       -1   -1    0    0    0  501  0.00000000000E+00  0.00000000000E+00 -0.22599287960E+04  0.22599287960E+04  0.50400001928E-02 0.  1.
    10030    2    1    2    0    0  0.00000000000E+00  0.00000000000E+00 -0.57357117839E+03  0.39462864136E+04  0.39043812008E+04 0.  0.
        1    1    3    3  502    0  0.75677273823E+03  0.33772132252E+01  0.15320651407E+04  0.17087831865E+04  0.50400001928E-02 0. -1.
       -1    1    3    3    0  502 -0.75677273823E+03 -0.33772132252E+01 -0.21056363191E+04  0.22375032271E+04  0.50400001928E-02 0.  1.
</event>
<event>
 5   0  0.3769985E-08  0.3892312E+04  0.7818609E-02  0.8026630E-01
       -2   -1    0    0    0  501  0.00000000000E+00  0.00000000000E+00  0.19419486215E+04  0.19419486215E+04  0.25500000920E-02 0.  1.
        2   -1    0    0  501    0  0.00000000000E+00  0.00000000000E+00 -0.19503720671E+04  0.19503720671E+04  0.25500000920E-02 0. -1.
    10030    2    1    2    0    0  0.00000000000E+00  0.00000000000E+00 -0.84234455925E+01  0.38923206886E+04  0.38923115739E+04 0.  0.
        1    1    3    3  502    0  0.84166855816E+02 -0.10187899976E+04 -0.16602666955E+04  0.19497442445E+04  0.50400001928E-02 0. -1.
       -1    1    3    3    0  502 -0.84166855816E+02  0.10187899976E+04  0.16518432499E+04  0.19425764441E+04  0.50400001928E-02 0.  1.
</event>
<event>
 5   0  0.1164500E-08  0.3903955E+04  0.7818609E-02  0.8024207E-01
       -1   -1    0    0    0  501  0.00000000000E+00  0.00000000000E+00  0.18143119145E+04  0.18143119145E+04  0.50400001928E-02 0. -1.
        1   -1    0    0  501    0  0.00000000000E+00  0.00000000000E+00 -0.21000886051E+04  0.21000886051E+04  0.50400001928E-02 0.  1.
    10030    2    1    2    0    0  0.00000000000E+00  0.00000000000E+00 -0.28577669058E+03  0.39144005196E+04  0.39039548039E+04 0.  0.
        2    1    3    3  502    0 -0.67366166345E+03  0.17529257336E+04  0.39112199107E+03  0.19182140330E+04  0.25500000920E-02 0. -1.
       -2    1    3    3    0  502  0.67366166345E+03 -0.17529257336E+04 -0.67689868166E+03  0.19961864867E+04  0.25500000920E-02 0.  1.
</event>
<event>
 5   0  0.1164500E-08  0.3903498E+04  0.7818609E-02  0.8024302E-01
       -1   -1    0    0    0  501  0.00000000000E+00  0.00000000000E+00  0.25786794961E+04  0.25786794961E+04  0.50400001928E-02 0. -1.
        1   -1    0    0  501    0  0.00000000000E+00  0.00000000000E+00 -0.14772385961E+04  0.14772385961E+04  0.50400001928E-02 0.  1.
    10030    2    1    2    0    0  0.00000000000E+00  0.00000000000E+00  0.11014409000E+04  0.40559180923E+04  0.39034983688E+04 0.  0.
        1    1    3    3  502    0 -0.12371540334E+04 -0.14519790415E+04  0.97979984255E+03  0.21444815157E+04  0.50400001928E-02 0. -1.
       -1    1    3    3    0  502  0.12371540334E+04  0.14519790415E+04  0.12164105747E+03  0.19114365766E+04  0.50400001928E-02 0.  1.
</event>
<event>
 5   0  0.3690572E-08  0.3899432E+04  0.7818609E-02  0.8025147E-01
        2   -1    0    0  501    0  0.00000000000E+00  0.00000000000E+00  0.22769801712E+04  0.22769801712E+04  0.25500000920E-02 0. -1.
       -2   -1    0    0    0  501  0.00000000000E+00  0.00000000000E+00 -0.16694884787E+04  0.16694884787E+04  0.25500000920E-02 0.  1.
    10030    2    1    2    0    0  0.00000000000E+00  0.00000000000E+00  0.60749169256E+03  0.39464686499E+04  0.38994318366E+04 0.  0.
        3    1    3    3  502    0 -0.16450554841E+04  0.52147093622E+03  0.12220232501E+04  0.21145875052E+04  0.10100000352E+00 0. -1.
       -3    1    3    3    0  502  0.16450554841E+04 -0.52147093622E+03 -0.61453155751E+03  0.18318811448E+04  0.10100000352E+00 0.  1.
</event>
<event>
 5   0  0.1164500E-08  0.3893467E+04  0.7818609E-02  0.8026389E-01
       -1   -1    0    0    0  501  0.00000000000E+00  0.00000000000E+00  0.29971269648E+04  0.29971269648E+04  0.50400001928E-02 0.  1.
        1   -1    0    0  501    0  0.00000000000E+00  0.00000000000E+00 -0.12644678448E+04  0.12644678448E+04  0.50400001928E-02 0. -1.
    10030    2    1    2    0    0  0.00000000000E+00  0.00000000000E+00  0.17326591200E+04  0.42615948095E+04  0.38934666680E+04 0.  0.
        4    1    3    3  502    0 -0.14786269535E+04  0.12631887256E+04  0.96290857211E+03  0.21700640441E+04  0.12699999809E+01 0.  1.
       -4    1    3    3    0  502  0.14786269535E+04 -0.12631887256E+04  0.76975054788E+03  0.20915307655E+04  0.12699999809E+01 0. -1.
</event>
<event>
 5   0  0.1164500E-08  0.3894305E+04  0.7818609E-02  0.8026215E-01
       -1   -1    0    0    0  501  0.00000000000E+00  0.00000000000E+00  0.17542384894E+04  0.17542384894E+04  0.50400001928E-02 0. -1.
        1   -1    0    0  501    0  0.00000000000E+00  0.00000000000E+00 -0.21612811234E+04  0.21612811234E+04  0.50400001928E-02 0.  1.
    10030    2    1    2    0    0  0.00000000000E+00  0.00000000000E+00 -0.40704263405E+03  0.39155196128E+04  0.38943048330E+04 0.  0.
        1    1    3    3  502    0  0.59210754877E+03  0.16158354123E+04  0.71242277994E+03  0.18625417166E+04  0.50400001928E-02 0. -1.
       -1    1    3    3    0  502 -0.59210754877E+03 -0.16158354123E+04 -0.11194654140E+04  0.20529778961E+04  0.50400001928E-02 0.  1.
</event>
<event>
 5   0  0.1164500E-08  0.3849498E+04  0.7818609E-02  0.8035615E-01
        1   -1    0    0  501    0  0.00000000000E+00  0.00000000000E+00  0.17977849124E+04  0.17977849124E+04  0.50400001928E-02 0. -1.
       -1   -1    0    0    0  501  0.00000000000E+00  0.00000000000E+00 -0.20606795062E+04  0.20606795062E+04  0.50400001928E-02 0.  1.
    10030    2    1    2    0    0  0.00000000000E+00  0.00000000000E+00 -0.26289459377E+03  0.38584644186E+04  0.38494979026E+04 0.  0.
        1    1    3    3  502    0  0.39665293359E+03 -0.23865877413E+03 -0.20040513418E+04  0.20568211738E+04  0.50400001928E-02 0.  1.
       -1    1    3    3    0  502 -0.39665293359E+03  0.23865877413E+03  0.17411567481E+04  0.18016432448E+04  0.50400001928E-02 0. -1.
</event>
<event>
 5   0  0.3872969E-08  0.3898012E+04  0.7818609E-02  0.8025443E-01
       -2   -1    0    0    0  501  0.00000000000E+00  0.00000000000E+00  0.14613706326E+04  0.14613706326E+04  0.25500000920E-02 0. -1.
        2   -1    0    0  501    0  0.00000000000E+00  0.00000000000E+00 -0.25993569946E+04  0.25993569946E+04  0.25500000920E-02 0.  1.
    10030    2    1    2    0    0  0.00000000000E+00  0.00000000000E+00 -0.11379863620E+04  0.40607276272E+04  0.38980117884E+04 0.  0.
        2    1    3    3  502    0  0.89126068430E+03 -0.11966385922E+04  0.73727749225E+03  0.16642919300E+04  0.25500000920E-02 0. -1.
       -2    1    3    3    0  502 -0.89126068430E+03  0.11966385922E+04 -0.18752638543E+04  0.23964356972E+04  0.25500000920E-02 0.  1.
</event>
<event>
 5   0  0.3724293E-08  0.3901208E+04  0.7818609E-02  0.8024778E-01
       -2   -1    0    0    0  501  0.00000000000E+00  0.00000000000E+00  0.19535860569E+04  0.19535860569E+04  0.25500000920E-02 0. -1.
        2   -1    0    0  501    0  0.00000000000E+00  0.00000000000E+00 -0.19476260613E+04  0.19476260613E+04  0.25500000920E-02 0.  1.
    10030    2    1    2    0    0  0.00000000000E+00  0.00000000000E+00  0.59599956029E+01  0.39012121181E+04  0.39012075655E+04 0.  0.
        4    1    3    3  502    0 -0.40296607132E+03 -0.80503699872E+03  0.17334118136E+04  0.19532496903E+04  0.12699999809E+01 0. -1.
       -4    1    3    3    0  502  0.40296607132E+03  0.80503699872E+03 -0.17274518180E+04  0.19479624279E+04  0.12699999809E+01 0.  1.
</event>
<event>
 5   0  0.3690572E-08  0.3951950E+04  0.7818609E-02  0.8014311E-01
        2   -1    0    0  501    0  0.00000000000E+00  0.00000000000E+00  0.18238906535E+04  0.18238906535E+04  0.25500000920E-02 0. -1.
       -2   -1    0    0    0  501  0.00000000000E+00  0.00000000000E+00 -0.21407403337E+04  0.21407403337E+04  0.25500000920E-02 0.  1.
    10030    2    1    2    0    0  0.00000000000E+00  0.00000000000E+00 -0.31684968027E+03  0.39646309872E+04  0.39519495372E+04 0.  0.
        3    1    3    3  502    0 -0.96516589445E+02 -0.29515545150E+03 -0.21161078165E+04  0.21387717255E+04  0.10100000352E+00 0.  1.
       -3    1    3    3    0  502  0.96516589445E+02  0.29515545150E+03  0.17992581362E+04  0.18258592617E+04  0.10100000352E+00 0. -1.
</event>
<event>
 5   0  0.1164500E-08  0.3901684E+04  0.7818609E-02  0.8024679E-01
       -1   -1    0    0    0  501  0.00000000000E+00  0.00000000000E+00  0.16090950799E+04  0.16090950799E+04  0.50400001928E-02 0. -1.
        1   -1    0    0  501    0  0.00000000000E+00  0.00000000000E+00 -0.23651709588E+04  0.23651709588E+04  0.50400001928E-02 0.  1.
    10030    2    1    2    0    0  0.00000000000E+00  0.00000000000E+00 -0.75607587896E+03  0.39742660387E+04  0.39016842276E+04 0.  0.
        5    1    3    3  502    0  0.68989176738E+03  0.16733312887E+04 -0.11194341944E+04  0.21281783897E+04  0.46999998093E+01 0.  1.
       -5    1    3    3    0  502 -0.68989176738E+03 -0.16733312887E+04  0.36335831547E+03  0.18460876490E+04  0.46999998093E+01 0. -1.
</event>
<event>
 5   0  0.3669347E-08  0.3897970E+04  0.7818609E-02  0.8025451E-01
       -2   -1    0    0    0  501  0.00000000000E+00  0.00000000000E+00  0.19418616406E+04  0.19418616406E+04  0.25500000920E-02 0. -1.
        2   -1    0    0  501    0  0.00000000000E+00  0.00000000000E+00 -0.19561349496E+04  0.19561349496E+04  0.25500000920E-02 0.  1.
    10030    2    1    2    0    0  0.00000000000E+00  0.00000000000E+00 -0.14273309061E+02  0.38979965902E+04  0.38979704578E+04 0.  0.
        5    1    3    3  502    0  0.93372221609E+03  0.55353232763E+03  0.16116039829E+04  0.19430709463E+04  0.46999998093E+01 0. -1.
       -5    1    3    3    0  502 -0.93372221609E+03 -0.55353232763E+03 -0.16258772920E+04  0.19549256439E+04  0.46999998093E+01 0.  1.
</event>
<event>
 5   0  0.3872969E-08  0.3903362E+04  0.7818609E-02  0.8024330E-01
       -2   -1    0    0    0  501  0.00000000000E+00  0.00000000000E+00  0.17576908719E+04  0.17576908719E+04  0.25500000920E-02 0. -1.
        2   -1    0    0  501    0  0.00000000000E+00  0.00000000000E+00 -0.21670814009E+04  0.21670814009E+04  0.25500000920E-02 0.  1.
    10030    2    1    2    0    0  0.00000000000E+00  0.00000000000E+00 -0.40939052899E+03  0.39247722728E+04  0.39033622415E+04 0.  0.
        2    1    3    3  502    0  0.15361076426E+03  0.11337041157E+04  0.13851727154E+04  0.17965480067E+04  0.25500000920E-02 0. -1.
       -2    1    3    3    0  502 -0.15361076426E+03 -0.11337041157E+04 -0.17945632444E+04  0.21282242661E+04  0.25500000920E-02 0.  1.
</event>
<event>
 5   0  0.1164500E-08  0.3901267E+04  0.7818609E-02  0.8024766E-01
        1   -1    0    0  501    0  0.00000000000E+00  0.00000000000E+00  0.18426380540E+04  0.18426380540E+04  0.50400001928E-02 0. -1.
       -1   -1    0    0    0  501  0.00000000000E+00  0.00000000000E+00 -0.20649583367E+04  0.20649583367E+04  0.50400001928E-02 0.  1.
    10030    2    1    2    0    0  0.00000000000E+00  0.00000000000E+00 -0.22232028272E+03  0.39075963907E+04  0.39012668769E+04 0.  0.
        3    1    3    3  502    0  0.49610089326E+02  0.17556116064E+04  0.73894385892E+03  0.19054320534E+04  0.10100000352E+00 0. -1.
       -3    1    3    3    0  502 -0.49610089326E+02 -0.17556116064E+04 -0.96126414164E+03  0.20021643373E+04  0.10100000352E+00 0.  1.
</event>
<event>
 5   0  0.3669347E-08  0.3907656E+04  0.7818609E-02  0.8023439E-01
        2   -1    0    0  501    0  0.00000000000E+00  0.00000000000E+00  0.25571138596E+04  0.25571138597E+04  0.25500000920E-02 0.  1.
       -2   -1    0    0    0  501  0.00000000000E+00  0.00000000000E+00 -0.14928720847E+04  0.14928720847E+04  0.25500000920E-02 0. -1.
    10030    2    1    2    0    0  0.00000000000E+00  0.00000000000E+00  0.10642417749E+04  0.40499859444E+04  0.39076560230E+04 0.  0.
        5    1    3    3  502    0  0.82013081543E+03  0.15164888382E+04  0.14848802769E+04  0.22753559012E+04  0.46999998093E+01 0.  1.
       -5    1    3    3    0  502 -0.82013081543E+03 -0.15164888382E+04 -0.42063850197E+03  0.17746300431E+04  0.46999998093E+01 0. -1.
</event>
<event>
 5   0  0.3669347E-08  0.3890165E+04  0.7818609E-02  0.8027078E-01
       -2   -1    0    0    0  501  0.00000000000E+00  0.00000000000E+00  0.15733468667E+04  0.15733468667E+04  0.25500000920E-02 0. -1.
        2   -1    0    0  501    0  0.00000000000E+00  0.00000000000E+00 -0.24046483324E+04  0.24046483324E+04  0.25500000920E-02 0.  1.
    10030    2    1    2    0    0  0.00000000000E+00  0.00000000000E+00 -0.83130146566E+03  0.39779951991E+04  0.38901649936E+04 0.  0.
        5    1    3    3  502    0  0.13271612294E+04  0.12534566030E+04 -0.11022362894E+04  0.21324768022E+04  0.46999998093E+01 0.  1.
       -5    1    3    3    0  502 -0.13271612294E+04 -0.12534566030E+04  0.27093482371E+03  0.18455183969E+04  0.46999998093E+01 0. -1.
</event>
<event>
 5   0  0.3769985E-08  0.3904856E+04  0.7818609E-02  0.8024020E-01
        2   -1    0    0  501    0  0.00000000000E+00  0.00000000000E+00  0.24240395612E+04  0.24240395612E+04  0.25500000920E-02 0. -1.
       -2   -1    0    0    0  501  0.00000000000E+00  0.00000000000E+00 -0.15725713058E+04  0.15725713058E+04  0.25500000920E-02 0.  1.
    10030    2    1    2    0    0  0.00000000000E+00  0.00000000000E+00  0.85146825540E+03  0.39966108670E+04  0.39048559810E+04 0.  0.
        1    1    3    3  502    0 -0.15407444618E+04  0.76058864238E+03  0.13746585665E+04  0.22004714845E+04  0.50400001928E-02 0. -1.
       -1    1    3    3    0  502  0.15407444618E+04 -0.76058864238E+03 -0.52319031114E+03  0.17961393825E+04  0.50400001928E-02 0.  1.
</event>
<event>
 5   0  0.3724293E-08  0.3903455E+04  0.7818609E-02  0.8024311E-01
        2   -1    0    0  501    0  0.00000000000E+00  0.00000000000E+00  0.14989755168E+04  0.14989755168E+04  0.25500000920E-02 0.  1.
       -2   -1    0    0    0  501  0.00000000000E+00  0.00000000000E+00 -0.25412287524E+04  0.25412287524E+04  0.25500000920E-02 0. -1.
    10030    2    1    2    0    0  0.00000000000E+00  0.00000000000E+00 -0.10422532357E+04  0.40402042692E+04  0.39034547173E+04 0.  0.
        4    1    3    3  502    0  0.14660160046E+04 -0.12498431712E+04 -0.19723043736E+03  0.19365464974E+04  0.12699999809E+01 0.  1.
       -4    1    3    3    0  502 -0.14660160046E+04  0.12498431712E+04 -0.84502279830E+03  0.21036577718E+04  0.12699999809E+01 0. -1.
</event>
<event>
 5   0  0.1164500E-08  0.3929938E+04  0.7818609E-02  0.8018831E-01
       -1   -1    0    0    0  501  0.00000000000E+00  0.00000000000E+00  0.15414488231E+04  0.15414488231E+04  0.50400001928E-02 0. -1.
        1   -1    0    0  501    0  0.00000000000E+00  0.00000000000E+00 -0.25048536785E+04  0.25048536785E+04  0.50400001928E-02 0.  1.
    10030    2    1    2    0    0  0.00000000000E+00  0.00000000000E+00 -0.96340485539E+03  0.40463025016E+04  0.39299382971E+04 0.  0.
        3    1    3    3  502    0  0.70410916791E+03 -0.55423362216E+03 -0.22822419340E+04  0.24518509098E+04  0.10100000352E+00 0.  1.
       -3    1    3    3    0  502 -0.70410916791E+03  0.55423362216E+03  0.13188370786E+04  0.15944515918E+04  0.10100000352E+00 0. -1.
</event>
<event>
 5   0  0.1164500E-08  0.3901862E+04  0.7818609E-02  0.8024642E-01
        1   -1    0    0  501    0  0.00000000000E+00  0.00000000000E+00  0.27200006408E+04  0.27200006408E+04  0.50400001928E-02 0. -1.
       -1   -1    0    0    0  501  0.00000000000E+00  0.00000000000E+00 -0.13993130587E+04  0.13993130588E+04  0.50400001928E-02 0.  1.
    10030    2    1    2    0    0  0.00000000000E+00  0.00000000000E+00  0.13206875821E+04  0.41193136996E+04  0.39018623330E+04 0.  0.
        4    1    3    3  502    0 -0.10247020490E+04 -0.48180630740E+03 -0.10168985188E+04  0.15219184661E+04  0.12699999809E+01 0.  1.
       -4    1    3    3    0  502  0.10247020490E+04  0.48180630740E+03  0.23375861009E+04  0.25973952335E+04  0.12699999809E+01 0. -1.
</event>
<event>
 5   0  0.3769985E-08  0.3889419E+04  0.7818609E-02  0.8027233E-01
        2   -1    0    0  501    0  0.00000000000E+00  0.00000000000E+00  0.17605614372E+04  0.17605614372E+04  0.25500000920E-02 0. -1.
       -2   -1    0    0    0  501  0.00000000000E+00  0.00000000000E+00 -0.21481188769E+04  0.21481188769E+04  0.25500000920E-02 0.  1.
    10030    2    1    2    0    0  0.00000000000E+00  0.00000000000E+00 -0.38755743967E+03  0.39086803141E+04  0.38894191120E+04 0.  0.
        1    1    3    3  502    0 -0.14578101302E+04  0.12665159276E+04 -0.42431021409E+03  0.19771980499E+04  0.50400001928E-02 0. -1.
       -1    1    3    3    0  502  0.14578101302E+04 -0.12665159276E+04  0.36752774421E+02  0.19314822643E+04  0.50400001928E-02 0.  1.
</event>
<event>
 5   0  0.1164500E-08  0.3902292E+04  0.7818609E-02  0.8024553E-01
       -1   -1    0    0    0  501  0.00000000000E+00  0.00000000000E+00  0.14381616488E+04  0.14381616488E+04  0.50400001928E-02 0. -1.
        1   -1    0    0  501    0  0.00000000000E+00  0.00000000000E+00 -0.26471085758E+04  0.26471085758E+04  0.50400001928E-02 0.  1.
    10030    2    1    2    0    0  0.00000000000E+00  0.00000000000E+00 -0.12089469270E+04  0.40852702246E+04  0.39022916518E+04 0.  0.
        1    1    3    3  502    0  0.16684503938E+04 -0.49099919308E+03  0.32139593095E+03  0.17686441894E+04  0.50400001928E-02 0. -1.
       -1    1    3    3    0  502 -0.16684503938E+04  0.49099919308E+03 -0.15303428580E+04  0.23166260352E+04  0.50400001928E-02 0.  1.
</event>
<event>
 5   0  0.3724293E-08  0.3909985E+04  0.7818609E-02  0.8022956E-01
       -2   -1    0    0    0  501  0.00000000000E+00  0.00000000000E+00  0.21504536690E+04  0.21504536690E+04  0.25500000920E-02 0.  1.
        2   -1    0    0  501    0  0.00000000000E+00  0.00000000000E+00 -0.17772974422E+04  0.17772974422E+04  0.25500000920E-02 0. -1.
    10030    2    1    2    0    0  0.00000000000E+00  0.00000000000E+00  0.37315622682E+03  0.39277511112E+04  0.39099850667E+04 0.  0.
        4    1    3    3  502    0 -0.17128929926E+04 -0.77426931390E+02  0.11299922521E+04  0.20535046717E+04  0.12699999809E+01 0.  1.
       -4    1    3    3    0  502  0.17128929926E+04  0.77426931390E+02 -0.75683602532E+03  0.18742464395E+04  0.12699999809E+01 0. -1.
</event>
<event>
 5   0  0.3669347E-08  0.3902795E+04  0.7818609E-02  0.8024448E-01
        2   -1    0    0  501    0  0.00000000000E+00  0.00000000000E+00  0.21209473259E+04  0.21209473259E+04  0.25500000920E-02 0.  1.
       -2   -1    0    0    0  501  0.00000000000E+00  0.00000000000E+00 -0.17954014277E+04  0.17954014277E+04  0.25500000920E-02 0. -1.
    10030    2    1    2    0    0  0.00000000000E+00  0.00000000000E+00  0.32554589819E+03  0.39163487535E+04  0.39027948226E+04 0.  0.
        5    1    3    3  502    0  0.25607969171E+02 -0.49611071534E+03  0.20564270819E+04  0.21155840903E+04  0.46999998093E+01 0.  1.
       -5    1    3    3    0  502 -0.25607969171E+02  0.49611071534E+03 -0.17308811838E+04  0.18007646632E+04  0.46999998093E+01 0. -1.
</event>
<event>
 5   0  0.3669347E-08  0.3884987E+04  0.7818609E-02  0.8028159E-01
        2   -1    0    0  501    0  0.00000000000E+00  0.00000000000E+00  0.12279478226E+04  0.12279478226E+04  0.25500000920E-02 0. -1.
       -2   -1    0    0    0  501  0.00000000000E+00  0.00000000000E+00 -0.30728349905E+04  0.30728349905E+04  0.25500000920E-02 0.  1.
    10030    2    1    2    0    0  0.00000000000E+00  0.00000000000E+00 -0.18448871679E+04  0.43007828131E+04  0.38849870197E+04 0.  0.
        5    1    3    3  502    0  0.76878074190E+03  0.13472689385E+04 -0.22168132398E+04  0.27056312483E+04  0.46999998093E+01 0.  1.
       -5    1    3    3    0  502 -0.76878074190E+03 -0.13472689385E+04  0.37192607187E+03  0.15951515648E+04  0.46999998093E+01 0. -1.
</event>
<event>
 5   0  0.1164500E-08  0.3933254E+04  0.7818609E-02  0.8018148E-01
       -1   -1    0    0    0  501  0.00000000000E+00  0.00000000000E+00  0.16010991188E+04  0.16010991188E+04  0.50400001928E-02 0. -1.
        1   -1    0    0  501    0  0.00000000000E+00  0.00000000000E+00 -0.24156040899E+04  0.24156040899E+04  0.50400001928E-02 0.  1.
    10030    2    1    2    0    0  0.00000000000E+00  0.00000000000E+00 -0.81450497117E+03  0.40167032087E+04  0.39332539098E+04 0.  0.
        4    1    3    3  502    0 -0.13037292988E+04 -0.46058898224E+03  0.10209059575E+04  0.17187503839E+04  0.12699999809E+01 0. -1.
       -4    1    3    3    0  502  0.13037292988E+04  0.46058898224E+03 -0.18354109286E+04  0.22979528248E+04  0.12699999809E+01 0.  1.
</event>
<event>
 5   0  0.1164500E-08  0.3876162E+04  0.7818609E-02  0.8030005E-01
        1   -1    0    0  501    0  0.00000000000E+00  0.00000000000E+00  0.22860809038E+04  0.22860809038E+04  0.50400001928E-02 0. -1.
       -1   -1    0    0    0  501  0.00000000000E+00  0.00000000000E+00 -0.16430555670E+04  0.16430555670E+04  0.50400001928E-02 0.  1.
    10030    2    1    2    0    0  0.00000000000E+00  0.00000000000E+00  0.64302533684E+03  0.39291364708E+04  0.38761619964E+04 0.  0.
        4    1    3    3  502    0  0.56934280834E+03 -0.17940076989E+04  0.78993363294E+03  0.20412279673E+04  0.12699999809E+01 0. -1.
       -4    1    3    3    0  502 -0.56934280834E+03  0.17940076989E+04 -0.14690829610E+03  0.18879085035E+04  0.12699999809E+01 0.  1.
</event>
<event>
 5   0  0.1164500E-08  0.3898728E+04  0.7818609E-02  0.8025294E-01
       -1   -1    0    0    0  501  0.00000000000E+00  0.00000000000E+00  0.18572611163E+04  0.18572611163E+04  0.50400001928E-02 0. -1.
        1   -1    0    0  501    0  0.00000000000E+00  0.00000000000E+00 -0.20460342181E+04  0.20460342182E+04  0.50400001928E-02 0.  1.
    10030    2    1    2    0    0  0.00000000000E+00  0.00000000000E+00 -0.18877310183E+03  0.39032953345E+04  0.38987278931E+04 0.  0.
        1    1    3    3  502    0 -0.18969879720E+03  0.26035848692E+03 -0.20192016477E+04  0.20447365281E+04  0.50400001928E-02 0.  1.
       -1    1    3    3    0  502  0.18969879720E+03 -0.26035848692E+03  0.18304285458E+04  0.18585588064E+04  0.50400001928E-02 0. -1.
</event>
<event>
 5   0  0.3669347E-08  0.3900522E+04  0.7818609E-02  0.8024921E-01
       -2   -1    0    0    0  501  0.00000000000E+00  0.00000000000E+00  0.12367900080E+04  0.12367900080E+04  0.25500000920E-02 0. -1.
        2   -1    0    0  501    0  0.00000000000E+00  0.00000000000E+00 -0.30753150154E+04  0.30753150154E+04  0.25500000920E-02 0.  1.
    10030    2    1    2    0    0  0.00000000000E+00  0.00000000000E+00 -0.18385250074E+04  0.43121050234E+04  0.39005224689E+04 0.  0.
        5    1    3    3  502    0  0.21367194815E+03 -0.43191468834E+02  0.12232725014E+04  0.12425533820E+04  0.46999998093E+01 0. -1.
       -5    1    3    3    0  502 -0.21367194815E+03  0.43191468834E+02 -0.30617975088E+04  0.30695516414E+04  0.46999998093E+01 0.  1.
</event>
<event>
 5   0  0.3769985E-08  0.3897276E+04  0.7818609E-02  0.8025596E-01
        2   -1    0    0  501    0  0.00000000000E+00  0.00000000000E+00  0.15959278938E+04  0.15959278938E+04  0.25500000920E-02 0.  1.
       -2   -1    0    0    0  501  0.00000000000E+00  0.00000000000E+00 -0.23792994987E+04  0.23792994987E+04  0.25500000920E-02 0. -1.
    10030    2    1    2    0    0  0.00000000000E+00  0.00000000000E+00 -0.78337160491E+03  0.39752273925E+04  0.38972761963E+04 0.  0.
        1    1    3    3  502    0 -0.99751149016E+03  0.11232960382E+04 -0.16576252507E+04  0.22370839578E+04  0.50400001928E-02 0. -1.
       -1    1    3    3    0  502  0.99751149016E+03 -0.11232960382E+04  0.87425364578E+03  0.17381434347E+04  0.50400001928E-02 0.  1.
</event>
<event>
 5   0  0.3769985E-08  0.3897300E+04  0.7818609E-02  0.8025591E-01
       -2   -1    0    0    0  501  0.00000000000E+00  0.00000000000E+00  0.13447749279E+04  0.13447749279E+04  0.25500000920E-02 0.  1.
        2   -1    0    0  501    0  0.00000000000E+00  0.00000000000E+00 -0.28236963899E+04  0.28236963899E+04  0.25500000920E-02 0. -1.
    10030    2    1    2    0    0  0.00000000000E+00  0.00000000000E+00 -0.14789214620E+04  0.41684713178E+04  0.38972996339E+04 0.  0.
        1    1    3    3  502    0 -0.17346114942E+04 -0.84715113535E+03 -0.45507723965E+03  0.19833399547E+04  0.50400001928E-02 0.  1.
       -1    1    3    3    0  502  0.17346114942E+04  0.84715113535E+03 -0.10238442223E+04  0.21851313630E+04  0.50400001928E-02 0. -1.
</event>
<event>
 5   0  0.3769985E-08  0.3892102E+04  0.7818609E-02  0.8026674E-01
        2   -1    0    0  501    0  0.00000000000E+00  0.00000000000E+00  0.17087518882E+04  0.17087518882E+04  0.25500000920E-02 0. -1.
       -2   -1    0    0    0  501  0.00000000000E+00  0.00000000000E+00 -0.22163047548E+04  0.22163047548E+04  0.25500000920E-02 0.  1.
    10030    2    1    2    0    0  0.00000000000E+00  0.00000000000E+00 -0.50755286665E+03  0.39250566430E+04  0.38921022261E+04 0.  0.
        1    1    3    3  502    0 -0.66171450689E+03  0.52190781861E+02 -0.20986165112E+04  0.22010863743E+04  0.50400001928E-02 0.  1.
       -1    1    3    3    0  502  0.66171450689E+03 -0.52190781861E+02  0.15910636445E+04  0.17239702687E+04  0.50400001928E-02 0. -1.
</event>
<event>
 5   0  0.1164500E-08  0.3905995E+04  0.7818609E-02  0.8023784E-01
       -1   -1    0    0    0  501  0.00000000000E+00  0.00000000000E+00  0.19328460521E+04  0.19328460521E+04  0.50400001928E-02 0.  1.
        1   -1    0    0  501    0  0.00000000000E+00  0.00000000000E+00 -0.19733585713E+04  0.19733585713E+04  0.50400001928E-02 0. -1.
    10030    2    1    2    0    0  0.00000000000E+00  0.00000000000E+00 -0.40512519204E+02  0.39062046235E+04  0.39059945336E+04 0.  0.
        2    1    3    3  502    0  0.11508004200E+03  0.18799137771E+04 -0.53688747090E+03  0.19584604621E+04  0.25500000920E-02 0.  1.
       -2    1    3    3    0  502 -0.11508004200E+03 -0.18799137771E+04  0.49637495170E+03  0.19477441613E+04  0.25500000920E-02 0. -1.
</event>
<event>
 5   0  0.1164500E-08  0.3905869E+04  0.7818609E-02  0.8023810E-01
       -3   -1    0    0    0  501  0.00000000000E+00  0.00000000000E+00  0.15214971413E+04  0.15214971446E+04  0.10100000352E+00 0.  1.
        3   -1    0    0  501    0  0.00000000000E+00  0.00000000000E+00 -0.25067113236E+04  0.25067113256E+04  0.10100000352E+00 0. -1.
    10030    2    1    2    0    0  0.00000000000E+00  0.00000000000E+00 -0.98521418229E+03  0.40282084702E+04  0.39058694928E+04 0.  0.
        3    1    3    3  502    0 -0.12164203446E+04 -0.15249931321E+04 -0.58864528223E+03  0.20375931356E+04  0.10100000352E+00 0. -1.
       -3    1    3    3    0  502  0.12164203446E+04  0.15249931321E+04 -0.39656890007E+03  0.19906153346E+04  0.10100000352E+00 0.  1.
</event>
<event>
 5   0  0.3669347E-08  0.3896798E+04  0.7818609E-02  0.8025695E-01
        2   -1    0    0  501    0  0.00000000000E+00  0.00000000000E+00  0.17525615560E+04  0.17525615560E+04  0.25500000920E-02 0.  1.
       -2   -1    0    0    0  501  0.00000000000E+00  0.00000000000E+00 -0.21661203747E+04  0.21661203747E+04  0.25500000920E-02 0. -1.
    10030    2    1    2    0    0  0.00000000000E+00  0.00000000000E+00 -0.41355881878E+03  0.39186819307E+04  0.38967983239E+04 0.  0.
        5    1    3    3  502    0 -0.14980322746E+04 -0.13977762134E+03  0.10381545521E+04  0.18279566306E+04  0.46999998093E+01 0.  1.
       -5    1    3    3    0  502  0.14980322746E+04  0.13977762134E+03 -0.14517133709E+04  0.20907253001E+04  0.46999998093E+01 0. -1.
</event>
<event>
 5   0  0.1164500E-08  0.3902541E+04  0.7818609E-02  0.8024501E-01
        1   -1    0    0  501    0  0.00000000000E+00  0.00000000000E+00  0.27470074427E+04  0.27470074427E+04  0.50400001928E-02 0.  1.
       -1   -1    0    0    0  501  0.00000000000E+00  0.00000000000E+00 -0.13860376439E+04  0.13860376439E+04  0.50400001928E-02 0. -1.
    10030    2    1    2    0    0  0.00000000000E+00  0.00000000000E+00  0.13609697987E+04  0.41330450866E+04  0.39025405693E+04 0.  0.
        4    1    3    3  502    0  0.54473124721E+03 -0.16903469354E+04 -0.17562326237E+03  0.17846148147E+04  0.12699999809E+01 0. -1.
       -4    1    3    3    0  502 -0.54473124721E+03  0.16903469354E+04  0.15365930611E+04  0.23484302719E+04  0.12699999809E+01 0.  1.
</event>
<event>
 5   0  0.3872969E-08  0.3925415E+04  0.7818609E-02  0.8019764E-01
       -2   -1    0    0    0  501  0.00000000000E+00  0.00000000000E+00  0.14937125723E+04  0.14937125723E+04  0.25500000920E-02 0.  1.
        2   -1    0    0  501    0  0.00000000000E+00  0.00000000000E+00 -0.25789566567E+04  0.25789566567E+04  0.25500000920E-02 0. -1.
    10030    2    1    2    0    0  0.00000000000E+00  0.00000000000E+00 -0.10852440844E+04  0.40726692290E+04  0.39254146183E+04 0.  0.
        2    1    3    3  502    0 -0.13367446710E+04  0.14320454541E+04 -0.41734696639E+03  0.20029525676E+04  0.25500000920E-02 0.  1.
       -2    1    3    3    0  502  0.13367446710E+04 -0.14320454541E+04 -0.66789711801E+03  0.20697166613E+04  0.25500000920E-02 0. -1.
</event>
<event>
 5   0  0.1164500E-08  0.3858581E+04  0.7818609E-02  0.8033699E-01
       -1   -1    0    0    0  501  0.00000000000E+00  0.00000000000E+00  0.30988218181E+04  0.30988218181E+04  0.50400001928E-02 0. -1.
        1   -1    0    0  501    0  0.00000000000E+00  0.00000000000E+00 -0.12011537496E+04  0.12011537496E+04  0.50400001928E-02 0.  1.
    10030    2    1    2    0    0  0.00000000000E+00  0.00000000000E+00  0.18976680685E+04  0.42999755678E+04  0.38585807993E+04 0.  0.
        1    1    3    3  502    0  0.39659752338E+03  0.34464129115E+03  0.30175552266E+04  0.30629571921E+04  0.50400001928E-02 0. -1.
       -1    1    3    3    0  502 -0.39659752338E+03 -0.34464129115E+03 -0.11198871580E+04  0.12370183757E+04  0.50400001928E-02 0.  1.
</event>
<event>
 5   0  0.3690572E-08  0.3949574E+04  0.7818609E-02  0.8014797E-01
       -2   -1    0    0    0  501  0.00000000000E+00  0.00000000000E+00  0.23053349365E+04  0.23053349365E+04  0.25500000920E-02 0.  1.
        2   -1    0    0  501    0  0.00000000000E+00  0.00000000000E+00 -0.16916347319E+04  0.16916347319E+04  0.25500000920E-02 0. -1.
    10030    2    1    2    0    0  0.00000000000E+00  0.00000000000E+00  0.61370020456E+03  0.39969696684E+04  0.39495744820E+04 0.  0.
        3    1    3    3  502    0  0.32291376055E+03  0.40359568999E+02 -0.16643126287E+04  0.16958298051E+04  0.10100000352E+00 0. -1.
       -3    1    3    3    0  502 -0.32291376055E+03 -0.40359568999E+02  0.22780128333E+04  0.23011398633E+04  0.10100000352E+00 0.  1.
</event>
<event>
 5   0  0.3669347E-08  0.3904129E+04  0.7818609E-02  0.8024171E-01
        2   -1    0    0  501    0  0.00000000000E+00  0.00000000000E+00  0.20536584957E+04  0.20536584957E+04  0.25500000920E-02 0.  1.
       -2   -1    0    0    0  501  0.00000000000E+00  0.00000000000E+00 -0.18554963948E+04  0.18554963948E+04  0.25500000920E-02 0. -1.
    10030    2    1    2    0    0  0.00000000000E+00  0.00000000000E+00  0.19816210088E+03  0.39091548904E+04  0.39041290628E+04 0.  0.
        5    1    3    3  502    0 -0.37690186259E+03 -0.10135374963E+04 -0.15281943088E+04  0.18720879269E+04  0.46999998093E+01 0. -1.
       -5    1    3    3    0  502  0.37690186259E+03  0.10135374963E+04  0.17263564097E+04  0.20370669635E+04  0.46999998093E+01 0.  1.
</event>
<event>
 5   0  0.1164500E-08  0.3899870E+04  0.7818609E-02  0.8025056E-01
        1   -1    0    0  501    0  0.00000000000E+00  0.00000000000E+00  0.27186777093E+04  0.27186777094E+04  0.50400001928E-02 0.  1.
       -1   -1    0    0    0  501  0.00000000000E+00  0.00000000000E+00 -0.13985649742E+04  0.13985649743E+04  0.50400001928E-02 0. -1.
    10030    2    1    2    0    0  0.00000000000E+00  0.00000000000E+00  0.13201127351E+04  0.41172426836E+04  0.38998704699E+04 0.  0.
        3    1    3    3  502    0 -0.27509168562E+02  0.13259663786E+04  0.21691728317E+04  0.25424897985E+04  0.10100000352E+00 0.  1.
       -3    1    3    3    0  502  0.27509168562E+02 -0.13259663786E+04 -0.84906009657E+03  0.15747528851E+04  0.10100000352E+00 0. -1.
</event>
<event>
 5   0  0.1164500E-08  0.3903304E+04  0.7818609E-02  0.8024342E-01
       -1   -1    0    0    0  501  0.00000000000E+00  0.00000000000E+00  0.20065124780E+04  0.20065124780E+04  0.50400001928E-02 0.  1.
        1   -1    0    0  501    0  0.00000000000E+00  0.00000000000E+00 -0.18982914784E+04  0.18982914784E+04  0.50400001928E-02 0. -1.
    10030    2    1    2    0    0  0.00000000000E+00  0.00000000000E+00  0.10822099966E+03  0.39048039564E+04  0.39033040047E+04 0.  0.
        4    1    3    3  502    0 -0.16467708228E+03 -0.44491298595E+02  0.19990401864E+04  0.20063053847E+04  0.12699999809E+01 0.  1.
       -4    1    3    3    0  502  0.16467708228E+03  0.44491298595E+02 -0.18908191867E+04  0.18984985717E+04  0.12699999809E+01 0. -1.
</event>
<event>
 5   0  0.1164500E-08  0.3902847E+04  0.7818609E-02  0.8024437E-01
       -1   -1    0    0    0  501  0.00000000000E+00  0.00000000000E+00  0.14920577140E+04  0.14920577140E+04  0.50400001928E-02 0. -1.
        1   -1    0    0  501    0  0.00000000000E+00  0.00000000000E+00 -0.25522160120E+04  0.25522160120E+04  0.50400001928E-02 0.  1.
    10030    2    1    2    0    0  0.00000000000E+00  0.00000000000E+00 -0.10601582980E+04  0.40442737260E+04  0.39028469550E+04 0.  0.
        5    1    3    3  502    0 -0.26237724624E+03 -0.19316837825E+04 -0.62152341426E+03  0.20461078905E+04  0.46999998093E+01 0. -1.
       -5    1    3    3    0  502  0.26237724624E+03  0.19316837825E+04 -0.43863488371E+03  0.19981658355E+04  0.46999998093E+01 0.  1.
</event>
<event>
 5   0  0.3669347E-08  0.3893968E+04  0.7818609E-02  0.8026285E-01
        2   -1    0    0  501    0  0.00000000000E+00  0.00000000000E+00  0.28048026150E+04  0.28048026150E+04  0.25500000920E-02 0. -1.
       -2   -1    0    0    0  501  0.00000000000E+00  0.00000000000E+00 -0.13515201938E+04  0.13515201938E+04  0.25500000920E-02 0.  1.
    10030    2    1    2    0    0  0.00000000000E+00  0.00000000000E+00  0.14532824212E+04  0.41563228088E+04  0.38939683481E+04 0.  0.
        5    1    3    3  502    0 -0.15692418833E+04  0.93849524765E+03  0.12670643082E+02  0.18285174468E+04  0.46999998093E+01 0.  1.
       -5    1    3    3    0  502  0.15692418833E+04 -0.93849524765E+03  0.14406117781E+04  0.23278053620E+04  0.46999998093E+01 0. -1.
</event>
<event>
 5   0  0.3669347E-08  0.3900473E+04  0.7818609E-02  0.8024931E-01
       -2   -1    0    0    0  501  0.00000000000E+00  0.00000000000E+00  0.28832476940E+04  0.28832476940E+04  0.25500000920E-02 0.  1.
        2   -1    0    0  501    0  0.00000000000E+00  0.00000000000E+00 -0.13191450045E+04  0.13191450045E+04  0.25500000920E-02 0. -1.
    10030    2    1    2    0    0  0.00000000000E+00  0.00000000000E+00  0.15641026895E+04  0.42023926986E+04  0.39004726854E+04 0.  0.
        5    1    3    3  502    0  0.33100975446E+02 -0.10090964008E+04  0.25797472503E+04  0.27702868419E+04  0.46999998093E+01 0.  1.
       -5    1    3    3    0  502 -0.33100975446E+02  0.10090964008E+04 -0.10156445609E+04  0.14321058567E+04  0.46999998093E+01 0. -1.
</event>
<event>
 5   0  0.3690572E-08  0.3870011E+04  0.7818609E-02  0.8031295E-01
       -2   -1    0    0    0  501  0.00000000000E+00  0.00000000000E+00  0.16992291222E+04  0.16992291222E+04  0.25500000920E-02 0. -1.
        2   -1    0    0  501    0  0.00000000000E+00  0.00000000000E+00 -0.22034973309E+04  0.22034973309E+04  0.25500000920E-02 0.  1.
    10030    2    1    2    0    0  0.00000000000E+00  0.00000000000E+00 -0.50426820874E+03  0.39027264531E+04  0.38700112844E+04 0.  0.
        3    1    3    3  502    0  0.13429951347E+04 -0.18159903912E+02  0.11525808589E+04  0.17698611134E+04  0.10100000352E+00 0. -1.
       -3    1    3    3    0  502 -0.13429951347E+04  0.18159903912E+02 -0.16568490677E+04  0.21328653397E+04  0.10100000352E+00 0.  1.
</event>
<event>
 5   0  0.3669347E-08  0.3825478E+04  0.7818609E-02  0.8040709E-01
       -2   -1    0    0    0  501  0.00000000000E+00  0.00000000000E+00  0.15924678768E+04  0.15924678768E+04  0.25500000920E-02 0. -1.
        2   -1    0    0  501    0  0.00000000000E+00  0.00000000000E+00 -0.22974216174E+04  0.22974216174E+04  0.25500000920E-02 0.  1.
    10030    2    1    2    0    0  0.00000000000E+00  0.00000000000E+00 -0.70495374059E+03  0.38898894943E+04  0.38254778134E+04 0.  0.
        5    1    3    3  502    0  0.16007178713E+04  0.50463794214E+03 -0.12853059719E+04  0.21139987435E+04  0.46999998093E+01 0.  1.
       -5    1    3    3    0  502 -0.16007178713E+04 -0.50463794214E+03  0.58035223136E+03  0.17758907507E+04  0.46999998093E+01 0. -1.
</event>
<event>
 5   0  0.1164500E-08  0.3898705E+04  0.7818609E-02  0.8025299E-01
        1   -1    0    0  501    0  0.00000000000E+00  0.00000000000E+00  0.16485603479E+04  0.16485603479E+04  0.50400001928E-02 0. -1.
       -1   -1    0    0    0  501  0.00000000000E+00  0.00000000000E+00 -0.23050265596E+04  0.23050265596E+04  0.50400001928E-02 0.  1.
    10030    2    1    2    0    0  0.00000000000E+00  0.00000000000E+00 -0.65646621166E+03  0.39535869075E+04  0.38987051117E+04 0.  0.
        2    1    3    3  502    0 -0.19821846054E+03  0.14564711604E+04 -0.16266383673E+04  0.21923848150E+04  0.25500000920E-02 0.  1.
       -2    1    3    3    0  502  0.19821846054E+03 -0.14564711604E+04  0.97017215560E+03  0.17612020925E+04  0.25500000920E-02 0. -1.
</event>
<event>
 5   0  0.3690572E-08  0.3899834E+04  0.7818609E-02  0.8025064E-01
       -2   -1    0    0    0  501  0.00000000000E+00  0.00000000000E+00  0.30007441913E+04  0.30007441913E+04  0.25500000920E-02 0. -1.
        2   -1    0    0  501    0  0.00000000000E+00  0.00000000000E+00 -0.12670777474E+04  0.12670777474E+04  0.25500000920E-02 0.  1.
    10030    2    1    2    0    0  0.00000000000E+00  0.00000000000E+00  0.17336664439E+04  0.42678219387E+04  0.38998339403E+04 0.  0.
        3    1    3    3  502    0  0.10973128360E+04 -0.12377093367E+04 -0.26314642061E+03  0.16748928058E+04  0.10100000352E+00 0.  1.
       -3    1    3    3    0  502 -0.10973128360E+04  0.12377093367E+04  0.19968128645E+04  0.25929291329E+04  0.10100000352E+00 0. -1.
</event>
<event>
 5   0  0.3724293E-08  0.3904367E+04  0.7818609E-02  0.8024121E-01
       -2   -1    0    0    0  501  0.00000000000E+00  0.00000000000E+00  0.14540885783E+04  0.14540885783E+04  0.25500000920E-02 0.  1.
        2   -1    0    0  501    0  0.00000000000E+00  0.00000000000E+00 -0.26209003992E+04  0.26209003993E+04  0.25500000920E-02 0. -1.
    10030    2    1    2    0    0  0.00000000000E+00  0.00000000000E+00 -0.11668118210E+04  0.40749889775E+04  0.39043674701E+04 0.  0.
        4    1    3    3  502    0  0.13407762064E+03  0.17380895821E+04  0.33367788266E+03  0.17749013341E+04  0.12699999809E+01 0.  1.
       -4    1    3    3    0  502 -0.13407762064E+03 -0.17380895821E+04 -0.15004897037E+04  0.23000876434E+04  0.12699999809E+01 0. -1.
</event>
<event>
 5   0  0.3690572E-08  0.3901475E+04  0.7818609E-02  0.8024722E-01
       -2   -1    0    0    0  501  0.00000000000E+00  0.00000000000E+00  0.33217955629E+04  0.33217955629E+04  0.25500000920E-02 0.  1.
        2   -1    0    0  501    0  0.00000000000E+00  0.00000000000E+00 -0.11455785255E+04  0.11455785255E+04  0.25500000920E-02 0. -1.
    10030    2    1    2    0    0  0.00000000000E+00  0.00000000000E+00  0.21762170374E+04  0.44673740884E+04  0.39014754455E+04 0.  0.
        3    1    3    3  502    0  0.50848236487E+03  0.45634853537E+03  0.31803106686E+04  0.32528732315E+04  0.10100000352E+00 0.  1.
       -3    1    3    3    0  502 -0.50848236487E+03 -0.45634853537E+03 -0.10040936312E+04  0.12145008569E+04  0.10100000352E+00 0. -1.
</event>
<event>
 5   0  0.1164500E-08  0.3895445E+04  0.7818609E-02  0.8025977E-01
       -1   -1    0    0    0  501  0.00000000000E+00  0.00000000000E+00  0.33999311130E+04  0.33999311130E+04  0.50400001928E-02 0. -1.
        1   -1    0    0  501    0  0.00000000000E+00  0.00000000000E+00 -0.11157937953E+04  0.11157937953E+04  0.50400001928E-02 0.  1.
    10030    2    1    2    0    0  0.00000000000E+00  0.00000000000E+00  0.22841373177E+04  0.45157249082E+04  0.38954445395E+04 0.  0.
        2    1    3    3  502    0 -0.13983605323E+04 -0.50447708228E+03 -0.31677467901E+03  0.15199524670E+04  0.25500000920E-02 0.  1.
       -2    1    3    3    0  502  0.13983605323E+04  0.50447708228E+03  0.26009119967E+04  0.29957724412E+04  0.25500000920E-02 0. -1.
</event>
<event>
 5   0  0.3872969E-08  0.3900124E+04  0.7818609E-02  0.8025003E-01
        2   -1    0    0  501    0  0.00000000000E+00  0.00000000000E+00  0.17104465339E+04  0.17104465339E+04  0.25500000920E-02 0. -1.
       -2   -1    0    0    0  501  0.00000000000E+00  0.00000000000E+00 -0.22232446413E+04  0.22232446413E+04  0.25500000920E-02 0.  1.
    10030    2    1    2    0    0  0.00000000000E+00  0.00000000000E+00 -0.51279810736E+03  0.39336911751E+04  0.39001236343E+04 0.  0.
        2    1    3    3  502    0  0.14354999162E+04 -0.18254953528E+03  0.10620459186E+04  0.17949723885E+04  0.25500000920E-02 0. -1.
       -2    1    3    3    0  502 -0.14354999162E+04  0.18254953528E+03 -0.15748440260E+04  0.21387187867E+04  0.25500000920E-02 0.  1.
</event>
<event>
 5   0  0.1164500E-08  0.3894116E+04  0.7818609E-02  0.8026254E-01
       -1   -1    0    0    0  501  0.00000000000E+00  0.00000000000E+00  0.17933857181E+04  0.17933857181E+04  0.50400001928E-02 0.  1.
        1   -1    0    0  501    0  0.00000000000E+00  0.00000000000E+00 -0.21138980246E+04  0.21138980246E+04  0.50400001928E-02 0. -1.
    10030    2    1    2    0    0  0.00000000000E+00  0.00000000000E+00 -0.32051230651E+03  0.39072837427E+04  0.38941158312E+04 0.  0.
        4    1    3    3  502    0 -0.71178400061E+03  0.15183120834E+04 -0.11531095484E+04  0.20350850817E+04  0.12699999809E+01 0. -1.
       -4    1    3    3    0  502  0.71178400061E+03 -0.15183120834E+04  0.83259724193E+03  0.18721986610E+04  0.12699999809E+01 0.  1.
</event>
<event>
 5   0  0.1164500E-08  0.3900629E+04  0.7818609E-02  0.8024898E-01
       -1   -1    0    0    0  501  0.00000000000E+00  0.00000000000E+00  0.29851749394E+04  0.29851749394E+04  0.50400001928E-02 0. -1.
        1   -1    0    0  501    0  0.00000000000E+00  0.00000000000E+00 -0.12742059332E+04  0.12742059332E+04  0.50400001928E-02 0.  1.
    10030    2    1    2    0    0  0.00000000000E+00  0.00000000000E+00  0.17109690062E+04  0.42593808726E+04  0.39006294977E+04 0.  0.
        4    1    3    3  502    0 -0.12606802590E+03 -0.18092691900E+04  0.72320156135E+02  0.18150977844E+04  0.12699999809E+01 0.  1.
       -4    1    3    3    0  502  0.12606802590E+03  0.18092691900E+04  0.16386488500E+04  0.24442830883E+04  0.12699999809E+01 0. -1.
</event>
<event>
 5   0  0.3724293E-08  0.3889984E+04  0.7818609E-02  0.8027116E-01
        2   -1    0    0  501    0  0.00000000000E+00  0.00000000000E+00  0.20438490751E+04  0.20438490751E+04  0.25500000920E-02 0. -1.
       -2   -1    0    0    0  501  0.00000000000E+00  0.00000000000E+00 -0.18509166994E+04  0.18509166994E+04  0.25500000920E-02 0.  1.
    10030    2    1    2    0    0  0.00000000000E+00  0.00000000000E+00  0.19293237578E+03  0.38947657745E+04  0.38899842592E+04 0.  0.
        4    1    3    3  502    0  0.10006420965E+03  0.14285964813E+03 -0.18430703376E+04  0.18513053793E+04  0.12699999809E+01 0.  1.
       -4    1    3    3    0  502 -0.10006420965E+03 -0.14285964813E+03  0.20360027134E+04  0.20434603952E+04  0.12699999809E+01 0. -1.
</event>
<event>
 5   0  0.1164500E-08  0.3888131E+04  0.7818609E-02  0.8027502E-01
        1   -1    0    0  501    0  0.00000000000E+00  0.00000000000E+00  0.12610710011E+04  0.12610710011E+04  0.50400001928E-02 0. -1.
       -1   -1    0    0    0  501  0.00000000000E+00  0.00000000000E+00 -0.29969696120E+04  0.29969696120E+04  0.50400001928E-02 0.  1.
    10030    2    1    2    0    0  0.00000000000E+00  0.00000000000E+00 -0.17358986109E+04  0.42580406131E+04  0.38881314118E+04 0.  0.
        5    1    3    3  502    0 -0.15732547358E+04 -0.34110164132E+02  0.38217626802E+03  0.16193748044E+04  0.46999998093E+01 0. -1.
       -5    1    3    3    0  502  0.15732547358E+04  0.34110164132E+02 -0.21180748790E+04  0.26386658087E+04  0.46999998093E+01 0.  1.
</event>
<event>
 5   0  0.1164500E-08  0.3945340E+04  0.7818609E-02  0.8015665E-01
        1   -1    0    0  501    0  0.00000000000E+00  0.00000000000E+00  0.13034993000E+04  0.13034993000E+04  0.50400001928E-02 0.  1.
       -1   -1    0    0    0  501  0.00000000000E+00  0.00000000000E+00 -0.29853690088E+04  0.29853690088E+04  0.50400001928E-02 0. -1.
    10030    2    1    2    0    0  0.00000000000E+00  0.00000000000E+00 -0.16818697088E+04  0.42888683088E+04  0.39453397385E+04 0.  0.
        2    1    3    3  502    0 -0.87591895331E+03 -0.35171332772E+03  0.10420828619E+04  0.14060131467E+04  0.25500000920E-02 0.  1.
       -2    1    3    3    0  502  0.87591895331E+03  0.35171332772E+03 -0.27239525707E+04  0.28828551620E+04  0.25500000920E-02 0. -1.
</event>
<event>
 5   0  0.3690572E-08  0.3898606E+04  0.7818609E-02  0.8025319E-01
        2   -1    0    0  501    0  0.00000000000E+00  0.00000000000E+00  0.18516758682E+04  0.18516758682E+04  0.25500000920E-02 0.  1.
       -2   -1    0    0    0  501  0.00000000000E+00  0.00000000000E+00 -0.20520769247E+04  0.20520769247E+04  0.25500000920E-02 0. -1.
    10030    2    1    2    0    0  0.00000000000E+00  0.00000000000E+00 -0.20040105653E+03  0.39037527929E+04  0.38986055564E+04 0.  0.
        3    1    3    3  502    0  0.91076695781E+03 -0.11521206404E+04 -0.13836505369E+04  0.20177629296E+04  0.10100000352E+00 0. -1.
       -3    1    3    3    0  502 -0.91076695781E+03  0.11521206404E+04  0.11832494803E+04  0.18859898633E+04  0.10100000352E+00 0.  1.
</event>
<event>
 5   0  0.3690572E-08  0.3899428E+04  0.7818609E-02  0.8025148E-01
        2   -1    0    0  501    0  0.00000000000E+00  0.00000000000E+00  0.20499032027E+04  0.20499032027E+04  0.25500000920E-02 0.  1.
       -2   -1    0    0    0  501  0.00000000000E+00  0.00000000000E+00 -0.18544214693E+04  0.18544214693E+04  0.25500000920E-02 0. -1.
    10030    2    1    2    0    0  0.00000000000E+00  0.00000000000E+00  0.19548173342E+03  0.39043246720E+04  0.38994279114E+04 0.  0.
        3    1    3    3  502    0 -0.22749782957E+03 -0.97501519287E+03 -0.15773736745E+04  0.18682926987E+04  0.10100000352E+00 0. -1.
       -3    1    3    3    0  502  0.22749782957E+03  0.97501519287E+03  0.17728554079E+04  0.20360319733E+04  0.10100000352E+00 0.  1.
</event>
<event>
 5   0  0.3724293E-08  0.3899705E+04  0.7818609E-02  0.8025091E-01
       -2   -1    0    0    0  501  0.00000000000E+00  0.00000000000E+00  0.19834532870E+04  0.19834532870E+04  0.25500000920E-02 0. -1.
        2   -1    0    0  501    0  0.00000000000E+00  0.00000000000E+00 -0.19168206033E+04  0.19168206033E+04  0.25500000920E-02 0.  1.
    10030    2    1    2    0    0  0.00000000000E+00  0.00000000000E+00  0.66632683687E+02  0.39002738903E+04  0.38997046689E+04 0.  0.
        4    1    3    3  502    0  0.10288701837E+04 -0.15365623159E+04  0.65173086969E+03  0.19607020031E+04  0.12699999809E+01 0. -1.
       -4    1    3    3    0  502 -0.10288701837E+04  0.15365623159E+04 -0.58509818600E+03  0.19395718872E+04  0.12699999809E+01 0.  1.
</event>
<event>
 5   0  0.1164500E-08  0.3864172E+04  0.7818609E-02  0.8032522E-01
        1   -1    0    0  501    0  0.00000000000E+00  0.00000000000E+00  0.19238293257E+04  0.19238293257E+04  0.50400001928E-02 0.  1.
       -1   -1    0    0    0  501  0.00000000000E+00  0.00000000000E+00 -0.19403782710E+04  0.19403782710E+04  0.50400001928E-02 0. -1.
    10030    2    1    2    0    0  0.00000000000E+00  0.00000000000E+00 -0.16548945332E+02  0.38642075967E+04  0.38641721601E+04 0.  0.
        1    1    3    3  502    0  0.52437265113E+03 -0.79300817162E+03  0.16737421363E+04  0.19249003549E+04  0.50400001928E-02 0.  1.
       -1    1    3    3    0  502 -0.52437265113E+03  0.79300817162E+03 -0.16902910816E+04  0.19393072418E+04  0.50400001928E-02 0. -1.
</event>
<event>
 5   0  0.3724293E-08  0.3870595E+04  0.7818609E-02  0.8031173E-01
       -2   -1    0    0    0  501  0.00000000000E+00  0.00000000000E+00  0.15448948650E+04  0.15448948650E+04  0.25500000920E-02 0.  1.
        2   -1    0    0  501    0  0.00000000000E+00  0.00000000000E+00 -0.24243573609E+04  0.24243573609E+04  0.25500000920E-02 0. -1.
    10030    2    1    2    0    0  0.00000000000E+00  0.00000000000E+00 -0.87946249590E+03  0.39692522260E+04  0.38705954260E+04 0.  0.
        4    1    3    3  502    0 -0.90950250992E+02 -0.18239852959E+04  0.21704714333E+03  0.18391045058E+04  0.12699999809E+01 0.  1.
       -4    1    3    3    0  502  0.90950250992E+02  0.18239852959E+04 -0.10965096392E+04  0.21301477202E+04  0.12699999809E+01 0. -1.
</event>
<event>
 5   0  0.1164500E-08  0.3903044E+04  0.7818609E-02  0.8024396E-01
       -1   -1    0    0    0  501  0.00000000000E+00  0.00000000000E+00  0.14919954687E+04  0.14919954687E+04  0.50400001928E-02 0. -1.
        1   -1    0    0  501    0  0.00000000000E+00  0.00000000000E+00 -0.25525796575E+04  0.25525796575E+04  0.50400001928E-02 0.  1.
    10030    2    1    2    0    0  0.00000000000E+00  0.00000000000E+00 -0.10605841888E+04  0.40445751261E+04  0.39030435726E+04 0.  0.
        3    1    3    3  502    0  0.66680396193E+03 -0.11758463897E+04 -0.19888817205E+04  0.24047645964E+04  0.10100000352E+00 0.  1.
       -3    1    3    3    0  502 -0.66680396193E+03  0.11758463897E+04  0.92829753172E+03  0.16398105297E+04  0.10100000352E+00 0. -1.
</event>
<event>
 5   0  0.3690572E-08  0.3891560E+04  0.7818609E-02  0.8026787E-01
        2   -1    0    0  501    0  0.00000000000E+00  0.00000000000E+00  0.21125388340E+04  0.21125388340E+04  0.25500000920E-02 0.  1.
       -2   -1    0    0    0  501  0.00000000000E+00  0.00000000000E+00 -0.17921850160E+04  0.17921850160E+04  0.25500000920E-02 0. -1.
    10030    2    1    2    0    0  0.00000000000E+00  0.00000000000E+00  0.32035381807E+03  0.39047238500E+04  0.38915603267E+04 0.  0.
        3    1    3    3  502    0  0.17453041385E+04  0.35513439903E+03  0.94631512835E+03  0.20168587729E+04  0.10100000352E+00 0.  1.
       -3    1    3    3    0  502 -0.17453041385E+04 -0.35513439903E+03 -0.62596131028E+03  0.18878650771E+04  0.10100000352E+00 0. -1.
</event>
<event>
 5   0  0.3690572E-08  0.3886404E+04  0.7818609E-02  0.8027863E-01
        2   -1    0    0  501    0  0.00000000000E+00  0.00000000000E+00  0.23518609497E+04  0.23518609497E+04  0.25500000920E-02 0.  1.
       -2   -1    0    0    0  501  0.00000000000E+00  0.00000000000E+00 -0.16055515628E+04  0.16055515628E+04  0.25500000920E-02 0. -1.
    10030    2    1    2    0    0  0.00000000000E+00  0.00000000000E+00  0.74630938687E+03  0.39574125125E+04  0.38864040054E+04 0.  0.
        3    1    3    3  502    0  0.15032792230E+04 -0.44495045043E+02  0.16261684169E+04  0.22150060862E+04  0.10100000352E+00 0.  1.
       -3    1    3    3    0  502 -0.15032792230E+04  0.44495045043E+02 -0.87985903008E+03  0.17424064263E+04  0.10100000352E+00 0. -1.
</event>
<event>
 5   0  0.1164500E-08  0.3900281E+04  0.7818609E-02  0.8024971E-01
       -1   -1    0    0    0  501  0.00000000000E+00  0.00000000000E+00  0.14562294633E+04  0.14562294633E+04  0.50400001928E-02 0.  1.
        1   -1    0    0  501    0  0.00000000000E+00  0.00000000000E+00 -0.26115722196E+04  0.26115722196E+04  0.50400001928E-02 0. -1.
    10030    2    1    2    0    0  0.00000000000E+00  0.00000000000E+00 -0.11553427562E+04  0.40678016829E+04  0.39002812267E+04 0.  0.
        1    1    3    3  502    0 -0.13325125891E+04 -0.12223173079E+04  0.18403913865E+03  0.18175587490E+04  0.50400001928E-02 0.  1.
       -1    1    3    3    0  502  0.13325125891E+04  0.12223173079E+04 -0.13393818949E+04  0.22502429340E+04  0.50400001928E-02 0. -1.
</event>
<event>
 5   0  0.1164500E-08  0.3912207E+04  0.7818609E-02  0.8022495E-01
        1   -1    0    0  501    0  0.00000000000E+00  0.00000000000E+00  0.21425333323E+04  0.21425333323E+04  0.50400001928E-02 0. -1.
       -1   -1    0    0    0  501  0.00000000000E+00  0.00000000000E+00 -0.17858953891E+04  0.17858953891E+04  0.50400001928E-02 0.  1.
    10030    2    1    2    0    0  0.00000000000E+00  0.00000000000E+00  0.35663794324E+03  0.39284287214E+04  0.39122067426E+04 0.  0.
        1    1    3    3  502    0 -0.14148648032E+02  0.12740358553E+04 -0.13120769490E+04  0.18289104585E+04  0.50400001928E-02 0.  1.
       -1    1    3    3    0  502  0.14148648032E+02 -0.12740358553E+04  0.16687148923E+04  0.20995182630E+04  0.50400001928E-02 0. -1.
</event>
<event>
 5   0  0.3769985E-08  0.3904650E+04  0.7818609E-02  0.8024063E-01
       -2   -1    0    0    0  501  0.00000000000E+00  0.00000000000E+00  0.16361982012E+04  0.16361982012E+04  0.25500000920E-02 0. -1.
        2   -1    0    0  501    0  0.00000000000E+00  0.00000000000E+00 -0.23295297632E+04  0.23295297632E+04  0.25500000920E-02 0.  1.
    10030    2    1    2    0    0  0.00000000000E+00  0.00000000000E+00 -0.69333156201E+03  0.39657279643E+04  0.39046497451E+04 0.  0.
        1    1    3    3  502    0  0.65936871766E+03  0.10259666780E+04 -0.18950451225E+04  0.22535684473E+04  0.50400001928E-02 0.  1.
       -1    1    3    3    0  502 -0.65936871766E+03 -0.10259666780E+04  0.12017135605E+04  0.17121595170E+04  0.50400001928E-02 0. -1.
</event>
<event>
 5   0  0.1164500E-08  0.3906143E+04  0.7818609E-02  0.8023753E-01
       -1   -1    0    0    0  501  0.00000000000E+00  0.00000000000E+00  0.24316608284E+04  0.24316608284E+04  0.50400001928E-02 0. -1.
        1   -1    0    0  501    0  0.00000000000E+00  0.00000000000E+00 -0.15686762642E+04  0.15686762642E+04  0.50400001928E-02 0.  1.
    10030    2    1    2    0    0  0.00000000000E+00  0.00000000000E+00  0.86298456421E+03  0.40003370926E+04  0.39061431741E+04 0.  0.
        4    1    3    3  502    0 -0.17793752125E+04 -0.79062835376E+03  0.27544444488E+03  0.19665046646E+04  0.12699999809E+01 0.  1.
       -4    1    3    3    0  502  0.17793752125E+04  0.79062835376E+03  0.58754011933E+03  0.20338324281E+04  0.12699999809E+01 0. -1.
</event>
<event>
 5   0  0.3669347E-08  0.3880096E+04  0.7818609E-02  0.8029182E-01
        2   -1    0    0  501    0  0.00000000000E+00  0.00000000000E+00  0.24436093614E+04  0.24436093614E+04  0.25500000920E-02 0.  1.
       -2   -1    0    0    0  501  0.00000000000E+00  0.00000000000E+00 -0.15402565802E+04  0.15402565802E+04  0.25500000920E-02 0. -1.
    10030    2    1    2    0    0  0.00000000000E+00  0.00000000000E+00  0.90335278113E+03  0.39838659416E+04  0.38800955650E+04 0.  0.
        5    1    3    3  502    0  0.16996189049E+04 -0.62311640485E+03  0.11680355406E+04  0.21543694182E+04  0.46999998093E+01 0.  1.
       -5    1    3    3    0  502 -0.16996189049E+04  0.62311640485E+03 -0.26468275950E+03  0.18294965234E+04  0.46999998093E+01 0. -1.
</event>
<event>
 5   0  0.1164500E-08  0.3906200E+04  0.7818609E-02  0.8023741E-01
        1   -1    0    0  501    0  0.00000000000E+00  0.00000000000E+00  0.19439804408E+04  0.19439804408E+04  0.50400001928E-02 0. -1.
       -1   -1    0    0    0  501  0.00000000000E+00  0.00000000000E+00 -0.19622622778E+04  0.19622622778E+04  0.50400001928E-02 0.  1.
    10030    2    1    2    0    0  0.00000000000E+00  0.00000000000E+00 -0.18281836952E+02  0.39062427186E+04  0.39061999374E+04 0.  0.
        2    1    3    3  502    0  0.15618140067E+04  0.57993377923E+02 -0.11804663713E+04  0.19586033486E+04  0.25500000920E-02 0.  1.
       -2    1    3    3    0  502 -0.15618140067E+04 -0.57993377923E+02  0.11621845344E+04  0.19476393699E+04  0.25500000920E-02 0. -1.
</event>
<event>
 5   0  0.1164500E-08  0.3902185E+04  0.7818609E-02  0.8024575E-01
       -1   -1    0    0    0  501  0.00000000000E+00  0.00000000000E+00  0.13064244447E+04  0.13064244447E+04  0.50400001928E-02 0.  1.
        1   -1    0    0  501    0  0.00000000000E+00  0.00000000000E+00 -0.29138784290E+04  0.29138784290E+04  0.50400001928E-02 0. -1.
    10030    2    1    2    0    0  0.00000000000E+00  0.00000000000E+00 -0.16074539843E+04  0.42203028737E+04  0.39021850333E+04 0.  0.
        5    1    3    3  502    0 -0.65153066960E+03 -0.88984152184E+03  0.93696396056E+03  0.14471467447E+04  0.46999998093E+01 0.  1.
       -5    1    3    3    0  502  0.65153066960E+03  0.88984152184E+03 -0.25444179448E+04  0.27731561289E+04  0.46999998093E+01 0. -1.
</event>
<event>
 5   0  0.1164500E-08  0.3903248E+04  0.7818609E-02  0.8024354E-01
       -1   -1    0    0    0  501  0.00000000000E+00  0.00000000000E+00  0.16829853324E+04  0.16829853324E+04  0.50400001928E-02 0. -1.
        1   -1    0    0  501    0  0.00000000000E+00  0.00000000000E+00 -0.22631430440E+04  0.22631430440E+04  0.50400001928E-02 0.  1.
    10030    2    1    2    0    0  0.00000000000E+00  0.00000000000E+00 -0.58015771164E+03  0.39461283764E+04  0.39032481592E+04 0.  0.
        3    1    3    3  502    0 -0.23441697861E+03  0.41485359567E+02 -0.22484092431E+04  0.22609768884E+04  0.10100000352E+00 0.  1.
       -3    1    3    3    0  502  0.23441697861E+03 -0.41485359567E+02  0.16682515315E+04  0.16851514880E+04  0.10100000352E+00 0. -1.
</event>
<event>
 5   0  0.3669347E-08  0.3903180E+04  0.7818609E-02  0.8024368E-01
        2   -1    0    0  501    0  0.00000000000E+00  0.00000000000E+00  0.22213996476E+04  0.22213996476E+04  0.25500000920E-02 0. -1.
       -2   -1    0    0    0  501  0.00000000000E+00  0.00000000000E+00 -0.17145516400E+04  0.17145516400E+04  0.25500000920E-02 0.  1.
    10030    2    1    2    0    0  0.00000000000E+00  0.00000000000E+00  0.50684800761E+03  0.39359512876E+04  0.39031804514E+04 0.  0.
        5    1    3    3  502    0 -0.13353509576E+04 -0.11147425640E+03 -0.11773237477E+04  0.17837325996E+04  0.46999998093E+01 0.  1.
       -5    1    3    3    0  502  0.13353509576E+04  0.11147425640E+03  0.16841717553E+04  0.21522186881E+04  0.46999998093E+01 0. -1.
</event>
<event>
 5   0  0.1164500E-08  0.3904555E+04  0.7818609E-02  0.8024082E-01
       -1   -1    0    0    0  501  0.00000000000E+00  0.00000000000E+00  0.21172381530E+04  0.21172381530E+04  0.50400001928E-02 0. -1.
        1   -1    0    0  501    0  0.00000000000E+00  0.00000000000E+00 -0.18001697145E+04  0.18001697145E+04  0.50400001928E-02 0.  1.
    10030    2    1    2    0    0  0.00000000000E+00  0.00000000000E+00  0.31706843847E+03  0.39174078675E+04  0.39045552891E+04 0.  0.
        2    1    3    3  502    0  0.72843967496E+03  0.11138534693E+04  0.15915544223E+04  0.20746901914E+04  0.25500000920E-02 0. -1.
       -2    1    3    3    0  502 -0.72843967496E+03 -0.11138534693E+04 -0.12744859838E+04  0.18427176761E+04  0.25500000920E-02 0.  1.
</event>
<event>
 5   0  0.1164500E-08  0.3915193E+04  0.7818609E-02  0.8021877E-01
        1   -1    0    0  501    0  0.00000000000E+00  0.00000000000E+00  0.22980206453E+04  0.22980206453E+04  0.50400001928E-02 0.  1.
       -1   -1    0    0    0  501  0.00000000000E+00  0.00000000000E+00 -0.16676017581E+04  0.16676017581E+04  0.50400001928E-02 0. -1.
    10030    2    1    2    0    0  0.00000000000E+00  0.00000000000E+00  0.63041888717E+03  0.39656224034E+04  0.39151925972E+04 0.  0.
        3    1    3    3  502    0 -0.14994314922E+04 -0.36620633855E+03  0.15347871776E+04  0.21766886716E+04  0.10100000352E+00 0.  1.
       -3    1    3    3    0  502  0.14994314922E+04  0.36620633855E+03 -0.90436829043E+03  0.17889337319E+04  0.10100000352E+00 0. -1.
</event>
<event>
 5   0  0.3690572E-08  0.3901732E+04  0.7818609E-02  0.8024669E-01
        2   -1    0    0  501    0  0.00000000000E+00  0.00000000000E+00  0.17409919424E+04  0.17409919424E+04  0.25500000920E-02 0. -1.
       -2   -1    0    0    0  501  0.00000000000E+00  0.00000000000E+00 -0.21860405287E+04  0.21860405287E+04  0.25500000920E-02 0.  1.
    10030    2    1    2    0    0  0.00000000000E+00  0.00000000000E+00 -0.44504858634E+03  0.39270324711E+04  0.39017324082E+04 0.  0.
        3    1    3    3  502    0  0.13448284099E+04 -0.10705761817E+04 -0.11511020114E+04  0.20687514746E+04  0.10100000352E+00 0.  1.
       -3    1    3    3    0  502 -0.13448284099E+04  0.10705761817E+04  0.70605342502E+03  0.18582809965E+04  0.10100000352E+00 0. -1.
</event>
<event>
 5   0  0.3669347E-08  0.3906469E+04  0.7818609E-02  0.8023685E-01
       -2   -1    0    0    0  501  0.00000000000E+00  0.00000000000E+00  0.17764175579E+04  0.17764175579E+04  0.25500000920E-02 0.  1.
        2   -1    0    0  501    0  0.00000000000E+00  0.00000000000E+00 -0.21476513234E+04  0.21476513234E+04  0.25500000920E-02 0. -1.
    10030    2    1    2    0    0  0.00000000000E+00  0.00000000000E+00 -0.37123376551E+03  0.39240688814E+04  0.39064692597E+04 0.  0.
        5    1    3    3  502    0  0.13144020311E+04 -0.34683490245E+02  0.12652753487E+04  0.18247738057E+04  0.46999998093E+01 0.  1.
       -5    1    3    3    0  502 -0.13144020311E+04  0.34683490245E+02 -0.16365091142E+04  0.20992950757E+04  0.46999998093E+01 0. -1.
</event>
<event>
 5   0  0.3769985E-08  0.3908757E+04  0.7818609E-02  0.8023210E-01
        2   -1    0    0  501    0  0.00000000000E+00  0.00000000000E+00  0.19480516015E+04  0.19480516016E+04  0.25500000920E-02 0. -1.
       -2   -1    0    0    0  501  0.00000000000E+00  0.00000000000E+00 -0.19607263062E+04  0.19607263062E+04  0.25500000920E-02 0.  1.
    10030    2    1    2    0    0  0.00000000000E+00  0.00000000000E+00 -0.12674704688E+02  0.39087779078E+04  0.39087573581E+04 0.  0.
        1    1    3    3  502    0 -0.10376621152E+03 -0.18481878421E+04  0.62058722624E+03  0.19523560720E+04  0.50400001928E-02 0.  1.
       -1    1    3    3    0  502  0.10376621152E+03  0.18481878421E+04 -0.63326193093E+03  0.19564218358E+04  0.50400001928E-02 0. -1.
</event>
<event>
 5   0  0.1164500E-08  0.3900964E+04  0.7818609E-02  0.8024829E-01
       -1   -1    0    0    0  501  0.00000000000E+00  0.00000000000E+00  0.12494945401E+04  0.12494945401E+04  0.50400001928E-02 0. -1.
        1   -1    0    0  501    0  0.00000000000E+00  0.00000000000E+00 -0.30447359453E+04  0.30447359453E+04  0.50400001928E-02 0.  1.
    10030    2    1    2    0    0  0.00000000000E+00  0.00000000000E+00 -0.17952414052E+04  0.42942304854E+04  0.39009644652E+04 0.  0.
        4    1    3    3  502    0 -0.11667456351E+03 -0.12772253625E+04  0.72003507825E+03  0.14708397966E+04  0.12699999809E+01 0. -1.
       -4    1    3    3    0  502  0.11667456351E+03  0.12772253625E+04 -0.25152764835E+04  0.28233906888E+04  0.12699999809E+01 0.  1.
</event>
<event>
 5   0  0.1164500E-08  0.3911879E+04  0.7818609E-02  0.8022563E-01
       -1   -1    0    0    0  501  0.00000000000E+00  0.00000000000E+00  0.15148859900E+04  0.15148859900E+04  0.50400001928E-02 0. -1.
        1   -1    0    0  501    0  0.00000000000E+00  0.00000000000E+00 -0.25254043673E+04  0.25254043673E+04  0.50400001928E-02 0.  1.
    10030    2    1    2    0    0  0.00000000000E+00  0.00000000000E+00 -0.10105183773E+04  0.40402903573E+04  0.39118791878E+04 0.  0.
        5    1    3    3  502    0  0.94582688487E+02  0.18203657288E+04 -0.12377653461E+04  0.22033525395E+04  0.46999998093E+01 0.  1.
       -5    1    3    3    0  502 -0.94582688487E+02 -0.18203657288E+04  0.22724696884E+03  0.18369378177E+04  0.46999998093E+01 0. -1.
</event>
<event>
 5   0  0.1164500E-08  0.3898650E+04  0.7818609E-02  0.8025310E-01
        1   -1    0    0  501    0  0.00000000000E+00  0.00000000000E+00  0.27518702934E+04  0.27518702934E+04  0.50400001928E-02 0.  1.
       -1   -1    0    0    0  501  0.00000000000E+00  0.00000000000E+00 -0.13808312666E+04  0.13808312667E+04  0.50400001928E-02 0. -1.
    10030    2    1    2    0    0  0.00000000000E+00  0.00000000000E+00  0.13710390267E+04  0.41327015600E+04  0.38986503013E+04 0.  0.
        3    1    3    3  502    0  0.91176756796E+02  0.16248273436E+04  0.18230161425E+04  0.24437194936E+04  0.10100000352E+00 0. -1.
       -3    1    3    3    0  502 -0.91176756796E+02 -0.16248273436E+04 -0.45197711576E+03  0.16889820664E+04  0.10100000352E+00 0.  1.
</event>
<event>
 5   0  0.3872969E-08  0.3888822E+04  0.7818609E-02  0.8027358E-01
       -2   -1    0    0    0  501  0.00000000000E+00  0.00000000000E+00  0.13927409140E+04  0.13927409140E+04  0.25500000920E-02 0.  1.
        2   -1    0    0  501    0  0.00000000000E+00  0.00000000000E+00 -0.27145993078E+04  0.27145993078E+04  0.25500000920E-02 0. -1.
    10030    2    1    2    0    0  0.00000000000E+00  0.00000000000E+00 -0.13218583938E+04  0.41073402218E+04  0.38888216832E+04 0.  0.
        2    1    3    3  502    0 -0.75100682454E+03 -0.59940146968E+03  0.11244530818E+04  0.14790835357E+04  0.25500000920E-02 0.  1.
       -2    1    3    3    0  502  0.75100682454E+03  0.59940146968E+03 -0.24463114756E+04  0.26282566861E+04  0.25500000920E-02 0. -1.
</event>
<event>
 5   0  0.1164500E-08  0.3887495E+04  0.7818609E-02  0.8027635E-01
        1   -1    0    0  501    0  0.00000000000E+00  0.00000000000E+00  0.19244527307E+04  0.19244527307E+04  0.50400001928E-02 0.  1.
       -1   -1    0    0    0  501  0.00000000000E+00  0.00000000000E+00 -0.19632359284E+04  0.19632359284E+04  0.50400001928E-02 0. -1.
    10030    2    1    2    0    0  0.00000000000E+00  0.00000000000E+00 -0.38783197746E+02  0.38876886591E+04  0.38874952056E+04 0.  0.
        3    1    3    3  502    0 -0.10076811148E+04  0.15859619723E+04 -0.51686798594E+03  0.19488071048E+04  0.10100000352E+00 0. -1.
       -3    1    3    3    0  502  0.10076811148E+04 -0.15859619723E+04  0.47808478820E+03  0.19388815543E+04  0.10100000352E+00 0.  1.
</event>
<event>
 5   0  0.1164500E-08  0.3914311E+04  0.7818609E-02  0.8022059E-01
        1   -1    0    0  501    0  0.00000000000E+00  0.00000000000E+00  0.21023779745E+04  0.21023779745E+04  0.50400001928E-02 0.  1.
       -1   -1    0    0    0  501  0.00000000000E+00  0.00000000000E+00 -0.18219644423E+04  0.18219644424E+04  0.50400001928E-02 0. -1.
    10030    2    1    2    0    0  0.00000000000E+00  0.00000000000E+00  0.28041353218E+03  0.39243424169E+04  0.39143111343E+04 0.  0.
        2    1    3    3  502    0 -0.12745859805E+04  0.12613619593E+04  0.92634284692E+03  0.20183444909E+04  0.25500000920E-02 0.  1.
       -2    1    3    3    0  502  0.12745859805E+04 -0.12613619593E+04 -0.64592931474E+03  0.19059979259E+04  0.25500000920E-02 0. -1.
</event>
<event>
 5   0  0.1164500E-08  0.3903083E+04  0.7818609E-02  0.8024388E-01
       -1   -1    0    0    0  501  0.00000000000E+00  0.00000000000E+00  0.27470331711E+04  0.27470331711E+04  0.50400001928E-02 0.  1.
        1   -1    0    0  501    0  0.00000000000E+00  0.00000000000E+00 -0.13864097599E+04  0.13864097599E+04  0.50400001928E-02 0. -1.
    10030    2    1    2    0    0  0.00000000000E+00  0.00000000000E+00  0.13606234112E+04  0.41334429310E+04  0.39030826787E+04 0.  0.
        4    1    3    3  502    0  0.58957907760E+03 -0.13557208763E+04 -0.66881894529E+03  0.16226222535E+04  0.12699999809E+01 0. -1.
       -4    1    3    3    0  502 -0.58957907760E+03  0.13557208763E+04  0.20294423565E+04  0.25108206775E+04  0.12699999809E+01 0.  1.
</event>
<event>
 5   0  0.3690572E-08  0.3903541E+04  0.7818609E-02  0.8024293E-01
       -2   -1    0    0    0  501  0.00000000000E+00  0.00000000000E+00  0.16717912741E+04  0.16717912741E+04  0.25500000920E-02 0.  1.
        2   -1    0    0  501    0  0.00000000000E+00  0.00000000000E+00 -0.22786386766E+04  0.22786386766E+04  0.25500000920E-02 0. -1.
    10030    2    1    2    0    0  0.00000000000E+00  0.00000000000E+00 -0.60684740251E+03  0.39504299507E+04  0.39035410880E+04 0.  0.
        3    1    3    3  502    0  0.37753387561E+03  0.19087649777E+04 -0.45853801731E+03  0.19990429437E+04  0.10100000352E+00 0. -1.
       -3    1    3    3    0  502 -0.37753387561E+03 -0.19087649777E+04 -0.14830938519E+03  0.19513870070E+04  0.10100000352E+00 0.  1.
</event>
<event>
 5   0  0.3690572E-08  0.3912894E+04  0.7818609E-02  0.8022353E-01
       -2   -1    0    0    0  501  0.00000000000E+00  0.00000000000E+00  0.14533868880E+04  0.14533868880E+04  0.25500000920E-02 0.  1.
        2   -1    0    0  501    0  0.00000000000E+00  0.00000000000E+00 -0.26336305189E+04  0.26336305189E+04  0.25500000920E-02 0. -1.
    10030    2    1    2    0    0  0.00000000000E+00  0.00000000000E+00 -0.11802436309E+04  0.40870174069E+04  0.39128935912E+04 0.  0.
        3    1    3    3  502    0  0.26691049258E+03  0.93883557365E+03 -0.23611671819E+04  0.25549489068E+04  0.10100000352E+00 0. -1.
       -3    1    3    3    0  502 -0.26691049258E+03 -0.93883557365E+03  0.11809235510E+04  0.15320685001E+04  0.10100000352E+00 0.  1.
</event>
<event>
 5   0  0.1164500E-08  0.3908186E+04  0.7818609E-02  0.8023329E-01
        1   -1    0    0  501    0  0.00000000000E+00  0.00000000000E+00  0.20909058223E+04  0.20909058223E+04  0.50400001928E-02 0. -1.
       -1   -1    0    0    0  501  0.00000000000E+00  0.00000000000E+00 -0.18262317852E+04  0.18262317852E+04  0.50400001928E-02 0.  1.
    10030    2    1    2    0    0  0.00000000000E+00  0.00000000000E+00  0.26467403713E+03  0.39171376075E+04  0.39081856008E+04 0.  0.
        2    1    3    3  502    0  0.10522290761E+04  0.16201460805E+04 -0.16230798070E+03  0.19386601640E+04  0.25500000920E-02 0.  1.
       -2    1    3    3    0  502 -0.10522290761E+04 -0.16201460805E+04  0.42698201783E+03  0.19784774435E+04  0.25500000920E-02 0. -1.
</event>
<event>
 5   0  0.1164500E-08  0.3898573E+04  0.7818609E-02  0.8025326E-01
        3   -1    0    0  501    0  0.00000000000E+00  0.00000000000E+00  0.14406314188E+04  0.14406314223E+04  0.10100000352E+00 0. -1.
       -3   -1    0    0    0  501  0.00000000000E+00  0.00000000000E+00 -0.26375359732E+04  0.26375359752E+04  0.10100000352E+00 0.  1.
    10030    2    1    2    0    0  0.00000000000E+00  0.00000000000E+00 -0.11969045545E+04  0.40781673975E+04  0.38985726631E+04 0.  0.
        4    1    3    3  502    0 -0.88668475503E+03  0.79714321126E+02 -0.24124513445E+04  0.25714757106E+04  0.12699999809E+01 0.  1.
       -4    1    3    3    0  502  0.88668475503E+03 -0.79714321126E+02  0.12155467900E+04  0.15066916869E+04  0.12699999809E+01 0. -1.
</event>
<event>
 5   0  0.3669347E-08  0.3883396E+04  0.7818609E-02  0.8028491E-01
        2   -1    0    0  501    0  0.00000000000E+00  0.00000000000E+00  0.21180899341E+04  0.21180899341E+04  0.25500000920E-02 0.  1.
       -2   -1    0    0    0  501  0.00000000000E+00  0.00000000000E+00 -0.17799954701E+04  0.17799954702E+04  0.25500000920E-02 0. -1.
    10030    2    1    2    0    0  0.00000000000E+00  0.00000000000E+00  0.33809446398E+03  0.38980854043E+04  0.38833956729E+04 0.  0.
        5    1    3    3  502    0  0.12171600284E+04  0.13351980481E+04  0.88302964502E+03  0.20109688726E+04  0.46999998093E+01 0.  1.
       -5    1    3    3    0  502 -0.12171600284E+04 -0.13351980481E+04 -0.54493518103E+03  0.18871165317E+04  0.46999998093E+01 0. -1.
</event>
<event>
 5   0  0.3769985E-08  0.3889994E+04  0.7818609E-02  0.8027114E-01
       -2   -1    0    0    0  501  0.00000000000E+00  0.00000000000E+00  0.22412700173E+04  0.22412700173E+04  0.25500000920E-02 0. -1.
        2   -1    0    0  501    0  0.00000000000E+00  0.00000000000E+00 -0.16878881649E+04  0.16878881649E+04  0.25500000920E-02 0.  1.
    10030    2    1    2    0    0  0.00000000000E+00  0.00000000000E+00  0.55338185234E+03  0.39291581822E+04  0.38899939006E+04 0.  0.
        1    1    3    3  502    0  0.98402662470E+03 -0.15792954133E+04  0.84854528159E+03  0.20451189441E+04  0.50400001928E-02 0. -1.
       -1    1    3    3    0  502 -0.98402662470E+03  0.15792954133E+04 -0.29516342926E+03  0.18840392381E+04  0.50400001928E-02 0.  1.
</event>
<event>
 5   0  0.1164500E-08  0.3906119E+04  0.7818609E-02  0.8023758E-01
       -1   -1    0    0    0  501  0.00000000000E+00  0.00000000000E+00  0.18985885728E+04  0.18985885728E+04  0.50400001928E-02 0.  1.
        1   -1    0    0  501    0  0.00000000000E+00  0.00000000000E+00 -0.20090936678E+04  0.20090936678E+04  0.50400001928E-02 0. -1.
    10030    2    1    2    0    0  0.00000000000E+00  0.00000000000E+00 -0.11050509503E+03  0.39076822406E+04  0.39061194448E+04 0.  0.
        4    1    3    3  502    0  0.13623490522E+04 -0.10517934357E+04 -0.97875583635E+03  0.19799568105E+04  0.12699999809E+01 0. -1.
       -4    1    3    3    0  502 -0.13623490522E+04  0.10517934357E+04  0.86825074132E+03  0.19277254301E+04  0.12699999809E+01 0.  1.
</event>
<event>
 5   0  0.3724293E-08  0.3926433E+04  0.7818609E-02  0.8019554E-01
        2   -1    0    0  501    0  0.00000000000E+00  0.00000000000E+00  0.21787469599E+04  0.21787469599E+04  0.25500000920E-02 0. -1.
       -2   -1    0    0    0  501  0.00000000000E+00  0.00000000000E+00 -0.17690067452E+04  0.17690067453E+04  0.25500000920E-02 0.  1.
    10030    2    1    2    0    0  0.00000000000E+00  0.00000000000E+00  0.40974021467E+03  0.39477537052E+04  0.39264325122E+04 0.  0.
        4    1    3    3  502    0  0.17545824706E+04  0.40806672535E+03 -0.57984115614E+03  0.18924311025E+04  0.12699999809E+01 0.  1.
       -4    1    3    3    0  502 -0.17545824706E+04 -0.40806672535E+03  0.98958137080E+03  0.20553226026E+04  0.12699999809E+01 0. -1.
</event>
<event>
 5   0  0.3690572E-08  0.3938576E+04  0.7818609E-02  0.8017054E-01
        2   -1    0    0  501    0  0.00000000000E+00  0.00000000000E+00  0.18764604529E+04  0.18764604529E+04  0.25500000920E-02 0. -1.
       -2   -1    0    0    0  501  0.00000000000E+00  0.00000000000E+00 -0.20667078067E+04  0.20667078067E+04  0.25500000920E-02 0.  1.
    10030    2    1    2    0    0  0.00000000000E+00  0.00000000000E+00 -0.19024735377E+03  0.39431682596E+04  0.39385761219E+04 0.  0.
        3    1    3    3  502    0  0.15839057138E+04  0.98353703822E+03 -0.72989212763E+03  0.20022100149E+04  0.10100000352E+00 0.  1.
       -3    1    3    3    0  502 -0.15839057138E+04 -0.98353703822E+03  0.53964477386E+03  0.19409582447E+04  0.10100000352E+00 0. -1.
</event>
<event>
 5   0  0.3669347E-08  0.3897001E+04  0.7818609E-02  0.8025653E-01
        2   -1    0    0  501    0  0.00000000000E+00  0.00000000000E+00  0.13096123505E+04  0.13096123505E+04  0.25500000920E-02 0.  1.
       -2   -1    0    0    0  501  0.00000000000E+00  0.00000000000E+00 -0.28990668184E+04  0.28990668184E+04  0.25500000920E-02 0. -1.
    10030    2    1    2    0    0  0.00000000000E+00  0.00000000000E+00 -0.15894544679E+04  0.42086791689E+04  0.38970007495E+04 0.  0.
        5    1    3    3  502    0  0.19217971379E+04 -0.13367919623E+02 -0.11415816017E+04  0.22353329918E+04  0.46999998093E+01 0. -1.
       -5    1    3    3    0  502 -0.19217971379E+04  0.13367919623E+02 -0.44787286620E+03  0.19733461772E+04  0.46999998093E+01 0.  1.
</event>
<event>
 5   0  0.3669347E-08  0.3894205E+04  0.7818609E-02  0.8026236E-01
        2   -1    0    0  501    0  0.00000000000E+00  0.00000000000E+00  0.21999907630E+04  0.21999907630E+04  0.25500000920E-02 0.  1.
       -2   -1    0    0    0  501  0.00000000000E+00  0.00000000000E+00 -0.17232832764E+04  0.17232832764E+04  0.25500000920E-02 0. -1.
    10030    2    1    2    0    0  0.00000000000E+00  0.00000000000E+00  0.47670748660E+03  0.39232740393E+04  0.38942045606E+04 0.  0.
        5    1    3    3  502    0  0.56220538559E+03  0.10874148362E+03 -0.16365286757E+04  0.17338246169E+04  0.46999998093E+01 0. -1.
       -5    1    3    3    0  502 -0.56220538559E+03 -0.10874148362E+03  0.21132361623E+04  0.21894494224E+04  0.46999998093E+01 0.  1.
</event>
<event>
 5   0  0.3669347E-08  0.3898956E+04  0.7818609E-02  0.8025246E-01
       -2   -1    0    0    0  501  0.00000000000E+00  0.00000000000E+00  0.17636193435E+04  0.17636193436E+04  0.25500000920E-02 0.  1.
        2   -1    0    0  501    0  0.00000000000E+00  0.00000000000E+00 -0.21549231236E+04  0.21549231236E+04  0.25500000920E-02 0. -1.
    10030    2    1    2    0    0  0.00000000000E+00  0.00000000000E+00 -0.39130378004E+03  0.39185424671E+04  0.38989558113E+04 0.  0.
        5    1    3    3  502    0  0.13013393002E+04  0.81812867094E+03  0.10093808013E+04  0.18389372443E+04  0.46999998093E+01 0.  1.
       -5    1    3    3    0  502 -0.13013393002E+04 -0.81812867094E+03 -0.14006845813E+04  0.20796052228E+04  0.46999998093E+01 0. -1.
</event>
<event>
 5   0  0.1164500E-08  0.3898780E+04  0.7818609E-02  0.8025283E-01
        1   -1    0    0  501    0  0.00000000000E+00  0.00000000000E+00  0.12072748620E+04  0.12072748621E+04  0.50400001928E-02 0.  1.
       -1   -1    0    0    0  501  0.00000000000E+00  0.00000000000E+00 -0.31476854736E+04  0.31476854736E+04  0.50400001928E-02 0. -1.
    10030    2    1    2    0    0  0.00000000000E+00  0.00000000000E+00 -0.19404106116E+04  0.43549603357E+04  0.38987800892E+04 0.  0.
        5    1    3    3  502    0  0.97572882808E+03  0.14362021942E+04 -0.19601120160E+04  0.26185462940E+04  0.46999998093E+01 0. -1.
       -5    1    3    3    0  502 -0.97572882808E+03 -0.14362021942E+04  0.19701404425E+02  0.17364140417E+04  0.46999998093E+01 0.  1.
</event>
<event>
 5   0  0.3769985E-08  0.3872558E+04  0.7818609E-02  0.8030761E-01
       -2   -1    0    0    0  501  0.00000000000E+00  0.00000000000E+00  0.22064856080E+04  0.22064856080E+04  0.25500000920E-02 0.  1.
        2   -1    0    0  501    0  0.00000000000E+00  0.00000000000E+00 -0.16991616199E+04  0.16991616199E+04  0.25500000920E-02 0. -1.
    10030    2    1    2    0    0  0.00000000000E+00  0.00000000000E+00  0.50732398809E+03  0.39056472279E+04  0.38725576354E+04 0.  0.
        1    1    3    3  502    0 -0.12573292145E+04  0.13681580636E+04  0.80277951120E+03  0.20241512256E+04  0.50400001928E-02 0.  1.
       -1    1    3    3    0  502  0.12573292145E+04 -0.13681580636E+04 -0.29545552312E+03  0.18814960023E+04  0.50400001928E-02 0. -1.
</event>
<event>
 5   0  0.1164500E-08  0.3900985E+04  0.7818609E-02  0.8024824E-01
       -1   -1    0    0    0  501  0.00000000000E+00  0.00000000000E+00  0.15059967999E+04  0.15059967999E+04  0.50400001928E-02 0.  1.
        1   -1    0    0  501    0  0.00000000000E+00  0.00000000000E+00 -0.25261813415E+04  0.25261813415E+04  0.50400001928E-02 0. -1.
    10030    2    1    2    0    0  0.00000000000E+00  0.00000000000E+00 -0.10201845416E+04  0.40321781414E+04  0.39009850121E+04 0.  0.
        2    1    3    3  502    0  0.11905918469E+04 -0.43330381950E+03  0.10227371594E+04  0.16282666991E+04  0.25500000920E-02 0.  1.
       -2    1    3    3    0  502 -0.11905918469E+04  0.43330381950E+03 -0.20429217010E+04  0.24039114423E+04  0.25500000920E-02 0. -1.
</event>
<event>
 5   0  0.1164500E-08  0.3901908E+04  0.7818609E-02  0.8024632E-01
        1   -1    0    0  501    0  0.00000000000E+00  0.00000000000E+00  0.22911164867E+04  0.22911164867E+04  0.50400001928E-02 0. -1.
       -1   -1    0    0    0  501  0.00000000000E+00  0.00000000000E+00 -0.16612958681E+04  0.16612958681E+04  0.50400001928E-02 0.  1.
    10030    2    1    2    0    0  0.00000000000E+00  0.00000000000E+00  0.62982061860E+03  0.39524123548E+04  0.39019084319E+04 0.  0.
        4    1    3    3  502    0 -0.16709361238E+04 -0.48235498130E+03 -0.58057225724E+03  0.18335101899E+04  0.12699999809E+01 0.  1.
       -4    1    3    3    0  502  0.16709361238E+04  0.48235498130E+03  0.12103928758E+04  0.21189021649E+04  0.12699999809E+01 0. -1.
</event>
<event>
 5   0  0.1164500E-08  0.3900717E+04  0.7818609E-02  0.8024880E-01
       -1   -1    0    0    0  501  0.00000000000E+00  0.00000000000E+00  0.17017665959E+04  0.17017665959E+04  0.50400001928E-02 0.  1.
        1   -1    0    0  501    0  0.00000000000E+00  0.00000000000E+00 -0.22352648732E+04  0.22352648733E+04  0.50400001928E-02 0. -1.
    10030    2    1    2    0    0  0.00000000000E+00  0.00000000000E+00 -0.53349827736E+03  0.39370314692E+04  0.39007174183E+04 0.  0.
        3    1    3    3  502    0 -0.31450818584E+03 -0.76441194575E+03 -0.20497333148E+04  0.22101239092E+04  0.10100000352E+00 0. -1.
       -3    1    3    3    0  502  0.31450818584E+03  0.76441194575E+03  0.15162350375E+04  0.17269075600E+04  0.10100000352E+00 0.  1.
</event>
<event>
 5   0  0.3769985E-08  0.3900784E+04  0.7818609E-02  0.8024866E-01
       -2   -1    0    0    0  501  0.00000000000E+00  0.00000000000E+00  0.21196910372E+04  0.21196910372E+04  0.25500000920E-02 0. -1.
        2   -1    0    0  501    0  0.00000000000E+00  0.00000000000E+00 -0.17946150067E+04  0.17946150067E+04  0.25500000920E-02 0.  1.
    10030    2    1    2    0    0  0.00000000000E+00  0.00000000000E+00  0.32507603050E+03  0.39143060439E+04  0.39007842006E+04 0.  0.
        1    1    3    3  502    0  0.89725419885E+03 -0.11877403367E+04 -0.11020833864E+04  0.18521285040E+04  0.50400001928E-02 0.  1.
       -1    1    3    3    0  502 -0.89725419885E+03  0.11877403367E+04  0.14271594169E+04  0.20621775399E+04  0.50400001928E-02 0. -1.
</event>
<event>
 5   0  0.1164500E-08  0.3879781E+04  0.7818609E-02  0.8029248E-01
        1   -1    0    0  501    0  0.00000000000E+00  0.00000000000E+00  0.28693230003E+04  0.28693230003E+04  0.50400001928E-02 0.  1.
       -1   -1    0    0    0  501  0.00000000000E+00  0.00000000000E+00 -0.13115201791E+04  0.13115201791E+04  0.50400001928E-02 0. -1.
    10030    2    1    2    0    0  0.00000000000E+00  0.00000000000E+00  0.15578028212E+04  0.41808431794E+04  0.38797809294E+04 0.  0.
        4    1    3    3  502    0  0.13028558393E+04 -0.12346221716E+04 -0.14029072329E+02  0.17949717748E+04  0.12699999809E+01 0. -1.
       -4    1    3    3    0  502 -0.13028558393E+04  0.12346221716E+04  0.15718318936E+04  0.23858714046E+04  0.12699999809E+01 0.  1.
</event>
<event>
 5   0  0.1164500E-08  0.3901741E+04  0.7818609E-02  0.8024667E-01
       -1   -1    0    0    0  501  0.00000000000E+00  0.00000000000E+00  0.17717931368E+04  0.17717931368E+04  0.50400001928E-02 0. -1.
        1   -1    0    0  501    0  0.00000000000E+00  0.00000000000E+00 -0.21480470982E+04  0.21480470982E+04  0.50400001928E-02 0.  1.
    10030    2    1    2    0    0  0.00000000000E+00  0.00000000000E+00 -0.37625396134E+03  0.39198402350E+04  0.39017406916E+04 0.  0.
        4    1    3    3  502    0 -0.12571786433E+04  0.11652536621E+04  0.74763316152E+03  0.18700992475E+04  0.12699999809E+01 0. -1.
       -4    1    3    3    0  502  0.12571786433E+04 -0.11652536621E+04 -0.11238871229E+04  0.20497409876E+04  0.12699999809E+01 0.  1.
</event>
<event>
 5   0  0.1164500E-08  0.3903510E+04  0.7818609E-02  0.8024300E-01
       -1   -1    0    0    0  501  0.00000000000E+00  0.00000000000E+00  0.35653255330E+04  0.35653255330E+04  0.50400001928E-02 0.  1.
        1   -1    0    0  501    0  0.00000000000E+00  0.00000000000E+00 -0.10684430042E+04  0.10684430042E+04  0.50400001928E-02 0. -1.
    10030    2    1    2    0    0  0.00000000000E+00  0.00000000000E+00  0.24968825288E+04  0.46337685373E+04  0.39035097661E+04 0.  0.
        5    1    3    3  502    0  0.14371830532E+04  0.21053532334E+03  0.27959754864E+04  0.31507651866E+04  0.46999998093E+01 0.  1.
       -5    1    3    3    0  502 -0.14371830532E+04 -0.21053532334E+03 -0.29909295758E+03  0.14830033506E+04  0.46999998093E+01 0. -1.
</event>
<event>
 5   0  0.3872969E-08  0.3895065E+04  0.7818609E-02  0.8026056E-01
        2   -1    0    0  501    0  0.00000000000E+00  0.00000000000E+00  0.26539464639E+04  0.26539464639E+04  0.25500000920E-02 0.  1.
       -2   -1    0    0    0  501  0.00000000000E+00  0.00000000000E+00 -0.14291482108E+04  0.14291482108E+04  0.25500000920E-02 0. -1.
    10030    2    1    2    0    0  0.00000000000E+00  0.00000000000E+00  0.12247982531E+04  0.40830946746E+04  0.38950650009E+04 0.  0.
        2    1    3    3  502    0 -0.56191427841E+03  0.18070543732E+04  0.13009099980E+03  0.18968702729E+04  0.25500000920E-02 0. -1.
       -2    1    3    3    0  502  0.56191427841E+03 -0.18070543732E+04  0.10947072533E+04  0.21862244017E+04  0.25500000920E-02 0.  1.
</event>
<event>
 5   0  0.3724293E-08  0.3881057E+04  0.7818609E-02  0.8028981E-01
       -2   -1    0    0    0  501  0.00000000000E+00  0.00000000000E+00  0.14326133320E+04  0.14326133320E+04  0.25500000920E-02 0. -1.
        2   -1    0    0  501    0  0.00000000000E+00  0.00000000000E+00 -0.26285180964E+04  0.26285180964E+04  0.25500000920E-02 0.  1.
    10030    2    1    2    0    0  0.00000000000E+00  0.00000000000E+00 -0.11959047644E+04  0.40611314285E+04  0.38810565924E+04 0.  0.
        4    1    3    3  502    0  0.25523904068E+03 -0.18245955818E+04  0.39709146692E+02  0.18427898508E+04  0.12699999809E+01 0.  1.
       -4    1    3    3    0  502 -0.25523904068E+03  0.18245955818E+04 -0.12356139111E+04  0.22183415776E+04  0.12699999809E+01 0. -1.
</event>
<event>
 5   0  0.3669347E-08  0.3904597E+04  0.7818609E-02  0.8024074E-01
       -2   -1    0    0    0  501  0.00000000000E+00  0.00000000000E+00  0.15375286297E+04  0.15375286297E+04  0.25500000920E-02 0.  1.
        2   -1    0    0  501    0  0.00000000000E+00  0.00000000000E+00 -0.24789586948E+04  0.24789586948E+04  0.25500000920E-02 0. -1.
    10030    2    1    2    0    0  0.00000000000E+00  0.00000000000E+00 -0.94143006515E+03  0.40164873246E+04  0.39045972725E+04 0.  0.
        5    1    3    3  502    0 -0.75651718875E+03  0.25253712626E+03  0.13623010312E+04  0.15786004709E+04  0.46999998093E+01 0.  1.
       -5    1    3    3    0  502  0.75651718875E+03 -0.25253712626E+03 -0.23037310964E+04  0.24378868537E+04  0.46999998093E+01 0. -1.
</event>
<event>
 5   0  0.3690572E-08  0.3898857E+04  0.7818609E-02  0.8025267E-01
        2   -1    0    0  501    0  0.00000000000E+00  0.00000000000E+00  0.30608573034E+04  0.30608573034E+04  0.25500000920E-02 0.  1.
       -2   -1    0    0    0  501  0.00000000000E+00  0.00000000000E+00 -0.12415711043E+04  0.12415711043E+04  0.25500000920E-02 0. -1.
    10030    2    1    2    0    0  0.00000000000E+00  0.00000000000E+00  0.18192861991E+04  0.43024284077E+04  0.38988572594E+04 0.  0.
        3    1    3    3  502    0  0.16725322356E+04 -0.20591306952E+02 -0.19523666095E+03  0.16840146808E+04  0.10100000352E+00 0.  1.
       -3    1    3    3    0  502 -0.16725322356E+04  0.20591306952E+02  0.20145228600E+04  0.26184137269E+04  0.10100000352E+00 0. -1.
</event>
<event>
 5   0  0.3669347E-08  0.3899161E+04  0.7818609E-02  0.8025204E-01
       -2   -1    0    0    0  501  0.00000000000E+00  0.00000000000E+00  0.15675667082E+04  0.15675667082E+04  0.25500000920E-02 0. -1.
        2   -1    0    0  501    0  0.00000000000E+00  0.00000000000E+00 -0.24246905162E+04  0.24246905162E+04  0.25500000920E-02 0.  1.
    10030    2    1    2    0    0  0.00000000000E+00  0.00000000000E+00 -0.85712380802E+03  0.39922572244E+04  0.38991610025E+04 0.  0.
        5    1    3    3  502    0  0.77000916943E+03  0.92350898582E+03 -0.19998226099E+04  0.23334728473E+04  0.46999998093E+01 0.  1.
       -5    1    3    3    0  502 -0.77000916943E+03 -0.92350898582E+03  0.11426988019E+04  0.16587843771E+04  0.46999998093E+01 0. -1.
</event>
<event>
 5   0  0.3872969E-08  0.3893574E+04  0.7818609E-02  0.8026367E-01
       -2   -1    0    0    0  501  0.00000000000E+00  0.00000000000E+00  0.24216500925E+04  0.24216500925E+04  0.25500000920E-02 0.  1.
        2   -1    0    0  501    0  0.00000000000E+00  0.00000000000E+00 -0.15650399822E+04  0.15650399822E+04  0.25500000920E-02 0. -1.
    10030    2    1    2    0    0  0.00000000000E+00  0.00000000000E+00  0.85661011036E+03  0.39866900747E+04  0.38935737916E+04 0.  0.
        2    1    3    3  502    0 -0.99733806812E+03  0.83421628347E+03 -0.10552699531E+04  0.16745729914E+04  0.25500000920E-02 0. -1.
       -2    1    3    3    0  502  0.99733806812E+03 -0.83421628347E+03  0.19118800634E+04  0.23121170833E+04  0.25500000920E-02 0.  1.
</event>
<event>
 5   0  0.1164500E-08  0.3931840E+04  0.7818609E-02  0.8018440E-01
        1   -1    0    0  501    0  0.00000000000E+00  0.00000000000E+00  0.19745254372E+04  0.19745254372E+04  0.50400001928E-02 0.  1.
       -1   -1    0    0    0  501  0.00000000000E+00  0.00000000000E+00 -0.19573520140E+04  0.19573520141E+04  0.50400001928E-02 0. -1.
    10030    2    1    2    0    0  0.00000000000E+00  0.00000000000E+00  0.17173423198E+02  0.39318774513E+04  0.39318399466E+04 0.  0.
        1    1    3    3  502    0  0.12519197475E+03 -0.17599880332E+04  0.87554967076E+03  0.19697253955E+04  0.50400001928E-02 0.  1.
       -1    1    3    3    0  502 -0.12519197475E+03  0.17599880332E+04 -0.85837624756E+03  0.19621520558E+04  0.50400001928E-02 0. -1.
</event>
<event>
 5   0  0.1164500E-08  0.3904903E+04  0.7818609E-02  0.8024010E-01
       -1   -1    0    0    0  501  0.00000000000E+00  0.00000000000E+00  0.14932203547E+04  0.14932203547E+04  0.50400001928E-02 0.  1.
        1   -1    0    0  501    0  0.00000000000E+00  0.00000000000E+00 -0.25529168427E+04  0.25529168427E+04  0.50400001928E-02 0. -1.
    10030    2    1    2    0    0  0.00000000000E+00  0.00000000000E+00 -0.10596964880E+04  0.40461371974E+04  0.39049032732E+04 0.  0.
        4    1    3    3  502    0  0.81524907732E+03 -0.17422448084E+04 -0.87664397817E+03  0.21138955291E+04  0.12699999809E+01 0. -1.
       -4    1    3    3    0  502 -0.81524907732E+03  0.17422448084E+04 -0.18305250987E+03  0.19322416683E+04  0.12699999809E+01 0.  1.
</event>
<event>
 5   0  0.3724293E-08  0.3898845E+04  0.7818609E-02  0.8025269E-01
       -2   -1    0    0    0  501  0.00000000000E+00  0.00000000000E+00  0.16903727269E+04  0.16903727269E+04  0.25500000920E-02 0.  1.
        2   -1    0    0  501    0  0.00000000000E+00  0.00000000000E+00 -0.22481720430E+04  0.22481720430E+04  0.25500000920E-02 0. -1.
    10030    2    1    2    0    0  0.00000000000E+00  0.00000000000E+00 -0.55779931614E+03  0.39385447699E+04  0.38988453197E+04 0.  0.
        4    1    3    3  502    0 -0.53154634839E+03  0.13463478852E+04 -0.15979723077E+04  0.21560870246E+04  0.12699999809E+01 0. -1.
       -4    1    3    3    0  502  0.53154634839E+03 -0.13463478852E+04  0.10401729915E+04  0.17824577453E+04  0.12699999809E+01 0.  1.
</event>
<event>
 5   0  0.3724293E-08  0.3900717E+04  0.7818609E-02  0.8024880E-01
        2   -1    0    0  501    0  0.00000000000E+00  0.00000000000E+00  0.29546772082E+04  0.29546772082E+04  0.25500000920E-02 0. -1.
       -2   -1    0    0    0  501  0.00000000000E+00  0.00000000000E+00 -0.12874160209E+04  0.12874160209E+04  0.25500000920E-02 0.  1.
    10030    2    1    2    0    0  0.00000000000E+00  0.00000000000E+00  0.16672611873E+04  0.42420932291E+04  0.39007172543E+04 0.  0.
        4    1    3    3  502    0  0.11509502056E+04 -0.10182453848E+04 -0.47247008654E+03  0.16077125474E+04  0.12699999809E+01 0.  1.
       -4    1    3    3    0  502 -0.11509502056E+04  0.10182453848E+04  0.21397312738E+04  0.26343806818E+04  0.12699999809E+01 0. -1.
</event>
<event>
 5   0  0.1164500E-08  0.3892301E+04  0.7818609E-02  0.8026632E-01
       -1   -1    0    0    0  501  0.00000000000E+00  0.00000000000E+00  0.21361525440E+04  0.21361525440E+04  0.50400001928E-02 0.  1.
        1   -1    0    0  501    0  0.00000000000E+00  0.00000000000E+00 -0.17730484148E+04  0.17730484148E+04  0.50400001928E-02 0. -1.
    10030    2    1    2    0    0  0.00000000000E+00  0.00000000000E+00  0.36310412923E+03  0.39092009588E+04  0.38923010582E+04 0.  0.
        2    1    3    3  502    0  0.10389719149E+04 -0.87101746244E+02 -0.14688883352E+04  0.18013001680E+04  0.25500000920E-02 0. -1.
       -2    1    3    3    0  502 -0.10389719149E+04  0.87101746244E+02  0.18319924644E+04  0.21079007908E+04  0.25500000920E-02 0.  1.
</event>
<event>
 5   0  0.1164500E-08  0.3902851E+04  0.7818609E-02  0.8024436E-01
       -1   -1    0    0    0  501  0.00000000000E+00  0.00000000000E+00  0.14762148808E+04  0.14762148808E+04  0.50400001928E-02 0.  1.
        1   -1    0    0  501    0  0.00000000000E+00  0.00000000000E+00 -0.25796124738E+04  0.25796124738E+04  0.50400001928E-02 0. -1.
    10030    2    1    2    0    0  0.00000000000E+00  0.00000000000E+00 -0.11033975930E+04  0.40558273546E+04  0.39028514297E+04 0.  0.
        2    1    3    3  502    0 -0.26223352692E+03  0.37455211668E+03 -0.25231623963E+04  0.25642550944E+04  0.25500000920E-02 0. -1.
       -2    1    3    3    0  502  0.26223352692E+03 -0.37455211668E+03  0.14197648033E+04  0.14915722602E+04  0.25500000920E-02 0.  1.
</event>
<event>
 5   0  0.3872969E-08  0.3901067E+04  0.7818609E-02  0.8024807E-01
        2   -1    0    0  501    0  0.00000000000E+00  0.00000000000E+00  0.12696318130E+04  0.12696318130E+04  0.25500000920E-02 0.  1.
       -2   -1    0    0    0  501  0.00000000000E+00  0.00000000000E+00 -0.29966016876E+04  0.29966016876E+04  0.25500000920E-02 0. -1.
    10030    2    1    2    0    0  0.00000000000E+00  0.00000000000E+00 -0.17269698746E+04  0.42662335006E+04  0.39010669482E+04 0.  0.
        2    1    3    3  502    0  0.55945372378E+03 -0.46655093541E+03 -0.28422554110E+04  0.29341223672E+04  0.25500000920E-02 0. -1.
       -2    1    3    3    0  502 -0.55945372378E+03  0.46655093541E+03  0.11152855363E+04  0.13321111335E+04  0.25500000920E-02 0.  1.
</event>
<event>
 5   0  0.3690572E-08  0.3898361E+04  0.7818609E-02  0.8025370E-01
        2   -1    0    0  501    0  0.00000000000E+00  0.00000000000E+00  0.23162384841E+04  0.23162384841E+04  0.25500000920E-02 0.  1.
       -2   -1    0    0    0  501  0.00000000000E+00  0.00000000000E+00 -0.16402908907E+04  0.16402908907E+04  0.25500000920E-02 0. -1.
    10030    2    1    2    0    0  0.00000000000E+00  0.00000000000E+00  0.67594759339E+03  0.39565293748E+04  0.38983611357E+04 0.  0.
        3    1    3    3  502    0 -0.70410393907E+03  0.61361054440E+03  0.20743567490E+04  0.22749145456E+04  0.10100000352E+00 0.  1.
       -3    1    3    3    0  502  0.70410393907E+03 -0.61361054440E+03 -0.13984091556E+04  0.16816148292E+04  0.10100000352E+00 0. -1.
</event>
<event>
 5   0  0.3872969E-08  0.3908531E+04  0.7818609E-02  0.8023257E-01
       -2   -1    0    0    0  501  0.00000000000E+00  0.00000000000E+00  0.27090150040E+04  0.27090150040E+04  0.25500000920E-02 0. -1.
        2   -1    0    0  501    0  0.00000000000E+00  0.00000000000E+00 -0.14097944716E+04  0.14097944716E+04  0.25500000920E-02 0.  1.
    10030    2    1    2    0    0  0.00000000000E+00  0.00000000000E+00  0.12992205325E+04  0.41188094756E+04  0.39085313743E+04 0.  0.
        2    1    3    3  502    0 -0.79094223494E+03  0.13139146847E+04 -0.62683359117E+03  0.16567684717E+04  0.25500000920E-02 0.  1.
       -2    1    3    3    0  502  0.79094223494E+03 -0.13139146847E+04  0.19260541236E+04  0.24620410039E+04  0.25500000920E-02 0. -1.
</event>
<event>
 5   0  0.3769985E-08  0.3919702E+04  0.7818609E-02  0.8020944E-01
        2   -1    0    0  501    0  0.00000000000E+00  0.00000000000E+00  0.19140786211E+04  0.19140786211E+04  0.25500000920E-02 0.  1.
       -2   -1    0    0    0  501  0.00000000000E+00  0.00000000000E+00 -0.20067180190E+04  0.20067180190E+04  0.25500000920E-02 0. -1.
    10030    2    1    2    0    0  0.00000000000E+00  0.00000000000E+00 -0.92639397940E+02  0.39207966401E+04  0.39197020595E+04 0.  0.
        1    1    3    3  502    0  0.51048409360E+03 -0.90661047132E+03  0.16150111933E+04  0.19211448959E+04  0.50400001928E-02 0.  1.
       -1    1    3    3    0  502 -0.51048409360E+03  0.90661047132E+03 -0.17076505912E+04  0.19996517442E+04  0.50400001928E-02 0. -1.
</event>
<event>
 5   0  0.1164500E-08  0.3882848E+04  0.7818609E-02  0.8028606E-01
       -1   -1    0    0    0  501  0.00000000000E+00  0.00000000000E+00  0.13531691273E+04  0.13531691273E+04  0.50400001928E-02 0. -1.
        1   -1    0    0  501    0  0.00000000000E+00  0.00000000000E+00 -0.27854074267E+04  0.27854074267E+04  0.50400001928E-02 0.  1.
    10030    2    1    2    0    0  0.00000000000E+00  0.00000000000E+00 -0.14322382994E+04  0.41385765541E+04  0.38828480974E+04 0.  0.
        5    1    3    3  502    0 -0.55624797346E+03 -0.12905489925E+04  0.71156850136E+03  0.15752080283E+04  0.46999998093E+01 0. -1.
       -5    1    3    3    0  502  0.55624797346E+03  0.12905489925E+04 -0.21438068008E+04  0.25633685258E+04  0.46999998093E+01 0.  1.
</event>
<event>
 5   0  0.3669347E-08  0.3904900E+04  0.7818609E-02  0.8024011E-01
        2   -1    0    0  501    0  0.00000000000E+00  0.00000000000E+00  0.18826279651E+04  0.18826279651E+04  0.25500000920E-02 0.  1.
       -2   -1    0    0    0  501  0.00000000000E+00  0.00000000000E+00 -0.20248615293E+04  0.20248615293E+04  0.25500000920E-02 0. -1.
    10030    2    1    2    0    0  0.00000000000E+00  0.00000000000E+00 -0.14223356423E+03  0.39074894944E+04  0.39048999682E+04 0.  0.
        5    1    3    3  502    0 -0.11332310172E+04 -0.12339011847E+04  0.93220169409E+03  0.19172237116E+04  0.46999998093E+01 0.  1.
       -5    1    3    3    0  502  0.11332310172E+04  0.12339011847E+04 -0.10744352583E+04  0.19902657828E+04  0.46999998093E+01 0. -1.
</event>
<event>
 5   0  0.3724293E-08  0.3903740E+04  0.7818609E-02  0.8024252E-01
       -2   -1    0    0    0  501  0.00000000000E+00  0.00000000000E+00  0.25568602935E+04  0.25568602936E+04  0.25500000920E-02 0.  1.
        2   -1    0    0  501    0  0.00000000000E+00  0.00000000000E+00 -0.14900293120E+04  0.14900293120E+04  0.25500000920E-02 0. -1.
    10030    2    1    2    0    0  0.00000000000E+00  0.00000000000E+00  0.10668309815E+04  0.40468896056E+04  0.39037401472E+04 0.  0.
        4    1    3    3  502    0 -0.18839315052E+04  0.18904524535E+03  0.41833754840E+02  0.18938552471E+04  0.12699999809E+01 0.  1.
       -4    1    3    3    0  502  0.18839315052E+04 -0.18904524535E+03  0.10249972267E+04  0.21530343585E+04  0.12699999809E+01 0. -1.
</event>
<event>
 5   0  0.3872969E-08  0.3876746E+04  0.7818609E-02  0.8029883E-01
        2   -1    0    0  501    0  0.00000000000E+00  0.00000000000E+00  0.20883402467E+04  0.20883402467E+04  0.25500000920E-02 0.  1.
       -2   -1    0    0    0  501  0.00000000000E+00  0.00000000000E+00 -0.17991747777E+04  0.17991747777E+04  0.25500000920E-02 0. -1.
    10030    2    1    2    0    0  0.00000000000E+00  0.00000000000E+00  0.28916546904E+03  0.38875150244E+04  0.38767455934E+04 0.  0.
        2    1    3    3  502    0  0.15380589830E+04 -0.83928929157E+03  0.97589542759E+03  0.20055931381E+04  0.25500000920E-02 0.  1.
       -2    1    3    3    0  502 -0.15380589830E+04  0.83928929157E+03 -0.68672995854E+03  0.18819218863E+04  0.25500000920E-02 0. -1.
</event>
<event>
 5   0  0.1164500E-08  0.3905431E+04  0.7818609E-02  0.8023901E-01
        1   -1    0    0  501    0  0.00000000000E+00  0.00000000000E+00  0.28182506719E+04  0.28182506720E+04  0.50400001928E-02 0. -1.
       -1   -1    0    0    0  501  0.00000000000E+00  0.00000000000E+00 -0.13530018851E+04  0.13530018851E+04  0.50400001928E-02 0.  1.
    10030    2    1    2    0    0  0.00000000000E+00  0.00000000000E+00  0.14652487869E+04  0.41712525570E+04  0.39054313318E+04 0.  0.
        5    1    3    3  502    0 -0.99818336549E+03 -0.15480425441E+04  0.14250322731E+04  0.23288505360E+04  0.46999998093E+01 0. -1.
       -5    1    3    3    0  502  0.99818336549E+03  0.15480425441E+04  0.40216513733E+02  0.18424020211E+04  0.46999998093E+01 0.  1.
</event>
<event>
 5   0  0.1164500E-08  0.3900492E+04  0.7818609E-02  0.8024927E-01
       -1   -1    0    0    0  501  0.00000000000E+00  0.00000000000E+00  0.18801537127E+04  0.18801537127E+04  0.50400001928E-02 0. -1.
        1   -1    0    0  501    0  0.00000000000E+00  0.00000000000E+00 -0.20229515389E+04  0.20229515389E+04  0.50400001928E-02 0.  1.
    10030    2    1    2    0    0  0.00000000000E+00  0.00000000000E+00 -0.14279782618E+03  0.39031052516E+04  0.39004921979E+04 0.  0.
        5    1    3    3  502    0  0.17089806771E+03  0.27469668768E+03 -0.19959068578E+04  0.20219620904E+04  0.46999998093E+01 0.  1.
       -5    1    3    3    0  502 -0.17089806771E+03 -0.27469668768E+03  0.18531090316E+04  0.18811431612E+04  0.46999998093E+01 0. -1.
</event>
<event>
 5   0  0.3769985E-08  0.3903068E+04  0.7818609E-02  0.8024391E-01
        2   -1    0    0  501    0  0.00000000000E+00  0.00000000000E+00  0.13999512561E+04  0.13999512561E+04  0.25500000920E-02 0. -1.
       -2   -1    0    0    0  501  0.00000000000E+00  0.00000000000E+00 -0.27204407220E+04  0.27204407220E+04  0.25500000920E-02 0.  1.
    10030    2    1    2    0    0  0.00000000000E+00  0.00000000000E+00 -0.13204894658E+04  0.41203919781E+04  0.39030677196E+04 0.  0.
        1    1    3    3  502    0  0.27569688446E+03  0.96245195576E+03  0.11081890623E+04  0.14934542300E+04  0.50400001928E-02 0. -1.
       -1    1    3    3    0  502 -0.27569688446E+03 -0.96245195576E+03 -0.24286785281E+04  0.26269377481E+04  0.50400001928E-02 0.  1.
</event>
<event>
 5   0  0.3669347E-08  0.3905010E+04  0.7818609E-02  0.8023988E-01
        2   -1    0    0  501    0  0.00000000000E+00  0.00000000000E+00  0.27216041288E+04  0.27216041288E+04  0.25500000920E-02 0. -1.
       -2   -1    0    0    0  501  0.00000000000E+00  0.00000000000E+00 -0.14007456838E+04  0.14007456838E+04  0.25500000920E-02 0.  1.
    10030    2    1    2    0    0  0.00000000000E+00  0.00000000000E+00  0.13208584450E+04  0.41223498125E+04  0.39050097241E+04 0.  0.
        5    1    3    3  502    0 -0.88677012156E+03  0.15930742876E+04  0.13978840071E+04  0.22974657172E+04  0.46999998093E+01 0. -1.
       -5    1    3    3    0  502  0.88677012156E+03 -0.15930742876E+04 -0.77025562036E+02  0.18248840954E+04  0.46999998093E+01 0.  1.
</event>
<event>
 5   0  0.3669347E-08  0.3907406E+04  0.7818609E-02  0.8023491E-01
        2   -1    0    0  501    0  0.00000000000E+00  0.00000000000E+00  0.21883699219E+04  0.21883699219E+04  0.25500000920E-02 0. -1.
       -2   -1    0    0    0  501  0.00000000000E+00  0.00000000000E+00 -0.17442006347E+04  0.17442006347E+04  0.25500000920E-02 0.  1.
    10030    2    1    2    0    0  0.00000000000E+00  0.00000000000E+00  0.44416928719E+03  0.39325705566E+04  0.39074064067E+04 0.  0.
        5    1    3    3  502    0 -0.30241214127E+02  0.18427607365E+03 -0.17351921916E+04  0.17452181050E+04  0.46999998093E+01 0.  1.
       -5    1    3    3    0  502  0.30241214127E+02 -0.18427607365E+03  0.21793614788E+04  0.21873524516E+04  0.46999998093E+01 0. -1.
</event>
<event>
 5   0  0.1164500E-08  0.3903579E+04  0.7818609E-02  0.8024285E-01
       -1   -1    0    0    0  501  0.00000000000E+00  0.00000000000E+00  0.16912419465E+04  0.16912419465E+04  0.50400001928E-02 0.  1.
        1   -1    0    0  501    0  0.00000000000E+00  0.00000000000E+00 -0.22524763044E+04  0.22524763044E+04  0.50400001928E-02 0. -1.
    10030    2    1    2    0    0  0.00000000000E+00  0.00000000000E+00 -0.56123435790E+03  0.39437182508E+04  0.39035790805E+04 0.  0.
        4    1    3    3  502    0  0.92748712433E+03  0.71046023583E+03 -0.18601819784E+04  0.21966485195E+04  0.12699999809E+01 0. -1.
       -4    1    3    3    0  502 -0.92748712433E+03 -0.71046023583E+03  0.12989476205E+04  0.17470697313E+04  0.12699999809E+01 0.  1.
</event>
<event>
 5   0  0.1164500E-08  0.3898051E+04  0.7818609E-02  0.8025435E-01
       -1   -1    0    0    0  501  0.00000000000E+00  0.00000000000E+00  0.14421809882E+04  0.14421809882E+04  0.50400001928E-02 0.  1.
        1   -1    0    0  501    0  0.00000000000E+00  0.00000000000E+00 -0.26339963846E+04  0.26339963846E+04  0.50400001928E-02 0. -1.
    10030    2    1    2    0    0  0.00000000000E+00  0.00000000000E+00 -0.11918153964E+04  0.40761773729E+04  0.38980505430E+04 0.  0.
        4    1    3    3  502    0 -0.63831793239E+03 -0.59119751082E+03  0.12278460465E+04  0.15048494298E+04  0.12699999809E+01 0.  1.
       -4    1    3    3    0  502  0.63831793239E+03  0.59119751082E+03 -0.24196614429E+04  0.25713279430E+04  0.12699999809E+01 0. -1.
</event>
<event>
 5   0  0.1164500E-08  0.3842690E+04  0.7818609E-02  0.8037055E-01
       -1   -1    0    0    0  501  0.00000000000E+00  0.00000000000E+00  0.14388528781E+04  0.14388528782E+04  0.50400001928E-02 0.  1.
        1   -1    0    0  501    0  0.00000000000E+00  0.00000000000E+00 -0.25656312578E+04  0.25656312578E+04  0.50400001928E-02 0. -1.
    10030    2    1    2    0    0  0.00000000000E+00  0.00000000000E+00 -0.11267783797E+04  0.40044841360E+04  0.38426896412E+04 0.  0.
        2    1    3    3  502    0  0.17881190488E+04 -0.69580047380E+03 -0.45887755061E+03  0.19728346708E+04  0.25500000920E-02 0. -1.
       -2    1    3    3    0  502 -0.17881190488E+04  0.69580047380E+03 -0.66790082905E+03  0.20316494652E+04  0.25500000920E-02 0.  1.
</event>
<event>
 5   0  0.3769985E-08  0.3920688E+04  0.7818609E-02  0.8020740E-01
        2   -1    0    0  501    0  0.00000000000E+00  0.00000000000E+00  0.22653568775E+04  0.22653568775E+04  0.25500000920E-02 0.  1.
       -2   -1    0    0    0  501  0.00000000000E+00  0.00000000000E+00 -0.16963983482E+04  0.16963983482E+04  0.25500000920E-02 0. -1.
    10030    2    1    2    0    0  0.00000000000E+00  0.00000000000E+00  0.56895852935E+03  0.39617552257E+04  0.39206875239E+04 0.  0.
        1    1    3    3  502    0  0.12187505457E+04 -0.16325896954E+03  0.18272133515E+04  0.22024338845E+04  0.50400001928E-02 0.  1.
       -1    1    3    3    0  502 -0.12187505457E+04  0.16325896954E+03 -0.12582548221E+04  0.17593213411E+04  0.50400001928E-02 0. -1.
</event>
<event>
 5   0  0.3669347E-08  0.3900442E+04  0.7818609E-02  0.8024937E-01
       -2   -1    0    0    0  501  0.00000000000E+00  0.00000000000E+00  0.18362680121E+04  0.18362680121E+04  0.25500000920E-02 0. -1.
        2   -1    0    0  501    0  0.00000000000E+00  0.00000000000E+00 -0.20712460212E+04  0.20712460212E+04  0.25500000920E-02 0.  1.
    10030    2    1    2    0    0  0.00000000000E+00  0.00000000000E+00 -0.23497800917E+03  0.39075140333E+04  0.39004424436E+04 0.  0.
        5    1    3    3  502    0  0.16518858428E+04 -0.31952879183E+03  0.87046080089E+03  0.18943467429E+04  0.46999998093E+01 0. -1.
       -5    1    3    3    0  502 -0.16518858428E+04  0.31952879183E+03 -0.11054388101E+04  0.20131672904E+04  0.46999998093E+01 0.  1.
</event>
<event>
 5   0  0.3690572E-08  0.3901047E+04  0.7818609E-02  0.8024812E-01
        2   -1    0    0  501    0  0.00000000000E+00  0.00000000000E+00  0.25257622999E+04  0.25257622999E+04  0.25500000920E-02 0. -1.
       -2   -1    0    0    0  501  0.00000000000E+00  0.00000000000E+00 -0.15062942052E+04  0.15062942052E+04  0.25500000920E-02 0.  1.
    10030    2    1    2    0    0  0.00000000000E+00  0.00000000000E+00  0.10194680947E+04  0.40320565051E+04  0.39010465857E+04 0.  0.
        3    1    3    3  502    0  0.17567065007E+04 -0.16595299778E+03  0.13689041336E+04  0.22332614410E+04  0.10100000352E+00 0. -1.
       -3    1    3    3    0  502 -0.17567065007E+04  0.16595299778E+03 -0.34943603884E+03  0.17987950640E+04  0.10100000352E+00 0.  1.
</event>
<event>
 5   0  0.1164500E-08  0.3853223E+04  0.7818609E-02  0.8034829E-01
        1   -1    0    0  501    0  0.00000000000E+00  0.00000000000E+00  0.15633843406E+04  0.15633843406E+04  0.50400001928E-02 0. -1.
       -1   -1    0    0    0  501  0.00000000000E+00  0.00000000000E+00 -0.23742280229E+04  0.23742280229E+04  0.50400001928E-02 0.  1.
    10030    2    1    2    0    0  0.00000000000E+00  0.00000000000E+00 -0.81084368221E+03  0.39376123635E+04  0.38532225018E+04 0.  0.
        1    1    3    3  502    0 -0.18543338509E+04 -0.52212538473E+03 -0.43171399271E+03  0.19742203320E+04  0.50400001928E-02 0. -1.
       -1    1    3    3    0  502  0.18543338509E+04  0.52212538473E+03 -0.37912968950E+03  0.19633920315E+04  0.50400001928E-02 0.  1.
</event>
<event>
 5   0  0.3769985E-08  0.3907034E+04  0.7818609E-02  0.8023568E-01
       -2   -1    0    0    0  501  0.00000000000E+00  0.00000000000E+00  0.14594449757E+04  0.14594449757E+04  0.25500000920E-02 0.  1.
        2   -1    0    0  501    0  0.00000000000E+00  0.00000000000E+00 -0.26148496874E+04  0.26148496874E+04  0.25500000920E-02 0. -1.
    10030    2    1    2    0    0  0.00000000000E+00  0.00000000000E+00 -0.11554047117E+04  0.40742946632E+04  0.39070342914E+04 0.  0.
        1    1    3    3  502    0  0.18596939998E+03  0.56361759935E+03  0.13631517421E+04  0.14867521946E+04  0.50400001928E-02 0.  1.
       -1    1    3    3    0  502 -0.18596939998E+03 -0.56361759935E+03 -0.25185564538E+04  0.25875424686E+04  0.50400001928E-02 0. -1.
</event>
<event>
 5   0  0.1164500E-08  0.3896722E+04  0.7818609E-02  0.8025711E-01
       -1   -1    0    0    0  501  0.00000000000E+00  0.00000000000E+00  0.14855317150E+04  0.14855317150E+04  0.50400001928E-02 0.  1.
        1   -1    0    0  501    0  0.00000000000E+00  0.00000000000E+00 -0.25553879391E+04  0.25553879391E+04  0.50400001928E-02 0. -1.
    10030    2    1    2    0    0  0.00000000000E+00  0.00000000000E+00 -0.10698562241E+04  0.40409196541E+04  0.38967216106E+04 0.  0.
        4    1    3    3  502    0 -0.17346054082E+04  0.27368397860E+03  0.34031229287E+03  0.17887350033E+04  0.12699999809E+01 0.  1.
       -4    1    3    3    0  502  0.17346054082E+04 -0.27368397860E+03 -0.14101685170E+04  0.22521846508E+04  0.12699999809E+01 0. -1.
</event>
<event>
 5   0  0.3690572E-08  0.3896682E+04  0.7818609E-02  0.8025720E-01
        2   -1    0    0  501    0  0.00000000000E+00  0.00000000000E+00  0.30916950776E+04  0.30916950776E+04  0.25500000920E-02 0. -1.
       -2   -1    0    0    0  501  0.00000000000E+00  0.00000000000E+00 -0.12278159961E+04  0.12278159961E+04  0.25500000920E-02 0.  1.
    10030    2    1    2    0    0  0.00000000000E+00  0.00000000000E+00  0.18638790814E+04  0.43195110737E+04  0.38966820098E+04 0.  0.
        3    1    3    3  502    0  0.16287600201E+04 -0.41491222984E+03 -0.16039081654E+03  0.16884124454E+04  0.10100000352E+00 0.  1.
       -3    1    3    3    0  502 -0.16287600201E+04  0.41491222984E+03  0.20242698980E+04  0.26310986283E+04  0.10100000352E+00 0. -1.
</event>
<event>
 5   0  0.3724293E-08  0.3906150E+04  0.7818609E-02  0.8023751E-01
       -2   -1    0    0    0  501  0.00000000000E+00  0.00000000000E+00  0.14041687994E+04  0.14041687994E+04  0.25500000920E-02 0.  1.
        2   -1    0    0  501    0  0.00000000000E+00  0.00000000000E+00 -0.27165554848E+04  0.27165554848E+04  0.25500000920E-02 0. -1.
    10030    2    1    2    0    0  0.00000000000E+00  0.00000000000E+00 -0.13123866854E+04  0.41207242841E+04  0.39061502549E+04 0.  0.
        4    1    3    3  502    0  0.14220583469E+04  0.13376996734E+04 -0.71211950864E+03  0.20781737573E+04  0.12699999809E+01 0. -1.
       -4    1    3    3    0  502 -0.14220583469E+04 -0.13376996734E+04 -0.60026717678E+03  0.20425505268E+04  0.12699999809E+01 0.  1.
</event>
<event>
 5   0  0.1164500E-08  0.3893736E+04  0.7818609E-02  0.8026333E-01
        1   -1    0    0  501    0  0.00000000000E+00  0.00000000000E+00  0.26724717403E+04  0.26724717403E+04  0.50400001928E-02 0. -1.
       -1   -1    0    0    0  501  0.00000000000E+00  0.00000000000E+00 -0.14182733012E+04  0.14182733012E+04  0.50400001928E-02 0.  1.
    10030    2    1    2    0    0  0.00000000000E+00  0.00000000000E+00  0.12541984391E+04  0.40907450415E+04  0.38937361582E+04 0.  0.
        3    1    3    3  502    0  0.13978373262E+04  0.54752311765E+02 -0.79542078576E+03  0.16092362296E+04  0.10100000352E+00 0.  1.
       -3    1    3    3    0  502 -0.13978373262E+04 -0.54752311765E+02  0.20496192249E+04  0.24815088119E+04  0.10100000352E+00 0. -1.
</event>
<event>
 5   0  0.3769985E-08  0.3897890E+04  0.7818609E-02  0.8025468E-01
        2   -1    0    0  501    0  0.00000000000E+00  0.00000000000E+00  0.18138902642E+04  0.18138902642E+04  0.25500000920E-02 0. -1.
       -2   -1    0    0    0  501  0.00000000000E+00  0.00000000000E+00 -0.20940556333E+04  0.20940556333E+04  0.25500000920E-02 0.  1.
    10030    2    1    2    0    0  0.00000000000E+00  0.00000000000E+00 -0.28016536911E+03  0.39079458975E+04  0.38978902632E+04 0.  0.
        1    1    3    3  502    0 -0.14025856818E+04 -0.12134737258E+03  0.12111387178E+04  0.18571022518E+04  0.50400001928E-02 0. -1.
       -1    1    3    3    0  502  0.14025856818E+04  0.12134737258E+03 -0.14913040869E+04  0.20508436458E+04  0.50400001928E-02 0.  1.
</event>
<event>
 5   0  0.1164500E-08  0.3893122E+04  0.7818609E-02  0.8026461E-01
        1   -1    0    0  501    0  0.00000000000E+00  0.00000000000E+00  0.24176184710E+04  0.24176184710E+04  0.50400001928E-02 0. -1.
       -1   -1    0    0    0  501  0.00000000000E+00  0.00000000000E+00 -0.15672857322E+04  0.15672857322E+04  0.50400001928E-02 0.  1.
    10030    2    1    2    0    0  0.00000000000E+00  0.00000000000E+00  0.85033273880E+03  0.39849042031E+04  0.38931215935E+04 0.  0.
        5    1    3    3  502    0  0.17123918305E+03 -0.16326605841E+03  0.24028400020E+04  0.24144649156E+04  0.46999998093E+01 0. -1.
       -5    1    3    3    0  502 -0.17123918305E+03  0.16326605841E+03 -0.15525072632E+04  0.15704392875E+04  0.46999998093E+01 0.  1.
</event>
<event>
 5   0  0.1164500E-08  0.3902770E+04  0.7818609E-02  0.8024453E-01
        1   -1    0    0  501    0  0.00000000000E+00  0.00000000000E+00  0.19964354876E+04  0.19964354876E+04  0.50400001928E-02 0. -1.
       -1   -1    0    0    0  501  0.00000000000E+00  0.00000000000E+00 -0.19073510141E+04  0.19073510141E+04  0.50400001928E-02 0.  1.
    10030    2    1    2    0    0  0.00000000000E+00  0.00000000000E+00  0.89084473538E+02  0.39037865017E+04  0.39027699147E+04 0.  0.
        5    1    3    3  502    0  0.56663886263E+03 -0.20248015695E+03  0.19013132768E+04  0.19942647972E+04  0.46999998093E+01 0. -1.
       -5    1    3    3    0  502 -0.56663886263E+03  0.20248015695E+03 -0.18122288033E+04  0.19095217045E+04  0.46999998093E+01 0.  1.
</event>
<event>
 5   0  0.1164500E-08  0.3924982E+04  0.7818609E-02  0.8019853E-01
       -1   -1    0    0    0  501  0.00000000000E+00  0.00000000000E+00  0.29513766909E+04  0.29513766909E+04  0.50400001928E-02 0. -1.
        1   -1    0    0  501    0  0.00000000000E+00  0.00000000000E+00 -0.13049404253E+04  0.13049404253E+04  0.50400001928E-02 0.  1.
    10030    2    1    2    0    0  0.00000000000E+00  0.00000000000E+00  0.16464362656E+04  0.42563171162E+04  0.39249819130E+04 0.  0.
        1    1    3    3  502    0 -0.12437769300E+04 -0.67445062541E+03 -0.65155153492E+03  0.15576854947E+04  0.50400001928E-02 0.  1.
       -1    1    3    3    0  502  0.12437769300E+04  0.67445062541E+03  0.22979878005E+04  0.26986316216E+04  0.50400001928E-02 0. -1.
</event>
<event>
 5   0  0.1164500E-08  0.3907834E+04  0.7818609E-02  0.8023402E-01
       -1   -1    0    0    0  501  0.00000000000E+00  0.00000000000E+00  0.25031736885E+04  0.25031736885E+04  0.50400001928E-02 0.  1.
        1   -1    0    0  501    0  0.00000000000E+00  0.00000000000E+00 -0.15251801538E+04  0.15251801538E+04  0.50400001928E-02 0. -1.
    10030    2    1    2    0    0  0.00000000000E+00  0.00000000000E+00  0.97799353470E+03  0.40283538424E+04  0.39078335847E+04 0.  0.
        3    1    3    3  502    0 -0.18695161420E+04  0.54882656305E+03  0.33788234475E+03  0.19774897447E+04  0.10100000352E+00 0. -1.
       -3    1    3    3    0  502  0.18695161420E+04 -0.54882656305E+03  0.64011118995E+03  0.20508640977E+04  0.10100000352E+00 0.  1.
</event>
<event>
 5   0  0.1164500E-08  0.3905963E+04  0.7818609E-02  0.8023790E-01
        1   -1    0    0  501    0  0.00000000000E+00  0.00000000000E+00  0.22290736144E+04  0.22290736144E+04  0.50400001928E-02 0.  1.
       -1   -1    0    0    0  501  0.00000000000E+00  0.00000000000E+00 -0.17110862628E+04  0.17110862628E+04  0.50400001928E-02 0. -1.
    10030    2    1    2    0    0  0.00000000000E+00  0.00000000000E+00  0.51798735161E+03  0.39401598772E+04  0.39059632565E+04 0.  0.
        5    1    3    3  502    0  0.92894445761E+02  0.43018949989E+03 -0.16604056341E+04  0.17177489175E+04  0.46999998093E+01 0. -1.
       -5    1    3    3    0  502 -0.92894445761E+02 -0.43018949989E+03  0.21783929857E+04  0.22224109597E+04  0.46999998093E+01 0.  1.
</event>
<event>
 5   0  0.1164500E-08  0.3901800E+04  0.7818609E-02  0.8024655E-01
       -1   -1    0    0    0  501  0.00000000000E+00  0.00000000000E+00  0.18245283585E+04  0.18245283585E+04  0.50400001928E-02 0. -1.
        1   -1    0    0  501    0  0.00000000000E+00  0.00000000000E+00 -0.20860243978E+04  0.20860243978E+04  0.50400001928E-02 0.  1.
    10030    2    1    2    0    0  0.00000000000E+00  0.00000000000E+00 -0.26149603932E+03  0.39105527563E+04  0.39017999284E+04 0.  0.
        4    1    3    3  502    0  0.19397618117E+04  0.20354426556E+03 -0.17446815418E+03  0.19581999142E+04  0.12699999809E+01 0. -1.
       -4    1    3    3    0  502 -0.19397618117E+04 -0.20354426556E+03 -0.87027885140E+02  0.19523528421E+04  0.12699999809E+01 0.  1.
</event>
<event>
 5   0  0.1164500E-08  0.3898838E+04  0.7818609E-02  0.8025271E-01
        1   -1    0    0  501    0  0.00000000000E+00  0.00000000000E+00  0.12268747654E+04  0.12268747654E+04  0.50400001928E-02 0. -1.
       -1   -1    0    0    0  501  0.00000000000E+00  0.00000000000E+00 -0.30974910429E+04  0.30974910429E+04  0.50400001928E-02 0.  1.
    10030    2    1    2    0    0  0.00000000000E+00  0.00000000000E+00 -0.18706162775E+04  0.43243658084E+04  0.38988375687E+04 0.  0.
        3    1    3    3  502    0  0.53418717884E+03  0.18665793513E+04 -0.74078351298E+03  0.20780362460E+04  0.10100000352E+00 0. -1.
       -3    1    3    3    0  502 -0.53418717884E+03 -0.18665793513E+04 -0.11298327645E+04  0.22463295623E+04  0.10100000352E+00 0.  1.
</event>
<event>
 5   0  0.1164500E-08  0.3901426E+04  0.7818609E-02  0.8024733E-01
        1   -1    0    0  501    0  0.00000000000E+00  0.00000000000E+00  0.33240751934E+04  0.33240751934E+04  0.50400001928E-02 0.  1.
       -1   -1    0    0    0  501  0.00000000000E+00  0.00000000000E+00 -0.11447641165E+04  0.11447641165E+04  0.50400001928E-02 0. -1.
    10030    2    1    2    0    0  0.00000000000E+00  0.00000000000E+00  0.21793110769E+04  0.44688393099E+04  0.39014264068E+04 0.  0.
        3    1    3    3  502    0  0.75577755023E+03  0.16903714604E+04  0.38660836029E+03  0.18915658630E+04  0.10100000352E+00 0. -1.
       -3    1    3    3    0  502 -0.75577755023E+03 -0.16903714604E+04  0.17927027166E+04  0.25772734469E+04  0.10100000352E+00 0.  1.
</event>
<event>
 5   0  0.1164500E-08  0.3902472E+04  0.7818609E-02  0.8024515E-01
       -1   -1    0    0    0  501  0.00000000000E+00  0.00000000000E+00  0.27494437622E+04  0.27494437622E+04  0.50400001928E-02 0.  1.
        1   -1    0    0  501    0  0.00000000000E+00  0.00000000000E+00 -0.13847608123E+04  0.13847608124E+04  0.50400001928E-02 0. -1.
    10030    2    1    2    0    0  0.00000000000E+00  0.00000000000E+00  0.13646829498E+04  0.41342045745E+04  0.39024720256E+04 0.  0.
        5    1    3    3  502    0  0.13121277130E+04  0.77386388817E+03 -0.60938907831E+03  0.16407076496E+04  0.46999998093E+01 0.  1.
       -5    1    3    3    0  502 -0.13121277130E+04 -0.77386388817E+03  0.19740720281E+04  0.24934969250E+04  0.46999998093E+01 0. -1.
</event>
<event>
 5   0  0.3690572E-08  0.3892507E+04  0.7818609E-02  0.8026589E-01
       -2   -1    0    0    0  501  0.00000000000E+00  0.00000000000E+00  0.18879798503E+04  0.18879798503E+04  0.25500000920E-02 0. -1.
        2   -1    0    0  501    0  0.00000000000E+00  0.00000000000E+00 -0.20063255966E+04  0.20063255966E+04  0.25500000920E-02 0.  1.
    10030    2    1    2    0    0  0.00000000000E+00  0.00000000000E+00 -0.11834574627E+03  0.38943054470E+04  0.38925068014E+04 0.  0.
        3    1    3    3  502    0  0.33071569469E+02  0.14467975329E+04  0.12428067587E+04  0.19075862967E+04  0.10100000352E+00 0. -1.
       -3    1    3    3    0  502 -0.33071569469E+02 -0.14467975329E+04 -0.13611525050E+04  0.19867191502E+04  0.10100000352E+00 0.  1.
</event>
<event>
 5   0  0.3872969E-08  0.3900871E+04  0.7818609E-02  0.8024848E-01
        2   -1    0    0  501    0  0.00000000000E+00  0.00000000000E+00  0.25819650297E+04  0.25819650297E+04  0.25500000920E-02 0.  1.
       -2   -1    0    0    0  501  0.00000000000E+00  0.00000000000E+00 -0.14733735550E+04  0.14733735550E+04  0.25500000920E-02 0. -1.
    10030    2    1    2    0    0  0.00000000000E+00  0.00000000000E+00  0.11085914746E+04  0.40553385847E+04  0.39008711821E+04 0.  0.
        2    1    3    3  502    0 -0.57582661150E+03 -0.15295681241E+04  0.16608912644E+04  0.23301748271E+04  0.25500000920E-02 0.  1.
       -2    1    3    3    0  502  0.57582661150E+03  0.15295681241E+04 -0.55229978981E+03  0.17251637576E+04  0.25500000920E-02 0. -1.
</event>
<event>
 5   0  0.1164500E-08  0.3885274E+04  0.7818609E-02  0.8028099E-01
        3   -1    0    0  501    0  0.00000000000E+00  0.00000000000E+00  0.19716411481E+04  0.19716411507E+04  0.10100000352E+00 0. -1.
       -3   -1    0    0    0  501  0.00000000000E+00  0.00000000000E+00 -0.19140599552E+04  0.19140599579E+04  0.10100000352E+00 0.  1.
    10030    2    1    2    0    0  0.00000000000E+00  0.00000000000E+00  0.57581192904E+02  0.38857011086E+04  0.38852744448E+04 0.  0.
        4    1    3    3  502    0 -0.17256828361E+04  0.63388400469E+03  0.65659162606E+03  0.19521537743E+04  0.12699999809E+01 0. -1.
       -4    1    3    3    0  502  0.17256828361E+04 -0.63388400469E+03 -0.59901043315E+03  0.19335473343E+04  0.12699999809E+01 0.  1.
</event>
<event>
 5   0  0.3690572E-08  0.3907613E+04  0.7818609E-02  0.8023448E-01
        2   -1    0    0  501    0  0.00000000000E+00  0.00000000000E+00  0.22453104092E+04  0.22453104092E+04  0.25500000920E-02 0. -1.
       -2   -1    0    0    0  501  0.00000000000E+00  0.00000000000E+00 -0.17001477539E+04  0.17001477539E+04  0.25500000920E-02 0.  1.
    10030    2    1    2    0    0  0.00000000000E+00  0.00000000000E+00  0.54516265534E+03  0.39454581631E+04  0.39076128002E+04 0.  0.
        3    1    3    3  502    0 -0.77553908914E+03  0.64223678444E+03  0.19631422030E+04  0.22063218907E+04  0.10100000352E+00 0. -1.
       -3    1    3    3    0  502  0.77553908914E+03 -0.64223678444E+03 -0.14179795477E+04  0.17391362724E+04  0.10100000352E+00 0.  1.
</event>
<event>
 5   0  0.3769985E-08  0.3818506E+04  0.7818609E-02  0.8042195E-01
       -2   -1    0    0    0  501  0.00000000000E+00  0.00000000000E+00  0.18868870315E+04  0.18868870315E+04  0.25500000920E-02 0.  1.
        2   -1    0    0  501    0  0.00000000000E+00  0.00000000000E+00 -0.19318835924E+04  0.19318835924E+04  0.25500000920E-02 0. -1.
    10030    2    1    2    0    0  0.00000000000E+00  0.00000000000E+00 -0.44996560849E+02  0.38187706239E+04  0.38185055175E+04 0.  0.
        1    1    3    3  502    0  0.11796278002E+04 -0.13767183335E+04 -0.62118078638E+03  0.19164395858E+04  0.50400001928E-02 0. -1.
       -1    1    3    3    0  502 -0.11796278002E+04  0.13767183335E+04  0.57618422553E+03  0.19023310381E+04  0.50400001928E-02 0.  1.
</event>
<event>
 5   0  0.3724293E-08  0.3901596E+04  0.7818609E-02  0.8024697E-01
       -2   -1    0    0    0  501  0.00000000000E+00  0.00000000000E+00  0.23004463944E+04  0.23004463944E+04  0.25500000920E-02 0.  1.
        2   -1    0    0  501    0  0.00000000000E+00  0.00000000000E+00 -0.16542935410E+04  0.16542935410E+04  0.25500000920E-02 0. -1.
    10030    2    1    2    0    0  0.00000000000E+00  0.00000000000E+00  0.64615285342E+03  0.39547399353E+04  0.39015963971E+04 0.  0.
        4    1    3    3  502    0 -0.15807930550E+04  0.10497586600E+04 -0.13553757988E+03  0.19024384289E+04  0.12699999809E+01 0.  1.
       -4    1    3    3    0  502  0.15807930550E+04 -0.10497586600E+04  0.78169043330E+03  0.20523015065E+04  0.12699999809E+01 0. -1.
</event>
<event>
 5   0  0.3872969E-08  0.3899988E+04  0.7818609E-02  0.8025032E-01
       -2   -1    0    0    0  501  0.00000000000E+00  0.00000000000E+00  0.24415398195E+04  0.24415398195E+04  0.25500000920E-02 0.  1.
        2   -1    0    0  501    0  0.00000000000E+00  0.00000000000E+00 -0.15574095984E+04  0.15574095984E+04  0.25500000920E-02 0. -1.
    10030    2    1    2    0    0  0.00000000000E+00  0.00000000000E+00  0.88413022103E+03  0.39989494179E+04  0.38999884870E+04 0.  0.
        2    1    3    3  502    0 -0.68930182476E+02  0.76089355217E+03  0.22816819155E+04  0.24061967358E+04  0.25500000920E-02 0.  1.
       -2    1    3    3    0  502  0.68930182476E+02 -0.76089355217E+03 -0.13975516944E+04  0.15927526821E+04  0.25500000920E-02 0. -1.
</event>
<event>
 5   0  0.1164500E-08  0.3892073E+04  0.7818609E-02  0.8026680E-01
        1   -1    0    0  501    0  0.00000000000E+00  0.00000000000E+00  0.17555887075E+04  0.17555887076E+04  0.50400001928E-02 0.  1.
       -1   -1    0    0    0  501  0.00000000000E+00  0.00000000000E+00 -0.21571443395E+04  0.21571443395E+04  0.50400001928E-02 0. -1.
    10030    2    1    2    0    0  0.00000000000E+00  0.00000000000E+00 -0.40155563194E+03  0.39127330471E+04  0.38920730944E+04 0.  0.
        5    1    3    3  502    0  0.18332481280E+04  0.63061579187E+03 -0.37067543082E+03  0.19738027614E+04  0.46999998093E+01 0. -1.
       -5    1    3    3    0  502 -0.18332481280E+04 -0.63061579187E+03 -0.30880201118E+02  0.19389302857E+04  0.46999998093E+01 0.  1.
</event>
<event>
 5   0  0.3872969E-08  0.3900481E+04  0.7818609E-02  0.8024929E-01
       -2   -1    0    0    0  501  0.00000000000E+00  0.00000000000E+00  0.17313820626E+04  0.17313820626E+04  0.25500000920E-02 0.  1.
        2   -1    0    0  501    0  0.00000000000E+00  0.00000000000E+00 -0.21967645992E+04  0.21967645992E+04  0.25500000920E-02 0. -1.
    10030    2    1    2    0    0  0.00000000000E+00  0.00000000000E+00 -0.46538253653E+03  0.39281466618E+04  0.39004814179E+04 0.  0.
        2    1    3    3  502    0 -0.25459992286E+03  0.14579620726E+04  0.10463420513E+04  0.18125413689E+04  0.25500000920E-02 0.  1.
       -2    1    3    3    0  502  0.25459992286E+03 -0.14579620726E+04 -0.15117245878E+04  0.21156052929E+04  0.25500000920E-02 0. -1.
</event>
<event>
 5   0  0.1164500E-08  0.3897886E+04  0.7818609E-02  0.8025469E-01
        1   -1    0    0  501    0  0.00000000000E+00  0.00000000000E+00  0.23813835665E+04  0.23813835665E+04  0.50400001928E-02 0.  1.
       -1   -1    0    0    0  501  0.00000000000E+00  0.00000000000E+00 -0.15950305820E+04  0.15950305820E+04  0.50400001928E-02 0. -1.
    10030    2    1    2    0    0  0.00000000000E+00  0.00000000000E+00  0.78635298453E+03  0.39764141485E+04  0.38978864099E+04 0.  0.
        5    1    3    3  502    0  0.88191262002E+03 -0.75431540594E+03  0.19904779089E+04  0.23040802930E+04  0.46999998093E+01 0.  1.
       -5    1    3    3    0  502 -0.88191262002E+03  0.75431540594E+03 -0.12041249243E+04  0.16723338555E+04  0.46999998093E+01 0. -1.
</event>
<event>
 5   0  0.1164500E-08  0.3901138E+04  0.7818609E-02  0.8024793E-01
       -1   -1    0    0    0  501  0.00000000000E+00  0.00000000000E+00  0.13141019887E+04  0.13141019887E+04  0.50400001928E-02 0. -1.
        1   -1    0    0  501    0  0.00000000000E+00  0.00000000000E+00 -0.28952995523E+04  0.28952995523E+04  0.50400001928E-02 0.  1.
    10030    2    1    2    0    0  0.00000000000E+00  0.00000000000E+00 -0.15811975636E+04  0.42094015410E+04  0.39011377312E+04 0.  0.
        4    1    3    3  502    0  0.10117314617E+04  0.16667642276E+04 -0.84983432300E+03  0.21269516992E+04  0.12699999809E+01 0. -1.
       -4    1    3    3    0  502 -0.10117314617E+04 -0.16667642276E+04 -0.73136324063E+03  0.20824498418E+04  0.12699999809E+01 0.  1.
</event>
<event>
 5   0  0.1164500E-08  0.3906486E+04  0.7818609E-02  0.8023682E-01
       -1   -1    0    0    0  501  0.00000000000E+00  0.00000000000E+00  0.18230211810E+04  0.18230211810E+04  0.50400001928E-02 0.  1.
        1   -1    0    0  501    0  0.00000000000E+00  0.00000000000E+00 -0.20927668322E+04  0.20927668322E+04  0.50400001928E-02 0. -1.
    10030    2    1    2    0    0  0.00000000000E+00  0.00000000000E+00 -0.26974565118E+03  0.39157880132E+04  0.39064860231E+04 0.  0.
        2    1    3    3  502    0  0.54008076425E+03 -0.71788279386E+03  0.16036489666E+04  0.18381330054E+04  0.25500000920E-02 0.  1.
       -2    1    3    3    0  502 -0.54008076425E+03  0.71788279386E+03 -0.18733946178E+04  0.20776550078E+04  0.25500000920E-02 0. -1.
</event>
<event>
 5   0  0.1164500E-08  0.3979304E+04  0.7818609E-02  0.8008735E-01
        1   -1    0    0  501    0  0.00000000000E+00  0.00000000000E+00  0.15228241672E+04  0.15228241672E+04  0.50400001928E-02 0.  1.
       -1   -1    0    0    0  501  0.00000000000E+00  0.00000000000E+00 -0.25995883523E+04  0.25995883523E+04  0.50400001928E-02 0. -1.
    10030    2    1    2    0    0  0.00000000000E+00  0.00000000000E+00 -0.10767641851E+04  0.41224125195E+04  0.39793044456E+04 0.  0.
        4    1    3    3  502    0  0.18956766672E+04  0.54592344123E+03 -0.80671838002E+03  0.21312950494E+04  0.12699999809E+01 0. -1.
       -4    1    3    3    0  502 -0.18956766672E+04 -0.54592344123E+03 -0.27004580511E+03  0.19911174701E+04  0.12699999809E+01 0.  1.
</event>
<event>
 5   0  0.3769985E-08  0.3903772E+04  0.7818609E-02  0.8024245E-01
       -2   -1    0    0    0  501  0.00000000000E+00  0.00000000000E+00  0.16695846989E+04  0.16695846989E+04  0.25500000920E-02 0. -1.
        2   -1    0    0  501    0  0.00000000000E+00  0.00000000000E+00 -0.22819200101E+04  0.22819200101E+04  0.25500000920E-02 0.  1.
    10030    2    1    2    0    0  0.00000000000E+00  0.00000000000E+00 -0.61233531119E+03  0.39515047090E+04  0.39037718852E+04 0.  0.
        1    1    3    3  502    0  0.48330133655E+02 -0.11219792527E+04 -0.19221484497E+04  0.22261688857E+04  0.50400001928E-02 0.  1.
       -1    1    3    3    0  502 -0.48330133655E+02  0.11219792527E+04  0.13098131385E+04  0.17253358233E+04  0.50400001928E-02 0. -1.
</event>
<event>
 5   0  0.3724293E-08  0.3898692E+04  0.7818609E-02  0.8025301E-01
        2   -1    0    0  501    0  0.00000000000E+00  0.00000000000E+00  0.27322952954E+04  0.27322952954E+04  0.25500000920E-02 0. -1.
       -2   -1    0    0    0  501  0.00000000000E+00  0.00000000000E+00 -0.13907534297E+04  0.13907534297E+04  0.25500000920E-02 0.  1.
    10030    2    1    2    0    0  0.00000000000E+00  0.00000000000E+00  0.13415418657E+04  0.41230487251E+04  0.38986916026E+04 0.  0.
        4    1    3    3  502    0  0.13191946031E+04  0.19699845712E+03  0.21741489578E+04  0.25506877693E+04  0.12699999809E+01 0. -1.
       -4    1    3    3    0  502 -0.13191946031E+04 -0.19699845712E+03 -0.83260709204E+03  0.15723609558E+04  0.12699999809E+01 0.  1.
</event>
<event>
 5   0  0.1164500E-08  0.3919343E+04  0.7818609E-02  0.8021018E-01
        1   -1    0    0  501    0  0.00000000000E+00  0.00000000000E+00  0.17965334131E+04  0.17965334131E+04  0.50400001928E-02 0. -1.
       -1   -1    0    0    0  501  0.00000000000E+00  0.00000000000E+00 -0.21376238813E+04  0.21376238813E+04  0.50400001928E-02 0.  1.
    10030    2    1    2    0    0  0.00000000000E+00  0.00000000000E+00 -0.34109046815E+03  0.39341572944E+04  0.39193431733E+04 0.  0.
        5    1    3    3  502    0  0.15172367655E+04  0.10253089960E+04 -0.87105455913E+03  0.20278126331E+04  0.46999998093E+01 0.  1.
       -5    1    3    3    0  502 -0.15172367655E+04 -0.10253089960E+04  0.52996409098E+03  0.19063446613E+04  0.46999998093E+01 0. -1.
</event>
<event>
 5   0  0.3690572E-08  0.3896166E+04  0.7818609E-02  0.8025827E-01
        2   -1    0    0  501    0  0.00000000000E+00  0.00000000000E+00  0.22007662977E+04  0.22007662977E+04  0.25500000920E-02 0. -1.
       -2   -1    0    0    0  501  0.00000000000E+00  0.00000000000E+00 -0.17244119355E+04  0.17244119355E+04  0.25500000920E-02 0.  1.
    10030    2    1    2    0    0  0.00000000000E+00  0.00000000000E+00  0.47635436228E+03  0.39251782332E+04  0.38961661520E+04 0.  0.
        3    1    3    3  502    0  0.97374109057E+03  0.15740049382E+04 -0.37410191510E+03  0.18882837472E+04  0.10100000352E+00 0. -1.
       -3    1    3    3    0  502 -0.97374109057E+03 -0.15740049382E+04  0.85045627737E+03  0.20368944860E+04  0.10100000352E+00 0.  1.
</event>
<event>
 5   0  0.1164500E-08  0.3884556E+04  0.7818609E-02  0.8028249E-01
        1   -1    0    0  501    0  0.00000000000E+00  0.00000000000E+00  0.23208003343E+04  0.23208003343E+04  0.50400001928E-02 0. -1.
       -1   -1    0    0    0  501  0.00000000000E+00  0.00000000000E+00 -0.16254928677E+04  0.16254928677E+04  0.50400001928E-02 0.  1.
    10030    2    1    2    0    0  0.00000000000E+00  0.00000000000E+00  0.69530746665E+03  0.39462932020E+04  0.38845562891E+04 0.  0.
        3    1    3    3  502    0  0.14564282853E+04  0.73264480521E+03  0.14201271319E+04  0.21621084251E+04  0.10100000352E+00 0. -1.
       -3    1    3    3    0  502 -0.14564282853E+04 -0.73264480521E+03 -0.72481966521E+03  0.17841847769E+04  0.10100000352E+00 0.  1.
</event>
<event>
 5   0  0.1164500E-08  0.3908077E+04  0.7818609E-02  0.8023351E-01
        1   -1    0    0  501    0  0.00000000000E+00  0.00000000000E+00  0.12698995695E+04  0.12698995695E+04  0.50400001928E-02 0. -1.
       -1   -1    0    0    0  501  0.00000000000E+00  0.00000000000E+00 -0.30067466298E+04  0.30067466298E+04  0.50400001928E-02 0.  1.
    10030    2    1    2    0    0  0.00000000000E+00  0.00000000000E+00 -0.17368470603E+04  0.42766461993E+04  0.39080768931E+04 0.  0.
        2    1    3    3  502    0  0.85560489662E+03 -0.11114156061E+04 -0.23572324372E+04  0.27429635709E+04  0.25500000920E-02 0.  1.
       -2    1    3    3    0  502 -0.85560489662E+03  0.11114156061E+04  0.62038537683E+03  0.15336826283E+04  0.25500000920E-02 0. -1.
</event>
<event>
 5   0  0.3872969E-08  0.3895138E+04  0.7818609E-02  0.8026041E-01
       -2   -1    0    0    0  501  0.00000000000E+00  0.00000000000E+00  0.22221477890E+04  0.22221477890E+04  0.25500000920E-02 0.  1.
        2   -1    0    0  501    0  0.00000000000E+00  0.00000000000E+00 -0.17069188509E+04  0.17069188509E+04  0.25500000920E-02 0. -1.
    10030    2    1    2    0    0  0.00000000000E+00  0.00000000000E+00  0.51522893812E+03  0.39290666400E+04  0.38951384831E+04 0.  0.
        2    1    3    3  502    0 -0.82360034639E+03 -0.24870902032E+03 -0.15048459997E+04  0.17334172003E+04  0.25500000920E-02 0. -1.
       -2    1    3    3    0  502  0.82360034639E+03  0.24870902032E+03  0.20200749378E+04  0.21956494397E+04  0.25500000920E-02 0.  1.
</event>
<event>
 5   0  0.1164500E-08  0.3900429E+04  0.7818609E-02  0.8024940E-01
       -1   -1    0    0    0  501  0.00000000000E+00  0.00000000000E+00  0.18667317230E+04  0.18667317230E+04  0.50400001928E-02 0. -1.
        1   -1    0    0  501    0  0.00000000000E+00  0.00000000000E+00 -0.20374311810E+04  0.20374311810E+04  0.50400001928E-02 0.  1.
    10030    2    1    2    0    0  0.00000000000E+00  0.00000000000E+00 -0.17069945799E+03  0.39041629039E+04  0.39004294219E+04 0.  0.
        1    1    3    3  502    0  0.42118504656E+03  0.16137101819E+04 -0.10971981578E+04  0.19963219160E+04  0.50400001928E-02 0.  1.
       -1    1    3    3    0  502 -0.42118504656E+03 -0.16137101819E+04  0.92649869980E+03  0.19078409880E+04  0.50400001928E-02 0. -1.
</event>
<event>
 5   0  0.3724293E-08  0.3898257E+04  0.7818609E-02  0.8025392E-01
        2   -1    0    0  501    0  0.00000000000E+00  0.00000000000E+00  0.25597765979E+04  0.25597765979E+04  0.25500000920E-02 0. -1.
       -2   -1    0    0    0  501  0.00000000000E+00  0.00000000000E+00 -0.14841537796E+04  0.14841537796E+04  0.25500000920E-02 0.  1.
    10030    2    1    2    0    0  0.00000000000E+00  0.00000000000E+00  0.10756228184E+04  0.40439303775E+04  0.38982571042E+04 0.  0.
        4    1    3    3  502    0  0.26087212514E+03 -0.16603657674E+03 -0.14585450106E+04  0.14909653153E+04  0.12699999809E+01 0.  1.
       -4    1    3    3    0  502 -0.26087212514E+03  0.16603657674E+03  0.25341678290E+04  0.25529650622E+04  0.12699999809E+01 0. -1.
</event>
<event>
 5   0  0.1164500E-08  0.3909776E+04  0.7818609E-02  0.8022999E-01
       -1   -1    0    0    0  501  0.00000000000E+00  0.00000000000E+00  0.23557658798E+04  0.23557658798E+04  0.50400001928E-02 0. -1.
        1   -1    0    0  501    0  0.00000000000E+00  0.00000000000E+00 -0.16222266896E+04  0.16222266896E+04  0.50400001928E-02 0.  1.
    10030    2    1    2    0    0  0.00000000000E+00  0.00000000000E+00  0.73353919022E+03  0.39779925694E+04  0.39097755867E+04 0.  0.
        1    1    3    3  502    0  0.10672196774E+04  0.16283721981E+04  0.18753574975E+03  0.19559456825E+04  0.50400001928E-02 0.  1.
       -1    1    3    3    0  502 -0.10672196774E+04 -0.16283721981E+04  0.54600344046E+03  0.20220468868E+04  0.50400001928E-02 0. -1.
</event>
<event>
 5   0  0.3724293E-08  0.3914937E+04  0.7818609E-02  0.8021930E-01
       -2   -1    0    0    0  501  0.00000000000E+00  0.00000000000E+00  0.16205373484E+04  0.16205373484E+04  0.25500000920E-02 0. -1.
        2   -1    0    0  501    0  0.00000000000E+00  0.00000000000E+00 -0.23644516131E+04  0.23644516131E+04  0.25500000920E-02 0.  1.
    10030    2    1    2    0    0  0.00000000000E+00  0.00000000000E+00 -0.74391426473E+03  0.39849889615E+04  0.39149366010E+04 0.  0.
        4    1    3    3  502    0 -0.16901808820E+04 -0.58469503186E+03 -0.11818709984E+04  0.21436884951E+04  0.12699999809E+01 0.  1.
       -4    1    3    3    0  502  0.16901808820E+04  0.58469503186E+03  0.43795673369E+03  0.18413004664E+04  0.12699999809E+01 0. -1.
</event>
<event>
 5   0  0.3669347E-08  0.3903764E+04  0.7818609E-02  0.8024247E-01
       -2   -1    0    0    0  501  0.00000000000E+00  0.00000000000E+00  0.17646340567E+04  0.17646340567E+04  0.25500000920E-02 0.  1.
        2   -1    0    0  501    0  0.00000000000E+00  0.00000000000E+00 -0.21589989261E+04  0.21589989261E+04  0.25500000920E-02 0. -1.
    10030    2    1    2    0    0  0.00000000000E+00  0.00000000000E+00 -0.39436486949E+03  0.39236329828E+04  0.39037638419E+04 0.  0.
        5    1    3    3  502    0 -0.42639101497E+03 -0.11468729070E+04 -0.17256771563E+04  0.21154456978E+04  0.46999998093E+01 0.  1.
       -5    1    3    3    0  502  0.42639101497E+03  0.11468729070E+04  0.13313122868E+04  0.18081872850E+04  0.46999998093E+01 0. -1.
</event>
<event>
 5   0  0.1164500E-08  0.3902192E+04  0.7818609E-02  0.8024574E-01
       -1   -1    0    0    0  501  0.00000000000E+00  0.00000000000E+00  0.15359138593E+04  0.15359138593E+04  0.50400001928E-02 0. -1.
        1   -1    0    0  501    0  0.00000000000E+00  0.00000000000E+00 -0.24785078959E+04  0.24785078959E+04  0.50400001928E-02 0.  1.
    10030    2    1    2    0    0  0.00000000000E+00  0.00000000000E+00 -0.94259403661E+03  0.40144217553E+04  0.39021915011E+04 0.  0.
        4    1    3    3  502    0  0.11678622780E+04  0.13921831739E+03 -0.20728265193E+04  0.23832531196E+04  0.12699999809E+01 0.  1.
       -4    1    3    3    0  502 -0.11678622780E+04 -0.13921831739E+03  0.11302324827E+04  0.16311686357E+04  0.12699999809E+01 0. -1.
</event>
<event>
 5   0  0.3669347E-08  0.3906803E+04  0.7818609E-02  0.8023616E-01
        2   -1    0    0  501    0  0.00000000000E+00  0.00000000000E+00  0.16707763421E+04  0.16707763421E+04  0.25500000920E-02 0. -1.
       -2   -1    0    0    0  501  0.00000000000E+00  0.00000000000E+00 -0.22838347564E+04  0.22838347564E+04  0.25500000920E-02 0.  1.
    10030    2    1    2    0    0  0.00000000000E+00  0.00000000000E+00 -0.61305841431E+03  0.39546110985E+04  0.39068028259E+04 0.  0.
        5    1    3    3  502    0  0.10761432401E+04  0.16415387910E+03 -0.19483280655E+04  0.22318232704E+04  0.46999998093E+01 0.  1.
       -5    1    3    3    0  502 -0.10761432401E+04 -0.16415387910E+03  0.13352696512E+04  0.17227878281E+04  0.46999998093E+01 0. -1.
</event>
<event>
 5   0  0.1164500E-08  0.3902238E+04  0.7818609E-02  0.8024564E-01
        1   -1    0    0  501    0  0.00000000000E+00  0.00000000000E+00  0.26259992287E+04  0.26259992288E+04  0.50400001928E-02 0. -1.
       -1   -1    0    0    0  501  0.00000000000E+00  0.00000000000E+00 -0.14496824672E+04  0.14496824672E+04  0.50400001928E-02 0.  1.
    10030    2    1    2    0    0  0.00000000000E+00  0.00000000000E+00  0.11763167616E+04  0.40756816960E+04  0.39022378404E+04 0.  0.
        2    1    3    3  502    0  0.55529069521E+03  0.17616731190E+04  0.12446041783E+04  0.22273031888E+04  0.25500000920E-02 0. -1.
       -2    1    3    3    0  502 -0.55529069521E+03 -0.17616731190E+04 -0.68287416786E+02  0.18483785071E+04  0.25500000920E-02 0.  1.
</event>
<event>
 5   0  0.3872969E-08  0.3897388E+04  0.7818609E-02  0.8025573E-01
        2   -1    0    0  501    0  0.00000000000E+00  0.00000000000E+00  0.22899087798E+04  0.22899087798E+04  0.25500000920E-02 0. -1.
       -2   -1    0    0    0  501  0.00000000000E+00  0.00000000000E+00 -0.16583225432E+04  0.16583225432E+04  0.25500000920E-02 0.  1.
    10030    2    1    2    0    0  0.00000000000E+00  0.00000000000E+00  0.63158623660E+03  0.39482313230E+04  0.38973875104E+04 0.  0.
        2    1    3    3  502    0  0.14968590913E+04  0.67292368109E+03 -0.74862520903E+03  0.18038439853E+04  0.25500000920E-02 0.  1.
       -2    1    3    3    0  502 -0.14968590913E+04 -0.67292368109E+03  0.13802114456E+04  0.21443873378E+04  0.25500000920E-02 0. -1.
</event>
<event>
 5   0  0.1164500E-08  0.3903168E+04  0.7818609E-02  0.8024371E-01
        1   -1    0    0  501    0  0.00000000000E+00  0.00000000000E+00  0.23268394369E+04  0.23268394369E+04  0.50400001928E-02 0. -1.
       -1   -1    0    0    0  501  0.00000000000E+00  0.00000000000E+00 -0.16368467652E+04  0.16368467652E+04  0.50400001928E-02 0.  1.
    10030    2    1    2    0    0  0.00000000000E+00  0.00000000000E+00  0.68999267171E+03  0.39636862021E+04  0.39031677419E+04 0.  0.
        5    1    3    3  502    0 -0.28598154074E+03  0.10677954266E+04  0.19782506777E+04  0.22661576177E+04  0.46999998093E+01 0. -1.
       -5    1    3    3    0  502  0.28598154074E+03 -0.10677954266E+04 -0.12882580060E+04  0.16975285843E+04  0.46999998093E+01 0.  1.
</event>
</LesHouchesEvents>
