<LesHouchesEvents version="3.0">
<header>
<!--
#*********************************************************************
#                                                                    *
#                        MadGraph5_aMC@NLO                           *
#                                                                    *
#                           Going Beyond                             *
#                                                                    *
#                   http://madgraph.hep.uiuc.edu                     *
#                   http://madgraph.phys.ucl.ac.be                   *
#                   http://amcatnlo.cern.ch                          *
#                                                                    *
#                     The MadGraph5_aMC@NLO team                     *
#                                                                    *
#....................................................................*
#                                                                    *
# This file contains all the information necessary to reproduce      *
# the events generated:                                              *
#                                                                    *
# 1. software version                                                *
# 2. proc_card          : code generation info including model       *
# 3. param_card         : model primary parameters in the LH format  *
# 4. run_card           : running parameters (collider and cuts)     *
# 5. pythia_card        : present only if pythia has been run        *
# 6. pgs_card           : present only if pgs has been run           *
# 7. delphes_cards      : present only if delphes has been run       *
#                                                                    *
#                                                                    *
#*********************************************************************
-->
<MGVersion>
#5.2.2.3
</MGVersion>
<MG5ProcCard>
#************************************************************
#*                     MadGraph5_aMC@NLO                    *
#*                                                          *
#*                *                       *                 *
#*                  *        * *        *                   *
#*                    * * * * 5 * * * *                     *
#*                  *        * *        *                   *
#*                *                       *                 *
#*                                                          *
#*                                                          *
#*         VERSION 2.2.3                 2015-02-10         *
#*                                                          *
#*    The MadGraph5_aMC@NLO Development Team - Find us at   *
#*    https://server06.fynu.ucl.ac.be/projects/madgraph     *
#*                                                          *
#************************************************************
#*                                                          *
#*               Command File for MadGraph5_aMC@NLO         *
#*                                                          *
#*     run as ./bin/mg5_aMC  filename                       *
#*                                                          *
#************************************************************
set group_subprocesses Auto
set ignore_six_quark_processes False
set loop_optimized_output True
set gauge unitary
set complex_mass_scheme False
import model sm
define p = g u c d s u~ c~ d~ s~
define j = g u c d s u~ c~ d~ s~
define l+ = e+ mu+
define l- = e- mu-
define vl = ve vm vt
define vl~ = ve~ vm~ vt~
import model Zprime_UFO
generate p p > zph, zph > j j
add process p p > zph, zph > b b~
output Dijet_signal
</MG5ProcCard>
<MGProcCard>
#*********************************************************************
#                        MadGraph/MadEvent                           *
#                   http://madgraph.hep.uiuc.edu                     *
#                                                                    *
#                          proc_card.dat                             *
#*********************************************************************
#                                                                    *
#            This Files is generated by MADGRAPH 5                   *
#                                                                    *
# WARNING: This Files is generated for MADEVENT (compatibility issue)*
#          This files is NOT a valid MG4 proc_card.dat               *
#          Running this in MG4 will NEVER reproduce the result of MG5*
#                                                                    *
#*********************************************************************
#*********************************************************************
# Process(es) requested : mg2 input                                  *
#*********************************************************************
# Begin PROCESS # This is TAG. Do not modify this line
p p > zph , zph > j j           #Process
# Be carefull the coupling are here in MG5 convention
          
end_coup           # End the couplings input

done               # this tells MG there are no more procs
# End PROCESS  # This is TAG. Do not modify this line
#*********************************************************************
# Model information                                                  *
#*********************************************************************
# Begin MODEL  # This is TAG. Do not modify this line
Zprime_UFO
# End   MODEL  # This is TAG. Do not modify this line
#*********************************************************************
# Start multiparticle definitions                                    *
#*********************************************************************
# Begin MULTIPARTICLES # This is TAG. Do not modify this line

# End  MULTIPARTICLES # This is TAG. Do not modify this line
</MGProcCard>
<MGRunCard>
#*********************************************************************
#                       MadGraph5_aMC@NLO                            *
#                                                                    *
#                     run_card.dat MadEvent                          *
#                                                                    *
#  This file is used to set the parameters of the run.               *
#                                                                    *
#  Some notation/conventions:                                        *
#                                                                    *
#   Lines starting with a '# ' are info or comments                  *
#                                                                    *
#   mind the format:   value    = variable     ! comment             *
#*********************************************************************
#
#*******************                                                 
# Running parameters
#*******************                                                 
#                                                                    
#*********************************************************************
# Tag name for the run (one word)                                    *
#*********************************************************************
  tag_1     = run_tag ! name of the run 
#*********************************************************************
# Run to generate the grid pack                                      *
#*********************************************************************
  .false.     = gridpack  !True = setting up the grid pack
#*********************************************************************
# Number of events and rnd seed                                      *
# Warning: Do not generate more than 1M events in a single run       *
# If you want to run Pythia, avoid more than 50k events in a run.    *
#*********************************************************************
  2000 = nevents ! Number of unweighted events requested 
 2361 = iseed   ! rnd seed (0=assigned automatically=default))
#*********************************************************************
# Collider type and energy                                           *
# lpp: 0=No PDF, 1=proton, -1=antiproton, 2=photon from proton,      *
#                                         3=photon from electron     *
#*********************************************************************
        1     = lpp1    ! beam 1 type 
        1     = lpp2    ! beam 2 type
     4000     = ebeam1  ! beam 1 total energy in GeV
     4000     = ebeam2  ! beam 2 total energy in GeV
#*********************************************************************
# Beam polarization from -100 (left-handed) to 100 (right-handed)    *
#*********************************************************************
        0     = polbeam1 ! beam polarization for beam 1
        0     = polbeam2 ! beam polarization for beam 2
#*********************************************************************
# PDF CHOICE: this automatically fixes also alpha_s and its evol.    *
#*********************************************************************
 'nn23lo1'    = pdlabel     ! PDF set                                     
 230000    = lhaid     ! if pdlabel=lhapdf, this is the lhapdf number
#*********************************************************************
# Renormalization and factorization scales                           *
#*********************************************************************
 F        = fixed_ren_scale  ! if .true. use fixed ren scale
 F        = fixed_fac_scale  ! if .true. use fixed fac scale
 91.1880  = scale            ! fixed ren scale
 91.1880  = dsqrt_q2fact1    ! fixed fact scale for pdf1
 91.1880  = dsqrt_q2fact2    ! fixed fact scale for pdf2
 1        = scalefact        ! scale factor for event-by-event scales
#*********************************************************************
# Matching - Warning! ickkw > 1 is still beta
#*********************************************************************
 0        = ickkw            ! 0 no matching, 1 MLM, 2 CKKW matching
 1        = highestmult      ! for ickkw=2, highest mult group
 1        = ktscheme         ! for ickkw=1, 1 Durham kT, 2 Pythia pTE
 1        = alpsfact         ! scale factor for QCD emission vx
 F        = chcluster        ! cluster only according to channel diag
 T        = pdfwgt           ! for ickkw=1, perform pdf reweighting
 5        = asrwgtflavor     ! highest quark flavor for a_s reweight
 T        = clusinfo         ! include clustering tag in output
 3.0      = lhe_version       ! Change the way clustering information pass to shower.        
#*********************************************************************
#**********************************************************
#
#**********************************************************
# Automatic ptj and mjj cuts if xqcut > 0
# (turn off for VBF and single top processes)
#**********************************************************
   T  = auto_ptj_mjj  ! Automatic setting of ptj and mjj
#**********************************************************
#                                                                    
#**********************************
# BW cutoff (M+/-bwcutoff*Gamma)
#**********************************
  15  = bwcutoff      ! (M+/-bwcutoff*Gamma)
#**********************************************************
# Apply pt/E/eta/dr/mij cuts on decay products or not
# (note that etmiss/ptll/ptheavy/ht/sorted cuts always apply)
#**********************************************************
   T  = cut_decays    ! Cut decay products 
#*************************************************************
# Number of helicities to sum per event (0 = all helicities)
# 0 gives more stable result, but longer run time (needed for
# long decay chains e.g.).
# Use >=2 if most helicities contribute, e.g. pure QCD.
#*************************************************************
   0  = nhel          ! Number of helicities used per event
#*******************                                                 
# Standard Cuts
#*******************                                                 
#                                                                    
#*********************************************************************
# Minimum and maximum pt's (for max, -1 means no cut)                *
#*********************************************************************
 20  = ptj       ! minimum pt for the jets 
  0  = ptb       ! minimum pt for the b 
 10  = pta       ! minimum pt for the photons 
 10  = ptl       ! minimum pt for the charged leptons 
  0  = misset    ! minimum missing Et (sum of neutrino's momenta)
  0  = ptheavy   ! minimum pt for one heavy final state
 1.0 = ptonium   ! minimum pt for the quarkonium states
 -1  = ptjmax    ! maximum pt for the jets
 -1  = ptbmax    ! maximum pt for the b
 -1  = ptamax    ! maximum pt for the photons
 -1  = ptlmax    ! maximum pt for the charged leptons
 -1  = missetmax ! maximum missing Et (sum of neutrino's momenta)
#*********************************************************************
# Minimum and maximum E's (in the center of mass frame)              *
#*********************************************************************
  0  = ej     ! minimum E for the jets 
  0  = eb     ! minimum E for the b 
  0  = ea     ! minimum E for the photons 
  0  = el     ! minimum E for the charged leptons 
 -1   = ejmax ! maximum E for the jets
 -1   = ebmax ! maximum E for the b
 -1   = eamax ! maximum E for the photons
 -1   = elmax ! maximum E for the charged leptons
#*********************************************************************
# Maximum and minimum absolute rapidity (for max, -1 means no cut)   *
#*********************************************************************
   5  = etaj    ! max rap for the jets 
  -1  = etab    ! max rap for the b
 2.5  = etaa    ! max rap for the photons 
 2.5  = etal    ! max rap for the charged leptons 
 0.6  = etaonium ! max rap for the quarkonium states
   0  = etajmin ! min rap for the jets
   0  = etabmin ! min rap for the b
   0  = etaamin ! min rap for the photons
   0  = etalmin ! main rap for the charged leptons
#*********************************************************************
# Minimum and maximum DeltaR distance                                *
#*********************************************************************
 0.4 = drjj    ! min distance between jets 
 0   = drbb    ! min distance between b's 
 0.4 = drll    ! min distance between leptons 
 0.4 = draa    ! min distance between gammas 
 0   = drbj    ! min distance between b and jet 
 0.4 = draj    ! min distance between gamma and jet 
 0.4 = drjl    ! min distance between jet and lepton 
 0   = drab    ! min distance between gamma and b 
 0   = drbl    ! min distance between b and lepton 
 0.4 = dral    ! min distance between gamma and lepton 
 -1  = drjjmax ! max distance between jets
 -1  = drbbmax ! max distance between b's
 -1  = drllmax ! max distance between leptons
 -1  = draamax ! max distance between gammas
 -1  = drbjmax ! max distance between b and jet
 -1  = drajmax ! max distance between gamma and jet
 -1  = drjlmax ! max distance between jet and lepton
 -1  = drabmax ! max distance between gamma and b
 -1  = drblmax ! max distance between b and lepton
 -1  = dralmax ! maxdistance between gamma and lepton
#*********************************************************************
# Minimum and maximum invariant mass for pairs                       *
# WARNING: for four lepton final state mmll cut require to have      *
#          different lepton masses for each flavor!                  *           
#*********************************************************************
 0   = mmjj    ! min invariant mass of a jet pair 
 0   = mmbb    ! min invariant mass of a b pair 
 0   = mmaa    ! min invariant mass of gamma gamma pair
 0   = mmll    ! min invariant mass of l+l- (same flavour) lepton pair
 -1  = mmjjmax ! max invariant mass of a jet pair
 -1  = mmbbmax ! max invariant mass of a b pair
 -1  = mmaamax ! max invariant mass of gamma gamma pair
 -1  = mmllmax ! max invariant mass of l+l- (same flavour) lepton pair
#*********************************************************************
# Minimum and maximum invariant mass for all letpons                 *
#*********************************************************************
 0   = mmnl    ! min invariant mass for all letpons (l+- and vl) 
 -1  = mmnlmax ! max invariant mass for all letpons (l+- and vl) 
#*********************************************************************
# Minimum and maximum pt for 4-momenta sum of leptons                *
#*********************************************************************
 0   = ptllmin  ! Minimum pt for 4-momenta sum of leptons(l and vl)
 -1  = ptllmax  ! Maximum pt for 4-momenta sum of leptons(l and vl)
#*********************************************************************
# Inclusive cuts                                                     *
#*********************************************************************
 0  = xptj ! minimum pt for at least one jet  
 0  = xptb ! minimum pt for at least one b 
 0  = xpta ! minimum pt for at least one photon 
 0  = xptl ! minimum pt for at least one charged lepton 
#*********************************************************************
# Control the pt's of the jets sorted by pt                          *
#*********************************************************************
 0   = ptj1min ! minimum pt for the leading jet in pt
 0   = ptj2min ! minimum pt for the second jet in pt
 0   = ptj3min ! minimum pt for the third jet in pt
 0   = ptj4min ! minimum pt for the fourth jet in pt
 -1  = ptj1max ! maximum pt for the leading jet in pt 
 -1  = ptj2max ! maximum pt for the second jet in pt
 -1  = ptj3max ! maximum pt for the third jet in pt
 -1  = ptj4max ! maximum pt for the fourth jet in pt
 0   = cutuse  ! reject event if fails any (0) / all (1) jet pt cuts
#*********************************************************************
# Control the pt's of leptons sorted by pt                           *
#*********************************************************************
 0   = ptl1min ! minimum pt for the leading lepton in pt
 0   = ptl2min ! minimum pt for the second lepton in pt
 0   = ptl3min ! minimum pt for the third lepton in pt
 0   = ptl4min ! minimum pt for the fourth lepton in pt
 -1  = ptl1max ! maximum pt for the leading lepton in pt 
 -1  = ptl2max ! maximum pt for the second lepton in pt
 -1  = ptl3max ! maximum pt for the third lepton in pt
 -1  = ptl4max ! maximum pt for the fourth lepton in pt
#*********************************************************************
# Control the Ht(k)=Sum of k leading jets                            *
#*********************************************************************
 0   = htjmin ! minimum jet HT=Sum(jet pt)
 -1  = htjmax ! maximum jet HT=Sum(jet pt)
 0   = ihtmin  !inclusive Ht for all partons (including b)
 -1  = ihtmax  !inclusive Ht for all partons (including b)
 0   = ht2min ! minimum Ht for the two leading jets
 0   = ht3min ! minimum Ht for the three leading jets
 0   = ht4min ! minimum Ht for the four leading jets
 -1  = ht2max ! maximum Ht for the two leading jets
 -1  = ht3max ! maximum Ht for the three leading jets
 -1  = ht4max ! maximum Ht for the four leading jets
#***********************************************************************
# Photon-isolation cuts, according to hep-ph/9801442                   *
# When ptgmin=0, all the other parameters are ignored                  *
# When ptgmin>0, pta and draj are not going to be used                 *
#***********************************************************************
   0 = ptgmin ! Min photon transverse momentum
 0.4 = R0gamma ! Radius of isolation code
 1.0 = xn ! n parameter of eq.(3.4) in hep-ph/9801442
 1.0 = epsgamma ! epsilon_gamma parameter of eq.(3.4) in hep-ph/9801442
 .true. = isoEM ! isolate photons from EM energy (photons and leptons)
#*********************************************************************
# WBF cuts                                                           *
#*********************************************************************
 0   = xetamin ! minimum rapidity for two jets in the WBF case  
 0   = deltaeta ! minimum rapidity for two jets in the WBF case 
#*********************************************************************
# KT DURHAM CUT                                                      *
#*********************************************************************
 -1    =  ktdurham        
 0.4  =  dparameter 
#*********************************************************************
# maximal pdg code for quark to be considered as a light jet         *
# (otherwise b cuts are applied)                                     *
#*********************************************************************
 4 = maxjetflavor    ! Maximum jet pdg code
#*********************************************************************
# Jet measure cuts                                                   *
#*********************************************************************
 0   = xqcut   ! minimum kt jet measure between partons
#*********************************************************************
#
#*********************************************************************
# Store info for systematics studies                                 *
# WARNING: If use_syst is T, matched Pythia output is                *
#          meaningful ONLY if plotted taking matchscale              *
#          reweighting into account!                                 *
#*********************************************************************
   F  = use_syst      ! Enable systematics studies
#
#**************************************
# Parameter of the systematics study
#  will be used by SysCalc (if installed)
#**************************************                                  
#
0.5 1 2 = sys_scalefact  # factorization/renormalization scale factor
0.5 1 2 = sys_alpsfact  # \alpha_s emission scale factors
30 50 = sys_matchscale # variation of merging scale
# PDF sets and number of members (0 or none for all members).
CT10nlo.LHgrid = sys_pdf # matching scales
# MSTW2008nlo68cl.LHgrid 1  = sys_pdf
</MGRunCard>
<slha>
######################################################################
## PARAM_CARD AUTOMATICALY GENERATED BY MG5 FOLLOWING UFO MODEL   ####
######################################################################
##                                                                  ##
##  Width set on Auto will be computed following the information    ##
##        present in the decay.py files of the model.               ##
##        See  arXiv:1402.1178 for more details.                    ##
##                                                                  ##
######################################################################

###################################
## INFORMATION FOR CKMBLOCK
###################################
Block ckmblock 
    1 2.277360e-01 # cabi 

###################################
## INFORMATION FOR FRBLOCK
###################################
Block frblock 
    1 1.200000e+00 # gz 

###################################
## INFORMATION FOR MASS
###################################
Block mass 
    1 5.040000e-03 # MD 
    2 2.550000e-03 # MU 
    3 1.010000e-01 # MS 
    4 1.270000e+00 # MC 
    5 4.700000e+00 # MB 
    6 1.720000e+02 # MT 
   11 5.110000e-04 # Me 
   13 1.056600e-01 # MM 
   15 1.777000e+00 # MTA 
   23 9.118760e+01 # MZ 
   25 1.200000e+02 # MH 
  10030 3.200000e+03 # MZph 
  10031 3.000000e+02 # MZpl 
## Dependent parameters, given by model restrictions.
## Those values should be edited following the 
## analytical expression. MG5 ignores those values 
## but they are important for interfacing the output of MG5
## to external program such as Pythia.
  12 0.000000 # ve : 0.0 
  14 0.000000 # vm : 0.0 
  16 0.000000 # vt : 0.0 
  21 0.000000 # g : 0.0 
  22 0.000000 # a : 0.0 
  24 79.824360 # w+ : cmath.sqrt(MZ__exp__2/2. + cmath.sqrt(MZ__exp__4/4. - (aEW*cmath.pi*MZ__exp__2)/(Gf*sqrt__2))) 

###################################
## INFORMATION FOR SMINPUTS
###################################
Block sminputs 
    1 1.279000e+02 # aEWM1 
    2 1.166370e-05 # Gf 
    3 1.184000e-01 # aS 

###################################
## INFORMATION FOR YUKAWA
###################################
Block yukawa 
    1 5.040000e-03 # ymdo 
    2 2.550000e-03 # ymup 
    3 1.010000e-01 # yms 
    4 1.270000e+00 # ymc 
    5 4.700000e+00 # ymb 
    6 1.720000e+02 # ymt 
   11 5.110000e-04 # yme 
   13 1.056600e-01 # ymm 
   15 1.777000e+00 # ymtau 

###################################
## INFORMATION FOR DECAY
###################################
DECAY   6 1.508336e+00 # WT 
DECAY  23 2.495200e+00 # WZ 
DECAY  24 2.085000e+00 # WW 
DECAY  25 5.753088e-03 # WH 
## Dependent parameters, given by model restrictions.
## Those values should be edited following the 
## analytical expression. MG5 ignores those values 
## but they are important for interfacing the output of MG5
## to external program such as Pythia.
DECAY  1 0.000000 # d : 0.0 
DECAY  2 0.000000 # u : 0.0 
DECAY  3 0.000000 # s : 0.0 
DECAY  4 0.000000 # c : 0.0 
DECAY  5 0.000000 # b : 0.0 
DECAY  11 0.000000 # e- : 0.0 
DECAY  12 0.000000 # ve : 0.0 
DECAY  13 0.000000 # mu- : 0.0 
DECAY  14 0.000000 # vm : 0.0 
DECAY  15 0.000000 # ta- : 0.0 
DECAY  16 0.000000 # vt : 0.0 
DECAY  21 0.000000 # g : 0.0 
DECAY  22 0.000000 # a : 0.0 
DECAY  10030 0.308725 # zph : (gz__exp__2*MZph*(5 + cmath.sqrt(1 - (4*MT__exp__2)/MZph__exp__2)))/(144.*cmath.pi) 
DECAY  10031 0.132629 # zpl : (5*gz__exp__2*MZpl)/(144.*cmath.pi) 
#===========================================================
# QUANTUM NUMBERS OF NEW STATE(S) (NON SM PDG CODE)
#===========================================================

Block QNUMBERS 10030  # zph 
        1 0  # 3 times electric charge
        2 3  # number of spin states (2S+1)
        3 1  # colour rep (1: singlet, 3: triplet, 8: octet)
        4 0  # Particle/Antiparticle distinction (0=own anti)
Block QNUMBERS 10031  # zpl 
        1 0  # 3 times electric charge
        2 3  # number of spin states (2S+1)
        3 1  # colour rep (1: singlet, 3: triplet, 8: octet)
        4 0  # Particle/Antiparticle distinction (0=own anti)
</slha>
## END BANNER##
<MGGenerationInfo>
#  Number of Events        :         3919
#  Integrated weight (pb)  :  0.94846E-03
#  Max wgt                 :  0.37581E-06
#  Average wgt             :  0.24202E-06
</MGGenerationInfo>
</header>
<init>
     2212     2212  0.40000000000E+04  0.40000000000E+04 0 0  247000  247000 2   1
  0.94907629310E-03  0.24014594140E-05  0.37580620000E-06   0
</init>
<event>
 5   0  0.3531437E-06  0.3066289E+04  0.7818609E-02  0.8225051E-01
        2   -1    0    0  501    0  0.00000000000E+00  0.00000000000E+00  0.22591288577E+04  0.22591288577E+04  0.25500000920E-02 0.  1.
       -2   -1    0    0    0  501  0.00000000000E+00  0.00000000000E+00 -0.10404593051E+04  0.10404593051E+04  0.25500000920E-02 0. -1.
    10030    2    1    2    0    0  0.00000000000E+00  0.00000000000E+00  0.12186695526E+04  0.32995881628E+04  0.30662887284E+04 0.  0.
        1    1    3    3  502    0  0.96714214633E+03 -0.11146070168E+04  0.10566794997E+04  0.18150163355E+04  0.50400001928E-02 0. -1.
       -1    1    3    3    0  502 -0.96714214633E+03  0.11146070168E+04  0.16199005281E+03  0.14845718273E+04  0.50400001928E-02 0.  1.
</event>
<event>
 5   0  0.3531437E-06  0.3205177E+04  0.7818609E-02  0.8187451E-01
       -2   -1    0    0    0  501  0.00000000000E+00  0.00000000000E+00  0.18478326561E+04  0.18478326561E+04  0.25500000920E-02 0.  1.
        2   -1    0    0  501    0  0.00000000000E+00  0.00000000000E+00 -0.13898928271E+04  0.13898928271E+04  0.25500000920E-02 0. -1.
    10030    2    1    2    0    0  0.00000000000E+00  0.00000000000E+00  0.45793982895E+03  0.32377254832E+04  0.32051766593E+04 0.  0.
        1    1    3    3  502    0 -0.88762447276E+03  0.63261730935E+03 -0.95778282222E+03  0.14510099239E+04  0.50400001928E-02 0. -1.
       -1    1    3    3    0  502  0.88762447276E+03 -0.63261730935E+03  0.14157226512E+04  0.17867155593E+04  0.50400001928E-02 0.  1.
</event>
<event>
 5   0  0.3656086E-06  0.2288118E+04  0.7818609E-02  0.8482621E-01
       -2   -1    0    0    0  501  0.00000000000E+00  0.00000000000E+00  0.68807683318E+03  0.68807683318E+03  0.25500000920E-02 0. -1.
        2   -1    0    0  501    0  0.00000000000E+00  0.00000000000E+00 -0.19022161738E+04  0.19022161738E+04  0.25500000920E-02 0.  1.
    10030    2    1    2    0    0  0.00000000000E+00  0.00000000000E+00 -0.12141393407E+04  0.25902930070E+04  0.22881178999E+04 0.  0.
        3    1    3    3  502    0 -0.76350764098E+03  0.18901225491E+03  0.33342943637E+03  0.85430951626E+03  0.10100000352E+00 0. -1.
       -3    1    3    3    0  502  0.76350764098E+03 -0.18901225491E+03 -0.15475687770E+04  0.17359834908E+04  0.10100000352E+00 0.  1.
</event>
<event>
 5   0  0.3531437E-06  0.3263471E+04  0.7818609E-02  0.8172253E-01
        2   -1    0    0  501    0  0.00000000000E+00  0.00000000000E+00  0.19094611846E+04  0.19094611846E+04  0.25500000920E-02 0. -1.
       -2   -1    0    0    0  501  0.00000000000E+00  0.00000000000E+00 -0.13944045396E+04  0.13944045396E+04  0.25500000920E-02 0.  1.
    10030    2    1    2    0    0  0.00000000000E+00  0.00000000000E+00  0.51505664494E+03  0.33038657242E+04  0.32634713690E+04 0.  0.
        1    1    3    3  502    0  0.80613996714E+03  0.11582245865E+04  0.10869465425E+04  0.17812351405E+04  0.50400001928E-02 0. -1.
       -1    1    3    3    0  502 -0.80613996714E+03 -0.11582245865E+04 -0.57188989759E+03  0.15226305837E+04  0.50400001928E-02 0.  1.
</event>
<event>
 5   0  0.3656086E-06  0.3187171E+04  0.7818609E-02  0.8192213E-01
        2   -1    0    0  501    0  0.00000000000E+00  0.00000000000E+00  0.21683548089E+04  0.21683548089E+04  0.25500000920E-02 0.  1.
       -2   -1    0    0    0  501  0.00000000000E+00  0.00000000000E+00 -0.11711715224E+04  0.11711715224E+04  0.25500000920E-02 0. -1.
    10030    2    1    2    0    0  0.00000000000E+00  0.00000000000E+00  0.99718328652E+03  0.33395263313E+04  0.31871714122E+04 0.  0.
        3    1    3    3  502    0 -0.74212615190E+03 -0.66552167984E+03  0.18013456938E+04  0.20587658076E+04  0.10100000352E+00 0.  1.
       -3    1    3    3    0  502  0.74212615190E+03  0.66552167984E+03 -0.80416240727E+03  0.12807605237E+04  0.10100000352E+00 0. -1.
</event>
<event>
 5   0  0.1268836E-06  0.3159681E+04  0.7818609E-02  0.8199547E-01
       -1   -1    0    0    0  501  0.00000000000E+00  0.00000000000E+00  0.19065849765E+04  0.19065849765E+04  0.50400001928E-02 0.  1.
        1   -1    0    0  501    0  0.00000000000E+00  0.00000000000E+00 -0.13090926453E+04  0.13090926453E+04  0.50400001928E-02 0. -1.
    10030    2    1    2    0    0  0.00000000000E+00  0.00000000000E+00  0.59749233117E+03  0.32156776218E+04  0.31596812310E+04 0.  0.
        1    1    3    3  502    0 -0.47397155924E+03  0.11654350540E+04 -0.67370238939E+03  0.14271519939E+04  0.50400001928E-02 0. -1.
       -1    1    3    3    0  502  0.47397155924E+03 -0.11654350540E+04  0.12711947206E+04  0.17885256279E+04  0.50400001928E-02 0.  1.
</event>
<event>
 5   0  0.1240725E-06  0.3165385E+04  0.7818609E-02  0.8198019E-01
        1   -1    0    0  501    0  0.00000000000E+00  0.00000000000E+00  0.13842279012E+04  0.13842279012E+04  0.50400001928E-02 0. -1.
       -1   -1    0    0    0  501  0.00000000000E+00  0.00000000000E+00 -0.18096124765E+04  0.18096124765E+04  0.50400001928E-02 0.  1.
    10030    2    1    2    0    0  0.00000000000E+00  0.00000000000E+00 -0.42538457536E+03  0.31938403777E+04  0.31653853354E+04 0.  0.
        3    1    3    3  502    0  0.12006414417E+04  0.10309873344E+04 -0.19149594417E+03  0.15940970679E+04  0.10100000352E+00 0. -1.
       -3    1    3    3    0  502 -0.12006414417E+04 -0.10309873344E+04 -0.23388863118E+03  0.15997433098E+04  0.10100000352E+00 0.  1.
</event>
<event>
 5   0  0.3531437E-06  0.2879722E+04  0.7818609E-02  0.8278936E-01
        2   -1    0    0  501    0  0.00000000000E+00  0.00000000000E+00  0.18955740486E+04  0.18955740486E+04  0.25500000920E-02 0. -1.
       -2   -1    0    0    0  501  0.00000000000E+00  0.00000000000E+00 -0.10937056457E+04  0.10937056457E+04  0.25500000920E-02 0.  1.
    10030    2    1    2    0    0  0.00000000000E+00  0.00000000000E+00  0.80186840291E+03  0.29892796944E+04  0.28797222358E+04 0.  0.
        1    1    3    3  502    0  0.93741985322E+01 -0.50350385932E+03  0.18011773044E+04  0.18702523075E+04  0.50400001928E-02 0. -1.
       -1    1    3    3    0  502 -0.93741985322E+01  0.50350385932E+03 -0.99930890147E+03  0.11190273869E+04  0.50400001928E-02 0.  1.
</event>
<event>
 5   0  0.1273754E-06  0.3242046E+04  0.7818609E-02  0.8177800E-01
        1   -1    0    0  501    0  0.00000000000E+00  0.00000000000E+00  0.18696177904E+04  0.18696177905E+04  0.50400001928E-02 0. -1.
       -1   -1    0    0    0  501  0.00000000000E+00  0.00000000000E+00 -0.14054828623E+04  0.14054828623E+04  0.50400001928E-02 0.  1.
    10030    2    1    2    0    0  0.00000000000E+00  0.00000000000E+00  0.46413492811E+03  0.32751006528E+04  0.32420461216E+04 0.  0.
        2    1    3    3  502    0  0.57585851024E+03 -0.38352980800E+03 -0.12488281302E+04  0.14276833809E+04  0.25500000920E-02 0.  1.
       -2    1    3    3    0  502 -0.57585851024E+03  0.38352980800E+03  0.17129630583E+04  0.18474172719E+04  0.25500000920E-02 0. -1.
</event>
<event>
 5   0  0.3531437E-06  0.3114957E+04  0.7818609E-02  0.8211645E-01
        2   -1    0    0  501    0  0.00000000000E+00  0.00000000000E+00  0.16122318044E+04  0.16122318044E+04  0.25500000920E-02 0. -1.
       -2   -1    0    0    0  501  0.00000000000E+00  0.00000000000E+00 -0.15045848841E+04  0.15045848841E+04  0.25500000920E-02 0.  1.
    10030    2    1    2    0    0  0.00000000000E+00  0.00000000000E+00  0.10764692028E+03  0.31168166885E+04  0.31149572084E+04 0.  0.
        1    1    3    3  502    0 -0.11442293552E+04 -0.20264402428E+03  0.10914642984E+04  0.15942458194E+04  0.50400001928E-02 0. -1.
       -1    1    3    3    0  502  0.11442293552E+04  0.20264402428E+03 -0.98381737812E+03  0.15225708691E+04  0.50400001928E-02 0.  1.
</event>
<event>
 5   0  0.1273754E-06  0.3176625E+04  0.7818609E-02  0.8195018E-01
        1   -1    0    0  501    0  0.00000000000E+00  0.00000000000E+00  0.10669767961E+04  0.10669767961E+04  0.50400001928E-02 0.  1.
       -1   -1    0    0    0  501  0.00000000000E+00  0.00000000000E+00 -0.23643777928E+04  0.23643777928E+04  0.50400001928E-02 0. -1.
    10030    2    1    2    0    0  0.00000000000E+00  0.00000000000E+00 -0.12974009967E+04  0.34313545890E+04  0.31766247763E+04 0.  0.
        2    1    3    3  502    0  0.56210940241E+03  0.67118581200E+03  0.78281620037E+03  0.11744183999E+04  0.25500000920E-02 0.  1.
       -2    1    3    3    0  502 -0.56210940241E+03 -0.67118581200E+03 -0.20802171971E+04  0.22569361891E+04  0.25500000920E-02 0. -1.
</event>
<event>
 5   0  0.3745943E-06  0.3210282E+04  0.7818609E-02  0.8186107E-01
        2   -1    0    0  501    0  0.00000000000E+00  0.00000000000E+00  0.81098446541E+03  0.81098446541E+03  0.25500000920E-02 0. -1.
       -2   -1    0    0    0  501  0.00000000000E+00  0.00000000000E+00 -0.31769760730E+04  0.31769760730E+04  0.25500000920E-02 0.  1.
    10030    2    1    2    0    0  0.00000000000E+00  0.00000000000E+00 -0.23659916076E+04  0.39879605384E+04  0.32102823815E+04 0.  0.
        5    1    3    3  502    0 -0.14835364424E+04  0.40263430277E+03 -0.60905475373E+03  0.16534704536E+04  0.46999998093E+01 0. -1.
       -5    1    3    3    0  502  0.14835364424E+04 -0.40263430277E+03 -0.17569368539E+04  0.23344900849E+04  0.46999998093E+01 0.  1.
</event>
<event>
 5   0  0.1306843E-06  0.3073779E+04  0.7818609E-02  0.8222971E-01
        1   -1    0    0  501    0  0.00000000000E+00  0.00000000000E+00  0.19409806577E+04  0.19409806577E+04  0.50400001928E-02 0.  1.
       -1   -1    0    0    0  501  0.00000000000E+00  0.00000000000E+00 -0.12169260290E+04  0.12169260290E+04  0.50400001928E-02 0. -1.
    10030    2    1    2    0    0  0.00000000000E+00  0.00000000000E+00  0.72405462868E+03  0.31579066867E+04  0.30737793572E+04 0.  0.
        5    1    3    3  502    0 -0.39281771638E+03  0.14850171897E+04  0.31142499868E+03  0.15673510876E+04  0.46999998093E+01 0. -1.
       -5    1    3    3    0  502  0.39281771638E+03 -0.14850171897E+04  0.41262963000E+03  0.15905555991E+04  0.46999998093E+01 0.  1.
</event>
<event>
 5   0  0.1268836E-06  0.2936128E+04  0.7818609E-02  0.8262209E-01
       -1   -1    0    0    0  501  0.00000000000E+00  0.00000000000E+00  0.15348936848E+04  0.15348936848E+04  0.50400001928E-02 0.  1.
        1   -1    0    0  501    0  0.00000000000E+00  0.00000000000E+00 -0.14041440803E+04  0.14041440803E+04  0.50400001928E-02 0. -1.
    10030    2    1    2    0    0  0.00000000000E+00  0.00000000000E+00  0.13074960442E+03  0.29390377651E+04  0.29361279818E+04 0.  0.
        1    1    3    3  502    0  0.43916073126E+03 -0.54451859231E+03  0.13573317197E+04  0.15269944475E+04  0.50400001928E-02 0.  1.
       -1    1    3    3    0  502 -0.43916073126E+03  0.54451859231E+03 -0.12265821153E+04  0.14120433176E+04  0.50400001928E-02 0. -1.
</event>
<event>
 5   0  0.1240725E-06  0.3166860E+04  0.7818609E-02  0.8197625E-01
        1   -1    0    0  501    0  0.00000000000E+00  0.00000000000E+00  0.18377861357E+04  0.18377861357E+04  0.50400001928E-02 0. -1.
       -1   -1    0    0    0  501  0.00000000000E+00  0.00000000000E+00 -0.13642778898E+04  0.13642778898E+04  0.50400001928E-02 0.  1.
    10030    2    1    2    0    0  0.00000000000E+00  0.00000000000E+00  0.47350824589E+03  0.32020640256E+04  0.31668602692E+04 0.  0.
        3    1    3    3  502    0 -0.75028958377E+03 -0.21265157425E+03  0.16301500924E+04  0.18070817595E+04  0.10100000352E+00 0. -1.
       -3    1    3    3    0  502  0.75028958377E+03  0.21265157425E+03 -0.11566418465E+04  0.13949822661E+04  0.10100000352E+00 0.  1.
</event>
<event>
 5   0  0.1240725E-06  0.3104791E+04  0.7818609E-02  0.8214424E-01
       -1   -1    0    0    0  501  0.00000000000E+00  0.00000000000E+00  0.93099099270E+03  0.93099099271E+03  0.50400001928E-02 0. -1.
        1   -1    0    0  501    0  0.00000000000E+00  0.00000000000E+00 -0.25885659124E+04  0.25885659124E+04  0.50400001928E-02 0.  1.
    10030    2    1    2    0    0  0.00000000000E+00  0.00000000000E+00 -0.16575749197E+04  0.35195569051E+04  0.31047908454E+04 0.  0.
        3    1    3    3  502    0  0.32622369354E+03  0.14260099835E+04 -0.14178232447E+04  0.20371914822E+04  0.10100000352E+00 0.  1.
       -3    1    3    3    0  502 -0.32622369354E+03 -0.14260099835E+04 -0.23975167497E+03  0.14823654230E+04  0.10100000352E+00 0. -1.
</event>
<event>
 5   0  0.3531437E-06  0.3214484E+04  0.7818609E-02  0.8185002E-01
       -2   -1    0    0    0  501  0.00000000000E+00  0.00000000000E+00  0.15038774067E+04  0.15038774067E+04  0.25500000920E-02 0.  1.
        2   -1    0    0  501    0  0.00000000000E+00  0.00000000000E+00 -0.17177108210E+04  0.17177108210E+04  0.25500000920E-02 0. -1.
    10030    2    1    2    0    0  0.00000000000E+00  0.00000000000E+00 -0.21383341422E+03  0.32215882277E+04  0.32144837812E+04 0.  0.
        1    1    3    3  502    0 -0.14427945698E+04  0.31838906585E+03  0.52709407298E+03  0.15687115508E+04  0.50400001928E-02 0.  1.
       -1    1    3    3    0  502  0.14427945698E+04 -0.31838906585E+03 -0.74092748720E+03  0.16528766769E+04  0.50400001928E-02 0. -1.
</event>
<event>
 5   0  0.1273980E-06  0.3181040E+04  0.7818609E-02  0.8193842E-01
       -1   -1    0    0    0  501  0.00000000000E+00  0.00000000000E+00  0.11310688819E+04  0.11310688819E+04  0.50400001928E-02 0.  1.
        1   -1    0    0  501    0  0.00000000000E+00  0.00000000000E+00 -0.22366048944E+04  0.22366048944E+04  0.50400001928E-02 0. -1.
    10030    2    1    2    0    0  0.00000000000E+00  0.00000000000E+00 -0.11055360125E+04  0.33676737762E+04  0.31810402054E+04 0.  0.
        4    1    3    3  502    0 -0.59183973221E+03 -0.68062143063E+03  0.83414414673E+03  0.12285429870E+04  0.12699999809E+01 0.  1.
       -4    1    3    3    0  502  0.59183973221E+03  0.68062143063E+03 -0.19396801592E+04  0.21391307893E+04  0.12699999809E+01 0. -1.
</event>
<event>
 5   0  0.1268836E-06  0.3150936E+04  0.7818609E-02  0.8201896E-01
       -1   -1    0    0    0  501  0.00000000000E+00  0.00000000000E+00  0.16233265349E+04  0.16233265349E+04  0.50400001928E-02 0. -1.
        1   -1    0    0  501    0  0.00000000000E+00  0.00000000000E+00 -0.15290208114E+04  0.15290208114E+04  0.50400001928E-02 0.  1.
    10030    2    1    2    0    0  0.00000000000E+00  0.00000000000E+00  0.94305723506E+02  0.31523473463E+04  0.31509364040E+04 0.  0.
        1    1    3    3  502    0 -0.10050797747E+04 -0.59488161629E+03 -0.10106902568E+04  0.15445272047E+04  0.50400001928E-02 0.  1.
       -1    1    3    3    0  502  0.10050797747E+04  0.59488161629E+03  0.11049959803E+04  0.16078201415E+04  0.50400001928E-02 0. -1.
</event>
<event>
 5   0  0.3758062E-06  0.3310556E+04  0.7818609E-02  0.8160215E-01
        2   -1    0    0  501    0  0.00000000000E+00  0.00000000000E+00  0.17878836369E+04  0.17878836369E+04  0.25500000920E-02 0. -1.
       -2   -1    0    0    0  501  0.00000000000E+00  0.00000000000E+00 -0.15325073506E+04  0.15325073506E+04  0.25500000920E-02 0.  1.
    10030    2    1    2    0    0  0.00000000000E+00  0.00000000000E+00  0.25537628627E+03  0.33203909875E+04  0.33105557331E+04 0.  0.
        2    1    3    3  502    0  0.13231457012E+04  0.47908440563E+03  0.10018901262E+04  0.17274316887E+04  0.25500000920E-02 0. -1.
       -2    1    3    3    0  502 -0.13231457012E+04 -0.47908440563E+03 -0.74651383990E+03  0.15929592987E+04  0.25500000920E-02 0.  1.
</event>
<event>
 5   0  0.1240725E-06  0.3198998E+04  0.7818609E-02  0.8189082E-01
       -1   -1    0    0    0  501  0.00000000000E+00  0.00000000000E+00  0.10977362171E+04  0.10977362171E+04  0.50400001928E-02 0.  1.
        1   -1    0    0  501    0  0.00000000000E+00  0.00000000000E+00 -0.23306122818E+04  0.23306122818E+04  0.50400001928E-02 0. -1.
    10030    2    1    2    0    0  0.00000000000E+00  0.00000000000E+00 -0.12328760647E+04  0.34283484990E+04  0.31989982869E+04 0.  0.
        3    1    3    3  502    0  0.17144027775E+03 -0.63529131740E+03  0.94596251883E+03  0.11523158959E+04  0.10100000352E+00 0.  1.
       -3    1    3    3    0  502 -0.17144027775E+03  0.63529131740E+03 -0.21788385835E+04  0.22760326030E+04  0.10100000352E+00 0. -1.
</event>
<event>
 5   0  0.3656086E-06  0.3191123E+04  0.7818609E-02  0.8191165E-01
       -2   -1    0    0    0  501  0.00000000000E+00  0.00000000000E+00  0.12079220016E+04  0.12079220016E+04  0.25500000920E-02 0. -1.
        2   -1    0    0  501    0  0.00000000000E+00  0.00000000000E+00 -0.21076006244E+04  0.21076006244E+04  0.25500000920E-02 0.  1.
    10030    2    1    2    0    0  0.00000000000E+00  0.00000000000E+00 -0.89967862277E+03  0.33155226260E+04  0.31911234165E+04 0.  0.
        3    1    3    3  502    0 -0.12160050211E+04 -0.10024693216E+04 -0.70896964724E+03  0.17280772330E+04  0.10100000352E+00 0. -1.
       -3    1    3    3    0  502  0.12160050211E+04  0.10024693216E+04 -0.19070897553E+03  0.15874453930E+04  0.10100000352E+00 0.  1.
</event>
<event>
 5   0  0.1268836E-06  0.3252629E+04  0.7818609E-02  0.8175055E-01
        1   -1    0    0  501    0  0.00000000000E+00  0.00000000000E+00  0.19145323655E+04  0.19145323655E+04  0.50400001928E-02 0. -1.
       -1   -1    0    0    0  501  0.00000000000E+00  0.00000000000E+00 -0.13814858264E+04  0.13814858264E+04  0.50400001928E-02 0.  1.
    10030    2    1    2    0    0  0.00000000000E+00  0.00000000000E+00  0.53304653907E+03  0.32960181919E+04  0.32526292916E+04 0.  0.
        1    1    3    3  502    0 -0.41854407214E+03 -0.14882831369E+04 -0.24492069173E+03  0.15652961321E+04  0.50400001928E-02 0.  1.
       -1    1    3    3    0  502  0.41854407214E+03  0.14882831369E+04  0.77796723080E+03  0.17307220598E+04  0.50400001928E-02 0. -1.
</event>
<event>
 5   0  0.3758062E-06  0.3133025E+04  0.7818609E-02  0.8206733E-01
       -2   -1    0    0    0  501  0.00000000000E+00  0.00000000000E+00  0.11768444367E+04  0.11768444368E+04  0.25500000920E-02 0.  1.
        2   -1    0    0  501    0  0.00000000000E+00  0.00000000000E+00 -0.20852042253E+04  0.20852042253E+04  0.25500000920E-02 0. -1.
    10030    2    1    2    0    0  0.00000000000E+00  0.00000000000E+00 -0.90835978853E+03  0.32620486620E+04  0.31330247315E+04 0.  0.
        2    1    3    3  502    0  0.14185069206E+03 -0.13903301596E+04  0.28265139571E+03  0.14258440949E+04  0.25500000920E-02 0.  1.
       -2    1    3    3    0  502 -0.14185069206E+03  0.13903301596E+04 -0.11910111842E+04  0.18362045671E+04  0.25500000920E-02 0. -1.
</event>
<event>
 5   0  0.1273754E-06  0.3156950E+04  0.7818609E-02  0.8200280E-01
        1   -1    0    0  501    0  0.00000000000E+00  0.00000000000E+00  0.19679105637E+04  0.19679105637E+04  0.50400001928E-02 0.  1.
       -1   -1    0    0    0  501  0.00000000000E+00  0.00000000000E+00 -0.12661056582E+04  0.12661056582E+04  0.50400001928E-02 0. -1.
    10030    2    1    2    0    0  0.00000000000E+00  0.00000000000E+00  0.70180490549E+03  0.32340162220E+04  0.31569496034E+04 0.  0.
        2    1    3    3  502    0  0.97643436179E+03  0.12379702894E+04  0.42748159251E+03  0.16336263381E+04  0.25500000920E-02 0.  1.
       -2    1    3    3    0  502 -0.97643436179E+03 -0.12379702894E+04  0.27432331299E+03  0.16003898839E+04  0.25500000920E-02 0. -1.
</event>
<event>
 5   0  0.3656086E-06  0.2969801E+04  0.7818609E-02  0.8252407E-01
        2   -1    0    0  501    0  0.00000000000E+00  0.00000000000E+00  0.12794060091E+04  0.12794060091E+04  0.25500000920E-02 0. -1.
       -2   -1    0    0    0  501  0.00000000000E+00  0.00000000000E+00 -0.17234013060E+04  0.17234013060E+04  0.25500000920E-02 0.  1.
    10030    2    1    2    0    0  0.00000000000E+00  0.00000000000E+00 -0.44399529683E+03  0.30028073151E+04  0.29698013314E+04 0.  0.
        3    1    3    3  502    0 -0.14701217120E+04  0.16276611016E+03 -0.89471041769E+02  0.14818082643E+04  0.10100000352E+00 0.  1.
       -3    1    3    3    0  502  0.14701217120E+04 -0.16276611016E+03 -0.35452425506E+03  0.15209990508E+04  0.10100000352E+00 0. -1.
</event>
<event>
 5   0  0.3745943E-06  0.3218393E+04  0.7818609E-02  0.8183977E-01
       -2   -1    0    0    0  501  0.00000000000E+00  0.00000000000E+00  0.11215721583E+04  0.11215721583E+04  0.25500000920E-02 0. -1.
        2   -1    0    0  501    0  0.00000000000E+00  0.00000000000E+00 -0.23088242886E+04  0.23088242886E+04  0.25500000920E-02 0.  1.
    10030    2    1    2    0    0  0.00000000000E+00  0.00000000000E+00 -0.11872521303E+04  0.34303964468E+04  0.32183927917E+04 0.  0.
        5    1    3    3  502    0  0.13182995736E+04 -0.62006001940E+03 -0.13220957483E+04  0.19673198649E+04  0.46999998093E+01 0.  1.
       -5    1    3    3    0  502 -0.13182995736E+04  0.62006001940E+03  0.13484361799E+03  0.14630765819E+04  0.46999998093E+01 0. -1.
</event>
<event>
 5   0  0.1273754E-06  0.3145443E+04  0.7818609E-02  0.8203376E-01
       -1   -1    0    0    0  501  0.00000000000E+00  0.00000000000E+00  0.92268001456E+03  0.92268001457E+03  0.50400001928E-02 0. -1.
        1   -1    0    0  501    0  0.00000000000E+00  0.00000000000E+00 -0.26807269074E+04  0.26807269074E+04  0.50400001928E-02 0.  1.
    10030    2    1    2    0    0  0.00000000000E+00  0.00000000000E+00 -0.17580468928E+04  0.36034069220E+04  0.31454431433E+04 0.  0.
        2    1    3    3  502    0  0.94805399467E+03 -0.90221925516E+03  0.12010908369E+03  0.13142420451E+04  0.25500000920E-02 0. -1.
       -2    1    3    3    0  502 -0.94805399467E+03  0.90221925516E+03 -0.18781559765E+04  0.22891648768E+04  0.25500000920E-02 0.  1.
</event>
<event>
 5   0  0.3656086E-06  0.3206587E+04  0.7818609E-02  0.8187080E-01
        2   -1    0    0  501    0  0.00000000000E+00  0.00000000000E+00  0.19713776499E+04  0.19713776499E+04  0.25500000920E-02 0. -1.
       -2   -1    0    0    0  501  0.00000000000E+00  0.00000000000E+00 -0.13039358221E+04  0.13039358221E+04  0.25500000920E-02 0.  1.
    10030    2    1    2    0    0  0.00000000000E+00  0.00000000000E+00  0.66744182772E+03  0.32753134720E+04  0.32065869311E+04 0.  0.
        3    1    3    3  502    0 -0.13819485964E+04  0.76807915310E+03  0.61892263975E+02  0.15822636225E+04  0.10100000352E+00 0. -1.
       -3    1    3    3    0  502  0.13819485964E+04 -0.76807915310E+03  0.60554956374E+03  0.16930498495E+04  0.10100000352E+00 0.  1.
</event>
<event>
 5   0  0.3531437E-06  0.3248938E+04  0.7818609E-02  0.8176011E-01
       -2   -1    0    0    0  501  0.00000000000E+00  0.00000000000E+00  0.13044239258E+04  0.13044239258E+04  0.25500000920E-02 0. -1.
        2   -1    0    0  501    0  0.00000000000E+00  0.00000000000E+00 -0.20230382265E+04  0.20230382266E+04  0.25500000920E-02 0.  1.
    10030    2    1    2    0    0  0.00000000000E+00  0.00000000000E+00 -0.71861430073E+03  0.33274621524E+04  0.32489379591E+04 0.  0.
        1    1    3    3  502    0  0.42114725511E+03 -0.39161609647E+03  0.11966789866E+04  0.13276930272E+04  0.50400001928E-02 0. -1.
       -1    1    3    3    0  502 -0.42114725511E+03  0.39161609647E+03 -0.19152932873E+04  0.19997691252E+04  0.50400001928E-02 0.  1.
</event>
<event>
 5   0  0.1306843E-06  0.3196623E+04  0.7818609E-02  0.8189710E-01
       -1   -1    0    0    0  501  0.00000000000E+00  0.00000000000E+00  0.16532133976E+04  0.16532133976E+04  0.50400001928E-02 0.  1.
        1   -1    0    0  501    0  0.00000000000E+00  0.00000000000E+00 -0.15452326203E+04  0.15452326203E+04  0.50400001928E-02 0. -1.
    10030    2    1    2    0    0  0.00000000000E+00  0.00000000000E+00  0.10798077730E+03  0.31984460180E+04  0.31966227618E+04 0.  0.
        5    1    3    3  502    0  0.14129531112E+04  0.63542781490E+03  0.44711673800E+03  0.16124951069E+04  0.46999998093E+01 0. -1.
       -5    1    3    3    0  502 -0.14129531112E+04 -0.63542781490E+03 -0.33913596070E+03  0.15859509110E+04  0.46999998093E+01 0.  1.
</event>
<event>
 5   0  0.3656086E-06  0.3369803E+04  0.7818609E-02  0.8145358E-01
       -2   -1    0    0    0  501  0.00000000000E+00  0.00000000000E+00  0.18072534784E+04  0.18072534784E+04  0.25500000920E-02 0. -1.
        2   -1    0    0  501    0  0.00000000000E+00  0.00000000000E+00 -0.15708329164E+04  0.15708329164E+04  0.25500000920E-02 0.  1.
    10030    2    1    2    0    0  0.00000000000E+00  0.00000000000E+00  0.23642056203E+03  0.33780863949E+04  0.33698031113E+04 0.  0.
        3    1    3    3  502    0 -0.13662119806E+04 -0.71142522665E+03 -0.56628012266E+03  0.16411380858E+04  0.10100000352E+00 0.  1.
       -3    1    3    3    0  502  0.13662119806E+04  0.71142522665E+03  0.80270068469E+03  0.17369483091E+04  0.10100000352E+00 0. -1.
</event>
<event>
 5   0  0.1273980E-06  0.3148599E+04  0.7818609E-02  0.8202525E-01
        1   -1    0    0  501    0  0.00000000000E+00  0.00000000000E+00  0.95603002772E+03  0.95603002773E+03  0.50400001928E-02 0. -1.
       -1   -1    0    0    0  501  0.00000000000E+00  0.00000000000E+00 -0.25924070193E+04  0.25924070193E+04  0.50400001928E-02 0.  1.
    10030    2    1    2    0    0  0.00000000000E+00  0.00000000000E+00 -0.16363769916E+04  0.35484370471E+04  0.31485990247E+04 0.  0.
        4    1    3    3  502    0 -0.10362690936E+04  0.11314782211E+04 -0.12155552657E+04  0.19574659169E+04  0.12699999809E+01 0. -1.
       -4    1    3    3    0  502  0.10362690936E+04 -0.11314782211E+04 -0.42082172594E+03  0.15909711302E+04  0.12699999809E+01 0.  1.
</event>
<event>
 5   0  0.1268836E-06  0.3209583E+04  0.7818609E-02  0.8186291E-01
       -1   -1    0    0    0  501  0.00000000000E+00  0.00000000000E+00  0.96337154481E+03  0.96337154482E+03  0.50400001928E-02 0.  1.
        1   -1    0    0  501    0  0.00000000000E+00  0.00000000000E+00 -0.26732732976E+04  0.26732732976E+04  0.50400001928E-02 0. -1.
    10030    2    1    2    0    0  0.00000000000E+00  0.00000000000E+00 -0.17099017528E+04  0.36366448424E+04  0.32095827931E+04 0.  0.
        1    1    3    3  502    0  0.36958534606E+03 -0.80665350716E+03  0.66016145961E+03  0.11059368704E+04  0.50400001928E-02 0.  1.
       -1    1    3    3    0  502 -0.36958534606E+03  0.80665350716E+03 -0.23700632124E+04  0.25307079720E+04  0.50400001928E-02 0. -1.
</event>
<event>
 5   0  0.1240725E-06  0.3200757E+04  0.7818609E-02  0.8188617E-01
       -1   -1    0    0    0  501  0.00000000000E+00  0.00000000000E+00  0.12663694290E+04  0.12663694290E+04  0.50400001928E-02 0.  1.
        1   -1    0    0  501    0  0.00000000000E+00  0.00000000000E+00 -0.20224829249E+04  0.20224829249E+04  0.50400001928E-02 0. -1.
    10030    2    1    2    0    0  0.00000000000E+00  0.00000000000E+00 -0.75611349590E+03  0.32888523539E+04  0.32007565023E+04 0.  0.
        3    1    3    3  502    0  0.10205445496E+04 -0.11097201541E+04  0.17358128770E+03  0.15176035292E+04  0.10100000352E+00 0. -1.
       -3    1    3    3    0  502 -0.10205445496E+04  0.11097201541E+04 -0.92969478359E+03  0.17712488247E+04  0.10100000352E+00 0.  1.
</event>
<event>
 5   0  0.3497546E-06  0.3172288E+04  0.7818609E-02  0.8196174E-01
        2   -1    0    0  501    0  0.00000000000E+00  0.00000000000E+00  0.97571466848E+03  0.97571466848E+03  0.25500000920E-02 0.  1.
       -2   -1    0    0    0  501  0.00000000000E+00  0.00000000000E+00 -0.25784725230E+04  0.25784725230E+04  0.25500000920E-02 0. -1.
    10030    2    1    2    0    0  0.00000000000E+00  0.00000000000E+00 -0.16027578545E+04  0.35541871915E+04  0.31722884251E+04 0.  0.
        4    1    3    3  502    0  0.51709301996E+02 -0.98955162829E+03  0.58625668574E+03  0.11513404325E+04  0.12699999809E+01 0.  1.
       -4    1    3    3    0  502 -0.51709301996E+02  0.98955162829E+03 -0.21890145403E+04  0.24028467590E+04  0.12699999809E+01 0. -1.
</event>
<event>
 5   0  0.3497546E-06  0.3207470E+04  0.7818609E-02  0.8186847E-01
       -2   -1    0    0    0  501  0.00000000000E+00  0.00000000000E+00  0.13895376360E+04  0.13895376360E+04  0.25500000920E-02 0. -1.
        2   -1    0    0  501    0  0.00000000000E+00  0.00000000000E+00 -0.18509510442E+04  0.18509510442E+04  0.25500000920E-02 0.  1.
    10030    2    1    2    0    0  0.00000000000E+00  0.00000000000E+00 -0.46141340818E+03  0.32404886802E+04  0.32074701172E+04 0.  0.
        4    1    3    3  502    0 -0.10831654769E+04 -0.11546123438E+04  0.28030053900E+02  0.15834027951E+04  0.12699999809E+01 0.  1.
       -4    1    3    3    0  502  0.10831654769E+04  0.11546123438E+04 -0.48944346208E+03  0.16570858850E+04  0.12699999809E+01 0. -1.
</event>
<event>
 5   0  0.1273754E-06  0.2850520E+04  0.7818609E-02  0.8287753E-01
        1   -1    0    0  501    0  0.00000000000E+00  0.00000000000E+00  0.15230086538E+04  0.15230086538E+04  0.50400001928E-02 0.  1.
       -1   -1    0    0    0  501  0.00000000000E+00  0.00000000000E+00 -0.13337850414E+04  0.13337850414E+04  0.50400001928E-02 0. -1.
    10030    2    1    2    0    0  0.00000000000E+00  0.00000000000E+00  0.18922361240E+03  0.28567936952E+04  0.28505200651E+04 0.  0.
        2    1    3    3  502    0  0.25239070402E+02 -0.10313691559E+04 -0.89091750070E+03  0.13631189748E+04  0.25500000920E-02 0. -1.
       -2    1    3    3    0  502 -0.25239070402E+02  0.10313691559E+04  0.10801411131E+04  0.14936747205E+04  0.25500000920E-02 0.  1.
</event>
<event>
 5   0  0.1240725E-06  0.3186535E+04  0.7818609E-02  0.8192382E-01
        1   -1    0    0  501    0  0.00000000000E+00  0.00000000000E+00  0.23670980103E+04  0.23670980103E+04  0.50400001928E-02 0.  1.
       -1   -1    0    0    0  501  0.00000000000E+00  0.00000000000E+00 -0.10724109739E+04  0.10724109739E+04  0.50400001928E-02 0. -1.
    10030    2    1    2    0    0  0.00000000000E+00  0.00000000000E+00  0.12946870364E+04  0.34395089841E+04  0.31865353489E+04 0.  0.
        3    1    3    3  502    0 -0.57251050732E+03 -0.10986177063E+04  0.17287660233E+04  0.21268194844E+04  0.10100000352E+00 0.  1.
       -3    1    3    3    0  502  0.57251050732E+03  0.10986177063E+04 -0.43407898692E+03  0.13126894997E+04  0.10100000352E+00 0. -1.
</event>
<event>
 5   0  0.1306843E-06  0.3070437E+04  0.7818609E-02  0.8223898E-01
        1   -1    0    0  501    0  0.00000000000E+00  0.00000000000E+00  0.11941776956E+04  0.11941776956E+04  0.50400001928E-02 0. -1.
       -1   -1    0    0    0  501  0.00000000000E+00  0.00000000000E+00 -0.19736554568E+04  0.19736554568E+04  0.50400001928E-02 0.  1.
    10030    2    1    2    0    0  0.00000000000E+00  0.00000000000E+00 -0.77947776126E+03  0.31678331524E+04  0.30704366629E+04 0.  0.
        5    1    3    3  502    0 -0.94929049121E+03 -0.62605315009E+03 -0.14538517853E+04  0.18457524447E+04  0.46999998093E+01 0.  1.
       -5    1    3    3    0  502  0.94929049121E+03  0.62605315009E+03  0.67437402403E+03  0.13220807077E+04  0.46999998093E+01 0. -1.
</event>
<event>
 5   0  0.3758062E-06  0.3168048E+04  0.7818609E-02  0.8197307E-01
        2   -1    0    0  501    0  0.00000000000E+00  0.00000000000E+00  0.20373891406E+04  0.20373891406E+04  0.25500000920E-02 0. -1.
       -2   -1    0    0    0  501  0.00000000000E+00  0.00000000000E+00 -0.12315430752E+04  0.12315430752E+04  0.25500000920E-02 0.  1.
    10030    2    1    2    0    0  0.00000000000E+00  0.00000000000E+00  0.80584606538E+03  0.32689322158E+04  0.31680482872E+04 0.  0.
        2    1    3    3  502    0  0.15555422960E+04  0.21021284779E+03  0.62237184436E+03  0.16885638835E+04  0.25500000920E-02 0. -1.
       -2    1    3    3    0  502 -0.15555422960E+04 -0.21021284779E+03  0.18347422102E+03  0.15803683323E+04  0.25500000920E-02 0.  1.
</event>
<event>
 5   0  0.3656086E-06  0.3038658E+04  0.7818609E-02  0.8232777E-01
        2   -1    0    0  501    0  0.00000000000E+00  0.00000000000E+00  0.20046430267E+04  0.20046430267E+04  0.25500000920E-02 0.  1.
       -2   -1    0    0    0  501  0.00000000000E+00  0.00000000000E+00 -0.11515071294E+04  0.11515071294E+04  0.25500000920E-02 0. -1.
    10030    2    1    2    0    0  0.00000000000E+00  0.00000000000E+00  0.85313589726E+03  0.31561501561E+04  0.30386580836E+04 0.  0.
        3    1    3    3  502    0 -0.18929468664E+03  0.96480559307E+03  0.16296632716E+04  0.19032826116E+04  0.10100000352E+00 0.  1.
       -3    1    3    3    0  502  0.18929468664E+03 -0.96480559307E+03 -0.77652737432E+03  0.12528675445E+04  0.10100000352E+00 0. -1.
</event>
<event>
 5   0  0.3531437E-06  0.3216162E+04  0.7818609E-02  0.8184562E-01
       -2   -1    0    0    0  501  0.00000000000E+00  0.00000000000E+00  0.17917231717E+04  0.17917231717E+04  0.25500000920E-02 0.  1.
        2   -1    0    0  501    0  0.00000000000E+00  0.00000000000E+00 -0.14432611625E+04  0.14432611625E+04  0.25500000920E-02 0. -1.
    10030    2    1    2    0    0  0.00000000000E+00  0.00000000000E+00  0.34846200917E+03  0.32349843341E+04  0.32161619782E+04 0.  0.
        1    1    3    3  502    0  0.13708831064E+04  0.71479674928E+03  0.61916534735E+03  0.16654190499E+04  0.50400001928E-02 0.  1.
       -1    1    3    3    0  502 -0.13708831064E+04 -0.71479674928E+03 -0.27070333819E+03  0.15695652843E+04  0.50400001928E-02 0. -1.
</event>
<event>
 5   0  0.3758062E-06  0.3049557E+04  0.7818609E-02  0.8229720E-01
       -2   -1    0    0    0  501  0.00000000000E+00  0.00000000000E+00  0.10840312092E+04  0.10840312092E+04  0.25500000920E-02 0.  1.
        2   -1    0    0  501    0  0.00000000000E+00  0.00000000000E+00 -0.21447250615E+04  0.21447250615E+04  0.25500000920E-02 0. -1.
    10030    2    1    2    0    0  0.00000000000E+00  0.00000000000E+00 -0.10606938523E+04  0.32287562707E+04  0.30495566247E+04 0.  0.
        2    1    3    3  502    0 -0.42748907748E+03  0.13904683100E+04 -0.46549367990E+02  0.14554435325E+04  0.25500000920E-02 0.  1.
       -2    1    3    3    0  502  0.42748907748E+03 -0.13904683100E+04 -0.10141444843E+04  0.17733127382E+04  0.25500000920E-02 0. -1.
</event>
<event>
 5   0  0.3656086E-06  0.2493108E+04  0.7818609E-02  0.8405445E-01
        2   -1    0    0  501    0  0.00000000000E+00  0.00000000000E+00  0.17062961460E+04  0.17062961460E+04  0.25500000920E-02 0. -1.
       -2   -1    0    0    0  501  0.00000000000E+00  0.00000000000E+00 -0.91068436247E+03  0.91068436247E+03  0.25500000920E-02 0.  1.
    10030    2    1    2    0    0  0.00000000000E+00  0.00000000000E+00  0.79561178351E+03  0.26169805085E+04  0.24931082751E+04 0.  0.
        3    1    3    3  502    0  0.20457087947E+03  0.97168709105E+03 -0.39320895820E+03  0.10680067147E+04  0.10100000352E+00 0.  1.
       -3    1    3    3    0  502 -0.20457087947E+03 -0.97168709105E+03  0.11888207417E+04  0.15489737938E+04  0.10100000352E+00 0. -1.
</event>
<event>
 5   0  0.1240725E-06  0.2792008E+04  0.7818609E-02  0.8305754E-01
       -1   -1    0    0    0  501  0.00000000000E+00  0.00000000000E+00  0.14487380116E+04  0.14487380116E+04  0.50400001928E-02 0. -1.
        1   -1    0    0  501    0  0.00000000000E+00  0.00000000000E+00 -0.13451897291E+04  0.13451897291E+04  0.50400001928E-02 0.  1.
    10030    2    1    2    0    0  0.00000000000E+00  0.00000000000E+00  0.10354828245E+03  0.27939277407E+04  0.27920082331E+04 0.  0.
        3    1    3    3  502    0  0.11014968926E+04 -0.19574016410E+03  0.88734393008E+03  0.14279316779E+04  0.10100000352E+00 0. -1.
       -3    1    3    3    0  502 -0.11014968926E+04  0.19574016410E+03 -0.78379564763E+03  0.13659960628E+04  0.10100000352E+00 0.  1.
</event>
<event>
 5   0  0.3745943E-06  0.3021547E+04  0.7818609E-02  0.8237605E-01
        2   -1    0    0  501    0  0.00000000000E+00  0.00000000000E+00  0.20554428391E+04  0.20554428391E+04  0.25500000920E-02 0.  1.
       -2   -1    0    0    0  501  0.00000000000E+00  0.00000000000E+00 -0.11104352107E+04  0.11104352107E+04  0.25500000920E-02 0. -1.
    10030    2    1    2    0    0  0.00000000000E+00  0.00000000000E+00  0.94500762839E+03  0.31658780497E+04  0.30215466913E+04 0.  0.
        5    1    3    3  502    0 -0.86001325668E+03  0.38687752652E+02 -0.82828766036E+03  0.11946556333E+04  0.46999998093E+01 0. -1.
       -5    1    3    3    0  502  0.86001325668E+03 -0.38687752652E+02  0.17732952888E+04  0.19712224164E+04  0.46999998093E+01 0.  1.
</event>
<event>
 5   0  0.1306843E-06  0.2696811E+04  0.7818609E-02  0.8336040E-01
       -1   -1    0    0    0  501  0.00000000000E+00  0.00000000000E+00  0.68109354690E+03  0.68109354691E+03  0.50400001928E-02 0. -1.
        1   -1    0    0  501    0  0.00000000000E+00  0.00000000000E+00 -0.26695263082E+04  0.26695263082E+04  0.50400001928E-02 0.  1.
    10030    2    1    2    0    0  0.00000000000E+00  0.00000000000E+00 -0.19884327613E+04  0.33506198551E+04  0.26968108141E+04 0.  0.
        5    1    3    3  502    0  0.94143239028E+03 -0.42732064966E+03 -0.20696805018E+04  0.23135464881E+04  0.46999998093E+01 0.  1.
       -5    1    3    3    0  502 -0.94143239028E+03  0.42732064966E+03  0.81247740570E+02  0.10370733669E+04  0.46999998093E+01 0. -1.
</event>
<event>
 5   0  0.1240725E-06  0.3186334E+04  0.7818609E-02  0.8192436E-01
        1   -1    0    0  501    0  0.00000000000E+00  0.00000000000E+00  0.19130987922E+04  0.19130987922E+04  0.50400001928E-02 0.  1.
       -1   -1    0    0    0  501  0.00000000000E+00  0.00000000000E+00 -0.13267377683E+04  0.13267377683E+04  0.50400001928E-02 0. -1.
    10030    2    1    2    0    0  0.00000000000E+00  0.00000000000E+00  0.58636102391E+03  0.32398365605E+04  0.31863335808E+04 0.  0.
        3    1    3    3  502    0  0.14759656816E+04 -0.26760109629E+03 -0.25257735171E+03  0.15211444274E+04  0.10100000352E+00 0.  1.
       -3    1    3    3    0  502 -0.14759656816E+04  0.26760109629E+03  0.83893837562E+03  0.17186921331E+04  0.10100000352E+00 0. -1.
</event>
<event>
 5   0  0.3656086E-06  0.3199670E+04  0.7818609E-02  0.8188904E-01
       -2   -1    0    0    0  501  0.00000000000E+00  0.00000000000E+00  0.24874604816E+04  0.24874604816E+04  0.25500000920E-02 0. -1.
        2   -1    0    0  501    0  0.00000000000E+00  0.00000000000E+00 -0.10289497004E+04  0.10289497004E+04  0.25500000920E-02 0.  1.
    10030    2    1    2    0    0  0.00000000000E+00  0.00000000000E+00  0.14585107812E+04  0.35164101820E+04  0.31996698063E+04 0.  0.
        3    1    3    3  502    0  0.73194710683E+02  0.42745837582E+03 -0.96311798953E+03  0.10562548938E+04  0.10100000352E+00 0.  1.
       -3    1    3    3    0  502 -0.73194710683E+02 -0.42745837582E+03  0.24216287707E+04  0.24601552882E+04  0.10100000352E+00 0. -1.
</event>
<event>
 5   0  0.1268836E-06  0.3231045E+04  0.7818609E-02  0.8180666E-01
       -1   -1    0    0    0  501  0.00000000000E+00  0.00000000000E+00  0.12603837749E+04  0.12603837749E+04  0.50400001928E-02 0.  1.
        1   -1    0    0  501    0  0.00000000000E+00  0.00000000000E+00 -0.20707286986E+04  0.20707286987E+04  0.50400001928E-02 0. -1.
    10030    2    1    2    0    0  0.00000000000E+00  0.00000000000E+00 -0.81034492373E+03  0.33311124736E+04  0.32310449418E+04 0.  0.
        1    1    3    3  502    0 -0.54175046704E+03 -0.81498213527E+03  0.92002526673E+03  0.13431812762E+04  0.50400001928E-02 0.  1.
       -1    1    3    3    0  502  0.54175046704E+03  0.81498213527E+03 -0.17303701905E+04  0.19879311974E+04  0.50400001928E-02 0. -1.
</event>
<event>
 5   0  0.1240725E-06  0.2451514E+04  0.7818609E-02  0.8420465E-01
        1   -1    0    0  501    0  0.00000000000E+00  0.00000000000E+00  0.86545230764E+03  0.86545230766E+03  0.50400001928E-02 0.  1.
       -1   -1    0    0    0  501  0.00000000000E+00  0.00000000000E+00 -0.17360634798E+04  0.17360634798E+04  0.50400001928E-02 0. -1.
    10030    2    1    2    0    0  0.00000000000E+00  0.00000000000E+00 -0.87061117220E+03  0.26015157875E+04  0.24515139362E+04 0.  0.
        3    1    3    3  502    0 -0.48138470251E+03  0.10836840544E+04 -0.76474878254E+03  0.14110078214E+04  0.10100000352E+00 0. -1.
       -3    1    3    3    0  502  0.48138470251E+03 -0.10836840544E+04 -0.10586238966E+03  0.11905079661E+04  0.10100000352E+00 0.  1.
</event>
<event>
 5   0  0.1273980E-06  0.3250455E+04  0.7818609E-02  0.8175618E-01
       -1   -1    0    0    0  501  0.00000000000E+00  0.00000000000E+00  0.17242765391E+04  0.17242765391E+04  0.50400001928E-02 0. -1.
        1   -1    0    0  501    0  0.00000000000E+00  0.00000000000E+00 -0.15318677767E+04  0.15318677767E+04  0.50400001928E-02 0.  1.
    10030    2    1    2    0    0  0.00000000000E+00  0.00000000000E+00  0.19240876242E+03  0.32561443158E+04  0.32504545334E+04 0.  0.
        4    1    3    3  502    0 -0.13595797125E+04  0.71506027823E+03 -0.43537868700E+03  0.15966603928E+04  0.12699999809E+01 0.  1.
       -4    1    3    3    0  502  0.13595797125E+04 -0.71506027823E+03  0.62778744941E+03  0.16594839230E+04  0.12699999809E+01 0. -1.
</event>
<event>
 5   0  0.1306843E-06  0.3207334E+04  0.7818609E-02  0.8186883E-01
       -1   -1    0    0    0  501  0.00000000000E+00  0.00000000000E+00  0.13384684818E+04  0.13384684818E+04  0.50400001928E-02 0.  1.
        1   -1    0    0  501    0  0.00000000000E+00  0.00000000000E+00 -0.19214102677E+04  0.19214102677E+04  0.50400001928E-02 0. -1.
    10030    2    1    2    0    0  0.00000000000E+00  0.00000000000E+00 -0.58294178582E+03  0.32598787495E+04  0.32073335242E+04 0.  0.
        5    1    3    3  502    0 -0.38428006833E+03  0.10295469727E+04  0.89560458872E+03  0.14176627981E+04  0.46999998093E+01 0.  1.
       -5    1    3    3    0  502  0.38428006833E+03 -0.10295469727E+04 -0.14785463745E+04  0.18422159514E+04  0.46999998093E+01 0. -1.
</event>
<event>
 5   0  0.3497546E-06  0.3209639E+04  0.7818609E-02  0.8186276E-01
       -2   -1    0    0    0  501  0.00000000000E+00  0.00000000000E+00  0.12228447125E+04  0.12228447125E+04  0.25500000920E-02 0. -1.
        2   -1    0    0  501    0  0.00000000000E+00  0.00000000000E+00 -0.21061096931E+04  0.21061096931E+04  0.25500000920E-02 0.  1.
    10030    2    1    2    0    0  0.00000000000E+00  0.00000000000E+00 -0.88326498055E+03  0.33289544056E+04  0.32096386726E+04 0.  0.
        4    1    3    3  502    0  0.37594595337E+03 -0.15506760888E+04 -0.26345635681E+03  0.16172020768E+04  0.12699999809E+01 0. -1.
       -4    1    3    3    0  502 -0.37594595337E+03  0.15506760888E+04 -0.61980862374E+03  0.17117523288E+04  0.12699999809E+01 0.  1.
</event>
<event>
 5   0  0.3531437E-06  0.3159469E+04  0.7818609E-02  0.8199604E-01
       -2   -1    0    0    0  501  0.00000000000E+00  0.00000000000E+00  0.11098565751E+04  0.11098565751E+04  0.25500000920E-02 0. -1.
        2   -1    0    0  501    0  0.00000000000E+00  0.00000000000E+00 -0.22485431674E+04  0.22485431674E+04  0.25500000920E-02 0.  1.
    10030    2    1    2    0    0  0.00000000000E+00  0.00000000000E+00 -0.11386865924E+04  0.33583997425E+04  0.31594685748E+04 0.  0.
        1    1    3    3  502    0  0.66616973314E+03  0.12165026423E+04  0.23451269764E+03  0.14066474318E+04  0.50400001928E-02 0. -1.
       -1    1    3    3    0  502 -0.66616973314E+03 -0.12165026423E+04 -0.13731992900E+04  0.19517523107E+04  0.50400001928E-02 0.  1.
</event>
<event>
 5   0  0.1273980E-06  0.3181996E+04  0.7818609E-02  0.8193588E-01
       -1   -1    0    0    0  501  0.00000000000E+00  0.00000000000E+00  0.12474379923E+04  0.12474379923E+04  0.50400001928E-02 0. -1.
        1   -1    0    0  501    0  0.00000000000E+00  0.00000000000E+00 -0.20291790230E+04  0.20291790230E+04  0.50400001928E-02 0.  1.
    10030    2    1    2    0    0  0.00000000000E+00  0.00000000000E+00 -0.78174103077E+03  0.32766170153E+04  0.31819962329E+04 0.  0.
        4    1    3    3  502    0 -0.50882976314E+03  0.13396553654E+03  0.11552499524E+04  0.12694323764E+04  0.12699999809E+01 0. -1.
       -4    1    3    3    0  502  0.50882976314E+03 -0.13396553654E+03 -0.19369909832E+04  0.20071846389E+04  0.12699999809E+01 0.  1.
</event>
<event>
 5   0  0.3758062E-06  0.3289915E+04  0.7818609E-02  0.8165466E-01
        2   -1    0    0  501    0  0.00000000000E+00  0.00000000000E+00  0.10595651302E+04  0.10595651302E+04  0.25500000920E-02 0.  1.
       -2   -1    0    0    0  501  0.00000000000E+00  0.00000000000E+00 -0.25537688829E+04  0.25537688829E+04  0.25500000920E-02 0. -1.
    10030    2    1    2    0    0  0.00000000000E+00  0.00000000000E+00 -0.14942037527E+04  0.36133340131E+04  0.32899145636E+04 0.  0.
        2    1    3    3  502    0  0.12045869058E+04 -0.98767222785E+03 -0.16659900952E+03  0.15666145899E+04  0.25500000920E-02 0.  1.
       -2    1    3    3    0  502 -0.12045869058E+04  0.98767222785E+03 -0.13276047431E+04  0.20467194232E+04  0.25500000920E-02 0. -1.
</event>
<event>
 5   0  0.1306843E-06  0.2325535E+04  0.7818609E-02  0.8467921E-01
        1   -1    0    0  501    0  0.00000000000E+00  0.00000000000E+00  0.11417854304E+04  0.11417854304E+04  0.50400001928E-02 0.  1.
       -1   -1    0    0    0  501  0.00000000000E+00  0.00000000000E+00 -0.11841346523E+04  0.11841346523E+04  0.50400001928E-02 0. -1.
    10030    2    1    2    0    0  0.00000000000E+00  0.00000000000E+00 -0.42349221958E+02  0.23259200827E+04  0.23255345138E+04 0.  0.
        5    1    3    3  502    0 -0.76739035312E+03  0.21165137538E+03 -0.86885353436E+03  0.11783941670E+04  0.46999998093E+01 0. -1.
       -5    1    3    3    0  502  0.76739035312E+03 -0.21165137538E+03  0.82650431240E+03  0.11475259157E+04  0.46999998093E+01 0.  1.
</event>
<event>
 5   0  0.3758062E-06  0.3025015E+04  0.7818609E-02  0.8236623E-01
        2   -1    0    0  501    0  0.00000000000E+00  0.00000000000E+00  0.14390818223E+04  0.14390818223E+04  0.25500000920E-02 0.  1.
       -2   -1    0    0    0  501  0.00000000000E+00  0.00000000000E+00 -0.15896800487E+04  0.15896800487E+04  0.25500000920E-02 0. -1.
    10030    2    1    2    0    0  0.00000000000E+00  0.00000000000E+00 -0.15059822640E+03  0.30287618709E+04  0.30250154785E+04 0.  0.
        2    1    3    3  502    0  0.93189795304E+03  0.10667200714E+04  0.45578608233E+03  0.14879739441E+04  0.25500000920E-02 0.  1.
       -2    1    3    3    0  502 -0.93189795304E+03 -0.10667200714E+04 -0.60638430873E+03  0.15407879268E+04  0.25500000920E-02 0. -1.
</event>
<event>
 5   0  0.1273980E-06  0.3174852E+04  0.7818609E-02  0.8195491E-01
       -1   -1    0    0    0  501  0.00000000000E+00  0.00000000000E+00  0.89106297273E+03  0.89106297275E+03  0.50400001928E-02 0.  1.
        1   -1    0    0  501    0  0.00000000000E+00  0.00000000000E+00 -0.28279941613E+04  0.28279941613E+04  0.50400001928E-02 0. -1.
    10030    2    1    2    0    0  0.00000000000E+00  0.00000000000E+00 -0.19369311886E+04  0.37190571341E+04  0.31748517347E+04 0.  0.
        4    1    3    3  502    0 -0.33619647748E+03 -0.10042417856E+04  0.41676954558E+03  0.11380808858E+04  0.12699999809E+01 0.  1.
       -4    1    3    3    0  502  0.33619647748E+03  0.10042417856E+04 -0.23537007342E+04  0.25809762483E+04  0.12699999809E+01 0. -1.
</event>
<event>
 5   0  0.1273980E-06  0.2582417E+04  0.7818609E-02  0.8374198E-01
        1   -1    0    0  501    0  0.00000000000E+00  0.00000000000E+00  0.15402158516E+04  0.15402158516E+04  0.50400001928E-02 0.  1.
       -1   -1    0    0    0  501  0.00000000000E+00  0.00000000000E+00 -0.10824582104E+04  0.10824582104E+04  0.50400001928E-02 0. -1.
    10030    2    1    2    0    0  0.00000000000E+00  0.00000000000E+00  0.45775764119E+03  0.26226740621E+04  0.25824169256E+04 0.  0.
        4    1    3    3  502    0 -0.51726415545E+02 -0.37806799704E+03 -0.10238848781E+04  0.10926815130E+04  0.12699999809E+01 0. -1.
       -4    1    3    3    0  502  0.51726415545E+02  0.37806799704E+03  0.14816425192E+04  0.15299925491E+04  0.12699999809E+01 0.  1.
</event>
<event>
 5   0  0.1273754E-06  0.3191857E+04  0.7818609E-02  0.8190971E-01
        1   -1    0    0  501    0  0.00000000000E+00  0.00000000000E+00  0.16158532908E+04  0.16158532908E+04  0.50400001928E-02 0. -1.
       -1   -1    0    0    0  501  0.00000000000E+00  0.00000000000E+00 -0.15762497591E+04  0.15762497591E+04  0.50400001928E-02 0.  1.
    10030    2    1    2    0    0  0.00000000000E+00  0.00000000000E+00  0.39603531729E+02  0.31921030499E+04  0.31918573654E+04 0.  0.
        2    1    3    3  502    0  0.50243962631E+03 -0.13212516075E+04  0.76069410993E+03  0.16052435695E+04  0.25500000920E-02 0. -1.
       -2    1    3    3    0  502 -0.50243962631E+03  0.13212516075E+04 -0.72109057820E+03  0.15868594804E+04  0.25500000920E-02 0.  1.
</event>
<event>
 5   0  0.3497546E-06  0.2627993E+04  0.7818609E-02  0.8358754E-01
        2   -1    0    0  501    0  0.00000000000E+00  0.00000000000E+00  0.14222620888E+04  0.14222620888E+04  0.25500000920E-02 0.  1.
       -2   -1    0    0    0  501  0.00000000000E+00  0.00000000000E+00 -0.12139719601E+04  0.12139719601E+04  0.25500000920E-02 0. -1.
    10030    2    1    2    0    0  0.00000000000E+00  0.00000000000E+00  0.20829012867E+03  0.26362340490E+04  0.26279926148E+04 0.  0.
        4    1    3    3  502    0  0.33823702302E+03  0.95195421062E+03 -0.73870625886E+03  0.12515229333E+04  0.12699999809E+01 0. -1.
       -4    1    3    3    0  502 -0.33823702302E+03 -0.95195421062E+03  0.94699638753E+03  0.13847111156E+04  0.12699999809E+01 0.  1.
</event>
<event>
 5   0  0.1185575E-06  0.3227264E+04  0.7818609E-02  0.8181654E-01
        3   -1    0    0  501    0  0.00000000000E+00  0.00000000000E+00  0.19845583448E+04  0.19845583474E+04  0.10100000352E+00 0.  1.
       -3   -1    0    0    0  501  0.00000000000E+00  0.00000000000E+00 -0.13120337770E+04  0.13120337808E+04  0.10100000352E+00 0. -1.
    10030    2    1    2    0    0  0.00000000000E+00  0.00000000000E+00  0.67252456787E+03  0.32965921282E+04  0.32272636034E+04 0.  0.
        4    1    3    3  502    0 -0.88486758526E+03  0.13152861365E+04  0.28394761994E+02  0.15854892430E+04  0.12699999809E+01 0. -1.
       -4    1    3    3    0  502  0.88486758526E+03 -0.13152861365E+04  0.64412980588E+03  0.17111028853E+04  0.12699999809E+01 0.  1.
</event>
<event>
 5   0  0.3745943E-06  0.3226134E+04  0.7818609E-02  0.8181949E-01
       -2   -1    0    0    0  501  0.00000000000E+00  0.00000000000E+00  0.94931203057E+03  0.94931203057E+03  0.25500000920E-02 0.  1.
        2   -1    0    0  501    0  0.00000000000E+00  0.00000000000E+00 -0.27409171670E+04  0.27409171670E+04  0.25500000920E-02 0. -1.
    10030    2    1    2    0    0  0.00000000000E+00  0.00000000000E+00 -0.17916051364E+04  0.36902291976E+04  0.32261343068E+04 0.  0.
        5    1    3    3  502    0  0.10550577233E+04  0.69804146131E+03 -0.20405462912E+04  0.24008873229E+04  0.46999998093E+01 0. -1.
       -5    1    3    3    0  502 -0.10550577233E+04 -0.69804146131E+03  0.24894115474E+03  0.12893418746E+04  0.46999998093E+01 0.  1.
</event>
<event>
 5   0  0.3745943E-06  0.3065123E+04  0.7818609E-02  0.8225375E-01
        2   -1    0    0  501    0  0.00000000000E+00  0.00000000000E+00  0.29915498767E+04  0.29915498767E+04  0.25500000920E-02 0.  1.
       -2   -1    0    0    0  501  0.00000000000E+00  0.00000000000E+00 -0.78512663910E+03  0.78512663910E+03  0.25500000920E-02 0. -1.
    10030    2    1    2    0    0  0.00000000000E+00  0.00000000000E+00  0.22064232376E+04  0.37766765158E+04  0.30651234888E+04 0.  0.
        5    1    3    3  502    0  0.23056653603E+03  0.14782172284E+03 -0.75471888056E+03  0.80289156674E+03  0.46999998093E+01 0. -1.
       -5    1    3    3    0  502 -0.23056653603E+03 -0.14782172284E+03  0.29611421182E+04  0.29737849491E+04  0.46999998093E+01 0.  1.
</event>
<event>
 5   0  0.3497546E-06  0.3222245E+04  0.7818609E-02  0.8182967E-01
        2   -1    0    0  501    0  0.00000000000E+00  0.00000000000E+00  0.17462973569E+04  0.17462973569E+04  0.25500000920E-02 0.  1.
       -2   -1    0    0    0  501  0.00000000000E+00  0.00000000000E+00 -0.14864109892E+04  0.14864109892E+04  0.25500000920E-02 0. -1.
    10030    2    1    2    0    0  0.00000000000E+00  0.00000000000E+00  0.25988636774E+03  0.32327083461E+04  0.32222449204E+04 0.  0.
        4    1    3    3  502    0  0.16283753527E+03 -0.15535053120E+04 -0.26607797862E+03  0.15845169361E+04  0.12699999809E+01 0. -1.
       -4    1    3    3    0  502 -0.16283753527E+03  0.15535053120E+04  0.52596434635E+03  0.16481914100E+04  0.12699999809E+01 0.  1.
</event>
<event>
 5   0  0.1273980E-06  0.3206272E+04  0.7818609E-02  0.8187163E-01
        1   -1    0    0  501    0  0.00000000000E+00  0.00000000000E+00  0.23121701963E+04  0.23121701963E+04  0.50400001928E-02 0.  1.
       -1   -1    0    0    0  501  0.00000000000E+00  0.00000000000E+00 -0.11115290609E+04  0.11115290609E+04  0.50400001928E-02 0. -1.
    10030    2    1    2    0    0  0.00000000000E+00  0.00000000000E+00  0.12006411354E+04  0.34236992572E+04  0.32062715836E+04 0.  0.
        4    1    3    3  502    0  0.53009841784E+03  0.51008239534E+03 -0.92064975500E+03  0.11784676351E+04  0.12699999809E+01 0. -1.
       -4    1    3    3    0  502 -0.53009841784E+03 -0.51008239534E+03  0.21212908904E+04  0.22452316222E+04  0.12699999809E+01 0.  1.
</event>
<event>
 5   0  0.1273754E-06  0.3225552E+04  0.7818609E-02  0.8182101E-01
        1   -1    0    0  501    0  0.00000000000E+00  0.00000000000E+00  0.23050129025E+04  0.23050129025E+04  0.50400001928E-02 0.  1.
       -1   -1    0    0    0  501  0.00000000000E+00  0.00000000000E+00 -0.11284302174E+04  0.11284302174E+04  0.50400001928E-02 0. -1.
    10030    2    1    2    0    0  0.00000000000E+00  0.00000000000E+00  0.11765826851E+04  0.34334431200E+04  0.32255518665E+04 0.  0.
        2    1    3    3  502    0  0.10258198124E+04 -0.22166539855E+03 -0.71521808543E+03  0.12700310021E+04  0.25500000920E-02 0. -1.
       -2    1    3    3    0  502 -0.10258198124E+04  0.22166539855E+03  0.18918007705E+04  0.21634121179E+04  0.25500000920E-02 0.  1.
</event>
<event>
 5   0  0.3758062E-06  0.3209559E+04  0.7818609E-02  0.8186297E-01
        2   -1    0    0  501    0  0.00000000000E+00  0.00000000000E+00  0.18035182226E+04  0.18035182226E+04  0.25500000920E-02 0. -1.
       -2   -1    0    0    0  501  0.00000000000E+00  0.00000000000E+00 -0.14279410463E+04  0.14279410463E+04  0.25500000920E-02 0.  1.
    10030    2    1    2    0    0  0.00000000000E+00  0.00000000000E+00  0.37557717637E+03  0.32314592689E+04  0.32095592830E+04 0.  0.
        2    1    3    3  502    0 -0.15776550166E+04 -0.69891916431E+02 -0.99531116348E+02  0.15823358286E+04  0.25500000920E-02 0. -1.
       -2    1    3    3    0  502  0.15776550166E+04  0.69891916431E+02  0.47510829272E+03  0.16491234403E+04  0.25500000920E-02 0.  1.
</event>
<event>
 5   0  0.1273754E-06  0.3447128E+04  0.7818609E-02  0.8126435E-01
        1   -1    0    0  501    0  0.00000000000E+00  0.00000000000E+00  0.12931076482E+04  0.12931076483E+04  0.50400001928E-02 0.  1.
       -1   -1    0    0    0  501  0.00000000000E+00  0.00000000000E+00 -0.22973128877E+04  0.22973128877E+04  0.50400001928E-02 0. -1.
    10030    2    1    2    0    0  0.00000000000E+00  0.00000000000E+00 -0.10042052394E+04  0.35904205359E+04  0.34471280020E+04 0.  0.
        2    1    3    3  502    0 -0.14879971718E+04 -0.48156049554E+03  0.25232446612E+03  0.15842044471E+04  0.25500000920E-02 0.  1.
       -2    1    3    3    0  502  0.14879971718E+04  0.48156049554E+03 -0.12565297055E+04  0.20062160888E+04  0.25500000920E-02 0. -1.
</event>
<event>
 5   0  0.3656086E-06  0.3214287E+04  0.7818609E-02  0.8185054E-01
        2   -1    0    0  501    0  0.00000000000E+00  0.00000000000E+00  0.23381293126E+04  0.23381293126E+04  0.25500000920E-02 0.  1.
       -2   -1    0    0    0  501  0.00000000000E+00  0.00000000000E+00 -0.11046905810E+04  0.11046905810E+04  0.25500000920E-02 0. -1.
    10030    2    1    2    0    0  0.00000000000E+00  0.00000000000E+00  0.12334387315E+04  0.34428198936E+04  0.32142865018E+04 0.  0.
        3    1    3    3  502    0 -0.14073206852E+03 -0.50839640947E+03  0.22427584630E+04  0.23039613621E+04  0.10100000352E+00 0.  1.
       -3    1    3    3    0  502  0.14073206852E+03  0.50839640947E+03 -0.10093197315E+04  0.11388585315E+04  0.10100000352E+00 0. -1.
</event>
<event>
 5   0  0.3745943E-06  0.3173385E+04  0.7818609E-02  0.8195882E-01
        2   -1    0    0  501    0  0.00000000000E+00  0.00000000000E+00  0.21924079188E+04  0.21924079188E+04  0.25500000920E-02 0. -1.
       -2   -1    0    0    0  501  0.00000000000E+00  0.00000000000E+00 -0.11483234858E+04  0.11483234858E+04  0.25500000920E-02 0.  1.
    10030    2    1    2    0    0  0.00000000000E+00  0.00000000000E+00  0.10440844330E+04  0.33407314046E+04  0.31733852610E+04 0.  0.
        5    1    3    3  502    0 -0.50342550184E+03  0.14134384145E+04  0.10653245264E+04  0.18401586410E+04  0.46999998093E+01 0. -1.
       -5    1    3    3    0  502  0.50342550184E+03 -0.14134384145E+04 -0.21240093388E+02  0.15005727636E+04  0.46999998093E+01 0.  1.
</event>
<event>
 5   0  0.1306843E-06  0.2927037E+04  0.7818609E-02  0.8264878E-01
        1   -1    0    0  501    0  0.00000000000E+00  0.00000000000E+00  0.21683602630E+04  0.21683602630E+04  0.50400001928E-02 0. -1.
       -1   -1    0    0    0  501  0.00000000000E+00  0.00000000000E+00 -0.98779093633E+03  0.98779093635E+03  0.50400001928E-02 0.  1.
    10030    2    1    2    0    0  0.00000000000E+00  0.00000000000E+00  0.11805693267E+04  0.31561511994E+04  0.29270371467E+04 0.  0.
        5    1    3    3  502    0 -0.73159788439E+03 -0.74259492592E+02 -0.77411239257E+03  0.10677181384E+04  0.46999998093E+01 0.  1.
       -5    1    3    3    0  502  0.73159788439E+03  0.74259492592E+02  0.19546817193E+04  0.20884330610E+04  0.46999998093E+01 0. -1.
</event>
<event>
 5   0  0.1240725E-06  0.3086860E+04  0.7818609E-02  0.8219353E-01
        1   -1    0    0  501    0  0.00000000000E+00  0.00000000000E+00  0.21637651900E+04  0.21637651900E+04  0.50400001928E-02 0. -1.
       -1   -1    0    0    0  501  0.00000000000E+00  0.00000000000E+00 -0.11009402415E+04  0.11009402416E+04  0.50400001928E-02 0.  1.
    10030    2    1    2    0    0  0.00000000000E+00  0.00000000000E+00  0.10628249485E+04  0.32647054316E+04  0.30868600039E+04 0.  0.
        3    1    3    3  502    0  0.12957652752E+04 -0.83830861058E+03  0.55275389939E+03  0.16393004174E+04  0.10100000352E+00 0. -1.
       -3    1    3    3    0  502 -0.12957652752E+04  0.83830861058E+03  0.51007104907E+03  0.16254050142E+04  0.10100000352E+00 0.  1.
</event>
<event>
 5   0  0.3656086E-06  0.3202687E+04  0.7818609E-02  0.8188108E-01
        2   -1    0    0  501    0  0.00000000000E+00  0.00000000000E+00  0.77160986039E+03  0.77160986040E+03  0.25500000920E-02 0.  1.
       -2   -1    0    0    0  501  0.00000000000E+00  0.00000000000E+00 -0.33233139052E+04  0.33233139052E+04  0.25500000920E-02 0. -1.
    10030    2    1    2    0    0  0.00000000000E+00  0.00000000000E+00 -0.25517040448E+04  0.40949237656E+04  0.32026874830E+04 0.  0.
        3    1    3    3  502    0 -0.58567007302E+03 -0.10565374480E+04 -0.26199053964E+04  0.28849930866E+04  0.10100000352E+00 0. -1.
       -3    1    3    3    0  502  0.58567007302E+03  0.10565374480E+04  0.68201351634E+02  0.12099306790E+04  0.10100000352E+00 0.  1.
</event>
<event>
 5   0  0.3531437E-06  0.3120541E+04  0.7818609E-02  0.8210123E-01
       -2   -1    0    0    0  501  0.00000000000E+00  0.00000000000E+00  0.13962085666E+04  0.13962085666E+04  0.25500000920E-02 0. -1.
        2   -1    0    0  501    0  0.00000000000E+00  0.00000000000E+00 -0.17436104543E+04  0.17436104543E+04  0.25500000920E-02 0.  1.
    10030    2    1    2    0    0  0.00000000000E+00  0.00000000000E+00 -0.34740188771E+03  0.31398190209E+04  0.31205408846E+04 0.  0.
        1    1    3    3  502    0 -0.79263122793E+02  0.62628935752E+03  0.12619716087E+04  0.14110610700E+04  0.50400001928E-02 0. -1.
       -1    1    3    3    0  502  0.79263122793E+02 -0.62628935752E+03 -0.16093734964E+04  0.17287579509E+04  0.50400001928E-02 0.  1.
</event>
<event>
 5   0  0.3531437E-06  0.3226978E+04  0.7818609E-02  0.8181728E-01
       -2   -1    0    0    0  501  0.00000000000E+00  0.00000000000E+00  0.12211320245E+04  0.12211320245E+04  0.25500000920E-02 0.  1.
        2   -1    0    0  501    0  0.00000000000E+00  0.00000000000E+00 -0.21319126774E+04  0.21319126775E+04  0.25500000920E-02 0. -1.
    10030    2    1    2    0    0  0.00000000000E+00  0.00000000000E+00 -0.91078065292E+03  0.33530447020E+04  0.32269780563E+04 0.  0.
        1    1    3    3  502    0  0.80140360198E+03  0.16549260665E+03 -0.19002948464E+04  0.20689988012E+04  0.50400001928E-02 0. -1.
       -1    1    3    3    0  502 -0.80140360198E+03 -0.16549260665E+03  0.98951419348E+03  0.12840459008E+04  0.50400001928E-02 0.  1.
</event>
<event>
 5   0  0.3758062E-06  0.3196852E+04  0.7818609E-02  0.8189649E-01
        2   -1    0    0  501    0  0.00000000000E+00  0.00000000000E+00  0.15092937727E+04  0.15092937727E+04  0.25500000920E-02 0.  1.
       -2   -1    0    0    0  501  0.00000000000E+00  0.00000000000E+00 -0.16928215750E+04  0.16928215750E+04  0.25500000920E-02 0. -1.
    10030    2    1    2    0    0  0.00000000000E+00  0.00000000000E+00 -0.18352780224E+03  0.32021153477E+04  0.31968516146E+04 0.  0.
        2    1    3    3  502    0  0.68137194289E+03 -0.13368852388E+03 -0.15338652493E+04  0.16837110646E+04  0.25500000920E-02 0. -1.
       -2    1    3    3    0  502 -0.68137194289E+03  0.13368852388E+03  0.13503374471E+04  0.15184042831E+04  0.25500000920E-02 0.  1.
</event>
<event>
 5   0  0.1268836E-06  0.3119467E+04  0.7818609E-02  0.8210416E-01
       -1   -1    0    0    0  501  0.00000000000E+00  0.00000000000E+00  0.31518293545E+04  0.31518293545E+04  0.50400001928E-02 0. -1.
        1   -1    0    0  501    0  0.00000000000E+00  0.00000000000E+00 -0.77185905244E+03  0.77185905246E+03  0.50400001928E-02 0.  1.
    10030    2    1    2    0    0  0.00000000000E+00  0.00000000000E+00  0.23799703021E+04  0.39236884070E+04  0.31194666333E+04 0.  0.
        1    1    3    3  502    0  0.60478537533E+01 -0.15597196549E+04  0.11868937365E+04  0.19599690610E+04  0.50400001928E-02 0. -1.
       -1    1    3    3    0  502 -0.60478537533E+01  0.15597196549E+04  0.11930765656E+04  0.19637193460E+04  0.50400001928E-02 0.  1.
</event>
<event>
 5   0  0.3531437E-06  0.3310965E+04  0.7818609E-02  0.8160111E-01
       -2   -1    0    0    0  501  0.00000000000E+00  0.00000000000E+00  0.13868618235E+04  0.13868618235E+04  0.25500000920E-02 0.  1.
        2   -1    0    0  501    0  0.00000000000E+00  0.00000000000E+00 -0.19761317144E+04  0.19761317144E+04  0.25500000920E-02 0. -1.
    10030    2    1    2    0    0  0.00000000000E+00  0.00000000000E+00 -0.58926989088E+03  0.33629935379E+04  0.33109645924E+04 0.  0.
        1    1    3    3  502    0  0.13564013056E+04  0.86614484218E+03  0.99522662976E+02  0.16124317505E+04  0.50400001928E-02 0. -1.
       -1    1    3    3    0  502 -0.13564013056E+04 -0.86614484218E+03 -0.68879255386E+03  0.17505617875E+04  0.50400001928E-02 0.  1.
</event>
<event>
 5   0  0.3497546E-06  0.3052333E+04  0.7818609E-02  0.8228943E-01
       -2   -1    0    0    0  501  0.00000000000E+00  0.00000000000E+00  0.10471808275E+04  0.10471808276E+04  0.25500000920E-02 0.  1.
        2   -1    0    0  501    0  0.00000000000E+00  0.00000000000E+00 -0.22242427730E+04  0.22242427730E+04  0.25500000920E-02 0. -1.
    10030    2    1    2    0    0  0.00000000000E+00  0.00000000000E+00 -0.11770619455E+04  0.32714236006E+04  0.30523331324E+04 0.  0.
        4    1    3    3  502    0  0.12005321701E+04  0.43890816398E+03  0.30514484452E+03  0.13141662212E+04  0.12699999809E+01 0.  1.
       -4    1    3    3    0  502 -0.12005321701E+04 -0.43890816398E+03 -0.14822067900E+04  0.19572573794E+04  0.12699999809E+01 0. -1.
</event>
<event>
 5   0  0.3656086E-06  0.3198285E+04  0.7818609E-02  0.8189270E-01
        2   -1    0    0  501    0  0.00000000000E+00  0.00000000000E+00  0.26755246109E+04  0.26755246109E+04  0.25500000920E-02 0. -1.
       -2   -1    0    0    0  501  0.00000000000E+00  0.00000000000E+00 -0.95579653617E+03  0.95579653617E+03  0.25500000920E-02 0.  1.
    10030    2    1    2    0    0  0.00000000000E+00  0.00000000000E+00  0.17197280747E+04  0.36313211470E+04  0.31982852628E+04 0.  0.
        3    1    3    3  502    0  0.16346562378E+02  0.92028571780E+03  0.23446151552E+04  0.25188118724E+04  0.10100000352E+00 0. -1.
       -3    1    3    3    0  502 -0.16346562378E+02 -0.92028571780E+03 -0.62488708050E+03  0.11125092746E+04  0.10100000352E+00 0.  1.
</event>
<event>
 5   0  0.1306843E-06  0.3203425E+04  0.7818609E-02  0.8187913E-01
       -1   -1    0    0    0  501  0.00000000000E+00  0.00000000000E+00  0.23654579559E+04  0.23654579560E+04  0.50400001928E-02 0.  1.
        1   -1    0    0  501    0  0.00000000000E+00  0.00000000000E+00 -0.10845605212E+04  0.10845605212E+04  0.50400001928E-02 0. -1.
    10030    2    1    2    0    0  0.00000000000E+00  0.00000000000E+00  0.12808974348E+04  0.34500184772E+04  0.32034246135E+04 0.  0.
        5    1    3    3  502    0 -0.12949923770E+04 -0.91950324259E+03  0.41720291957E+03  0.16421241840E+04  0.46999998093E+01 0.  1.
       -5    1    3    3    0  502  0.12949923770E+04  0.91950324259E+03  0.86369451518E+03  0.18078942931E+04  0.46999998093E+01 0. -1.
</event>
<event>
 5   0  0.1273754E-06  0.3204844E+04  0.7818609E-02  0.8187539E-01
       -1   -1    0    0    0  501  0.00000000000E+00  0.00000000000E+00  0.17461349347E+04  0.17461349347E+04  0.50400001928E-02 0. -1.
        1   -1    0    0  501    0  0.00000000000E+00  0.00000000000E+00 -0.14705371091E+04  0.14705371091E+04  0.50400001928E-02 0.  1.
    10030    2    1    2    0    0  0.00000000000E+00  0.00000000000E+00  0.27559782553E+03  0.32166720438E+04  0.32048439706E+04 0.  0.
        2    1    3    3  502    0  0.27513506363E+03 -0.12946846657E+04  0.10443758410E+04  0.16860096631E+04  0.25500000920E-02 0. -1.
       -2    1    3    3    0  502 -0.27513506363E+03  0.12946846657E+04 -0.76877801543E+03  0.15306623807E+04  0.25500000920E-02 0.  1.
</event>
<event>
 5   0  0.3531437E-06  0.3236145E+04  0.7818609E-02  0.8179336E-01
        2   -1    0    0  501    0  0.00000000000E+00  0.00000000000E+00  0.16772633936E+04  0.16772633936E+04  0.25500000920E-02 0.  1.
       -2   -1    0    0    0  501  0.00000000000E+00  0.00000000000E+00 -0.15609707385E+04  0.15609707385E+04  0.25500000920E-02 0. -1.
    10030    2    1    2    0    0  0.00000000000E+00  0.00000000000E+00  0.11629265512E+03  0.32382341320E+04  0.32361452860E+04 0.  0.
        1    1    3    3  502    0  0.15375810836E+04 -0.33802128331E+03 -0.31591992743E+03  0.16056834611E+04  0.50400001928E-02 0. -1.
       -1    1    3    3    0  502 -0.15375810836E+04  0.33802128331E+03  0.43221258255E+03  0.16325506709E+04  0.50400001928E-02 0.  1.
</event>
<event>
 5   0  0.3497546E-06  0.3263175E+04  0.7818609E-02  0.8172329E-01
        2   -1    0    0  501    0  0.00000000000E+00  0.00000000000E+00  0.14851383454E+04  0.14851383454E+04  0.25500000920E-02 0.  1.
       -2   -1    0    0    0  501  0.00000000000E+00  0.00000000000E+00 -0.17924774269E+04  0.17924774269E+04  0.25500000920E-02 0. -1.
    10030    2    1    2    0    0  0.00000000000E+00  0.00000000000E+00 -0.30733908153E+03  0.32776157723E+04  0.32631745034E+04 0.  0.
        4    1    3    3  502    0 -0.95776023986E+02  0.13384987379E+04  0.77851280161E+03  0.15513979868E+04  0.12699999809E+01 0.  1.
       -4    1    3    3    0  502  0.95776023986E+02 -0.13384987379E+04 -0.10858518831E+04  0.17262177856E+04  0.12699999809E+01 0. -1.
</event>
<event>
 5   0  0.3656086E-06  0.2696639E+04  0.7818609E-02  0.8336096E-01
       -2   -1    0    0    0  501  0.00000000000E+00  0.00000000000E+00  0.20848840930E+04  0.20848840930E+04  0.25500000920E-02 0.  1.
        2   -1    0    0  501    0  0.00000000000E+00  0.00000000000E+00 -0.87197415524E+03  0.87197415525E+03  0.25500000920E-02 0. -1.
    10030    2    1    2    0    0  0.00000000000E+00  0.00000000000E+00  0.12129099378E+04  0.29568582482E+04  0.26966386823E+04 0.  0.
        3    1    3    3  502    0 -0.36688259852E+03 -0.28809481564E+03  0.19935846783E+04  0.20474328667E+04  0.10100000352E+00 0.  1.
       -3    1    3    3    0  502  0.36688259852E+03  0.28809481564E+03 -0.78067474054E+03  0.90942538155E+03  0.10100000352E+00 0. -1.
</event>
<event>
 5   0  0.1268836E-06  0.3197919E+04  0.7818609E-02  0.8189367E-01
       -1   -1    0    0    0  501  0.00000000000E+00  0.00000000000E+00  0.16300659118E+04  0.16300659118E+04  0.50400001928E-02 0.  1.
        1   -1    0    0  501    0  0.00000000000E+00  0.00000000000E+00 -0.15684462569E+04  0.15684462569E+04  0.50400001928E-02 0. -1.
    10030    2    1    2    0    0  0.00000000000E+00  0.00000000000E+00  0.61619654869E+02  0.31985121688E+04  0.31979185593E+04 0.  0.
        1    1    3    3  502    0 -0.15899364206E+04 -0.11857125310E+03 -0.90513200693E+02  0.15969187842E+04  0.50400001928E-02 0. -1.
       -1    1    3    3    0  502  0.15899364206E+04  0.11857125310E+03  0.15213285556E+03  0.16015933846E+04  0.50400001928E-02 0.  1.
</event>
<event>
 5   0  0.3758062E-06  0.3289823E+04  0.7818609E-02  0.8165490E-01
       -2   -1    0    0    0  501  0.00000000000E+00  0.00000000000E+00  0.85926771137E+03  0.85926771137E+03  0.25500000920E-02 0.  1.
        2   -1    0    0  501    0  0.00000000000E+00  0.00000000000E+00 -0.31488830688E+04  0.31488830688E+04  0.25500000920E-02 0. -1.
    10030    2    1    2    0    0  0.00000000000E+00  0.00000000000E+00 -0.22896153575E+04  0.40081507802E+04  0.32898228207E+04 0.  0.
        2    1    3    3  502    0  0.13353213884E+02  0.25573010053E+03 -0.31244487146E+04  0.31349251926E+04  0.25500000920E-02 0. -1.
       -2    1    3    3    0  502 -0.13353213884E+02 -0.25573010053E+03  0.83483335717E+03  0.87322558763E+03  0.25500000920E-02 0.  1.
</event>
<event>
 5   0  0.1268836E-06  0.3206653E+04  0.7818609E-02  0.8187062E-01
       -1   -1    0    0    0  501  0.00000000000E+00  0.00000000000E+00  0.97244512887E+03  0.97244512888E+03  0.50400001928E-02 0.  1.
        1   -1    0    0  501    0  0.00000000000E+00  0.00000000000E+00 -0.26434973796E+04  0.26434973796E+04  0.50400001928E-02 0. -1.
    10030    2    1    2    0    0  0.00000000000E+00  0.00000000000E+00 -0.16710522508E+04  0.36159425085E+04  0.32066531774E+04 0.  0.
        1    1    3    3  502    0  0.38057789152E+03 -0.14876183186E+04 -0.13557183609E+04  0.20483701002E+04  0.50400001928E-02 0. -1.
       -1    1    3    3    0  502 -0.38057789152E+03  0.14876183186E+04 -0.31533388988E+03  0.15675724083E+04  0.50400001928E-02 0.  1.
</event>
<event>
 5   0  0.1273754E-06  0.3189630E+04  0.7818609E-02  0.8191561E-01
       -1   -1    0    0    0  501  0.00000000000E+00  0.00000000000E+00  0.11551775976E+04  0.11551775976E+04  0.50400001928E-02 0. -1.
        1   -1    0    0  501    0  0.00000000000E+00  0.00000000000E+00 -0.22017698570E+04  0.22017698571E+04  0.50400001928E-02 0.  1.
    10030    2    1    2    0    0  0.00000000000E+00  0.00000000000E+00 -0.10465922595E+04  0.33569474546E+04  0.31896302067E+04 0.  0.
        2    1    3    3  502    0  0.48895967333E+03  0.15421267696E+03 -0.21126701562E+04  0.21739913296E+04  0.25500000920E-02 0.  1.
       -2    1    3    3    0  502 -0.48895967333E+03 -0.15421267696E+03  0.10660778968E+04  0.11829561251E+04  0.25500000920E-02 0. -1.
</event>
<event>
 5   0  0.3745943E-06  0.3192888E+04  0.7818609E-02  0.8190698E-01
       -2   -1    0    0    0  501  0.00000000000E+00  0.00000000000E+00  0.79587102556E+03  0.79587102556E+03  0.25500000920E-02 0. -1.
        2   -1    0    0  501    0  0.00000000000E+00  0.00000000000E+00 -0.32023186806E+04  0.32023186806E+04  0.25500000920E-02 0.  1.
    10030    2    1    2    0    0  0.00000000000E+00  0.00000000000E+00 -0.24064476551E+04  0.39981897062E+04  0.31928875035E+04 0.  0.
        5    1    3    3  502    0  0.88090014392E+03 -0.12111999553E+04 -0.51096136310E+03  0.15824329369E+04  0.46999998093E+01 0. -1.
       -5    1    3    3    0  502 -0.88090014392E+03  0.12111999553E+04 -0.18954862920E+04  0.24157567693E+04  0.46999998093E+01 0.  1.
</event>
<event>
 5   0  0.1268836E-06  0.3037329E+04  0.7818609E-02  0.8233151E-01
        1   -1    0    0  501    0  0.00000000000E+00  0.00000000000E+00  0.13987021921E+04  0.13987021921E+04  0.50400001928E-02 0.  1.
       -1   -1    0    0    0  501  0.00000000000E+00  0.00000000000E+00 -0.16489155445E+04  0.16489155445E+04  0.50400001928E-02 0. -1.
    10030    2    1    2    0    0  0.00000000000E+00  0.00000000000E+00 -0.25021335233E+03  0.30476177366E+04  0.30373289494E+04 0.  0.
        1    1    3    3  502    0 -0.78671016813E+03  0.37995542660E+03  0.11213019892E+04  0.14214771071E+04  0.50400001928E-02 0.  1.
       -1    1    3    3    0  502  0.78671016813E+03 -0.37995542660E+03 -0.13715153416E+04  0.16261406295E+04  0.50400001928E-02 0. -1.
</event>
<event>
 5   0  0.3497546E-06  0.3194161E+04  0.7818609E-02  0.8190361E-01
       -2   -1    0    0    0  501  0.00000000000E+00  0.00000000000E+00  0.13063412146E+04  0.13063412146E+04  0.25500000920E-02 0. -1.
        2   -1    0    0  501    0  0.00000000000E+00  0.00000000000E+00 -0.19525272558E+04  0.19525272558E+04  0.25500000920E-02 0.  1.
    10030    2    1    2    0    0  0.00000000000E+00  0.00000000000E+00 -0.64618604119E+03  0.32588684703E+04  0.31941614404E+04 0.  0.
        4    1    3    3  502    0 -0.24965268227E+01  0.50997865608E+03 -0.18672191543E+04  0.19356119047E+04  0.12699999809E+01 0.  1.
       -4    1    3    3    0  502  0.24965268227E+01 -0.50997865608E+03  0.12210331131E+04  0.13232565657E+04  0.12699999809E+01 0. -1.
</event>
<event>
 5   0  0.1185575E-06  0.3195636E+04  0.7818609E-02  0.8189971E-01
        3   -1    0    0  501    0  0.00000000000E+00  0.00000000000E+00  0.10428547709E+04  0.10428547758E+04  0.10100000352E+00 0.  1.
       -3   -1    0    0    0  501  0.00000000000E+00  0.00000000000E+00 -0.24481094336E+04  0.24481094357E+04  0.10100000352E+00 0. -1.
    10030    2    1    2    0    0  0.00000000000E+00  0.00000000000E+00 -0.14052546627E+04  0.34909642115E+04  0.31956361587E+04 0.  0.
        4    1    3    3  502    0 -0.93651803552E+03 -0.66227563657E+03 -0.19177878231E+04  0.22346334816E+04  0.12699999809E+01 0. -1.
       -4    1    3    3    0  502  0.93651803552E+03  0.66227563657E+03  0.51253316038E+03  0.12563307300E+04  0.12699999809E+01 0.  1.
</event>
<event>
 5   0  0.3656086E-06  0.3181863E+04  0.7818609E-02  0.8193624E-01
        2   -1    0    0  501    0  0.00000000000E+00  0.00000000000E+00  0.18582211433E+04  0.18582211433E+04  0.25500000920E-02 0. -1.
       -2   -1    0    0    0  501  0.00000000000E+00  0.00000000000E+00 -0.13620890805E+04  0.13620890805E+04  0.25500000920E-02 0.  1.
    10030    2    1    2    0    0  0.00000000000E+00  0.00000000000E+00  0.49613206279E+03  0.32203102239E+04  0.31818628057E+04 0.  0.
        3    1    3    3  502    0  0.66722561001E+03  0.25926745814E+03  0.16860270274E+04  0.18316923259E+04  0.10100000352E+00 0. -1.
       -3    1    3    3    0  502 -0.66722561001E+03 -0.25926745814E+03 -0.11898949646E+04  0.13886178980E+04  0.10100000352E+00 0.  1.
</event>
<event>
 5   0  0.3656086E-06  0.2345275E+04  0.7818609E-02  0.8460281E-01
        2   -1    0    0  501    0  0.00000000000E+00  0.00000000000E+00  0.15047521828E+04  0.15047521828E+04  0.25500000920E-02 0. -1.
       -2   -1    0    0    0  501  0.00000000000E+00  0.00000000000E+00 -0.91382404067E+03  0.91382404067E+03  0.25500000920E-02 0.  1.
    10030    2    1    2    0    0  0.00000000000E+00  0.00000000000E+00  0.59092814210E+03  0.24185762234E+04  0.23452750115E+04 0.  0.
        3    1    3    3  502    0 -0.43659831615E+03  0.10268810942E+04  0.66725373896E+03  0.13001270837E+04  0.10100000352E+00 0. -1.
       -3    1    3    3    0  502  0.43659831615E+03 -0.10268810942E+04 -0.76325596852E+02  0.11184491398E+04  0.10100000352E+00 0.  1.
</event>
<event>
 5   0  0.1240725E-06  0.3182285E+04  0.7818609E-02  0.8193511E-01
       -1   -1    0    0    0  501  0.00000000000E+00  0.00000000000E+00  0.14279339956E+04  0.14279339956E+04  0.50400001928E-02 0.  1.
        1   -1    0    0  501    0  0.00000000000E+00  0.00000000000E+00 -0.17730052833E+04  0.17730052833E+04  0.50400001928E-02 0. -1.
    10030    2    1    2    0    0  0.00000000000E+00  0.00000000000E+00 -0.34507128770E+03  0.32009392789E+04  0.31822850396E+04 0.  0.
        3    1    3    3  502    0  0.11596441408E+04  0.10016502385E+04 -0.60359972364E+03  0.16469396984E+04  0.10100000352E+00 0. -1.
       -3    1    3    3    0  502 -0.11596441408E+04 -0.10016502385E+04  0.25852843593E+03  0.15539995804E+04  0.10100000352E+00 0.  1.
</event>
<event>
 5   0  0.3758062E-06  0.3059341E+04  0.7818609E-02  0.8226986E-01
       -2   -1    0    0    0  501  0.00000000000E+00  0.00000000000E+00  0.12615169440E+04  0.12615169440E+04  0.25500000920E-02 0.  1.
        2   -1    0    0  501    0  0.00000000000E+00  0.00000000000E+00 -0.18548238080E+04  0.18548238080E+04  0.25500000920E-02 0. -1.
    10030    2    1    2    0    0  0.00000000000E+00  0.00000000000E+00 -0.59330686399E+03  0.31163407520E+04  0.30593408845E+04 0.  0.
        2    1    3    3  502    0 -0.33677339765E+03  0.24597720470E+03 -0.17957974031E+04  0.18435860218E+04  0.25500000920E-02 0. -1.
       -2    1    3    3    0  502  0.33677339765E+03 -0.24597720470E+03  0.12024905391E+04  0.12727547302E+04  0.25500000920E-02 0.  1.
</event>
<event>
 5   0  0.3497546E-06  0.3183946E+04  0.7818609E-02  0.8193070E-01
       -2   -1    0    0    0  501  0.00000000000E+00  0.00000000000E+00  0.17749456428E+04  0.17749456428E+04  0.25500000920E-02 0. -1.
        2   -1    0    0  501    0  0.00000000000E+00  0.00000000000E+00 -0.14278622469E+04  0.14278622470E+04  0.25500000920E-02 0.  1.
    10030    2    1    2    0    0  0.00000000000E+00  0.00000000000E+00  0.34708339585E+03  0.32028078897E+04  0.31839459001E+04 0.  0.
        4    1    3    3  502    0  0.18975865514E+03 -0.12859005940E+04 -0.75104842652E+03  0.15012075262E+04  0.12699999809E+01 0.  1.
       -4    1    3    3    0  502 -0.18975865514E+03  0.12859005940E+04  0.10981318224E+04  0.17016003635E+04  0.12699999809E+01 0. -1.
</event>
<event>
 5   0  0.3497546E-06  0.3102038E+04  0.7818609E-02  0.8215179E-01
       -2   -1    0    0    0  501  0.00000000000E+00  0.00000000000E+00  0.83770216519E+03  0.83770216520E+03  0.25500000920E-02 0. -1.
        2   -1    0    0  501    0  0.00000000000E+00  0.00000000000E+00 -0.28717366162E+04  0.28717366162E+04  0.25500000920E-02 0.  1.
    10030    2    1    2    0    0  0.00000000000E+00  0.00000000000E+00 -0.20340344510E+04  0.37094387814E+04  0.31020380276E+04 0.  0.
        4    1    3    3  502    0 -0.10419436703E+04  0.49110086617E+03  0.22502951447E+03  0.11736552169E+04  0.12699999809E+01 0. -1.
       -4    1    3    3    0  502  0.10419436703E+04 -0.49110086617E+03 -0.22590639655E+04  0.25357835645E+04  0.12699999809E+01 0.  1.
</event>
<event>
 5   0  0.1273980E-06  0.3157085E+04  0.7818609E-02  0.8200244E-01
       -1   -1    0    0    0  501  0.00000000000E+00  0.00000000000E+00  0.13183615671E+04  0.13183615672E+04  0.50400001928E-02 0.  1.
        1   -1    0    0  501    0  0.00000000000E+00  0.00000000000E+00 -0.18900710495E+04  0.18900710495E+04  0.50400001928E-02 0. -1.
    10030    2    1    2    0    0  0.00000000000E+00  0.00000000000E+00 -0.57170948239E+03  0.32084326167E+04  0.31570853843E+04 0.  0.
        4    1    3    3  502    0  0.15214188385E+04 -0.41687529588E+03 -0.22751796175E+03  0.15938212981E+04  0.12699999809E+01 0. -1.
       -4    1    3    3    0  502 -0.15214188385E+04  0.41687529588E+03 -0.34419152064E+03  0.16146113186E+04  0.12699999809E+01 0.  1.
</event>
<event>
 5   0  0.1240725E-06  0.3187950E+04  0.7818609E-02  0.8192007E-01
       -1   -1    0    0    0  501  0.00000000000E+00  0.00000000000E+00  0.17944620501E+04  0.17944620501E+04  0.50400001928E-02 0.  1.
        1   -1    0    0  501    0  0.00000000000E+00  0.00000000000E+00 -0.14158872220E+04  0.14158872220E+04  0.50400001928E-02 0. -1.
    10030    2    1    2    0    0  0.00000000000E+00  0.00000000000E+00  0.37857482803E+03  0.32103492721E+04  0.31879497406E+04 0.  0.
        3    1    3    3  502    0 -0.15699243196E+04  0.13733845746E+03  0.43019971395E+03  0.16335837980E+04  0.10100000352E+00 0.  1.
       -3    1    3    3    0  502  0.15699243196E+04 -0.13733845746E+03 -0.51624885919E+02  0.15767654741E+04  0.10100000352E+00 0. -1.
</event>
<event>
 5   0  0.1268836E-06  0.3222389E+04  0.7818609E-02  0.8182929E-01
        1   -1    0    0  501    0  0.00000000000E+00  0.00000000000E+00  0.17353531003E+04  0.17353531003E+04  0.50400001928E-02 0.  1.
       -1   -1    0    0    0  501  0.00000000000E+00  0.00000000000E+00 -0.14959194529E+04  0.14959194530E+04  0.50400001928E-02 0. -1.
    10030    2    1    2    0    0  0.00000000000E+00  0.00000000000E+00  0.23943364739E+03  0.32312725533E+04  0.32223894616E+04 0.  0.
        1    1    3    3  502    0  0.43868381346E+03 -0.20406737942E+03 -0.14213546253E+04  0.15014446225E+04  0.50400001928E-02 0. -1.
       -1    1    3    3    0  502 -0.43868381346E+03  0.20406737942E+03  0.16607882727E+04  0.17298279308E+04  0.50400001928E-02 0.  1.
</event>
<event>
 5   0  0.1273980E-06  0.3077072E+04  0.7818609E-02  0.8222059E-01
       -1   -1    0    0    0  501  0.00000000000E+00  0.00000000000E+00  0.17831326218E+04  0.17831326218E+04  0.50400001928E-02 0.  1.
        1   -1    0    0  501    0  0.00000000000E+00  0.00000000000E+00 -0.13274909448E+04  0.13274909448E+04  0.50400001928E-02 0. -1.
    10030    2    1    2    0    0  0.00000000000E+00  0.00000000000E+00  0.45564167701E+03  0.31106235665E+04  0.30770716005E+04 0.  0.
        4    1    3    3  502    0 -0.57721467426E+03 -0.82477282458E+03  0.14039777475E+04  0.17275943160E+04  0.12699999809E+01 0. -1.
       -4    1    3    3    0  502  0.57721467426E+03  0.82477282458E+03 -0.94833607048E+03  0.13830292505E+04  0.12699999809E+01 0.  1.
</event>
<event>
 5   0  0.1268836E-06  0.3008978E+04  0.7818609E-02  0.8241172E-01
       -1   -1    0    0    0  501  0.00000000000E+00  0.00000000000E+00  0.11582689806E+04  0.11582689806E+04  0.50400001928E-02 0. -1.
        1   -1    0    0  501    0  0.00000000000E+00  0.00000000000E+00 -0.19541975696E+04  0.19541975696E+04  0.50400001928E-02 0.  1.
    10030    2    1    2    0    0  0.00000000000E+00  0.00000000000E+00 -0.79592858901E+03  0.31124665502E+04  0.30089775186E+04 0.  0.
        1    1    3    3  502    0 -0.99585463615E+02  0.12681910905E+04 -0.12288729764E+04  0.17687155505E+04  0.50400001928E-02 0.  1.
       -1    1    3    3    0  502  0.99585463615E+02 -0.12681910905E+04  0.43294438735E+03  0.13437509997E+04  0.50400001928E-02 0. -1.
</event>
<event>
 5   0  0.3758062E-06  0.3222304E+04  0.7818609E-02  0.8182952E-01
       -2   -1    0    0    0  501  0.00000000000E+00  0.00000000000E+00  0.17205786072E+04  0.17205786072E+04  0.25500000920E-02 0.  1.
        2   -1    0    0  501    0  0.00000000000E+00  0.00000000000E+00 -0.15086845035E+04  0.15086845035E+04  0.25500000920E-02 0. -1.
    10030    2    1    2    0    0  0.00000000000E+00  0.00000000000E+00  0.21189410372E+03  0.32292631107E+04  0.32223036987E+04 0.  0.
        2    1    3    3  502    0  0.61291976713E+03 -0.78775028258E+03  0.13734272533E+04  0.16977996256E+04  0.25500000920E-02 0.  1.
       -2    1    3    3    0  502 -0.61291976713E+03  0.78775028258E+03 -0.11615331496E+04  0.15314634851E+04  0.25500000920E-02 0. -1.
</event>
<event>
 5   0  0.1273980E-06  0.3162918E+04  0.7818609E-02  0.8198680E-01
        1   -1    0    0  501    0  0.00000000000E+00  0.00000000000E+00  0.18722979307E+04  0.18722979307E+04  0.50400001928E-02 0.  1.
       -1   -1    0    0    0  501  0.00000000000E+00  0.00000000000E+00 -0.13357983343E+04  0.13357983343E+04  0.50400001928E-02 0. -1.
    10030    2    1    2    0    0  0.00000000000E+00  0.00000000000E+00  0.53649959644E+03  0.32080962650E+04  0.31629179295E+04 0.  0.
        4    1    3    3  502    0 -0.64422210024E+02 -0.14213801630E+04 -0.43192861676E+03  0.14869551883E+04  0.12699999809E+01 0. -1.
       -4    1    3    3    0  502  0.64422210024E+02  0.14213801630E+04  0.96842821320E+03  0.17211410767E+04  0.12699999809E+01 0.  1.
</event>
<event>
 5   0  0.3497546E-06  0.2568334E+04  0.7818609E-02  0.8379038E-01
        2   -1    0    0  501    0  0.00000000000E+00  0.00000000000E+00  0.99649099186E+03  0.99649099187E+03  0.25500000920E-02 0.  1.
       -2   -1    0    0    0  501  0.00000000000E+00  0.00000000000E+00 -0.16548917121E+04  0.16548917121E+04  0.25500000920E-02 0. -1.
    10030    2    1    2    0    0  0.00000000000E+00  0.00000000000E+00 -0.65840072020E+03  0.26513827039E+04  0.25683338440E+04 0.  0.
        4    1    3    3  502    0  0.56808674407E+03 -0.83759530962E+03  0.48679856098E+03  0.11230596170E+04  0.12699999809E+01 0.  1.
       -4    1    3    3    0  502 -0.56808674407E+03  0.83759530962E+03 -0.11451992812E+04  0.15283230869E+04  0.12699999809E+01 0. -1.
</event>
<event>
 5   0  0.1268836E-06  0.2452698E+04  0.7818609E-02  0.8420033E-01
        1   -1    0    0  501    0  0.00000000000E+00  0.00000000000E+00  0.15197964442E+04  0.15197964442E+04  0.50400001928E-02 0. -1.
       -1   -1    0    0    0  501  0.00000000000E+00  0.00000000000E+00 -0.98956159180E+03  0.98956159181E+03  0.50400001928E-02 0.  1.
    10030    2    1    2    0    0  0.00000000000E+00  0.00000000000E+00  0.53023485239E+03  0.25093580360E+04  0.24526982599E+04 0.  0.
        1    1    3    3  502    0 -0.58165169673E+03 -0.10809989558E+03  0.13641431204E+04  0.14869064317E+04  0.50400001928E-02 0. -1.
       -1    1    3    3    0  502  0.58165169673E+03  0.10809989558E+03 -0.83390826798E+03  0.10224516043E+04  0.50400001928E-02 0.  1.
</event>
<event>
 5   0  0.1240725E-06  0.3186854E+04  0.7818609E-02  0.8192298E-01
        1   -1    0    0  501    0  0.00000000000E+00  0.00000000000E+00  0.21552968594E+04  0.21552968594E+04  0.50400001928E-02 0. -1.
       -1   -1    0    0    0  501  0.00000000000E+00  0.00000000000E+00 -0.11780321857E+04  0.11780321857E+04  0.50400001928E-02 0.  1.
    10030    2    1    2    0    0  0.00000000000E+00  0.00000000000E+00  0.97726467369E+03  0.33333290451E+04  0.31868536647E+04 0.  0.
        3    1    3    3  502    0  0.12273518654E+04  0.22440797501E+03  0.15252742061E+04  0.19705869570E+04  0.10100000352E+00 0. -1.
       -3    1    3    3    0  502 -0.12273518654E+04 -0.22440797501E+03 -0.54800953245E+03  0.13627420881E+04  0.10100000352E+00 0.  1.
</event>
<event>
 5   0  0.3758062E-06  0.2886642E+04  0.7818609E-02  0.8276863E-01
       -2   -1    0    0    0  501  0.00000000000E+00  0.00000000000E+00  0.10351541788E+04  0.10351541788E+04  0.25500000920E-02 0. -1.
        2   -1    0    0  501    0  0.00000000000E+00  0.00000000000E+00 -0.20124299517E+04  0.20124299517E+04  0.25500000920E-02 0.  1.
    10030    2    1    2    0    0  0.00000000000E+00  0.00000000000E+00 -0.97727577288E+03  0.30475841304E+04  0.28866418371E+04 0.  0.
        2    1    3    3  502    0  0.28961794566E+03 -0.54819460619E+03 -0.18646786318E+04  0.19650501980E+04  0.25500000920E-02 0.  1.
       -2    1    3    3    0  502 -0.28961794566E+03  0.54819460619E+03  0.88740285896E+03  0.10825339324E+04  0.25500000920E-02 0. -1.
</event>
<event>
 5   0  0.3531437E-06  0.3193504E+04  0.7818609E-02  0.8190535E-01
        2   -1    0    0  501    0  0.00000000000E+00  0.00000000000E+00  0.24060338201E+04  0.24060338201E+04  0.25500000920E-02 0. -1.
       -2   -1    0    0    0  501  0.00000000000E+00  0.00000000000E+00 -0.10596764736E+04  0.10596764736E+04  0.25500000920E-02 0.  1.
    10030    2    1    2    0    0  0.00000000000E+00  0.00000000000E+00  0.13463573465E+04  0.34657102936E+04  0.31935043032E+04 0.  0.
        1    1    3    3  502    0  0.91504239821E+03 -0.34083143400E+03 -0.69789703145E+03  0.12002203645E+04  0.50400001928E-02 0.  1.
       -1    1    3    3    0  502 -0.91504239821E+03  0.34083143400E+03  0.20442543780E+04  0.22654899291E+04  0.50400001928E-02 0. -1.
</event>
<event>
 5   0  0.3745943E-06  0.3212387E+04  0.7818609E-02  0.8185553E-01
        2   -1    0    0  501    0  0.00000000000E+00  0.00000000000E+00  0.14312837580E+04  0.14312837580E+04  0.25500000920E-02 0.  1.
       -2   -1    0    0    0  501  0.00000000000E+00  0.00000000000E+00 -0.18024783310E+04  0.18024783310E+04  0.25500000920E-02 0. -1.
    10030    2    1    2    0    0  0.00000000000E+00  0.00000000000E+00 -0.37119457301E+03  0.32337620889E+04  0.32123872489E+04 0.  0.
        5    1    3    3  502    0  0.45227883704E+03  0.25592241801E+03 -0.17155070051E+04  0.17924951339E+04  0.46999998093E+01 0. -1.
       -5    1    3    3    0  502 -0.45227883704E+03 -0.25592241801E+03  0.13443124321E+04  0.14412669550E+04  0.46999998093E+01 0.  1.
</event>
<event>
 5   0  0.1273980E-06  0.2820271E+04  0.7818609E-02  0.8297003E-01
       -1   -1    0    0    0  501  0.00000000000E+00  0.00000000000E+00  0.99082744413E+03  0.99082744414E+03  0.50400001928E-02 0.  1.
        1   -1    0    0  501    0  0.00000000000E+00  0.00000000000E+00 -0.20068900868E+04  0.20068900869E+04  0.50400001928E-02 0. -1.
    10030    2    1    2    0    0  0.00000000000E+00  0.00000000000E+00 -0.10160626427E+04  0.29977175310E+04  0.28202707497E+04 0.  0.
        4    1    3    3  502    0  0.64503982958E+03 -0.11695338570E+04 -0.27250970467E+02  0.13359004651E+04  0.12699999809E+01 0.  1.
       -4    1    3    3    0  502 -0.64503982958E+03  0.11695338570E+04 -0.98881167225E+03  0.16618170659E+04  0.12699999809E+01 0. -1.
</event>
<event>
 5   0  0.1268836E-06  0.3240952E+04  0.7818609E-02  0.8178085E-01
        1   -1    0    0  501    0  0.00000000000E+00  0.00000000000E+00  0.28883865757E+04  0.28883865757E+04  0.50400001928E-02 0.  1.
       -1   -1    0    0    0  501  0.00000000000E+00  0.00000000000E+00 -0.90913805514E+03  0.90913805516E+03  0.50400001928E-02 0. -1.
    10030    2    1    2    0    0  0.00000000000E+00  0.00000000000E+00  0.19792485206E+04  0.37975246309E+04  0.32409518071E+04 0.  0.
        1    1    3    3  502    0 -0.15178564209E+04  0.49052653440E+03  0.13240047522E+04  0.20730395508E+04  0.50400001928E-02 0. -1.
       -1    1    3    3    0  502  0.15178564209E+04 -0.49052653440E+03  0.65524376833E+03  0.17244850800E+04  0.50400001928E-02 0.  1.
</event>
<event>
 5   0  0.1240725E-06  0.3156664E+04  0.7818609E-02  0.8200357E-01
       -1   -1    0    0    0  501  0.00000000000E+00  0.00000000000E+00  0.12271030351E+04  0.12271030351E+04  0.50400001928E-02 0. -1.
        1   -1    0    0  501    0  0.00000000000E+00  0.00000000000E+00 -0.20300923833E+04  0.20300923833E+04  0.50400001928E-02 0.  1.
    10030    2    1    2    0    0  0.00000000000E+00  0.00000000000E+00 -0.80298934815E+03  0.32571954184E+04  0.31566643947E+04 0.  0.
        3    1    3    3  502    0  0.74842275772E+03 -0.63629630794E+03 -0.16762010497E+04  0.19428483175E+04  0.10100000352E+00 0.  1.
       -3    1    3    3    0  502 -0.74842275772E+03  0.63629630794E+03  0.87321170151E+03  0.13143471009E+04  0.10100000352E+00 0. -1.
</event>
<event>
 5   0  0.3656086E-06  0.3201814E+04  0.7818609E-02  0.8188338E-01
       -2   -1    0    0    0  501  0.00000000000E+00  0.00000000000E+00  0.17700602114E+04  0.17700602114E+04  0.25500000920E-02 0. -1.
        2   -1    0    0  501    0  0.00000000000E+00  0.00000000000E+00 -0.14479182505E+04  0.14479182505E+04  0.25500000920E-02 0.  1.
    10030    2    1    2    0    0  0.00000000000E+00  0.00000000000E+00  0.32214196085E+03  0.32179784619E+04  0.32018135390E+04 0.  0.
        3    1    3    3  502    0 -0.13845971709E+03  0.13941206561E+04 -0.61753950806E+03  0.15310449214E+04  0.10100000352E+00 0.  1.
       -3    1    3    3    0  502  0.13845971709E+03 -0.13941206561E+04  0.93968146892E+03  0.16869335406E+04  0.10100000352E+00 0. -1.
</event>
<event>
 5   0  0.3758062E-06  0.3282500E+04  0.7818609E-02  0.8167363E-01
       -2   -1    0    0    0  501  0.00000000000E+00  0.00000000000E+00  0.10304816732E+04  0.10304816732E+04  0.25500000920E-02 0.  1.
        2   -1    0    0  501    0  0.00000000000E+00  0.00000000000E+00 -0.26140216119E+04  0.26140216119E+04  0.25500000920E-02 0. -1.
    10030    2    1    2    0    0  0.00000000000E+00  0.00000000000E+00 -0.15835399388E+04  0.36445032851E+04  0.32824998793E+04 0.  0.
        2    1    3    3  502    0 -0.83051637983E+02  0.10677321715E+04  0.58907188460E+03  0.12222746213E+04  0.25500000920E-02 0.  1.
       -2    1    3    3    0  502  0.83051637983E+02 -0.10677321715E+04 -0.21726118234E+04  0.24222286638E+04  0.25500000920E-02 0. -1.
</event>
<event>
 5   0  0.1273754E-06  0.3231760E+04  0.7818609E-02  0.8180480E-01
        1   -1    0    0  501    0  0.00000000000E+00  0.00000000000E+00  0.19627155257E+04  0.19627155257E+04  0.50400001928E-02 0.  1.
       -1   -1    0    0    0  501  0.00000000000E+00  0.00000000000E+00 -0.13303342600E+04  0.13303342600E+04  0.50400001928E-02 0. -1.
    10030    2    1    2    0    0  0.00000000000E+00  0.00000000000E+00  0.63238126573E+03  0.32930497857E+04  0.32317597104E+04 0.  0.
        2    1    3    3  502    0  0.36040811653E+03 -0.61185785346E+03 -0.11628198991E+04  0.13625029032E+04  0.25500000920E-02 0. -1.
       -2    1    3    3    0  502 -0.36040811653E+03  0.61185785346E+03  0.17952011649E+04  0.19305468825E+04  0.25500000920E-02 0.  1.
</event>
<event>
 5   0  0.1273754E-06  0.3346286E+04  0.7818609E-02  0.8151217E-01
       -1   -1    0    0    0  501  0.00000000000E+00  0.00000000000E+00  0.93437196551E+03  0.93437196553E+03  0.50400001928E-02 0. -1.
        1   -1    0    0  501    0  0.00000000000E+00  0.00000000000E+00 -0.29960304971E+04  0.29960304971E+04  0.50400001928E-02 0.  1.
    10030    2    1    2    0    0  0.00000000000E+00  0.00000000000E+00 -0.20616585316E+04  0.39304024626E+04  0.33462856449E+04 0.  0.
        2    1    3    3  502    0  0.55990762655E+03  0.12157271405E+04  0.14836833332E+03  0.13466633554E+04  0.25500000920E-02 0. -1.
       -2    1    3    3    0  502 -0.55990762655E+03 -0.12157271405E+04 -0.22100268649E+04  0.25837391072E+04  0.25500000920E-02 0.  1.
</event>
<event>
 5   0  0.3497546E-06  0.3213523E+04  0.7818609E-02  0.8185255E-01
       -2   -1    0    0    0  501  0.00000000000E+00  0.00000000000E+00  0.10064011643E+04  0.10064011643E+04  0.25500000920E-02 0. -1.
        2   -1    0    0  501    0  0.00000000000E+00  0.00000000000E+00 -0.25652625157E+04  0.25652625157E+04  0.25500000920E-02 0.  1.
    10030    2    1    2    0    0  0.00000000000E+00  0.00000000000E+00 -0.15588613514E+04  0.35716636800E+04  0.32135234136E+04 0.  0.
        4    1    3    3  502    0 -0.81443873423E+03 -0.17504568500E+03 -0.23065010168E+04  0.24523254265E+04  0.12699999809E+01 0.  1.
       -4    1    3    3    0  502  0.81443873423E+03  0.17504568500E+03  0.74763966539E+03  0.11193382535E+04  0.12699999809E+01 0. -1.
</event>
<event>
 5   0  0.1240725E-06  0.3273609E+04  0.7818609E-02  0.8169643E-01
       -1   -1    0    0    0  501  0.00000000000E+00  0.00000000000E+00  0.17660760896E+04  0.17660760896E+04  0.50400001928E-02 0. -1.
        1   -1    0    0  501    0  0.00000000000E+00  0.00000000000E+00 -0.15169953512E+04  0.15169953512E+04  0.50400001928E-02 0.  1.
    10030    2    1    2    0    0  0.00000000000E+00  0.00000000000E+00  0.24908073836E+03  0.32830714408E+04  0.32736091506E+04 0.  0.
        3    1    3    3  502    0  0.11601786397E+03  0.13670082833E+04 -0.77076474529E+03  0.15736105281E+04  0.10100000352E+00 0.  1.
       -3    1    3    3    0  502 -0.11601786397E+03 -0.13670082833E+04  0.10198454836E+04  0.17094609127E+04  0.10100000352E+00 0. -1.
</event>
<event>
 5   0  0.3531437E-06  0.3200538E+04  0.7818609E-02  0.8188675E-01
        2   -1    0    0  501    0  0.00000000000E+00  0.00000000000E+00  0.20485242719E+04  0.20485242719E+04  0.25500000920E-02 0.  1.
       -2   -1    0    0    0  501  0.00000000000E+00  0.00000000000E+00 -0.12501004473E+04  0.12501004473E+04  0.25500000920E-02 0. -1.
    10030    2    1    2    0    0  0.00000000000E+00  0.00000000000E+00  0.79842382459E+03  0.32986247193E+04  0.32005381477E+04 0.  0.
        1    1    3    3  502    0  0.10010241086E+04  0.10205569627E+04 -0.34204846069E+03  0.14698921490E+04  0.50400001928E-02 0. -1.
       -1    1    3    3    0  502 -0.10010241086E+04 -0.10205569627E+04  0.11404722853E+04  0.18287325703E+04  0.50400001928E-02 0.  1.
</event>
<event>
 5   0  0.1273754E-06  0.3203494E+04  0.7818609E-02  0.8187895E-01
        1   -1    0    0  501    0  0.00000000000E+00  0.00000000000E+00  0.13945870194E+04  0.13945870194E+04  0.50400001928E-02 0.  1.
       -1   -1    0    0    0  501  0.00000000000E+00  0.00000000000E+00 -0.18396795101E+04  0.18396795101E+04  0.50400001928E-02 0. -1.
    10030    2    1    2    0    0  0.00000000000E+00  0.00000000000E+00 -0.44509249067E+03  0.32342665295E+04  0.32034938206E+04 0.  0.
        2    1    3    3  502    0 -0.19266181916E+03 -0.28241909860E+03  0.13573222964E+04  0.13997153068E+04  0.25500000920E-02 0.  1.
       -2    1    3    3    0  502  0.19266181916E+03  0.28241909860E+03 -0.18024147871E+04  0.18345512227E+04  0.25500000920E-02 0. -1.
</event>
<event>
 5   0  0.1273980E-06  0.3096985E+04  0.7818609E-02  0.8216566E-01
        1   -1    0    0  501    0  0.00000000000E+00  0.00000000000E+00  0.16886213835E+04  0.16886213835E+04  0.50400001928E-02 0.  1.
       -1   -1    0    0    0  501  0.00000000000E+00  0.00000000000E+00 -0.14199921922E+04  0.14199921922E+04  0.50400001928E-02 0. -1.
    10030    2    1    2    0    0  0.00000000000E+00  0.00000000000E+00  0.26862919133E+03  0.31086135757E+04  0.30969851018E+04 0.  0.
        4    1    3    3  502    0 -0.83211995187E+03  0.81876325231E+03  0.11554991485E+04  0.16425519087E+04  0.12699999809E+01 0.  1.
       -4    1    3    3    0  502  0.83211995187E+03 -0.81876325231E+03 -0.88686995720E+03  0.14660616670E+04  0.12699999809E+01 0. -1.
</event>
<event>
 5   0  0.3497546E-06  0.3215934E+04  0.7818609E-02  0.8184622E-01
        2   -1    0    0  501    0  0.00000000000E+00  0.00000000000E+00  0.18484215423E+04  0.18484215423E+04  0.25500000920E-02 0. -1.
       -2   -1    0    0    0  501  0.00000000000E+00  0.00000000000E+00 -0.13987919395E+04  0.13987919395E+04  0.25500000920E-02 0.  1.
    10030    2    1    2    0    0  0.00000000000E+00  0.00000000000E+00  0.44962960281E+03  0.32472134819E+04  0.32159335530E+04 0.  0.
        4    1    3    3  502    0  0.35729963956E+03  0.12078586971E+04 -0.78439154025E+03  0.14838656832E+04  0.12699999809E+01 0.  1.
       -4    1    3    3    0  502 -0.35729963956E+03 -0.12078586971E+04  0.12340211431E+04  0.17633477986E+04  0.12699999809E+01 0. -1.
</event>
<event>
 5   0  0.3758062E-06  0.3188235E+04  0.7818609E-02  0.8191931E-01
       -2   -1    0    0    0  501  0.00000000000E+00  0.00000000000E+00  0.19664609871E+04  0.19664609871E+04  0.25500000920E-02 0.  1.
        2   -1    0    0  501    0  0.00000000000E+00  0.00000000000E+00 -0.12922764483E+04  0.12922764483E+04  0.25500000920E-02 0. -1.
    10030    2    1    2    0    0  0.00000000000E+00  0.00000000000E+00  0.67418453878E+03  0.32587374354E+04  0.31882353866E+04 0.  0.
        2    1    3    3  502    0  0.56921771810E+03  0.14103560417E+04  0.82524976703E+03  0.17303612781E+04  0.25500000920E-02 0.  1.
       -2    1    3    3    0  502 -0.56921771810E+03 -0.14103560417E+04 -0.15106522824E+03  0.15283761572E+04  0.25500000920E-02 0. -1.
</event>
<event>
 5   0  0.1306843E-06  0.3154155E+04  0.7818609E-02  0.8201031E-01
        1   -1    0    0  501    0  0.00000000000E+00  0.00000000000E+00  0.20319242106E+04  0.20319242107E+04  0.50400001928E-02 0.  1.
       -1   -1    0    0    0  501  0.00000000000E+00  0.00000000000E+00 -0.12240484950E+04  0.12240484950E+04  0.50400001928E-02 0. -1.
    10030    2    1    2    0    0  0.00000000000E+00  0.00000000000E+00  0.80787571562E+03  0.32559727057E+04  0.31541552099E+04 0.  0.
        5    1    3    3  502    0  0.11084594026E+04  0.13077541914E+03 -0.74619452796E+03  0.13426141743E+04  0.46999998093E+01 0. -1.
       -5    1    3    3    0  502 -0.11084594026E+04 -0.13077541914E+03  0.15540702436E+04  0.19133585314E+04  0.46999998093E+01 0.  1.
</event>
<event>
 5   0  0.3745943E-06  0.3176191E+04  0.7818609E-02  0.8195134E-01
       -2   -1    0    0    0  501  0.00000000000E+00  0.00000000000E+00  0.10319579442E+04  0.10319579442E+04  0.25500000920E-02 0.  1.
        2   -1    0    0  501    0  0.00000000000E+00  0.00000000000E+00 -0.24439434216E+04  0.24439434216E+04  0.25500000920E-02 0. -1.
    10030    2    1    2    0    0  0.00000000000E+00  0.00000000000E+00 -0.14119854774E+04  0.34759013658E+04  0.31761906928E+04 0.  0.
        5    1    3    3  502    0 -0.42877839872E+03 -0.49675303525E+03 -0.22886267369E+04  0.23808504624E+04  0.46999998093E+01 0. -1.
       -5    1    3    3    0  502  0.42877839872E+03  0.49675303525E+03  0.87664125955E+03  0.10950509035E+04  0.46999998093E+01 0.  1.
</event>
<event>
 5   0  0.3758062E-06  0.2515803E+04  0.7818609E-02  0.8397377E-01
        2   -1    0    0  501    0  0.00000000000E+00  0.00000000000E+00  0.27091884506E+04  0.27091884506E+04  0.25500000920E-02 0. -1.
       -2   -1    0    0    0  501  0.00000000000E+00  0.00000000000E+00 -0.58405551118E+03  0.58405551119E+03  0.25500000920E-02 0.  1.
    10030    2    1    2    0    0  0.00000000000E+00  0.00000000000E+00  0.21251329394E+04  0.32932439618E+04  0.25158032080E+04 0.  0.
        2    1    3    3  502    0  0.81997855430E+02  0.74336712440E+03 -0.26142337646E+03  0.79225028350E+03  0.25500000920E-02 0.  1.
       -2    1    3    3    0  502 -0.81997855430E+02 -0.74336712440E+03  0.23865563159E+04  0.25009936783E+04  0.25500000920E-02 0. -1.
</event>
<event>
 5   0  0.1185575E-06  0.3187481E+04  0.7818609E-02  0.8192131E-01
        4   -1    0    0  501    0  0.00000000000E+00  0.00000000000E+00  0.12957837361E+04  0.12957843584E+04  0.12699999809E+01 0.  1.
       -4   -1    0    0    0  501  0.00000000000E+00  0.00000000000E+00 -0.19602094852E+04  0.19602098966E+04  0.12699999809E+01 0. -1.
    10030    2    1    2    0    0  0.00000000000E+00  0.00000000000E+00 -0.66442574909E+03  0.32559942550E+04  0.31874812960E+04 0.  0.
        2    1    3    3  502    0  0.42849991743E+03 -0.64214177888E+03 -0.17564746309E+04  0.19186352891E+04  0.25500000920E-02 0. -1.
       -2    1    3    3    0  502 -0.42849991743E+03  0.64214177888E+03  0.10920488818E+04  0.13373589659E+04  0.25500000920E-02 0.  1.
</event>
<event>
 5   0  0.1240725E-06  0.2548442E+04  0.7818609E-02  0.8385928E-01
        1   -1    0    0  501    0  0.00000000000E+00  0.00000000000E+00  0.19811053588E+04  0.19811053588E+04  0.50400001928E-02 0. -1.
       -1   -1    0    0    0  501  0.00000000000E+00  0.00000000000E+00 -0.81956220336E+03  0.81956220338E+03  0.50400001928E-02 0.  1.
    10030    2    1    2    0    0  0.00000000000E+00  0.00000000000E+00  0.11615431555E+04  0.28006675622E+04  0.25484419342E+04 0.  0.
        3    1    3    3  502    0  0.10944747866E+03 -0.12694068881E+04  0.59871092637E+03  0.14077739100E+04  0.10100000352E+00 0.  1.
       -3    1    3    3    0  502 -0.10944747866E+03  0.12694068881E+04  0.56283222910E+03  0.13928936522E+04  0.10100000352E+00 0. -1.
</event>
<event>
 5   0  0.3531437E-06  0.2517333E+04  0.7818609E-02  0.8396836E-01
        2   -1    0    0  501    0  0.00000000000E+00  0.00000000000E+00  0.12078864377E+04  0.12078864378E+04  0.25500000920E-02 0.  1.
       -2   -1    0    0    0  501  0.00000000000E+00  0.00000000000E+00 -0.13115817532E+04  0.13115817532E+04  0.25500000920E-02 0. -1.
    10030    2    1    2    0    0  0.00000000000E+00  0.00000000000E+00 -0.10369531542E+03  0.25194681909E+04  0.25173333602E+04 0.  0.
        1    1    3    3  502    0 -0.23412264432E+03 -0.55678068645E+03 -0.11570593178E+04  0.13052219774E+04  0.50400001928E-02 0. -1.
       -1    1    3    3    0  502  0.23412264432E+03  0.55678068645E+03  0.10533640024E+04  0.12142462135E+04  0.50400001928E-02 0.  1.
</event>
<event>
 5   0  0.1240725E-06  0.3071325E+04  0.7818609E-02  0.8223652E-01
       -1   -1    0    0    0  501  0.00000000000E+00  0.00000000000E+00  0.10859218046E+04  0.10859218046E+04  0.50400001928E-02 0. -1.
        1   -1    0    0  501    0  0.00000000000E+00  0.00000000000E+00 -0.21716662005E+04  0.21716662005E+04  0.50400001928E-02 0.  1.
    10030    2    1    2    0    0  0.00000000000E+00  0.00000000000E+00 -0.10857443958E+04  0.32575880051E+04  0.30713252381E+04 0.  0.
        3    1    3    3  502    0  0.72650635830E+03  0.12329504921E+04  0.47938193311E+02  0.14318786559E+04  0.10100000352E+00 0. -1.
       -3    1    3    3    0  502 -0.72650635830E+03 -0.12329504921E+04 -0.11336825892E+04  0.18257093492E+04  0.10100000352E+00 0.  1.
</event>
<event>
 5   0  0.3758062E-06  0.3174794E+04  0.7818609E-02  0.8195506E-01
        2   -1    0    0  501    0  0.00000000000E+00  0.00000000000E+00  0.12662429247E+04  0.12662429247E+04  0.25500000920E-02 0. -1.
       -2   -1    0    0    0  501  0.00000000000E+00  0.00000000000E+00 -0.19900047352E+04  0.19900047352E+04  0.25500000920E-02 0.  1.
    10030    2    1    2    0    0  0.00000000000E+00  0.00000000000E+00 -0.72376181046E+03  0.32562476599E+04  0.31747941137E+04 0.  0.
        2    1    3    3  502    0  0.61432560236E+03  0.13308394088E+04  0.26309647712E+03  0.14892109434E+04  0.25500000920E-02 0. -1.
       -2    1    3    3    0  502 -0.61432560236E+03 -0.13308394088E+04 -0.98685828758E+03  0.17670367165E+04  0.25500000920E-02 0.  1.
</event>
<event>
 5   0  0.3656086E-06  0.3173040E+04  0.7818609E-02  0.8195974E-01
       -2   -1    0    0    0  501  0.00000000000E+00  0.00000000000E+00  0.10960415750E+04  0.10960415750E+04  0.25500000920E-02 0.  1.
        2   -1    0    0  501    0  0.00000000000E+00  0.00000000000E+00 -0.22964872866E+04  0.22964872866E+04  0.25500000920E-02 0. -1.
    10030    2    1    2    0    0  0.00000000000E+00  0.00000000000E+00 -0.12004457115E+04  0.33925288616E+04  0.31730398943E+04 0.  0.
        3    1    3    3  502    0  0.13097274388E+04  0.38315113392E+03 -0.14654308402E+04  0.20024181164E+04  0.10100000352E+00 0. -1.
       -3    1    3    3    0  502 -0.13097274388E+04 -0.38315113392E+03  0.26498512869E+03  0.13901107452E+04  0.10100000352E+00 0.  1.
</event>
<event>
 5   0  0.3531437E-06  0.3353276E+04  0.7818609E-02  0.8149470E-01
        2   -1    0    0  501    0  0.00000000000E+00  0.00000000000E+00  0.17301916774E+04  0.17301916774E+04  0.25500000920E-02 0. -1.
       -2   -1    0    0    0  501  0.00000000000E+00  0.00000000000E+00 -0.16247422289E+04  0.16247422289E+04  0.25500000920E-02 0.  1.
    10030    2    1    2    0    0  0.00000000000E+00  0.00000000000E+00  0.10544944846E+03  0.33549339063E+04  0.33532762978E+04 0.  0.
        1    1    3    3  502    0  0.24347672167E+03 -0.15946014883E+04  0.51020414511E+03  0.16918460598E+04  0.50400001928E-02 0. -1.
       -1    1    3    3    0  502 -0.24347672167E+03  0.15946014883E+04 -0.40475469665E+03  0.16630878464E+04  0.50400001928E-02 0.  1.
</event>
<event>
 5   0  0.3745943E-06  0.3158302E+04  0.7818609E-02  0.8199917E-01
       -2   -1    0    0    0  501  0.00000000000E+00  0.00000000000E+00  0.13420620208E+04  0.13420620208E+04  0.25500000920E-02 0. -1.
        2   -1    0    0  501    0  0.00000000000E+00  0.00000000000E+00 -0.18581241966E+04  0.18581241966E+04  0.25500000920E-02 0.  1.
    10030    2    1    2    0    0  0.00000000000E+00  0.00000000000E+00 -0.51606217583E+03  0.32001862174E+04  0.31583020211E+04 0.  0.
        5    1    3    3  502    0  0.11830877580E+04  0.30849204006E+03  0.75463853292E+03  0.14367899593E+04  0.46999998093E+01 0. -1.
       -5    1    3    3    0  502 -0.11830877580E+04 -0.30849204006E+03 -0.12707007087E+04  0.17633962581E+04  0.46999998093E+01 0.  1.
</event>
<event>
 5   0  0.1273980E-06  0.3171309E+04  0.7818609E-02  0.8196436E-01
       -1   -1    0    0    0  501  0.00000000000E+00  0.00000000000E+00  0.14803042252E+04  0.14803042252E+04  0.50400001928E-02 0. -1.
        1   -1    0    0  501    0  0.00000000000E+00  0.00000000000E+00 -0.16985019604E+04  0.16985019605E+04  0.50400001928E-02 0.  1.
    10030    2    1    2    0    0  0.00000000000E+00  0.00000000000E+00 -0.21819773522E+03  0.31788061857E+04  0.31713086438E+04 0.  0.
        4    1    3    3  502    0 -0.43359575070E+03  0.13914824765E+03  0.14133502758E+04  0.14849000387E+04  0.12699999809E+01 0. -1.
       -4    1    3    3    0  502  0.43359575070E+03 -0.13914824765E+03 -0.16315480110E+04  0.16939061470E+04  0.12699999809E+01 0.  1.
</event>
<event>
 5   0  0.1306843E-06  0.3223729E+04  0.7818609E-02  0.8182578E-01
        1   -1    0    0  501    0  0.00000000000E+00  0.00000000000E+00  0.26150995915E+04  0.26150995915E+04  0.50400001928E-02 0. -1.
       -1   -1    0    0    0  501  0.00000000000E+00  0.00000000000E+00 -0.99350241779E+03  0.99350241780E+03  0.50400001928E-02 0.  1.
    10030    2    1    2    0    0  0.00000000000E+00  0.00000000000E+00  0.16215971737E+04  0.36086020093E+04  0.32237293726E+04 0.  0.
        5    1    3    3  502    0 -0.88410950175E+03 -0.13386240242E+04  0.63550885573E+03  0.17255310733E+04  0.46999998093E+01 0.  1.
       -5    1    3    3    0  502  0.88410950175E+03  0.13386240242E+04  0.98608831799E+03  0.18830709360E+04  0.46999998093E+01 0. -1.
</event>
<event>
 5   0  0.3497546E-06  0.3031768E+04  0.7818609E-02  0.8234717E-01
        2   -1    0    0  501    0  0.00000000000E+00  0.00000000000E+00  0.16155660637E+04  0.16155660637E+04  0.25500000920E-02 0.  1.
       -2   -1    0    0    0  501  0.00000000000E+00  0.00000000000E+00 -0.14223520107E+04  0.14223520107E+04  0.25500000920E-02 0. -1.
    10030    2    1    2    0    0  0.00000000000E+00  0.00000000000E+00  0.19321405301E+03  0.30379180744E+04  0.30317675630E+04 0.  0.
        4    1    3    3  502    0  0.22399664617E+03 -0.92339804286E+03  0.12801312649E+04  0.15942321385E+04  0.12699999809E+01 0.  1.
       -4    1    3    3    0  502 -0.22399664617E+03  0.92339804286E+03 -0.10869172119E+04  0.14436859359E+04  0.12699999809E+01 0. -1.
</event>
<event>
 5   0  0.1273980E-06  0.2345849E+04  0.7818609E-02  0.8460060E-01
        1   -1    0    0  501    0  0.00000000000E+00  0.00000000000E+00  0.19924374324E+04  0.19924374324E+04  0.50400001928E-02 0. -1.
       -1   -1    0    0    0  501  0.00000000000E+00  0.00000000000E+00 -0.69048685305E+03  0.69048685307E+03  0.50400001928E-02 0.  1.
    10030    2    1    2    0    0  0.00000000000E+00  0.00000000000E+00  0.13019505794E+04  0.26829242855E+04  0.23458489744E+04 0.  0.
        4    1    3    3  502    0 -0.56242878314E+03 -0.10277054599E+04  0.58581915808E+03  0.13098436346E+04  0.12699999809E+01 0. -1.
       -4    1    3    3    0  502  0.56242878314E+03  0.10277054599E+04  0.71613142129E+03  0.13730806509E+04  0.12699999809E+01 0.  1.
</event>
<event>
 5   0  0.1268836E-06  0.3225013E+04  0.7818609E-02  0.8182242E-01
        1   -1    0    0  501    0  0.00000000000E+00  0.00000000000E+00  0.14760784159E+04  0.14760784159E+04  0.50400001928E-02 0. -1.
       -1   -1    0    0    0  501  0.00000000000E+00  0.00000000000E+00 -0.17615435814E+04  0.17615435814E+04  0.50400001928E-02 0.  1.
    10030    2    1    2    0    0  0.00000000000E+00  0.00000000000E+00 -0.28546516547E+03  0.32376219973E+04  0.32250125328E+04 0.  0.
        1    1    3    3  502    0  0.10340906149E+04  0.99673817073E+03 -0.87863762262E+03  0.16836966629E+04  0.50400001928E-02 0.  1.
       -1    1    3    3    0  502 -0.10340906149E+04 -0.99673817073E+03  0.59317245715E+03  0.15539253344E+04  0.50400001928E-02 0. -1.
</event>
<event>
 5   0  0.3531437E-06  0.3264259E+04  0.7818609E-02  0.8172050E-01
        2   -1    0    0  501    0  0.00000000000E+00  0.00000000000E+00  0.21543448436E+04  0.21543448436E+04  0.25500000920E-02 0. -1.
       -2   -1    0    0    0  501  0.00000000000E+00  0.00000000000E+00 -0.12364997443E+04  0.12364997443E+04  0.25500000920E-02 0.  1.
    10030    2    1    2    0    0  0.00000000000E+00  0.00000000000E+00  0.91784509930E+03  0.33908445878E+04  0.32642590878E+04 0.  0.
        1    1    3    3  502    0  0.74745675197E+02  0.95654394263E+03  0.18304587911E+04  0.20666742889E+04  0.50400001928E-02 0.  1.
       -1    1    3    3    0  502 -0.74745675197E+02 -0.95654394263E+03 -0.91261369184E+03  0.13241702990E+04  0.50400001928E-02 0. -1.
</event>
<event>
 5   0  0.1306843E-06  0.3123089E+04  0.7818609E-02  0.8209430E-01
       -1   -1    0    0    0  501  0.00000000000E+00  0.00000000000E+00  0.10629726344E+04  0.10629726344E+04  0.50400001928E-02 0. -1.
        1   -1    0    0  501    0  0.00000000000E+00  0.00000000000E+00 -0.22939649848E+04  0.22939649848E+04  0.50400001928E-02 0.  1.
    10030    2    1    2    0    0  0.00000000000E+00  0.00000000000E+00 -0.12309923504E+04  0.33569376192E+04  0.31230894980E+04 0.  0.
        5    1    3    3  502    0  0.10202682197E+04  0.75187521047E+03 -0.15960153373E+04  0.20380261577E+04  0.46999998093E+01 0.  1.
       -5    1    3    3    0  502 -0.10202682197E+04 -0.75187521047E+03  0.36502298697E+03  0.13189114615E+04  0.46999998093E+01 0. -1.
</event>
<event>
 5   0  0.3497546E-06  0.3200828E+04  0.7818609E-02  0.8188599E-01
       -2   -1    0    0    0  501  0.00000000000E+00  0.00000000000E+00  0.15083010276E+04  0.15083010276E+04  0.25500000920E-02 0. -1.
        2   -1    0    0  501    0  0.00000000000E+00  0.00000000000E+00 -0.16981524376E+04  0.16981524376E+04  0.25500000920E-02 0.  1.
    10030    2    1    2    0    0  0.00000000000E+00  0.00000000000E+00 -0.18985141002E+03  0.32064534652E+04  0.32008280595E+04 0.  0.
        4    1    3    3  502    0 -0.11173033787E+03  0.27821062963E+03  0.14799181903E+04  0.15099815515E+04  0.12699999809E+01 0. -1.
       -4    1    3    3    0  502  0.11173033787E+03 -0.27821062963E+03 -0.16697696003E+04  0.16964719137E+04  0.12699999809E+01 0.  1.
</event>
<event>
 5   0  0.3531437E-06  0.3145662E+04  0.7818609E-02  0.8203317E-01
        2   -1    0    0  501    0  0.00000000000E+00  0.00000000000E+00  0.23471730274E+04  0.23471730274E+04  0.25500000920E-02 0.  1.
       -2   -1    0    0    0  501  0.00000000000E+00  0.00000000000E+00 -0.10539472719E+04  0.10539472719E+04  0.25500000920E-02 0. -1.
    10030    2    1    2    0    0  0.00000000000E+00  0.00000000000E+00  0.12932257555E+04  0.34011202992E+04  0.31456615259E+04 0.  0.
        1    1    3    3  502    0 -0.15512879699E+04  0.21650302309E+03  0.49207668729E+03  0.16418000459E+04  0.50400001928E-02 0. -1.
       -1    1    3    3    0  502  0.15512879699E+04 -0.21650302309E+03  0.80114906817E+03  0.17593202534E+04  0.50400001928E-02 0.  1.
</event>
<event>
 5   0  0.3656086E-06  0.3223085E+04  0.7818609E-02  0.8182747E-01
       -2   -1    0    0    0  501  0.00000000000E+00  0.00000000000E+00  0.20589398716E+04  0.20589398716E+04  0.25500000920E-02 0. -1.
        2   -1    0    0  501    0  0.00000000000E+00  0.00000000000E+00 -0.12613621294E+04  0.12613621294E+04  0.25500000920E-02 0.  1.
    10030    2    1    2    0    0  0.00000000000E+00  0.00000000000E+00  0.79757774219E+03  0.33203020010E+04  0.32230847217E+04 0.  0.
        3    1    3    3  502    0  0.90674173158E+03 -0.41146602524E+03  0.17041250336E+04  0.19737089446E+04  0.10100000352E+00 0. -1.
       -3    1    3    3    0  502 -0.90674173158E+03  0.41146602524E+03 -0.90654729144E+03  0.13465930564E+04  0.10100000352E+00 0.  1.
</event>
<event>
 5   0  0.3758062E-06  0.3169010E+04  0.7818609E-02  0.8197050E-01
       -2   -1    0    0    0  501  0.00000000000E+00  0.00000000000E+00  0.25726962791E+04  0.25726962791E+04  0.25500000920E-02 0.  1.
        2   -1    0    0  501    0  0.00000000000E+00  0.00000000000E+00 -0.97588513986E+03  0.97588513986E+03  0.25500000920E-02 0. -1.
    10030    2    1    2    0    0  0.00000000000E+00  0.00000000000E+00  0.15968111393E+04  0.35485814190E+04  0.31690099831E+04 0.  0.
        2    1    3    3  502    0  0.12597688473E+04  0.45755569338E+03 -0.14797498714E+03  0.13484329267E+04  0.25500000920E-02 0. -1.
       -2    1    3    3    0  502 -0.12597688473E+04 -0.45755569338E+03  0.17447861264E+04  0.22001484922E+04  0.25500000920E-02 0.  1.
</event>
<event>
 5   0  0.3531437E-06  0.3139820E+04  0.7818609E-02  0.8204894E-01
       -2   -1    0    0    0  501  0.00000000000E+00  0.00000000000E+00  0.11172274327E+04  0.11172274327E+04  0.25500000920E-02 0. -1.
        2   -1    0    0  501    0  0.00000000000E+00  0.00000000000E+00 -0.22060118354E+04  0.22060118354E+04  0.25500000920E-02 0.  1.
    10030    2    1    2    0    0  0.00000000000E+00  0.00000000000E+00 -0.10887844027E+04  0.33232392681E+04  0.31398197014E+04 0.  0.
        1    1    3    3  502    0 -0.58211949077E+03 -0.11517131085E+04 -0.14906614539E+04  0.19716434150E+04  0.50400001928E-02 0.  1.
       -1    1    3    3    0  502  0.58211949077E+03  0.11517131085E+04  0.40187705114E+03  0.13515958531E+04  0.50400001928E-02 0. -1.
</event>
<event>
 5   0  0.3745943E-06  0.3191647E+04  0.7818609E-02  0.8191027E-01
        2   -1    0    0  501    0  0.00000000000E+00  0.00000000000E+00  0.27659596670E+04  0.27659596670E+04  0.25500000920E-02 0. -1.
       -2   -1    0    0    0  501  0.00000000000E+00  0.00000000000E+00 -0.92071242111E+03  0.92071242111E+03  0.25500000920E-02 0.  1.
    10030    2    1    2    0    0  0.00000000000E+00  0.00000000000E+00  0.18452472459E+04  0.36866720881E+04  0.31916474878E+04 0.  0.
        5    1    3    3  502    0 -0.88410693084E+03 -0.22848237021E+03  0.24343411453E+04  0.25999784923E+04  0.46999998093E+01 0. -1.
       -5    1    3    3    0  502  0.88410693084E+03  0.22848237021E+03 -0.58909389948E+03  0.10866935958E+04  0.46999998093E+01 0.  1.
</event>
<event>
 5   0  0.3758062E-06  0.3203477E+04  0.7818609E-02  0.8187899E-01
       -2   -1    0    0    0  501  0.00000000000E+00  0.00000000000E+00  0.12595673709E+04  0.12595673709E+04  0.25500000920E-02 0. -1.
        2   -1    0    0  501    0  0.00000000000E+00  0.00000000000E+00 -0.20368631842E+04  0.20368631842E+04  0.25500000920E-02 0.  1.
    10030    2    1    2    0    0  0.00000000000E+00  0.00000000000E+00 -0.77729581324E+03  0.32964305551E+04  0.32034771145E+04 0.  0.
        2    1    3    3  502    0 -0.70128738533E+03 -0.28773898096E+03  0.10633116522E+04  0.13058443199E+04  0.25500000920E-02 0. -1.
       -2    1    3    3    0  502  0.70128738533E+03  0.28773898096E+03 -0.18406074655E+04  0.19905862352E+04  0.25500000920E-02 0.  1.
</event>
<event>
 5   0  0.1240725E-06  0.3192808E+04  0.7818609E-02  0.8190719E-01
        1   -1    0    0  501    0  0.00000000000E+00  0.00000000000E+00  0.26744760292E+04  0.26744760292E+04  0.50400001928E-02 0.  1.
       -1   -1    0    0    0  501  0.00000000000E+00  0.00000000000E+00 -0.95289902052E+03  0.95289902054E+03  0.50400001928E-02 0. -1.
    10030    2    1    2    0    0  0.00000000000E+00  0.00000000000E+00  0.17215770086E+04  0.36273750497E+04  0.31928079107E+04 0.  0.
        3    1    3    3  502    0 -0.87634167264E+03 -0.20639768634E+03 -0.63694972926E+03  0.11028507152E+04  0.10100000352E+00 0. -1.
       -3    1    3    3    0  502  0.87634167264E+03  0.20639768634E+03  0.23585267379E+04  0.25245243346E+04  0.10100000352E+00 0.  1.
</event>
<event>
 5   0  0.1268836E-06  0.3220802E+04  0.7818609E-02  0.8183345E-01
        1   -1    0    0  501    0  0.00000000000E+00  0.00000000000E+00  0.16891189599E+04  0.16891189599E+04  0.50400001928E-02 0. -1.
       -1   -1    0    0    0  501  0.00000000000E+00  0.00000000000E+00 -0.15353516025E+04  0.15353516025E+04  0.50400001928E-02 0.  1.
    10030    2    1    2    0    0  0.00000000000E+00  0.00000000000E+00  0.15376735743E+03  0.32244705624E+04  0.32208020752E+04 0.  0.
        1    1    3    3  502    0  0.11787910805E+04 -0.21645636633E+03 -0.99997603869E+03  0.15608823940E+04  0.50400001928E-02 0.  1.
       -1    1    3    3    0  502 -0.11787910805E+04  0.21645636633E+03  0.11537433961E+04  0.16635881684E+04  0.50400001928E-02 0. -1.
</event>
<event>
 5   0  0.3497546E-06  0.3221767E+04  0.7818609E-02  0.8183092E-01
        2   -1    0    0  501    0  0.00000000000E+00  0.00000000000E+00  0.12566242861E+04  0.12566242861E+04  0.25500000920E-02 0. -1.
       -2   -1    0    0    0  501  0.00000000000E+00  0.00000000000E+00 -0.20650128111E+04  0.20650128111E+04  0.25500000920E-02 0.  1.
    10030    2    1    2    0    0  0.00000000000E+00  0.00000000000E+00 -0.80838852495E+03  0.33216370972E+04  0.32217667511E+04 0.  0.
        4    1    3    3  502    0  0.42980717744E+03 -0.15283784235E+04 -0.68516516931E+03  0.17291985824E+04  0.12699999809E+01 0. -1.
       -4    1    3    3    0  502 -0.42980717744E+03  0.15283784235E+04 -0.12322335564E+03  0.15924385148E+04  0.12699999809E+01 0.  1.
</event>
<event>
 5   0  0.3745943E-06  0.3179225E+04  0.7818609E-02  0.8194325E-01
        2   -1    0    0  501    0  0.00000000000E+00  0.00000000000E+00  0.15878018693E+04  0.15878018693E+04  0.25500000920E-02 0.  1.
       -2   -1    0    0    0  501  0.00000000000E+00  0.00000000000E+00 -0.15914250083E+04  0.15914250083E+04  0.25500000920E-02 0. -1.
    10030    2    1    2    0    0  0.00000000000E+00  0.00000000000E+00 -0.36231389256E+01  0.31792268776E+04  0.31792248131E+04 0.  0.
        5    1    3    3  502    0 -0.13014427119E+03 -0.14265108230E+04  0.68737307236E+03  0.15888280241E+04  0.46999998093E+01 0.  1.
       -5    1    3    3    0  502  0.13014427119E+03  0.14265108230E+04 -0.69099621129E+03  0.15903988536E+04  0.46999998093E+01 0. -1.
</event>
<event>
 5   0  0.3745943E-06  0.3270068E+04  0.7818609E-02  0.8170554E-01
        2   -1    0    0  501    0  0.00000000000E+00  0.00000000000E+00  0.17188861451E+04  0.17188861451E+04  0.25500000920E-02 0.  1.
       -2   -1    0    0    0  501  0.00000000000E+00  0.00000000000E+00 -0.15552721183E+04  0.15552721183E+04  0.25500000920E-02 0. -1.
    10030    2    1    2    0    0  0.00000000000E+00  0.00000000000E+00  0.16361402681E+03  0.32741582633E+04  0.32700677032E+04 0.  0.
        5    1    3    3  502    0  0.90952847848E+03  0.11460404705E+04 -0.64894345869E+03  0.16005625623E+04  0.46999998093E+01 0. -1.
       -5    1    3    3    0  502 -0.90952847848E+03 -0.11460404705E+04  0.81255748550E+03  0.16735957010E+04  0.46999998093E+01 0.  1.
</event>
<event>
 5   0  0.1273980E-06  0.3063762E+04  0.7818609E-02  0.8225754E-01
       -1   -1    0    0    0  501  0.00000000000E+00  0.00000000000E+00  0.11491724969E+04  0.11491724969E+04  0.50400001928E-02 0. -1.
        1   -1    0    0  501    0  0.00000000000E+00  0.00000000000E+00 -0.20420423469E+04  0.20420423469E+04  0.50400001928E-02 0.  1.
    10030    2    1    2    0    0  0.00000000000E+00  0.00000000000E+00 -0.89286984996E+03  0.31912148438E+04  0.30637616765E+04 0.  0.
        4    1    3    3  502    0 -0.36417380272E+03  0.50244196018E+03 -0.19052654096E+04  0.20037735341E+04  0.12699999809E+01 0.  1.
       -4    1    3    3    0  502  0.36417380272E+03 -0.50244196018E+03  0.10123955596E+04  0.11874413097E+04  0.12699999809E+01 0. -1.
</event>
<event>
 5   0  0.1306843E-06  0.3261470E+04  0.7818609E-02  0.8172769E-01
        1   -1    0    0  501    0  0.00000000000E+00  0.00000000000E+00  0.93604310044E+03  0.93604310045E+03  0.50400001928E-02 0. -1.
       -1   -1    0    0    0  501  0.00000000000E+00  0.00000000000E+00 -0.28409974069E+04  0.28409974069E+04  0.50400001928E-02 0.  1.
    10030    2    1    2    0    0  0.00000000000E+00  0.00000000000E+00 -0.19049543065E+04  0.37770405074E+04  0.32614696204E+04 0.  0.
        5    1    3    3  502    0 -0.15650853704E+04  0.34534152381E+03 -0.13009049929E+04  0.20642501968E+04  0.46999998093E+01 0. -1.
       -5    1    3    3    0  502  0.15650853704E+04 -0.34534152381E+03 -0.60404931361E+03  0.17127903106E+04  0.46999998093E+01 0.  1.
</event>
<event>
 5   0  0.3531437E-06  0.3161232E+04  0.7818609E-02  0.8199131E-01
        2   -1    0    0  501    0  0.00000000000E+00  0.00000000000E+00  0.16509509008E+04  0.16509509008E+04  0.25500000920E-02 0.  1.
       -2   -1    0    0    0  501  0.00000000000E+00  0.00000000000E+00 -0.15132771660E+04  0.15132771660E+04  0.25500000920E-02 0. -1.
    10030    2    1    2    0    0  0.00000000000E+00  0.00000000000E+00  0.13767373478E+03  0.31642280668E+04  0.31612315957E+04 0.  0.
        1    1    3    3  502    0 -0.24903910056E+03  0.25409203754E+03 -0.14726758611E+04  0.15150437053E+04  0.50400001928E-02 0. -1.
       -1    1    3    3    0  502  0.24903910056E+03 -0.25409203754E+03  0.16103495959E+04  0.16491843615E+04  0.50400001928E-02 0.  1.
</event>
<event>
 5   0  0.3497546E-06  0.3247254E+04  0.7818609E-02  0.8176448E-01
        2   -1    0    0  501    0  0.00000000000E+00  0.00000000000E+00  0.21006219507E+04  0.21006219507E+04  0.25500000920E-02 0. -1.
       -2   -1    0    0    0  501  0.00000000000E+00  0.00000000000E+00 -0.12549451208E+04  0.12549451208E+04  0.25500000920E-02 0.  1.
    10030    2    1    2    0    0  0.00000000000E+00  0.00000000000E+00  0.84567682983E+03  0.33555670715E+04  0.32472543896E+04 0.  0.
        4    1    3    3  502    0  0.79795497151E+03  0.13075666038E+04  0.97903034032E+03  0.18179561546E+04  0.12699999809E+01 0. -1.
       -4    1    3    3    0  502 -0.79795497151E+03 -0.13075666038E+04 -0.13335351049E+03  0.15376109169E+04  0.12699999809E+01 0.  1.
</event>
<event>
 5   0  0.3758062E-06  0.3189518E+04  0.7818609E-02  0.8191591E-01
        2   -1    0    0  501    0  0.00000000000E+00  0.00000000000E+00  0.21672299932E+04  0.21672299932E+04  0.25500000920E-02 0.  1.
       -2   -1    0    0    0  501  0.00000000000E+00  0.00000000000E+00 -0.11735052206E+04  0.11735052206E+04  0.25500000920E-02 0. -1.
    10030    2    1    2    0    0  0.00000000000E+00  0.00000000000E+00  0.99372477254E+03  0.33407352138E+04  0.31895176508E+04 0.  0.
        2    1    3    3  502    0  0.15824221425E+04 -0.18301548920E+03  0.41777624832E+03  0.16468428887E+04  0.25500000920E-02 0.  1.
       -2    1    3    3    0  502 -0.15824221425E+04  0.18301548920E+03  0.57594852422E+03  0.16938923251E+04  0.25500000920E-02 0. -1.
</event>
<event>
 5   0  0.3758062E-06  0.3140326E+04  0.7818609E-02  0.8204757E-01
        2   -1    0    0  501    0  0.00000000000E+00  0.00000000000E+00  0.18307081678E+04  0.18307081678E+04  0.25500000920E-02 0.  1.
       -2   -1    0    0    0  501  0.00000000000E+00  0.00000000000E+00 -0.13466987505E+04  0.13466987505E+04  0.25500000920E-02 0. -1.
    10030    2    1    2    0    0  0.00000000000E+00  0.00000000000E+00  0.48400941729E+03  0.31774069184E+04  0.31403263539E+04 0.  0.
        2    1    3    3  502    0 -0.15268196190E+04 -0.31566529395E+03  0.43018376940E+03  0.16173684807E+04  0.25500000920E-02 0. -1.
       -2    1    3    3    0  502  0.15268196190E+04  0.31566529395E+03  0.53825647887E+02  0.15600384377E+04  0.25500000920E-02 0.  1.
</event>
<event>
 5   0  0.1273754E-06  0.3210770E+04  0.7818609E-02  0.8185979E-01
        1   -1    0    0  501    0  0.00000000000E+00  0.00000000000E+00  0.16461882580E+04  0.16461882581E+04  0.50400001928E-02 0. -1.
       -1   -1    0    0    0  501  0.00000000000E+00  0.00000000000E+00 -0.15655931159E+04  0.15655931160E+04  0.50400001928E-02 0.  1.
    10030    2    1    2    0    0  0.00000000000E+00  0.00000000000E+00  0.80595142101E+02  0.32117813740E+04  0.32107700038E+04 0.  0.
        2    1    3    3  502    0 -0.60815266974E+03 -0.10840603040E+04 -0.97600700019E+03  0.15803879514E+04  0.25500000920E-02 0.  1.
       -2    1    3    3    0  502  0.60815266974E+03  0.10840603040E+04  0.10566021423E+04  0.16313934227E+04  0.25500000920E-02 0. -1.
</event>
<event>
 5   0  0.1240725E-06  0.3245252E+04  0.7818609E-02  0.8176967E-01
        1   -1    0    0  501    0  0.00000000000E+00  0.00000000000E+00  0.15759258180E+04  0.15759258180E+04  0.50400001928E-02 0. -1.
       -1   -1    0    0    0  501  0.00000000000E+00  0.00000000000E+00 -0.16707103387E+04  0.16707103387E+04  0.50400001928E-02 0.  1.
    10030    2    1    2    0    0  0.00000000000E+00  0.00000000000E+00 -0.94784520730E+02  0.32466361567E+04  0.32452522597E+04 0.  0.
        3    1    3    3  502    0  0.14251075220E+04  0.35244151089E+03  0.64411091624E+03  0.16031298608E+04  0.10100000352E+00 0. -1.
       -3    1    3    3    0  502 -0.14251075220E+04 -0.35244151089E+03 -0.73889543697E+03  0.16435062960E+04  0.10100000352E+00 0.  1.
</event>
<event>
 5   0  0.3745943E-06  0.3122347E+04  0.7818609E-02  0.8209632E-01
        2   -1    0    0  501    0  0.00000000000E+00  0.00000000000E+00  0.18747455798E+04  0.18747455798E+04  0.25500000920E-02 0.  1.
       -2   -1    0    0    0  501  0.00000000000E+00  0.00000000000E+00 -0.13000498435E+04  0.13000498435E+04  0.25500000920E-02 0. -1.
    10030    2    1    2    0    0  0.00000000000E+00  0.00000000000E+00  0.57469573634E+03  0.31747954233E+04  0.31223470003E+04 0.  0.
        5    1    3    3  502    0 -0.10149646946E+04 -0.11582806261E+04  0.54752348143E+03  0.16344942315E+04  0.46999998093E+01 0.  1.
       -5    1    3    3    0  502  0.10149646946E+04  0.11582806261E+04  0.27172254914E+02  0.15403011918E+04  0.46999998093E+01 0. -1.
</event>
<event>
 5   0  0.3531437E-06  0.3239809E+04  0.7818609E-02  0.8178382E-01
        2   -1    0    0  501    0  0.00000000000E+00  0.00000000000E+00  0.14044747587E+04  0.14044747587E+04  0.25500000920E-02 0. -1.
       -2   -1    0    0    0  501  0.00000000000E+00  0.00000000000E+00 -0.18683788276E+04  0.18683788276E+04  0.25500000920E-02 0.  1.
    10030    2    1    2    0    0  0.00000000000E+00  0.00000000000E+00 -0.46390406891E+03  0.32728535863E+04  0.32398091938E+04 0.  0.
        1    1    3    3  502    0  0.48981721443E+03  0.95719026868E+03  0.99199825579E+03  0.14629404135E+04  0.50400001928E-02 0. -1.
       -1    1    3    3    0  502 -0.48981721443E+03 -0.95719026868E+03 -0.14559023247E+04  0.18099131728E+04  0.50400001928E-02 0.  1.
</event>
<event>
 5   0  0.1273980E-06  0.3180319E+04  0.7818609E-02  0.8194034E-01
       -1   -1    0    0    0  501  0.00000000000E+00  0.00000000000E+00  0.12510769271E+04  0.12510769271E+04  0.50400001928E-02 0. -1.
        1   -1    0    0  501    0  0.00000000000E+00  0.00000000000E+00 -0.20211440393E+04  0.20211440393E+04  0.50400001928E-02 0.  1.
    10030    2    1    2    0    0  0.00000000000E+00  0.00000000000E+00 -0.77006711219E+03  0.32722209665E+04  0.31803186469E+04 0.  0.
        4    1    3    3  502    0  0.66677312729E+03  0.96110589465E+03  0.72326312465E+03  0.13752898256E+04  0.12699999809E+01 0. -1.
       -4    1    3    3    0  502 -0.66677312729E+03 -0.96110589465E+03 -0.14933302368E+04  0.18969311409E+04  0.12699999809E+01 0.  1.
</event>
<event>
 5   0  0.1240725E-06  0.3181233E+04  0.7818609E-02  0.8193791E-01
        1   -1    0    0  501    0  0.00000000000E+00  0.00000000000E+00  0.10023082784E+04  0.10023082784E+04  0.50400001928E-02 0.  1.
       -1   -1    0    0    0  501  0.00000000000E+00  0.00000000000E+00 -0.25242346953E+04  0.25242346953E+04  0.50400001928E-02 0. -1.
    10030    2    1    2    0    0  0.00000000000E+00  0.00000000000E+00 -0.15219264169E+04  0.35265429737E+04  0.31812333028E+04 0.  0.
        3    1    3    3  502    0  0.15525967662E+04 -0.15809629841E+03 -0.11017579755E+04  0.19103459909E+04  0.10100000352E+00 0. -1.
       -3    1    3    3    0  502 -0.15525967662E+04  0.15809629841E+03 -0.42016844140E+03  0.16161969828E+04  0.10100000352E+00 0.  1.
</event>
<event>
 5   0  0.3745943E-06  0.2495448E+04  0.7818609E-02  0.8404609E-01
        2   -1    0    0  501    0  0.00000000000E+00  0.00000000000E+00  0.13602034295E+04  0.13602034295E+04  0.25500000920E-02 0. -1.
       -2   -1    0    0    0  501  0.00000000000E+00  0.00000000000E+00 -0.11445454852E+04  0.11445454852E+04  0.25500000920E-02 0.  1.
    10030    2    1    2    0    0  0.00000000000E+00  0.00000000000E+00  0.21565794429E+03  0.25047489148E+04  0.24954476106E+04 0.  0.
        5    1    3    3  502    0  0.57909202456E+03  0.49896577299E+03  0.10976477195E+04  0.13375974811E+04  0.46999998093E+01 0. -1.
       -5    1    3    3    0  502 -0.57909202456E+03 -0.49896577299E+03 -0.88198977516E+03  0.11671514336E+04  0.46999998093E+01 0.  1.
</event>
<event>
 5   0  0.3745943E-06  0.3213332E+04  0.7818609E-02  0.8185305E-01
        2   -1    0    0  501    0  0.00000000000E+00  0.00000000000E+00  0.24626990152E+04  0.24626990152E+04  0.25500000920E-02 0.  1.
       -2   -1    0    0    0  501  0.00000000000E+00  0.00000000000E+00 -0.10481898592E+04  0.10481898592E+04  0.25500000920E-02 0. -1.
    10030    2    1    2    0    0  0.00000000000E+00  0.00000000000E+00  0.14145091560E+04  0.35108888745E+04  0.32133323103E+04 0.  0.
        5    1    3    3  502    0 -0.74539195994E+03  0.67416673900E+03  0.20768215355E+04  0.23072320530E+04  0.46999998093E+01 0.  1.
       -5    1    3    3    0  502  0.74539195994E+03 -0.67416673900E+03 -0.66231237947E+03  0.12036568215E+04  0.46999998093E+01 0. -1.
</event>
<event>
 5   0  0.3758062E-06  0.3182292E+04  0.7818609E-02  0.8193510E-01
        2   -1    0    0  501    0  0.00000000000E+00  0.00000000000E+00  0.13278840262E+04  0.13278840262E+04  0.25500000920E-02 0.  1.
       -2   -1    0    0    0  501  0.00000000000E+00  0.00000000000E+00 -0.19066011393E+04  0.19066011393E+04  0.25500000920E-02 0. -1.
    10030    2    1    2    0    0  0.00000000000E+00  0.00000000000E+00 -0.57871711305E+03  0.32344851655E+04  0.31822917510E+04 0.  0.
        2    1    3    3  502    0 -0.33267954821E+03 -0.14973604563E+04 -0.71935895019E+03  0.16941786556E+04  0.25500000920E-02 0. -1.
       -2    1    3    3    0  502  0.33267954821E+03  0.14973604563E+04  0.14064183714E+03  0.15403065098E+04  0.25500000920E-02 0.  1.
</event>
<event>
 5   0  0.3497546E-06  0.3183633E+04  0.7818609E-02  0.8193153E-01
        2   -1    0    0  501    0  0.00000000000E+00  0.00000000000E+00  0.19864011841E+04  0.19864011841E+04  0.25500000920E-02 0. -1.
       -2   -1    0    0    0  501  0.00000000000E+00  0.00000000000E+00 -0.12756133615E+04  0.12756133615E+04  0.25500000920E-02 0.  1.
    10030    2    1    2    0    0  0.00000000000E+00  0.00000000000E+00  0.71078782255E+03  0.32620145456E+04  0.31836330767E+04 0.  0.
        4    1    3    3  502    0 -0.73090573166E+02 -0.15894286968E+04  0.30676529665E+03  0.16204111744E+04  0.12699999809E+01 0.  1.
       -4    1    3    3    0  502  0.73090573166E+02  0.15894286968E+04  0.40402252591E+03  0.16416033712E+04  0.12699999809E+01 0. -1.
</event>
<event>
 5   0  0.1268836E-06  0.3177858E+04  0.7818609E-02  0.8194689E-01
       -1   -1    0    0    0  501  0.00000000000E+00  0.00000000000E+00  0.16707953844E+04  0.16707953844E+04  0.50400001928E-02 0.  1.
        1   -1    0    0  501    0  0.00000000000E+00  0.00000000000E+00 -0.15110741458E+04  0.15110741458E+04  0.50400001928E-02 0. -1.
    10030    2    1    2    0    0  0.00000000000E+00  0.00000000000E+00  0.15972123861E+03  0.31818695301E+04  0.31778582147E+04 0.  0.
        1    1    3    3  502    0 -0.15158590150E+04  0.38752297134E+03  0.35714537982E+03  0.16048537096E+04  0.50400001928E-02 0.  1.
       -1    1    3    3    0  502  0.15158590150E+04 -0.38752297134E+03 -0.19742414121E+03  0.15770158206E+04  0.50400001928E-02 0. -1.
</event>
<event>
 5   0  0.1268836E-06  0.3099556E+04  0.7818609E-02  0.8215860E-01
       -1   -1    0    0    0  501  0.00000000000E+00  0.00000000000E+00  0.19082815931E+04  0.19082815931E+04  0.50400001928E-02 0.  1.
        1   -1    0    0  501    0  0.00000000000E+00  0.00000000000E+00 -0.12586254583E+04  0.12586254583E+04  0.50400001928E-02 0. -1.
    10030    2    1    2    0    0  0.00000000000E+00  0.00000000000E+00  0.64965613483E+03  0.31669070514E+04  0.30995559647E+04 0.  0.
        1    1    3    3  502    0  0.39948254213E+03  0.65153975533E+03 -0.10526969652E+04  0.13008694227E+04  0.50400001928E-02 0. -1.
       -1    1    3    3    0  502 -0.39948254213E+03 -0.65153975533E+03  0.17023531001E+04  0.18660376287E+04  0.50400001928E-02 0.  1.
</event>
<event>
 5   0  0.1306843E-06  0.2533643E+04  0.7818609E-02  0.8391097E-01
       -1   -1    0    0    0  501  0.00000000000E+00  0.00000000000E+00  0.11281476766E+04  0.11281476766E+04  0.50400001928E-02 0.  1.
        1   -1    0    0  501    0  0.00000000000E+00  0.00000000000E+00 -0.14225411843E+04  0.14225411843E+04  0.50400001928E-02 0. -1.
    10030    2    1    2    0    0  0.00000000000E+00  0.00000000000E+00 -0.29439350767E+03  0.25506888609E+04  0.25336428572E+04 0.  0.
        5    1    3    3  502    0 -0.12643823768E+04 -0.64265868112E+02 -0.19246084675E+03  0.12805686878E+04  0.46999998093E+01 0. -1.
       -5    1    3    3    0  502  0.12643823768E+04  0.64265868112E+02 -0.10193266092E+03  0.12701201731E+04  0.46999998093E+01 0.  1.
</event>
<event>
 5   0  0.3531437E-06  0.3096173E+04  0.7818609E-02  0.8216789E-01
       -2   -1    0    0    0  501  0.00000000000E+00  0.00000000000E+00  0.14511444011E+04  0.14511444011E+04  0.25500000920E-02 0.  1.
        2   -1    0    0  501    0  0.00000000000E+00  0.00000000000E+00 -0.16515042022E+04  0.16515042022E+04  0.25500000920E-02 0. -1.
    10030    2    1    2    0    0  0.00000000000E+00  0.00000000000E+00 -0.20035980108E+03  0.31026486032E+04  0.30961725251E+04 0.  0.
        1    1    3    3  502    0  0.77871377280E+03  0.25135848791E+03  0.12167205912E+04  0.14662827921E+04  0.50400001928E-02 0.  1.
       -1    1    3    3    0  502 -0.77871377280E+03 -0.25135848791E+03 -0.14170803923E+04  0.16363658111E+04  0.50400001928E-02 0. -1.
</event>
<event>
 5   0  0.3497546E-06  0.3185311E+04  0.7818609E-02  0.8192707E-01
        2   -1    0    0  501    0  0.00000000000E+00  0.00000000000E+00  0.20141887279E+04  0.20141887279E+04  0.25500000920E-02 0.  1.
       -2   -1    0    0    0  501  0.00000000000E+00  0.00000000000E+00 -0.12593416871E+04  0.12593416871E+04  0.25500000920E-02 0. -1.
    10030    2    1    2    0    0  0.00000000000E+00  0.00000000000E+00  0.75484704074E+03  0.32735304150E+04  0.31853111815E+04 0.  0.
        4    1    3    3  502    0 -0.98441562735E+03  0.11253434652E+04  0.94132619222E+03  0.17667961555E+04  0.12699999809E+01 0.  1.
       -4    1    3    3    0  502  0.98441562735E+03 -0.11253434652E+04 -0.18647915148E+03  0.15067342595E+04  0.12699999809E+01 0. -1.
</event>
<event>
 5   0  0.1273980E-06  0.3197655E+04  0.7818609E-02  0.8189437E-01
        1   -1    0    0  501    0  0.00000000000E+00  0.00000000000E+00  0.24545898836E+04  0.24545898836E+04  0.50400001928E-02 0. -1.
       -1   -1    0    0    0  501  0.00000000000E+00  0.00000000000E+00 -0.10414161727E+04  0.10414161727E+04  0.50400001928E-02 0.  1.
    10030    2    1    2    0    0  0.00000000000E+00  0.00000000000E+00  0.14131737109E+04  0.34960060564E+04  0.31976551423E+04 0.  0.
        4    1    3    3  502    0  0.30611915141E+03  0.14726725975E+04  0.11400604825E+03  0.15084669390E+04  0.12699999809E+01 0.  1.
       -4    1    3    3    0  502 -0.30611915141E+03 -0.14726725975E+04  0.12991676627E+04  0.19875391173E+04  0.12699999809E+01 0. -1.
</event>
<event>
 5   0  0.1306843E-06  0.3206665E+04  0.7818609E-02  0.8187059E-01
        1   -1    0    0  501    0  0.00000000000E+00  0.00000000000E+00  0.17074428166E+04  0.17074428166E+04  0.50400001928E-02 0. -1.
       -1   -1    0    0    0  501  0.00000000000E+00  0.00000000000E+00 -0.15055705612E+04  0.15055705612E+04  0.50400001928E-02 0.  1.
    10030    2    1    2    0    0  0.00000000000E+00  0.00000000000E+00  0.20187225540E+03  0.32130133777E+04  0.32066653330E+04 0.  0.
        5    1    3    3  502    0  0.15203317134E+04  0.49305661963E+03 -0.26359462946E+02  0.15985087614E+04  0.46999998093E+01 0.  1.
       -5    1    3    3    0  502 -0.15203317134E+04 -0.49305661963E+03  0.22823171834E+03  0.16145046164E+04  0.46999998093E+01 0. -1.
</event>
<event>
 5   0  0.3531437E-06  0.3026798E+04  0.7818609E-02  0.8236120E-01
       -2   -1    0    0    0  501  0.00000000000E+00  0.00000000000E+00  0.17139090277E+04  0.17139090277E+04  0.25500000920E-02 0.  1.
        2   -1    0    0  501    0  0.00000000000E+00  0.00000000000E+00 -0.13363462479E+04  0.13363462479E+04  0.25500000920E-02 0. -1.
    10030    2    1    2    0    0  0.00000000000E+00  0.00000000000E+00  0.37756277981E+03  0.30502552756E+04  0.30267975805E+04 0.  0.
        1    1    3    3  502    0 -0.35834578719E+03  0.10071817881E+04 -0.89075785733E+03  0.13915014976E+04  0.50400001928E-02 0. -1.
       -1    1    3    3    0  502  0.35834578719E+03 -0.10071817881E+04  0.12683206371E+04  0.16587537780E+04  0.50400001928E-02 0.  1.
</event>
<event>
 5   0  0.1240725E-06  0.3190061E+04  0.7818609E-02  0.8191447E-01
        1   -1    0    0  501    0  0.00000000000E+00  0.00000000000E+00  0.14958131577E+04  0.14958131577E+04  0.50400001928E-02 0.  1.
       -1   -1    0    0    0  501  0.00000000000E+00  0.00000000000E+00 -0.17008294267E+04  0.17008294267E+04  0.50400001928E-02 0. -1.
    10030    2    1    2    0    0  0.00000000000E+00  0.00000000000E+00 -0.20501626909E+03  0.31966425844E+04  0.31900614636E+04 0.  0.
        3    1    3    3  502    0 -0.33844341988E+03  0.31298102918E+03 -0.16326232226E+04  0.16964550304E+04  0.10100000352E+00 0. -1.
       -3    1    3    3    0  502  0.33844341988E+03 -0.31298102918E+03  0.14276069535E+04  0.15001875540E+04  0.10100000352E+00 0.  1.
</event>
<event>
 5   0  0.3758062E-06  0.3135994E+04  0.7818609E-02  0.8205929E-01
       -2   -1    0    0    0  501  0.00000000000E+00  0.00000000000E+00  0.22319800700E+04  0.22319800700E+04  0.25500000920E-02 0. -1.
        2   -1    0    0  501    0  0.00000000000E+00  0.00000000000E+00 -0.11015394521E+04  0.11015394521E+04  0.25500000920E-02 0.  1.
    10030    2    1    2    0    0  0.00000000000E+00  0.00000000000E+00  0.11304406179E+04  0.33335195220E+04  0.31359936883E+04 0.  0.
        2    1    3    3  502    0 -0.99167897659E+03  0.93783137597E+03 -0.25518177989E+03  0.13885505476E+04  0.25500000920E-02 0.  1.
       -2    1    3    3    0  502  0.99167897659E+03 -0.93783137597E+03  0.13856223978E+04  0.19449689745E+04  0.25500000920E-02 0. -1.
</event>
<event>
 5   0  0.3758062E-06  0.3110089E+04  0.7818609E-02  0.8212975E-01
       -2   -1    0    0    0  501  0.00000000000E+00  0.00000000000E+00  0.13156831897E+04  0.13156831897E+04  0.25500000920E-02 0. -1.
        2   -1    0    0  501    0  0.00000000000E+00  0.00000000000E+00 -0.18379523458E+04  0.18379523458E+04  0.25500000920E-02 0.  1.
    10030    2    1    2    0    0  0.00000000000E+00  0.00000000000E+00 -0.52226915602E+03  0.31536355355E+04  0.31100887478E+04 0.  0.
        2    1    3    3  502    0 -0.10374530213E+04  0.38400280455E+02  0.91282361679E+03  0.13824001983E+04  0.25500000920E-02 0. -1.
       -2    1    3    3    0  502  0.10374530213E+04 -0.38400280455E+02 -0.14350927728E+04  0.17712353372E+04  0.25500000920E-02 0.  1.
</event>
<event>
 5   0  0.3497546E-06  0.3201968E+04  0.7818609E-02  0.8188298E-01
        2   -1    0    0  501    0  0.00000000000E+00  0.00000000000E+00  0.12889901571E+04  0.12889901571E+04  0.25500000920E-02 0.  1.
       -2   -1    0    0    0  501  0.00000000000E+00  0.00000000000E+00 -0.19884946994E+04  0.19884946994E+04  0.25500000920E-02 0. -1.
    10030    2    1    2    0    0  0.00000000000E+00  0.00000000000E+00 -0.69950454231E+03  0.32774848565E+04  0.32019682040E+04 0.  0.
        4    1    3    3  502    0  0.65026106333E+03 -0.14582668908E+04 -0.22965345994E+03  0.16131100706E+04  0.12699999809E+01 0.  1.
       -4    1    3    3    0  502 -0.65026106333E+03  0.14582668908E+04 -0.46985108236E+03  0.16643747859E+04  0.12699999809E+01 0. -1.
</event>
<event>
 5   0  0.3656086E-06  0.3120353E+04  0.7818609E-02  0.8210174E-01
        2   -1    0    0  501    0  0.00000000000E+00  0.00000000000E+00  0.21689283572E+04  0.21689283572E+04  0.25500000920E-02 0.  1.
       -2   -1    0    0    0  501  0.00000000000E+00  0.00000000000E+00 -0.11222825778E+04  0.11222825778E+04  0.25500000920E-02 0. -1.
    10030    2    1    2    0    0  0.00000000000E+00  0.00000000000E+00  0.10466457793E+04  0.32912109350E+04  0.31203528697E+04 0.  0.
        3    1    3    3  502    0  0.62160561823E+02 -0.74957731267E+03 -0.91842495074E+03  0.11871118243E+04  0.10100000352E+00 0. -1.
       -3    1    3    3    0  502 -0.62160561823E+02  0.74957731267E+03  0.19650707301E+04  0.21040991107E+04  0.10100000352E+00 0.  1.
</event>
<event>
 5   0  0.3531437E-06  0.3217492E+04  0.7818609E-02  0.8184213E-01
        2   -1    0    0  501    0  0.00000000000E+00  0.00000000000E+00  0.13521578960E+04  0.13521578960E+04  0.25500000920E-02 0. -1.
       -2   -1    0    0    0  501  0.00000000000E+00  0.00000000000E+00 -0.19140245651E+04  0.19140245651E+04  0.25500000920E-02 0.  1.
    10030    2    1    2    0    0  0.00000000000E+00  0.00000000000E+00 -0.56186666915E+03  0.32661824611E+04  0.32174918361E+04 0.  0.
        1    1    3    3  502    0  0.59939581482E+03 -0.37069333230E+03 -0.17489767419E+04  0.18856321309E+04  0.50400001928E-02 0.  1.
       -1    1    3    3    0  502 -0.59939581482E+03  0.37069333230E+03  0.11871100727E+04  0.13805503302E+04  0.50400001928E-02 0. -1.
</event>
<event>
 5   0  0.3745943E-06  0.3210141E+04  0.7818609E-02  0.8186144E-01
        2   -1    0    0  501    0  0.00000000000E+00  0.00000000000E+00  0.27491043435E+04  0.27491043435E+04  0.25500000920E-02 0.  1.
       -2   -1    0    0    0  501  0.00000000000E+00  0.00000000000E+00 -0.93712412690E+03  0.93712412691E+03  0.25500000920E-02 0. -1.
    10030    2    1    2    0    0  0.00000000000E+00  0.00000000000E+00  0.18119802166E+04  0.36862284705E+04  0.32101414347E+04 0.  0.
        5    1    3    3  502    0 -0.68845191815E+03 -0.13695042385E+04  0.35921979342E+03  0.15743471196E+04  0.46999998093E+01 0. -1.
       -5    1    3    3    0  502  0.68845191815E+03  0.13695042385E+04  0.14527604232E+04  0.21118813509E+04  0.46999998093E+01 0.  1.
</event>
<event>
 5   0  0.1273980E-06  0.3197444E+04  0.7818609E-02  0.8189493E-01
        1   -1    0    0  501    0  0.00000000000E+00  0.00000000000E+00  0.18512855424E+04  0.18512855424E+04  0.50400001928E-02 0.  1.
       -1   -1    0    0    0  501  0.00000000000E+00  0.00000000000E+00 -0.13806142839E+04  0.13806142839E+04  0.50400001928E-02 0. -1.
    10030    2    1    2    0    0  0.00000000000E+00  0.00000000000E+00  0.47067125847E+03  0.32318998263E+04  0.31974435185E+04 0.  0.
        4    1    3    3  502    0  0.12121042749E+04  0.71888289437E+03  0.99840155036E+03  0.17270774903E+04  0.12699999809E+01 0.  1.
       -4    1    3    3    0  502 -0.12121042749E+04 -0.71888289437E+03 -0.52773029190E+03  0.15048223360E+04  0.12699999809E+01 0. -1.
</event>
<event>
 5   0  0.1306843E-06  0.3233219E+04  0.7818609E-02  0.8180099E-01
        1   -1    0    0  501    0  0.00000000000E+00  0.00000000000E+00  0.17934327707E+04  0.17934327707E+04  0.50400001928E-02 0.  1.
       -1   -1    0    0    0  501  0.00000000000E+00  0.00000000000E+00 -0.14572198734E+04  0.14572198734E+04  0.50400001928E-02 0. -1.
    10030    2    1    2    0    0  0.00000000000E+00  0.00000000000E+00  0.33621289730E+03  0.32506526441E+04  0.32332187523E+04 0.  0.
        5    1    3    3  502    0 -0.73007737102E+03 -0.13106923694E+04 -0.43720000125E+03  0.15627198680E+04  0.46999998093E+01 0. -1.
       -5    1    3    3    0  502  0.73007737102E+03  0.13106923694E+04  0.77341289855E+03  0.16879327760E+04  0.46999998093E+01 0.  1.
</event>
<event>
 5   0  0.3497546E-06  0.3188659E+04  0.7818609E-02  0.8191819E-01
        2   -1    0    0  501    0  0.00000000000E+00  0.00000000000E+00  0.16365318024E+04  0.16365318024E+04  0.25500000920E-02 0. -1.
       -2   -1    0    0    0  501  0.00000000000E+00  0.00000000000E+00 -0.15532151292E+04  0.15532151292E+04  0.25500000920E-02 0.  1.
    10030    2    1    2    0    0  0.00000000000E+00  0.00000000000E+00  0.83316673213E+02  0.31897469316E+04  0.31886586239E+04 0.  0.
        4    1    3    3  502    0 -0.52435192880E+03 -0.79915818801E+03 -0.12348201253E+04  0.15615316550E+04  0.12699999809E+01 0.  1.
       -4    1    3    3    0  502  0.52435192880E+03  0.79915818801E+03  0.13181367985E+04  0.16282152767E+04  0.12699999809E+01 0. -1.
</event>
<event>
 5   0  0.3758062E-06  0.3213698E+04  0.7818609E-02  0.8185209E-01
       -2   -1    0    0    0  501  0.00000000000E+00  0.00000000000E+00  0.91997498225E+03  0.91997498225E+03  0.25500000920E-02 0. -1.
        2   -1    0    0  501    0  0.00000000000E+00  0.00000000000E+00 -0.28065578339E+04  0.28065578339E+04  0.25500000920E-02 0.  1.
    10030    2    1    2    0    0  0.00000000000E+00  0.00000000000E+00 -0.18865828517E+04  0.37265328162E+04  0.32136975548E+04 0.  0.
        2    1    3    3  502    0 -0.13939263484E+04 -0.34922016282E+03 -0.10954149015E+03  0.14411747726E+04  0.25500000920E-02 0.  1.
       -2    1    3    3    0  502  0.13939263484E+04  0.34922016282E+03 -0.17770413615E+04  0.22853580436E+04  0.25500000920E-02 0. -1.
</event>
<event>
 5   0  0.1306843E-06  0.3231833E+04  0.7818609E-02  0.8180460E-01
        1   -1    0    0  501    0  0.00000000000E+00  0.00000000000E+00  0.19973562670E+04  0.19973562670E+04  0.50400001928E-02 0.  1.
       -1   -1    0    0    0  501  0.00000000000E+00  0.00000000000E+00 -0.13073213491E+04  0.13073213491E+04  0.50400001928E-02 0. -1.
    10030    2    1    2    0    0  0.00000000000E+00  0.00000000000E+00  0.69003491790E+03  0.33046776161E+04  0.32318332195E+04 0.  0.
        5    1    3    3  502    0  0.10238705817E+04  0.40440481556E+03  0.15546045810E+04  0.19049072723E+04  0.46999998093E+01 0.  1.
       -5    1    3    3    0  502 -0.10238705817E+04 -0.40440481556E+03 -0.86456966313E+03  0.13997703438E+04  0.46999998093E+01 0. -1.
</event>
<event>
 5   0  0.1273980E-06  0.3155881E+04  0.7818609E-02  0.8200567E-01
        1   -1    0    0  501    0  0.00000000000E+00  0.00000000000E+00  0.13766132155E+04  0.13766132155E+04  0.50400001928E-02 0. -1.
       -1   -1    0    0    0  501  0.00000000000E+00  0.00000000000E+00 -0.18087117160E+04  0.18087117160E+04  0.50400001928E-02 0.  1.
    10030    2    1    2    0    0  0.00000000000E+00  0.00000000000E+00 -0.43209850047E+03  0.31853249315E+04  0.31558811456E+04 0.  0.
        4    1    3    3  502    0  0.69589641425E+03 -0.66664228471E+03 -0.14771910342E+04  0.17637399807E+04  0.12699999809E+01 0.  1.
       -4    1    3    3    0  502 -0.69589641425E+03  0.66664228471E+03  0.10450925338E+04  0.14215849507E+04  0.12699999809E+01 0. -1.
</event>
<event>
 5   0  0.3745943E-06  0.3382782E+04  0.7818609E-02  0.8142145E-01
       -2   -1    0    0    0  501  0.00000000000E+00  0.00000000000E+00  0.20767607380E+04  0.20767607380E+04  0.25500000920E-02 0. -1.
        2   -1    0    0  501    0  0.00000000000E+00  0.00000000000E+00 -0.13775313750E+04  0.13775313750E+04  0.25500000920E-02 0.  1.
    10030    2    1    2    0    0  0.00000000000E+00  0.00000000000E+00  0.69922936301E+03  0.34542921129E+04  0.33827817398E+04 0.  0.
        5    1    3    3  502    0 -0.15614542412E+04  0.14755656285E+03  0.99614092200E+03  0.18580180605E+04  0.46999998093E+01 0. -1.
       -5    1    3    3    0  502  0.15614542412E+04 -0.14755656285E+03 -0.29691155899E+03  0.15962740524E+04  0.46999998093E+01 0.  1.
</event>
<event>
 5   0  0.1273754E-06  0.3143900E+04  0.7818609E-02  0.8203792E-01
        1   -1    0    0  501    0  0.00000000000E+00  0.00000000000E+00  0.17069506261E+04  0.17069506261E+04  0.50400001928E-02 0. -1.
       -1   -1    0    0    0  501  0.00000000000E+00  0.00000000000E+00 -0.14476265854E+04  0.14476265854E+04  0.50400001928E-02 0.  1.
    10030    2    1    2    0    0  0.00000000000E+00  0.00000000000E+00  0.25932404070E+03  0.31545772116E+04  0.31439001934E+04 0.  0.
        2    1    3    3  502    0  0.68445438869E+03 -0.13679894375E+04  0.49304409879E+03  0.16071606624E+04  0.25500000920E-02 0. -1.
       -2    1    3    3    0  502 -0.68445438869E+03  0.13679894375E+04 -0.23372005809E+03  0.15474165492E+04  0.25500000920E-02 0.  1.
</event>
<event>
 5   0  0.1240725E-06  0.2531900E+04  0.7818609E-02  0.8391708E-01
       -1   -1    0    0    0  501  0.00000000000E+00  0.00000000000E+00  0.72903774388E+03  0.72903774389E+03  0.50400001928E-02 0. -1.
        1   -1    0    0  501    0  0.00000000000E+00  0.00000000000E+00 -0.21982804861E+04  0.21982804861E+04  0.50400001928E-02 0.  1.
    10030    2    1    2    0    0  0.00000000000E+00  0.00000000000E+00 -0.14692427423E+04  0.29273182300E+04  0.25319000344E+04 0.  0.
        3    1    3    3  502    0 -0.35358819810E+02  0.36256758894E+03 -0.21363721730E+04  0.21672082444E+04  0.10100000352E+00 0.  1.
       -3    1    3    3    0  502  0.35358819810E+02 -0.36256758894E+03  0.66712943076E+03  0.76010998565E+03  0.10100000352E+00 0. -1.
</event>
<event>
 5   0  0.1268836E-06  0.2969058E+04  0.7818609E-02  0.8252622E-01
       -1   -1    0    0    0  501  0.00000000000E+00  0.00000000000E+00  0.13577956161E+04  0.13577956161E+04  0.50400001928E-02 0.  1.
        1   -1    0    0  501    0  0.00000000000E+00  0.00000000000E+00 -0.16230911040E+04  0.16230911040E+04  0.50400001928E-02 0. -1.
    10030    2    1    2    0    0  0.00000000000E+00  0.00000000000E+00 -0.26529548791E+03  0.29808867201E+04  0.29690577533E+04 0.  0.
        1    1    3    3  502    0 -0.63243315895E+02 -0.11790880496E+04  0.77070231886E+03  0.14100462440E+04  0.50400001928E-02 0.  1.
       -1    1    3    3    0  502  0.63243315895E+02  0.11790880496E+04 -0.10359978068E+04  0.15708404761E+04  0.50400001928E-02 0. -1.
</event>
<event>
 5   0  0.3531437E-06  0.3011260E+04  0.7818609E-02  0.8240523E-01
       -2   -1    0    0    0  501  0.00000000000E+00  0.00000000000E+00  0.14726155506E+04  0.14726155506E+04  0.25500000920E-02 0.  1.
        2   -1    0    0  501    0  0.00000000000E+00  0.00000000000E+00 -0.15393847690E+04  0.15393847690E+04  0.25500000920E-02 0. -1.
    10030    2    1    2    0    0  0.00000000000E+00  0.00000000000E+00 -0.66769218368E+02  0.30120003196E+04  0.30112601675E+04 0.  0.
        1    1    3    3  502    0  0.57254390639E+03  0.95367689026E+03  0.98156466244E+03  0.14835010355E+04  0.50400001928E-02 0.  1.
       -1    1    3    3    0  502 -0.57254390639E+03 -0.95367689026E+03 -0.10483338808E+04  0.15284992841E+04  0.50400001928E-02 0. -1.
</event>
<event>
 5   0  0.3656086E-06  0.3206521E+04  0.7818609E-02  0.8187097E-01
       -2   -1    0    0    0  501  0.00000000000E+00  0.00000000000E+00  0.10793279402E+04  0.10793279402E+04  0.25500000920E-02 0.  1.
        2   -1    0    0  501    0  0.00000000000E+00  0.00000000000E+00 -0.23815226837E+04  0.23815226837E+04  0.25500000920E-02 0. -1.
    10030    2    1    2    0    0  0.00000000000E+00  0.00000000000E+00 -0.13021947435E+04  0.34608506240E+04  0.32065208391E+04 0.  0.
        3    1    3    3  502    0  0.15869916947E+04 -0.31779317265E+02 -0.40761306109E+03  0.16388108438E+04  0.10100000352E+00 0.  1.
       -3    1    3    3    0  502 -0.15869916947E+04  0.31779317265E+02 -0.89458168242E+03  0.18220397802E+04  0.10100000352E+00 0. -1.
</event>
<event>
 5   0  0.3745943E-06  0.3144765E+04  0.7818609E-02  0.8203559E-01
       -2   -1    0    0    0  501  0.00000000000E+00  0.00000000000E+00  0.85895098349E+03  0.85895098349E+03  0.25500000920E-02 0. -1.
        2   -1    0    0  501    0  0.00000000000E+00  0.00000000000E+00 -0.28783795618E+04  0.28783795618E+04  0.25500000920E-02 0.  1.
    10030    2    1    2    0    0  0.00000000000E+00  0.00000000000E+00 -0.20194285783E+04  0.37373305453E+04  0.31447651457E+04 0.  0.
        5    1    3    3  502    0 -0.87307783023E+03  0.55209655220E+03 -0.24185364443E+04  0.26299080065E+04  0.46999998093E+01 0.  1.
       -5    1    3    3    0  502  0.87307783023E+03 -0.55209655220E+03  0.39910786599E+03  0.11074225387E+04  0.46999998093E+01 0. -1.
</event>
<event>
 5   0  0.3497546E-06  0.3047281E+04  0.7818609E-02  0.8230357E-01
        2   -1    0    0  501    0  0.00000000000E+00  0.00000000000E+00  0.13486527491E+04  0.13486527491E+04  0.25500000920E-02 0.  1.
       -2   -1    0    0    0  501  0.00000000000E+00  0.00000000000E+00 -0.17213326317E+04  0.17213326317E+04  0.25500000920E-02 0. -1.
    10030    2    1    2    0    0  0.00000000000E+00  0.00000000000E+00 -0.37267988252E+03  0.30699853808E+04  0.30472807458E+04 0.  0.
        4    1    3    3  502    0 -0.11516171906E+04  0.95812758919E+03 -0.46634555386E+03  0.15689838812E+04  0.12699999809E+01 0. -1.
       -4    1    3    3    0  502  0.11516171906E+04 -0.95812758919E+03  0.93665671340E+02  0.15010014996E+04  0.12699999809E+01 0.  1.
</event>
<event>
 5   0  0.3531437E-06  0.3188083E+04  0.7818609E-02  0.8191972E-01
        2   -1    0    0  501    0  0.00000000000E+00  0.00000000000E+00  0.75229185620E+03  0.75229185621E+03  0.25500000920E-02 0.  1.
       -2   -1    0    0    0  501  0.00000000000E+00  0.00000000000E+00 -0.33776363102E+04  0.33776363102E+04  0.25500000920E-02 0. -1.
    10030    2    1    2    0    0  0.00000000000E+00  0.00000000000E+00 -0.26253444540E+04  0.41299281664E+04  0.31880829910E+04 0.  0.
        1    1    3    3  502    0 -0.42209832562E+03  0.91839395986E+03 -0.29094421430E+04  0.30800110463E+04  0.50400001928E-02 0. -1.
       -1    1    3    3    0  502  0.42209832562E+03 -0.91839395986E+03  0.28409768905E+03  0.10499171200E+04  0.50400001928E-02 0.  1.
</event>
<event>
 5   0  0.1273754E-06  0.3164393E+04  0.7818609E-02  0.8198285E-01
       -1   -1    0    0    0  501  0.00000000000E+00  0.00000000000E+00  0.98043707802E+03  0.98043707803E+03  0.50400001928E-02 0. -1.
        1   -1    0    0  501    0  0.00000000000E+00  0.00000000000E+00 -0.25532958367E+04  0.25532958368E+04  0.50400001928E-02 0.  1.
    10030    2    1    2    0    0  0.00000000000E+00  0.00000000000E+00 -0.15728587587E+04  0.35337329148E+04  0.31643930916E+04 0.  0.
        2    1    3    3  502    0  0.22076224783E+03 -0.14564135321E+04 -0.14156053657E+03  0.14798363869E+04  0.25500000920E-02 0. -1.
       -2    1    3    3    0  502 -0.22076224783E+03  0.14564135321E+04 -0.14312982222E+04  0.20538965279E+04  0.25500000920E-02 0.  1.
</event>
<event>
 5   0  0.1240725E-06  0.3242326E+04  0.7818609E-02  0.8177727E-01
       -1   -1    0    0    0  501  0.00000000000E+00  0.00000000000E+00  0.10152161058E+04  0.10152161058E+04  0.50400001928E-02 0.  1.
        1   -1    0    0  501    0  0.00000000000E+00  0.00000000000E+00 -0.25887791140E+04  0.25887791140E+04  0.50400001928E-02 0. -1.
    10030    2    1    2    0    0  0.00000000000E+00  0.00000000000E+00 -0.15735630082E+04  0.36039952199E+04  0.32423264802E+04 0.  0.
        3    1    3    3  502    0 -0.17536349760E+03 -0.15635101920E+04 -0.35220571037E+03  0.16122547408E+04  0.10100000352E+00 0.  1.
       -3    1    3    3    0  502  0.17536349760E+03  0.15635101920E+04 -0.12213572978E+04  0.19917404790E+04  0.10100000352E+00 0. -1.
</event>
<event>
 5   0  0.3656086E-06  0.3277280E+04  0.7818609E-02  0.8168701E-01
        2   -1    0    0  501    0  0.00000000000E+00  0.00000000000E+00  0.94783757904E+03  0.94783757904E+03  0.25500000920E-02 0. -1.
       -2   -1    0    0    0  501  0.00000000000E+00  0.00000000000E+00 -0.28329126088E+04  0.28329126088E+04  0.25500000920E-02 0.  1.
    10030    2    1    2    0    0  0.00000000000E+00  0.00000000000E+00 -0.18850750297E+04  0.37807501878E+04  0.32772799873E+04 0.  0.
        3    1    3    3  502    0 -0.11492546711E+03 -0.16010253030E+04 -0.13227983252E+04  0.20799724285E+04  0.10100000352E+00 0.  1.
       -3    1    3    3    0  502  0.11492546711E+03  0.16010253030E+04 -0.56227670458E+03  0.17007777593E+04  0.10100000352E+00 0. -1.
</event>
<event>
 5   0  0.3656086E-06  0.3116874E+04  0.7818609E-02  0.8211122E-01
        2   -1    0    0  501    0  0.00000000000E+00  0.00000000000E+00  0.19751480215E+04  0.19751480215E+04  0.25500000920E-02 0.  1.
       -2   -1    0    0    0  501  0.00000000000E+00  0.00000000000E+00 -0.12296427512E+04  0.12296427512E+04  0.25500000920E-02 0. -1.
    10030    2    1    2    0    0  0.00000000000E+00  0.00000000000E+00  0.74550527031E+03  0.32047907726E+04  0.31168743620E+04 0.  0.
        3    1    3    3  502    0 -0.69407307911E+03 -0.14425526650E+03 -0.10542630725E+04  0.12704399464E+04  0.10100000352E+00 0. -1.
       -3    1    3    3    0  502  0.69407307911E+03  0.14425526650E+03  0.17997683428E+04  0.19343508263E+04  0.10100000352E+00 0.  1.
</event>
<event>
 5   0  0.1273980E-06  0.3231372E+04  0.7818609E-02  0.8180581E-01
        1   -1    0    0  501    0  0.00000000000E+00  0.00000000000E+00  0.13790613166E+04  0.13790613166E+04  0.50400001928E-02 0. -1.
       -1   -1    0    0    0  501  0.00000000000E+00  0.00000000000E+00 -0.18929121440E+04  0.18929121440E+04  0.50400001928E-02 0.  1.
    10030    2    1    2    0    0  0.00000000000E+00  0.00000000000E+00 -0.51385082742E+03  0.32719734606E+04  0.32313724103E+04 0.  0.
        4    1    3    3  502    0  0.39916359127E+03  0.15000665519E+04  0.19693523464E+03  0.15647096639E+04  0.12699999809E+01 0. -1.
       -4    1    3    3    0  502 -0.39916359127E+03 -0.15000665519E+04 -0.71078606206E+03  0.17072637967E+04  0.12699999809E+01 0.  1.
</event>
<event>
 5   0  0.1268836E-06  0.3178315E+04  0.7818609E-02  0.8194568E-01
        1   -1    0    0  501    0  0.00000000000E+00  0.00000000000E+00  0.15994749389E+04  0.15994749389E+04  0.50400001928E-02 0.  1.
       -1   -1    0    0    0  501  0.00000000000E+00  0.00000000000E+00 -0.15789062462E+04  0.15789062462E+04  0.50400001928E-02 0. -1.
    10030    2    1    2    0    0  0.00000000000E+00  0.00000000000E+00  0.20568692739E+02  0.31783811851E+04  0.31783146299E+04 0.  0.
        1    1    3    3  502    0  0.60450565813E+03  0.12971880575E+04  0.70116567790E+03  0.15936615874E+04  0.50400001928E-02 0.  1.
       -1    1    3    3    0  502 -0.60450565813E+03 -0.12971880575E+04 -0.68059698516E+03  0.15847195977E+04  0.50400001928E-02 0. -1.
</event>
<event>
 5   0  0.3745943E-06  0.3248387E+04  0.7818609E-02  0.8176154E-01
        2   -1    0    0  501    0  0.00000000000E+00  0.00000000000E+00  0.21153584407E+04  0.21153584407E+04  0.25500000920E-02 0.  1.
       -2   -1    0    0    0  501  0.00000000000E+00  0.00000000000E+00 -0.12470719488E+04  0.12470719488E+04  0.25500000920E-02 0. -1.
    10030    2    1    2    0    0  0.00000000000E+00  0.00000000000E+00  0.86828649195E+03  0.33624303895E+04  0.32483867830E+04 0.  0.
        5    1    3    3  502    0 -0.10231108934E+04 -0.61402594349E+03  0.15747354053E+04  0.19757523747E+04  0.46999998093E+01 0.  1.
       -5    1    3    3    0  502  0.10231108934E+04  0.61402594349E+03 -0.70644891336E+03  0.13866780148E+04  0.46999998093E+01 0. -1.
</event>
<event>
 5   0  0.1273980E-06  0.3199933E+04  0.7818609E-02  0.8188835E-01
        1   -1    0    0  501    0  0.00000000000E+00  0.00000000000E+00  0.19536459707E+04  0.19536459707E+04  0.50400001928E-02 0.  1.
       -1   -1    0    0    0  501  0.00000000000E+00  0.00000000000E+00 -0.13103160117E+04  0.13103160117E+04  0.50400001928E-02 0. -1.
    10030    2    1    2    0    0  0.00000000000E+00  0.00000000000E+00  0.64332995905E+03  0.32639619824E+04  0.31999334972E+04 0.  0.
        4    1    3    3  502    0  0.11060106390E+04  0.79553303898E+03 -0.53402474239E+03  0.14633237468E+04  0.12699999809E+01 0. -1.
       -4    1    3    3    0  502 -0.11060106390E+04 -0.79553303898E+03  0.11773547014E+04  0.18006382356E+04  0.12699999809E+01 0.  1.
</event>
<event>
 5   0  0.1268836E-06  0.3223522E+04  0.7818609E-02  0.8182633E-01
        1   -1    0    0  501    0  0.00000000000E+00  0.00000000000E+00  0.24471118710E+04  0.24471118710E+04  0.50400001928E-02 0. -1.
       -1   -1    0    0    0  501  0.00000000000E+00  0.00000000000E+00 -0.10615669657E+04  0.10615669658E+04  0.50400001928E-02 0.  1.
    10030    2    1    2    0    0  0.00000000000E+00  0.00000000000E+00  0.13855449053E+04  0.35086788368E+04  0.32235217535E+04 0.  0.
        1    1    3    3  502    0  0.82905630052E+03 -0.82051684791E+03  0.19034580233E+04  0.22324279817E+04  0.50400001928E-02 0. -1.
       -1    1    3    3    0  502 -0.82905630052E+03  0.82051684791E+03 -0.51791311803E+03  0.12762508550E+04  0.50400001928E-02 0.  1.
</event>
<event>
 5   0  0.3497546E-06  0.3209864E+04  0.7818609E-02  0.8186217E-01
       -2   -1    0    0    0  501  0.00000000000E+00  0.00000000000E+00  0.13024572561E+04  0.13024572561E+04  0.25500000920E-02 0.  1.
        2   -1    0    0  501    0  0.00000000000E+00  0.00000000000E+00 -0.19776513528E+04  0.19776513528E+04  0.25500000920E-02 0. -1.
    10030    2    1    2    0    0  0.00000000000E+00  0.00000000000E+00 -0.67519409665E+03  0.32801086089E+04  0.32098637694E+04 0.  0.
        4    1    3    3  502    0  0.14997341126E+04  0.46847882254E+03 -0.31271596732E+01  0.15712053359E+04  0.12699999809E+01 0. -1.
       -4    1    3    3    0  502 -0.14997341126E+04 -0.46847882254E+03 -0.67206693697E+03  0.17089032729E+04  0.12699999809E+01 0.  1.
</event>
<event>
 5   0  0.1240725E-06  0.3053728E+04  0.7818609E-02  0.8228553E-01
        1   -1    0    0  501    0  0.00000000000E+00  0.00000000000E+00  0.26217602205E+04  0.26217602205E+04  0.50400001928E-02 0.  1.
       -1   -1    0    0    0  501  0.00000000000E+00  0.00000000000E+00 -0.88921688329E+03  0.88921688330E+03  0.50400001928E-02 0. -1.
    10030    2    1    2    0    0  0.00000000000E+00  0.00000000000E+00  0.17325433372E+04  0.35109771038E+04  0.30537278543E+04 0.  0.
        3    1    3    3  502    0 -0.12027686290E+04  0.52425957952E+03 -0.31562216077E+02  0.13124392044E+04  0.10100000352E+00 0. -1.
       -3    1    3    3    0  502  0.12027686290E+04 -0.52425957952E+03  0.17641055533E+04  0.21985378994E+04  0.10100000352E+00 0.  1.
</event>
<event>
 5   0  0.1268836E-06  0.3185030E+04  0.7818609E-02  0.8192782E-01
       -1   -1    0    0    0  501  0.00000000000E+00  0.00000000000E+00  0.13925769931E+04  0.13925769931E+04  0.50400001928E-02 0.  1.
        1   -1    0    0  501    0  0.00000000000E+00  0.00000000000E+00 -0.18211591308E+04  0.18211591308E+04  0.50400001928E-02 0. -1.
    10030    2    1    2    0    0  0.00000000000E+00  0.00000000000E+00 -0.42858213769E+03  0.32137361240E+04  0.31850301766E+04 0.  0.
        1    1    3    3  502    0 -0.44159933856E+03 -0.21414518993E+03 -0.17429491359E+04  0.18107290876E+04  0.50400001928E-02 0. -1.
       -1    1    3    3    0  502  0.44159933856E+03  0.21414518993E+03  0.13143669982E+04  0.14030070364E+04  0.50400001928E-02 0.  1.
</event>
<event>
 5   0  0.1268836E-06  0.3185292E+04  0.7818609E-02  0.8192712E-01
       -1   -1    0    0    0  501  0.00000000000E+00  0.00000000000E+00  0.14307103324E+04  0.14307103324E+04  0.50400001928E-02 0.  1.
        1   -1    0    0  501    0  0.00000000000E+00  0.00000000000E+00 -0.17729102538E+04  0.17729102538E+04  0.50400001928E-02 0. -1.
    10030    2    1    2    0    0  0.00000000000E+00  0.00000000000E+00 -0.34219992143E+03  0.32036205861E+04  0.31852918349E+04 0.  0.
        1    1    3    3  502    0 -0.47631514255E+03 -0.49764194065E+03  0.12731285170E+04  0.14475426892E+04  0.50400001928E-02 0.  1.
       -1    1    3    3    0  502  0.47631514255E+03  0.49764194065E+03 -0.16153284385E+04  0.17560778970E+04  0.50400001928E-02 0. -1.
</event>
<event>
 5   0  0.1306843E-06  0.3123360E+04  0.7818609E-02  0.8209356E-01
       -1   -1    0    0    0  501  0.00000000000E+00  0.00000000000E+00  0.88442581124E+03  0.88442581126E+03  0.50400001928E-02 0.  1.
        1   -1    0    0  501    0  0.00000000000E+00  0.00000000000E+00 -0.27575450986E+04  0.27575450986E+04  0.50400001928E-02 0. -1.
    10030    2    1    2    0    0  0.00000000000E+00  0.00000000000E+00 -0.18731192873E+04  0.36419709098E+04  0.31233597685E+04 0.  0.
        5    1    3    3  502    0 -0.12916571398E+04 -0.84149171375E+03 -0.64543284558E+03  0.16712546542E+04  0.46999998093E+01 0. -1.
       -5    1    3    3    0  502  0.12916571398E+04  0.84149171375E+03 -0.12276864417E+04  0.19707162556E+04  0.46999998093E+01 0.  1.
</event>
<event>
 5   0  0.1306843E-06  0.3152941E+04  0.7818609E-02  0.8201357E-01
       -1   -1    0    0    0  501  0.00000000000E+00  0.00000000000E+00  0.18421926137E+04  0.18421926137E+04  0.50400001928E-02 0. -1.
        1   -1    0    0  501    0  0.00000000000E+00  0.00000000000E+00 -0.13490764846E+04  0.13490764846E+04  0.50400001928E-02 0.  1.
    10030    2    1    2    0    0  0.00000000000E+00  0.00000000000E+00  0.49311612912E+03  0.31912690983E+04  0.31529406815E+04 0.  0.
        5    1    3    3  502    0 -0.75152837055E+03  0.37244482506E+02 -0.11555816566E+04  0.13789753799E+04  0.46999998093E+01 0.  1.
       -5    1    3    3    0  502  0.75152837055E+03 -0.37244482506E+02  0.16486977857E+04  0.18122937184E+04  0.46999998093E+01 0. -1.
</event>
<event>
 5   0  0.1273754E-06  0.3190083E+04  0.7818609E-02  0.8191441E-01
       -1   -1    0    0    0  501  0.00000000000E+00  0.00000000000E+00  0.17694597098E+04  0.17694597098E+04  0.50400001928E-02 0.  1.
        1   -1    0    0  501    0  0.00000000000E+00  0.00000000000E+00 -0.14378162538E+04  0.14378162538E+04  0.50400001928E-02 0. -1.
    10030    2    1    2    0    0  0.00000000000E+00  0.00000000000E+00  0.33164345600E+03  0.32072759636E+04  0.31900833414E+04 0.  0.
        2    1    3    3  502    0 -0.12456642085E+04 -0.71871815396E+03  0.85941132038E+03  0.16753575507E+04  0.25500000920E-02 0.  1.
       -2    1    3    3    0  502  0.12456642085E+04  0.71871815396E+03 -0.52776786438E+03  0.15319184129E+04  0.25500000920E-02 0. -1.
</event>
<event>
 5   0  0.1273754E-06  0.2468180E+04  0.7818609E-02  0.8414410E-01
       -1   -1    0    0    0  501  0.00000000000E+00  0.00000000000E+00  0.12205621183E+04  0.12205621183E+04  0.50400001928E-02 0. -1.
        1   -1    0    0  501    0  0.00000000000E+00  0.00000000000E+00 -0.12477681008E+04  0.12477681008E+04  0.50400001928E-02 0.  1.
    10030    2    1    2    0    0  0.00000000000E+00  0.00000000000E+00 -0.27205982527E+02  0.24683302191E+04  0.24681802821E+04 0.  0.
        2    1    3    3  502    0 -0.64136844929E+03  0.90527963329E+03 -0.55409282779E+03  0.12401223988E+04  0.25500000920E-02 0.  1.
       -2    1    3    3    0  502  0.64136844929E+03 -0.90527963329E+03  0.52688684526E+03  0.12282078203E+04  0.25500000920E-02 0. -1.
</event>
<event>
 5   0  0.1273754E-06  0.3187949E+04  0.7818609E-02  0.8192007E-01
        1   -1    0    0  501    0  0.00000000000E+00  0.00000000000E+00  0.17558282745E+04  0.17558282745E+04  0.50400001928E-02 0. -1.
       -1   -1    0    0    0  501  0.00000000000E+00  0.00000000000E+00 -0.14470409606E+04  0.14470409606E+04  0.50400001928E-02 0.  1.
    10030    2    1    2    0    0  0.00000000000E+00  0.00000000000E+00  0.30878731384E+03  0.32028692351E+04  0.31879494557E+04 0.  0.
        2    1    3    3  502    0 -0.10418616177E+04  0.10987449538E+04  0.65475996014E+03  0.16496747283E+04  0.25500000920E-02 0. -1.
       -2    1    3    3    0  502  0.10418616177E+04 -0.10987449538E+04 -0.34597264630E+03  0.15531945068E+04  0.25500000920E-02 0.  1.
</event>
<event>
 5   0  0.3745943E-06  0.3211056E+04  0.7818609E-02  0.8185903E-01
        2   -1    0    0  501    0  0.00000000000E+00  0.00000000000E+00  0.29951353716E+04  0.29951353716E+04  0.25500000920E-02 0.  1.
       -2   -1    0    0    0  501  0.00000000000E+00  0.00000000000E+00 -0.86063543296E+03  0.86063543297E+03  0.25500000920E-02 0. -1.
    10030    2    1    2    0    0  0.00000000000E+00  0.00000000000E+00  0.21344999386E+04  0.38557708046E+04  0.32110556690E+04 0.  0.
        5    1    3    3  502    0  0.56829622514E+03  0.13513957327E+04  0.18532486508E+04  0.23630031057E+04  0.46999998093E+01 0.  1.
       -5    1    3    3    0  502 -0.56829622514E+03 -0.13513957327E+04  0.28125128787E+03  0.14927676989E+04  0.46999998093E+01 0. -1.
</event>
<event>
 5   0  0.1268836E-06  0.3202425E+04  0.7818609E-02  0.8188177E-01
        1   -1    0    0  501    0  0.00000000000E+00  0.00000000000E+00  0.21043491308E+04  0.21043491308E+04  0.50400001928E-02 0.  1.
       -1   -1    0    0    0  501  0.00000000000E+00  0.00000000000E+00 -0.12183727822E+04  0.12183727822E+04  0.50400001928E-02 0. -1.
    10030    2    1    2    0    0  0.00000000000E+00  0.00000000000E+00  0.88597634862E+03  0.33227219129E+04  0.32024251467E+04 0.  0.
        1    1    3    3  502    0  0.51884326938E+02 -0.15571907460E+04  0.59865966062E+02  0.15592045847E+04  0.50400001928E-02 0.  1.
       -1    1    3    3    0  502 -0.51884326938E+02  0.15571907460E+04  0.82611038256E+03  0.17635173283E+04  0.50400001928E-02 0. -1.
</event>
<event>
 5   0  0.1185575E-06  0.3177094E+04  0.7818609E-02  0.8194893E-01
       -3   -1    0    0    0  501  0.00000000000E+00  0.00000000000E+00  0.11285549975E+04  0.11285550020E+04  0.10100000352E+00 0. -1.
        3   -1    0    0  501    0  0.00000000000E+00  0.00000000000E+00 -0.22360295771E+04  0.22360295794E+04  0.10100000352E+00 0.  1.
    10030    2    1    2    0    0  0.00000000000E+00  0.00000000000E+00 -0.11074745797E+04  0.33645845814E+04  0.31770944999E+04 0.  0.
        3    1    3    3  502    0  0.66353370364E+03  0.88033994085E+03  0.65752876540E+03  0.12835963053E+04  0.10100000352E+00 0. -1.
       -3    1    3    3    0  502 -0.66353370364E+03 -0.88033994085E+03 -0.17650033451E+04  0.20809882762E+04  0.10100000352E+00 0.  1.
</event>
<event>
 5   0  0.3656086E-06  0.3206957E+04  0.7818609E-02  0.8186982E-01
       -2   -1    0    0    0  501  0.00000000000E+00  0.00000000000E+00  0.14866828864E+04  0.14866828864E+04  0.25500000920E-02 0.  1.
        2   -1    0    0  501    0  0.00000000000E+00  0.00000000000E+00 -0.17294499102E+04  0.17294499102E+04  0.25500000920E-02 0. -1.
    10030    2    1    2    0    0  0.00000000000E+00  0.00000000000E+00 -0.24276702373E+03  0.32161327966E+04  0.32069571774E+04 0.  0.
        3    1    3    3  502    0  0.85016499274E+03 -0.10219451345E+04 -0.10206045518E+04  0.16759433267E+04  0.10100000352E+00 0. -1.
       -3    1    3    3    0  502 -0.85016499274E+03  0.10219451345E+04  0.77783752808E+03  0.15401894699E+04  0.10100000352E+00 0.  1.
</event>
<event>
 5   0  0.1273980E-06  0.3202730E+04  0.7818609E-02  0.8188097E-01
        1   -1    0    0  501    0  0.00000000000E+00  0.00000000000E+00  0.22402765297E+04  0.22402765298E+04  0.50400001928E-02 0.  1.
       -1   -1    0    0    0  501  0.00000000000E+00  0.00000000000E+00 -0.11446664279E+04  0.11446664279E+04  0.50400001928E-02 0. -1.
    10030    2    1    2    0    0  0.00000000000E+00  0.00000000000E+00  0.10956101019E+04  0.33849429576E+04  0.32027296687E+04 0.  0.
        4    1    3    3  502    0 -0.13006508026E+04  0.18269884357E+03 -0.42044769360E+03  0.13790755069E+04  0.12699999809E+01 0. -1.
       -4    1    3    3    0  502  0.13006508026E+04 -0.18269884357E+03  0.15160577955E+04  0.20058674507E+04  0.12699999809E+01 0.  1.
</event>
<event>
 5   0  0.3497546E-06  0.3203906E+04  0.7818609E-02  0.8187786E-01
       -2   -1    0    0    0  501  0.00000000000E+00  0.00000000000E+00  0.10508032457E+04  0.10508032457E+04  0.25500000920E-02 0. -1.
        2   -1    0    0  501    0  0.00000000000E+00  0.00000000000E+00 -0.24421832066E+04  0.24421832066E+04  0.25500000920E-02 0.  1.
    10030    2    1    2    0    0  0.00000000000E+00  0.00000000000E+00 -0.13913799609E+04  0.34929864524E+04  0.32039063908E+04 0.  0.
        4    1    3    3  502    0 -0.55599762579E+02  0.36385859500E+03 -0.23954548113E+04  0.24235696352E+04  0.12699999809E+01 0.  1.
       -4    1    3    3    0  502  0.55599762579E+02 -0.36385859500E+03  0.10040748504E+04  0.10694168172E+04  0.12699999809E+01 0. -1.
</event>
<event>
 5   0  0.3531437E-06  0.3246789E+04  0.7818609E-02  0.8176568E-01
       -2   -1    0    0    0  501  0.00000000000E+00  0.00000000000E+00  0.13070041313E+04  0.13070041313E+04  0.25500000920E-02 0. -1.
        2   -1    0    0  501    0  0.00000000000E+00  0.00000000000E+00 -0.20163750210E+04  0.20163750210E+04  0.25500000920E-02 0.  1.
    10030    2    1    2    0    0  0.00000000000E+00  0.00000000000E+00 -0.70937088976E+03  0.33233791523E+04  0.32467894805E+04 0.  0.
        1    1    3    3  502    0  0.56033857094E+03  0.10593615747E+04  0.76621931647E+03  0.14224339356E+04  0.50400001928E-02 0. -1.
       -1    1    3    3    0  502 -0.56033857094E+03 -0.10593615747E+04 -0.14755902062E+04  0.19009452167E+04  0.50400001928E-02 0.  1.
</event>
<event>
 5   0  0.1240725E-06  0.2464102E+04  0.7818609E-02  0.8415887E-01
        1   -1    0    0  501    0  0.00000000000E+00  0.00000000000E+00  0.55953993781E+03  0.55953993783E+03  0.50400001928E-02 0. -1.
       -1   -1    0    0    0  501  0.00000000000E+00  0.00000000000E+00 -0.27128524896E+04  0.27128524896E+04  0.50400001928E-02 0.  1.
    10030    2    1    2    0    0  0.00000000000E+00  0.00000000000E+00 -0.21533125518E+04  0.32723924274E+04  0.24641017133E+04 0.  0.
        3    1    3    3  502    0 -0.30642978668E+01  0.96509936830E+03 -0.59589852001E+02  0.96694216025E+03  0.10100000352E+00 0. -1.
       -3    1    3    3    0  502  0.30642978668E+01 -0.96509936830E+03 -0.20937226998E+04  0.23054502672E+04  0.10100000352E+00 0.  1.
</event>
<event>
 5   0  0.3656086E-06  0.3051184E+04  0.7818609E-02  0.8229264E-01
        2   -1    0    0  501    0  0.00000000000E+00  0.00000000000E+00  0.15843603807E+04  0.15843603807E+04  0.25500000920E-02 0.  1.
       -2   -1    0    0    0  501  0.00000000000E+00  0.00000000000E+00 -0.14690037244E+04  0.14690037244E+04  0.25500000920E-02 0. -1.
    10030    2    1    2    0    0  0.00000000000E+00  0.00000000000E+00  0.11535665628E+03  0.30533641051E+04  0.30511842291E+04 0.  0.
        3    1    3    3  502    0  0.88498102540E+03  0.48572866375E+03  0.12023082297E+04  0.15699263803E+04  0.10100000352E+00 0.  1.
       -3    1    3    3    0  502 -0.88498102540E+03 -0.48572866375E+03 -0.10869515735E+04  0.14834377248E+04  0.10100000352E+00 0. -1.
</event>
<event>
 5   0  0.1273980E-06  0.3205087E+04  0.7818609E-02  0.8187475E-01
        1   -1    0    0  501    0  0.00000000000E+00  0.00000000000E+00  0.22611811391E+04  0.22611811391E+04  0.50400001928E-02 0.  1.
       -1   -1    0    0    0  501  0.00000000000E+00  0.00000000000E+00 -0.11357541434E+04  0.11357541434E+04  0.50400001928E-02 0. -1.
    10030    2    1    2    0    0  0.00000000000E+00  0.00000000000E+00  0.11254269958E+04  0.33969352825E+04  0.32050871113E+04 0.  0.
        4    1    3    3  502    0 -0.15649449988E+04 -0.30891361403E+03  0.39967530476E+03  0.16444520158E+04  0.12699999809E+01 0.  1.
       -4    1    3    3    0  502  0.15649449988E+04  0.30891361403E+03  0.72575169099E+03  0.17524832667E+04  0.12699999809E+01 0. -1.
</event>
<event>
 5   0  0.3758062E-06  0.3261489E+04  0.7818609E-02  0.8172764E-01
        2   -1    0    0  501    0  0.00000000000E+00  0.00000000000E+00  0.13861746051E+04  0.13861746051E+04  0.25500000920E-02 0.  1.
       -2   -1    0    0    0  501  0.00000000000E+00  0.00000000000E+00 -0.19184654848E+04  0.19184654848E+04  0.25500000920E-02 0. -1.
    10030    2    1    2    0    0  0.00000000000E+00  0.00000000000E+00 -0.53229087972E+03  0.33046400899E+04  0.32614893137E+04 0.  0.
        2    1    3    3  502    0  0.24552918841E+03 -0.65517588038E+03  0.12263632579E+04  0.14119160233E+04  0.25500000920E-02 0.  1.
       -2    1    3    3    0  502 -0.24552918841E+03  0.65517588038E+03 -0.17586541376E+04  0.18927240666E+04  0.25500000920E-02 0. -1.
</event>
<event>
 5   0  0.1273980E-06  0.3149883E+04  0.7818609E-02  0.8202180E-01
       -1   -1    0    0    0  501  0.00000000000E+00  0.00000000000E+00  0.16036703718E+04  0.16036703718E+04  0.50400001928E-02 0.  1.
        1   -1    0    0  501    0  0.00000000000E+00  0.00000000000E+00 -0.15467275701E+04  0.15467275701E+04  0.50400001928E-02 0. -1.
    10030    2    1    2    0    0  0.00000000000E+00  0.00000000000E+00  0.56942801649E+02  0.31503979419E+04  0.31498832851E+04 0.  0.
        4    1    3    3  502    0 -0.11044131147E+04 -0.24471175182E+03  0.11244731488E+04  0.15950089795E+04  0.12699999809E+01 0.  1.
       -4    1    3    3    0  502  0.11044131147E+04  0.24471175182E+03 -0.10675303472E+04  0.15553889624E+04  0.12699999809E+01 0. -1.
</event>
<event>
 5   0  0.1273980E-06  0.3174688E+04  0.7818609E-02  0.8195534E-01
       -1   -1    0    0    0  501  0.00000000000E+00  0.00000000000E+00  0.18694915650E+04  0.18694915650E+04  0.50400001928E-02 0. -1.
        1   -1    0    0  501    0  0.00000000000E+00  0.00000000000E+00 -0.13477791182E+04  0.13477791182E+04  0.50400001928E-02 0.  1.
    10030    2    1    2    0    0  0.00000000000E+00  0.00000000000E+00  0.52171244676E+03  0.32172706832E+04  0.31746884527E+04 0.  0.
        4    1    3    3  502    0  0.34633186308E+03 -0.78146640057E+03  0.16163409976E+04  0.18284406821E+04  0.12699999809E+01 0. -1.
       -4    1    3    3    0  502 -0.34633186308E+03  0.78146640057E+03 -0.10946285508E+04  0.13888300011E+04  0.12699999809E+01 0.  1.
</event>
<event>
 5   0  0.1273754E-06  0.3226264E+04  0.7818609E-02  0.8181915E-01
        1   -1    0    0  501    0  0.00000000000E+00  0.00000000000E+00  0.10051108427E+04  0.10051108427E+04  0.50400001928E-02 0.  1.
       -1   -1    0    0    0  501  0.00000000000E+00  0.00000000000E+00 -0.25889623307E+04  0.25889623307E+04  0.50400001928E-02 0. -1.
    10030    2    1    2    0    0  0.00000000000E+00  0.00000000000E+00 -0.15838514880E+04  0.35940731734E+04  0.32262635415E+04 0.  0.
        2    1    3    3  502    0  0.55569358480E+03 -0.54217472613E+03  0.78329651435E+03  0.11028609265E+04  0.25500000920E-02 0.  1.
       -2    1    3    3    0  502 -0.55569358480E+03  0.54217472613E+03 -0.23671480023E+04  0.24912122468E+04  0.25500000920E-02 0. -1.
</event>
<event>
 5   0  0.3758062E-06  0.3204827E+04  0.7818609E-02  0.8187544E-01
        2   -1    0    0  501    0  0.00000000000E+00  0.00000000000E+00  0.18083166708E+04  0.18083166708E+04  0.25500000920E-02 0. -1.
       -2   -1    0    0    0  501  0.00000000000E+00  0.00000000000E+00 -0.14199552641E+04  0.14199552641E+04  0.25500000920E-02 0.  1.
    10030    2    1    2    0    0  0.00000000000E+00  0.00000000000E+00  0.38836140673E+03  0.32282719349E+04  0.32048268445E+04 0.  0.
        2    1    3    3  502    0  0.56110715664E+03  0.24350147895E+03 -0.12977330635E+04  0.14346586059E+04  0.25500000920E-02 0.  1.
       -2    1    3    3    0  502 -0.56110715664E+03 -0.24350147895E+03  0.16860944702E+04  0.17936133290E+04  0.25500000920E-02 0. -1.
</event>
<event>
 5   0  0.3531437E-06  0.2963093E+04  0.7818609E-02  0.8254349E-01
       -2   -1    0    0    0  501  0.00000000000E+00  0.00000000000E+00  0.13440189328E+04  0.13440189328E+04  0.25500000920E-02 0.  1.
        2   -1    0    0  501    0  0.00000000000E+00  0.00000000000E+00 -0.16331461382E+04  0.16331461382E+04  0.25500000920E-02 0. -1.
    10030    2    1    2    0    0  0.00000000000E+00  0.00000000000E+00 -0.28912720538E+03  0.29771650710E+04  0.29630925263E+04 0.  0.
        1    1    3    3  502    0  0.82594562957E+03 -0.93521152821E+03 -0.94721461900E+03  0.15665319403E+04  0.50400001928E-02 0. -1.
       -1    1    3    3    0  502 -0.82594562957E+03  0.93521152821E+03  0.65808741362E+03  0.14106331307E+04  0.50400001928E-02 0.  1.
</event>
<event>
 5   0  0.3745943E-06  0.3229986E+04  0.7818609E-02  0.8180943E-01
       -2   -1    0    0    0  501  0.00000000000E+00  0.00000000000E+00  0.16001443863E+04  0.16001443863E+04  0.25500000920E-02 0.  1.
        2   -1    0    0  501    0  0.00000000000E+00  0.00000000000E+00 -0.16299790572E+04  0.16299790572E+04  0.25500000920E-02 0. -1.
    10030    2    1    2    0    0  0.00000000000E+00  0.00000000000E+00 -0.29834670883E+02  0.32301234436E+04  0.32299856583E+04 0.  0.
        5    1    3    3  502    0 -0.25226623054E+03  0.11402803863E+04 -0.11304478368E+04  0.16253651934E+04  0.46999998093E+01 0. -1.
       -5    1    3    3    0  502  0.25226623054E+03 -0.11402803863E+04  0.11006131659E+04  0.16047582501E+04  0.46999998093E+01 0.  1.
</event>
<event>
 5   0  0.3531437E-06  0.3207575E+04  0.7818609E-02  0.8186820E-01
       -2   -1    0    0    0  501  0.00000000000E+00  0.00000000000E+00  0.14389251800E+04  0.14389251800E+04  0.25500000920E-02 0. -1.
        2   -1    0    0  501    0  0.00000000000E+00  0.00000000000E+00 -0.17875382281E+04  0.17875382281E+04  0.25500000920E-02 0.  1.
    10030    2    1    2    0    0  0.00000000000E+00  0.00000000000E+00 -0.34861304812E+03  0.32264634082E+04  0.32075746393E+04 0.  0.
        1    1    3    3  502    0 -0.38727968688E+03 -0.11401944838E+04  0.89122590884E+03  0.14981030129E+04  0.50400001928E-02 0.  1.
       -1    1    3    3    0  502  0.38727968688E+03  0.11401944838E+04 -0.12398389570E+04  0.17283603953E+04  0.50400001928E-02 0. -1.
</event>
<event>
 5   0  0.1268836E-06  0.2763273E+04  0.7818609E-02  0.8314762E-01
        1   -1    0    0  501    0  0.00000000000E+00  0.00000000000E+00  0.11763304565E+04  0.11763304566E+04  0.50400001928E-02 0. -1.
       -1   -1    0    0    0  501  0.00000000000E+00  0.00000000000E+00 -0.16227748092E+04  0.16227748092E+04  0.50400001928E-02 0.  1.
    10030    2    1    2    0    0  0.00000000000E+00  0.00000000000E+00 -0.44644435267E+03  0.27991052658E+04  0.27632730102E+04 0.  0.
        1    1    3    3  502    0  0.10099161762E+04  0.91535061124E+03  0.58115224177E+01  0.13630228165E+04  0.50400001928E-02 0. -1.
       -1    1    3    3    0  502 -0.10099161762E+04 -0.91535061124E+03 -0.45225587509E+03  0.14360824493E+04  0.50400001928E-02 0.  1.
</event>
<event>
 5   0  0.3745943E-06  0.3186885E+04  0.7818609E-02  0.8192289E-01
        2   -1    0    0  501    0  0.00000000000E+00  0.00000000000E+00  0.17427044998E+04  0.17427044998E+04  0.25500000920E-02 0.  1.
       -2   -1    0    0    0  501  0.00000000000E+00  0.00000000000E+00 -0.14569644618E+04  0.14569644618E+04  0.25500000920E-02 0. -1.
    10030    2    1    2    0    0  0.00000000000E+00  0.00000000000E+00  0.28574003800E+03  0.31996689615E+04  0.31868847005E+04 0.  0.
        5    1    3    3  502    0 -0.41589449969E+03 -0.13968830492E+04 -0.50375233379E+03  0.15420891646E+04  0.46999998093E+01 0. -1.
       -5    1    3    3    0  502  0.41589449969E+03  0.13968830492E+04  0.78949237179E+03  0.16575797969E+04  0.46999998093E+01 0.  1.
</event>
<event>
 5   0  0.3497546E-06  0.3154481E+04  0.7818609E-02  0.8200943E-01
       -2   -1    0    0    0  501  0.00000000000E+00  0.00000000000E+00  0.13849492122E+04  0.13849492122E+04  0.25500000920E-02 0. -1.
        2   -1    0    0  501    0  0.00000000000E+00  0.00000000000E+00 -0.17962305471E+04  0.17962305471E+04  0.25500000920E-02 0.  1.
    10030    2    1    2    0    0  0.00000000000E+00  0.00000000000E+00 -0.41128133492E+03  0.31811797593E+04  0.31544813083E+04 0.  0.
        4    1    3    3  502    0 -0.78804229646E+03 -0.11374088676E+04 -0.96899961321E+03  0.16892813432E+04  0.12699999809E+01 0.  1.
       -4    1    3    3    0  502  0.78804229646E+03  0.11374088676E+04  0.55771827828E+03  0.14918984161E+04  0.12699999809E+01 0. -1.
</event>
<event>
 5   0  0.3497546E-06  0.3181020E+04  0.7818609E-02  0.8193848E-01
       -2   -1    0    0    0  501  0.00000000000E+00  0.00000000000E+00  0.13493019730E+04  0.13493019730E+04  0.25500000920E-02 0. -1.
        2   -1    0    0  501    0  0.00000000000E+00  0.00000000000E+00 -0.18748377460E+04  0.18748377460E+04  0.25500000920E-02 0.  1.
    10030    2    1    2    0    0  0.00000000000E+00  0.00000000000E+00 -0.52553577304E+03  0.32241397190E+04  0.31810201318E+04 0.  0.
        4    1    3    3  502    0  0.46960187200E+03  0.41990595503E+03  0.12174648628E+04  0.13707914628E+04  0.12699999809E+01 0. -1.
       -4    1    3    3    0  502 -0.46960187200E+03 -0.41990595503E+03 -0.17430006359E+04  0.18533482562E+04  0.12699999809E+01 0.  1.
</event>
<event>
 5   0  0.1273754E-06  0.3212125E+04  0.7818609E-02  0.8185622E-01
       -1   -1    0    0    0  501  0.00000000000E+00  0.00000000000E+00  0.12950850772E+04  0.12950850772E+04  0.50400001928E-02 0. -1.
        1   -1    0    0  501    0  0.00000000000E+00  0.00000000000E+00 -0.19917116242E+04  0.19917116242E+04  0.50400001928E-02 0.  1.
    10030    2    1    2    0    0  0.00000000000E+00  0.00000000000E+00 -0.69662654701E+03  0.32867967014E+04  0.32121245322E+04 0.  0.
        2    1    3    3  502    0  0.15097189727E+04 -0.43883860037E+03 -0.68397151701E+03  0.17145400928E+04  0.25500000920E-02 0. -1.
       -2    1    3    3    0  502 -0.15097189727E+04  0.43883860037E+03 -0.12655030003E+02  0.15722566087E+04  0.25500000920E-02 0.  1.
</event>
<event>
 5   0  0.1240725E-06  0.3177378E+04  0.7818609E-02  0.8194817E-01
        1   -1    0    0  501    0  0.00000000000E+00  0.00000000000E+00  0.16395989985E+04  0.16395989985E+04  0.50400001928E-02 0.  1.
       -1   -1    0    0    0  501  0.00000000000E+00  0.00000000000E+00 -0.15393595664E+04  0.15393595664E+04  0.50400001928E-02 0. -1.
    10030    2    1    2    0    0  0.00000000000E+00  0.00000000000E+00  0.10023943215E+03  0.31789585649E+04  0.31773777889E+04 0.  0.
        3    1    3    3  502    0 -0.52822233982E+02  0.12240026938E+04 -0.96179813038E+03  0.15575713263E+04  0.10100000352E+00 0.  1.
       -3    1    3    3    0  502  0.52822233982E+02 -0.12240026938E+04  0.10620375625E+04  0.16213872385E+04  0.10100000352E+00 0. -1.
</event>
<event>
 5   0  0.1306843E-06  0.3117534E+04  0.7818609E-02  0.8210942E-01
       -1   -1    0    0    0  501  0.00000000000E+00  0.00000000000E+00  0.16708812418E+04  0.16708812418E+04  0.50400001928E-02 0. -1.
        1   -1    0    0  501    0  0.00000000000E+00  0.00000000000E+00 -0.14541757104E+04  0.14541757104E+04  0.50400001928E-02 0.  1.
    10030    2    1    2    0    0  0.00000000000E+00  0.00000000000E+00  0.21670553132E+03  0.31250569522E+04  0.31175342287E+04 0.  0.
        5    1    3    3  502    0  0.10748776439E+04  0.10599108234E+04 -0.28112039949E+03  0.15355206518E+04  0.46999998093E+01 0.  1.
       -5    1    3    3    0  502 -0.10748776439E+04 -0.10599108234E+04  0.49782593081E+03  0.15895363004E+04  0.46999998093E+01 0. -1.
</event>
<event>
 5   0  0.3497546E-06  0.3156447E+04  0.7818609E-02  0.8200415E-01
        2   -1    0    0  501    0  0.00000000000E+00  0.00000000000E+00  0.20740999783E+04  0.20740999783E+04  0.25500000920E-02 0. -1.
       -2   -1    0    0    0  501  0.00000000000E+00  0.00000000000E+00 -0.12009010571E+04  0.12009010571E+04  0.25500000920E-02 0.  1.
    10030    2    1    2    0    0  0.00000000000E+00  0.00000000000E+00  0.87319892121E+03  0.32750010354E+04  0.31564466455E+04 0.  0.
        4    1    3    3  502    0 -0.11241075205E+02 -0.67881886379E+03 -0.10416463457E+04  0.12433624306E+04  0.12699999809E+01 0.  1.
       -4    1    3    3    0  502  0.11241075205E+02  0.67881886379E+03  0.19148452669E+04  0.20316386048E+04  0.12699999809E+01 0. -1.
</event>
<event>
 5   0  0.3745943E-06  0.3179776E+04  0.7818609E-02  0.8194179E-01
       -2   -1    0    0    0  501  0.00000000000E+00  0.00000000000E+00  0.15965368617E+04  0.15965368617E+04  0.25500000920E-02 0. -1.
        2   -1    0    0  501    0  0.00000000000E+00  0.00000000000E+00 -0.15832668395E+04  0.15832668395E+04  0.25500000920E-02 0.  1.
    10030    2    1    2    0    0  0.00000000000E+00  0.00000000000E+00  0.13270022192E+02  0.31798037012E+04  0.31797760117E+04 0.  0.
        5    1    3    3  502    0  0.55930431820E+03  0.12251575837E+04  0.85156210208E+03  0.15934279177E+04  0.46999998093E+01 0. -1.
       -5    1    3    3    0  502 -0.55930431820E+03 -0.12251575837E+04 -0.83829207989E+03  0.15863757835E+04  0.46999998093E+01 0.  1.
</event>
<event>
 5   0  0.3531437E-06  0.3129010E+04  0.7818609E-02  0.8207821E-01
        2   -1    0    0  501    0  0.00000000000E+00  0.00000000000E+00  0.14711473360E+04  0.14711473360E+04  0.25500000920E-02 0.  1.
       -2   -1    0    0    0  501  0.00000000000E+00  0.00000000000E+00 -0.16637865654E+04  0.16637865654E+04  0.25500000920E-02 0. -1.
    10030    2    1    2    0    0  0.00000000000E+00  0.00000000000E+00 -0.19263922944E+03  0.31349339014E+04  0.31290095388E+04 0.  0.
        1    1    3    3  502    0 -0.38081453811E+03  0.93228149110E+03 -0.12958779205E+04  0.16411788678E+04  0.50400001928E-02 0. -1.
       -1    1    3    3    0  502  0.38081453811E+03 -0.93228149110E+03  0.11032386911E+04  0.14937550337E+04  0.50400001928E-02 0.  1.
</event>
<event>
 5   0  0.3531437E-06  0.3208454E+04  0.7818609E-02  0.8186588E-01
       -2   -1    0    0    0  501  0.00000000000E+00  0.00000000000E+00  0.31572176880E+04  0.31572176880E+04  0.25500000920E-02 0. -1.
        2   -1    0    0  501    0  0.00000000000E+00  0.00000000000E+00 -0.81513067668E+03  0.81513067669E+03  0.25500000920E-02 0.  1.
    10030    2    1    2    0    0  0.00000000000E+00  0.00000000000E+00  0.23420870114E+04  0.39723483647E+04  0.32084544507E+04 0.  0.
        1    1    3    3  502    0  0.65678325244E+03 -0.91573201822E+03  0.25846425007E+04  0.28196287391E+04  0.50400001928E-02 0. -1.
       -1    1    3    3    0  502 -0.65678325244E+03  0.91573201822E+03 -0.24255548935E+03  0.11527196256E+04  0.50400001928E-02 0.  1.
</event>
<event>
 5   0  0.1185575E-06  0.3076079E+04  0.7818609E-02  0.8222333E-01
       -3   -1    0    0    0  501  0.00000000000E+00  0.00000000000E+00  0.75841662046E+03  0.75841662718E+03  0.10100000352E+00 0. -1.
        3   -1    0    0  501    0  0.00000000000E+00  0.00000000000E+00 -0.31190854011E+04  0.31190854027E+04  0.10100000352E+00 0.  1.
    10030    2    1    2    0    0  0.00000000000E+00  0.00000000000E+00 -0.23606687807E+04  0.38775020299E+04  0.30760794691E+04 0.  0.
        2    1    3    3  502    0  0.18016875669E+03 -0.81561172997E+03 -0.28082701659E+04  0.29298574367E+04  0.25500000920E-02 0.  1.
       -2    1    3    3    0  502 -0.18016875669E+03  0.81561172997E+03  0.44760138523E+03  0.94764459320E+03  0.25500000920E-02 0. -1.
</event>
<event>
 5   0  0.1185575E-06  0.3209949E+04  0.7818609E-02  0.8186195E-01
       -3   -1    0    0    0  501  0.00000000000E+00  0.00000000000E+00  0.12344659750E+04  0.12344659791E+04  0.10100000352E+00 0. -1.
        3   -1    0    0  501    0  0.00000000000E+00  0.00000000000E+00 -0.20866856025E+04  0.20866856049E+04  0.10100000352E+00 0.  1.
    10030    2    1    2    0    0  0.00000000000E+00  0.00000000000E+00 -0.85221962745E+03  0.33211515840E+04  0.32099485277E+04 0.  0.
        2    1    3    3  502    0 -0.89147065140E+03  0.15448679368E+03 -0.17976879086E+04  0.20125277411E+04  0.25500000920E-02 0.  1.
       -2    1    3    3    0  502  0.89147065140E+03 -0.15448679368E+03  0.94546828115E+03  0.13086238430E+04  0.25500000920E-02 0. -1.
</event>
<event>
 5   0  0.3497546E-06  0.3218201E+04  0.7818609E-02  0.8184027E-01
        2   -1    0    0  501    0  0.00000000000E+00  0.00000000000E+00  0.14085652596E+04  0.14085652596E+04  0.25500000920E-02 0.  1.
       -2   -1    0    0    0  501  0.00000000000E+00  0.00000000000E+00 -0.18381860502E+04  0.18381860502E+04  0.25500000920E-02 0. -1.
    10030    2    1    2    0    0  0.00000000000E+00  0.00000000000E+00 -0.42962079058E+03  0.32467513098E+04  0.32182013678E+04 0.  0.
        4    1    3    3  502    0 -0.14328135193E+04  0.21656727849E+03  0.49092917002E+03  0.15299898791E+04  0.12699999809E+01 0.  1.
       -4    1    3    3    0  502  0.14328135193E+04 -0.21656727849E+03 -0.92054996061E+03  0.17167614307E+04  0.12699999809E+01 0. -1.
</event>
<event>
 5   0  0.1273980E-06  0.3103512E+04  0.7818609E-02  0.8214775E-01
       -1   -1    0    0    0  501  0.00000000000E+00  0.00000000000E+00  0.13048454767E+04  0.13048454767E+04  0.50400001928E-02 0.  1.
        1   -1    0    0  501    0  0.00000000000E+00  0.00000000000E+00 -0.18453884717E+04  0.18453884718E+04  0.50400001928E-02 0. -1.
    10030    2    1    2    0    0  0.00000000000E+00  0.00000000000E+00 -0.54054299507E+03  0.31502339484E+04  0.31035120751E+04 0.  0.
        4    1    3    3  502    0 -0.42425632007E+03 -0.12011721973E+04 -0.11696906299E+04  0.17294466906E+04  0.12699999809E+01 0. -1.
       -4    1    3    3    0  502  0.42425632007E+03  0.12011721973E+04  0.62914763487E+03  0.14207872579E+04  0.12699999809E+01 0.  1.
</event>
<event>
 5   0  0.3497546E-06  0.3231627E+04  0.7818609E-02  0.8180514E-01
       -2   -1    0    0    0  501  0.00000000000E+00  0.00000000000E+00  0.14381521385E+04  0.14381521385E+04  0.25500000920E-02 0. -1.
        2   -1    0    0  501    0  0.00000000000E+00  0.00000000000E+00 -0.18154225929E+04  0.18154225929E+04  0.25500000920E-02 0.  1.
    10030    2    1    2    0    0  0.00000000000E+00  0.00000000000E+00 -0.37727045435E+03  0.32535747314E+04  0.32316273822E+04 0.  0.
        4    1    3    3  502    0 -0.77658034185E+03  0.77257778917E+03 -0.13845147784E+04  0.17654563864E+04  0.12699999809E+01 0.  1.
       -4    1    3    3    0  502  0.77658034185E+03 -0.77257778917E+03  0.10072443240E+04  0.14881183451E+04  0.12699999809E+01 0. -1.
</event>
<event>
 5   0  0.1240725E-06  0.3185246E+04  0.7818609E-02  0.8192725E-01
        1   -1    0    0  501    0  0.00000000000E+00  0.00000000000E+00  0.17312834755E+04  0.17312834755E+04  0.50400001928E-02 0. -1.
       -1   -1    0    0    0  501  0.00000000000E+00  0.00000000000E+00 -0.14650679466E+04  0.14650679466E+04  0.50400001928E-02 0.  1.
    10030    2    1    2    0    0  0.00000000000E+00  0.00000000000E+00  0.26621552892E+03  0.31963514221E+04  0.31852459412E+04 0.  0.
        3    1    3    3  502    0  0.96576186293E+03 -0.40113480644E+03 -0.10722641280E+04  0.14977835221E+04  0.10100000352E+00 0.  1.
       -3    1    3    3    0  502 -0.96576186293E+03  0.40113480644E+03  0.13384796569E+04  0.16985679000E+04  0.10100000352E+00 0. -1.
</event>
<event>
 5   0  0.1273980E-06  0.3086153E+04  0.7818609E-02  0.8219548E-01
       -1   -1    0    0    0  501  0.00000000000E+00  0.00000000000E+00  0.78021096383E+03  0.78021096385E+03  0.50400001928E-02 0. -1.
        1   -1    0    0  501    0  0.00000000000E+00  0.00000000000E+00 -0.30518478434E+04  0.30518478434E+04  0.50400001928E-02 0.  1.
    10030    2    1    2    0    0  0.00000000000E+00  0.00000000000E+00 -0.22716368796E+04  0.38320588073E+04  0.30861530405E+04 0.  0.
        4    1    3    3  502    0 -0.12079960040E+03  0.11526902718E+04 -0.24007607802E+04  0.26658847205E+04  0.12699999809E+01 0.  1.
       -4    1    3    3    0  502  0.12079960040E+03 -0.11526902718E+04  0.12912390065E+03  0.11661740868E+04  0.12699999809E+01 0. -1.
</event>
<event>
 5   0  0.1273754E-06  0.3204001E+04  0.7818609E-02  0.8187761E-01
        1   -1    0    0  501    0  0.00000000000E+00  0.00000000000E+00  0.15714663055E+04  0.15714663055E+04  0.50400001928E-02 0.  1.
       -1   -1    0    0    0  501  0.00000000000E+00  0.00000000000E+00 -0.16331280264E+04  0.16331280264E+04  0.50400001928E-02 0. -1.
    10030    2    1    2    0    0  0.00000000000E+00  0.00000000000E+00 -0.61661720950E+02  0.32045943319E+04  0.32040010400E+04 0.  0.
        2    1    3    3  502    0  0.22867288641E+03 -0.11112891668E+04 -0.11620357646E+04  0.16240634284E+04  0.25500000920E-02 0. -1.
       -2    1    3    3    0  502 -0.22867288641E+03  0.11112891668E+04  0.11003740436E+04  0.15805309035E+04  0.25500000920E-02 0.  1.
</event>
<event>
 5   0  0.3531437E-06  0.3181757E+04  0.7818609E-02  0.8193652E-01
       -2   -1    0    0    0  501  0.00000000000E+00  0.00000000000E+00  0.13667121135E+04  0.13667121135E+04  0.25500000920E-02 0. -1.
        2   -1    0    0  501    0  0.00000000000E+00  0.00000000000E+00 -0.18518118141E+04  0.18518118141E+04  0.25500000920E-02 0.  1.
    10030    2    1    2    0    0  0.00000000000E+00  0.00000000000E+00 -0.48509970067E+03  0.32185239276E+04  0.31817565201E+04 0.  0.
        1    1    3    3  502    0  0.10404697723E+04  0.10731035115E+04  0.30850679633E+03  0.15262060598E+04  0.50400001928E-02 0.  1.
       -1    1    3    3    0  502 -0.10404697723E+04 -0.10731035115E+04 -0.79360649701E+03  0.16923178678E+04  0.50400001928E-02 0. -1.
</event>
<event>
 5   0  0.1268836E-06  0.2869284E+04  0.7818609E-02  0.8282075E-01
       -1   -1    0    0    0  501  0.00000000000E+00  0.00000000000E+00  0.12419774062E+04  0.12419774062E+04  0.50400001928E-02 0.  1.
        1   -1    0    0  501    0  0.00000000000E+00  0.00000000000E+00 -0.16571946838E+04  0.16571946838E+04  0.50400001928E-02 0. -1.
    10030    2    1    2    0    0  0.00000000000E+00  0.00000000000E+00 -0.41521727763E+03  0.28991720900E+04  0.28692844787E+04 0.  0.
        1    1    3    3  502    0 -0.12039131452E+04 -0.14157174710E+03 -0.98290090732E+03  0.15606228290E+04  0.50400001928E-02 0. -1.
       -1    1    3    3    0  502  0.12039131452E+04  0.14157174710E+03  0.56768362969E+03  0.13385492610E+04  0.50400001928E-02 0.  1.
</event>
<event>
 5   0  0.3531437E-06  0.3093597E+04  0.7818609E-02  0.8217497E-01
       -2   -1    0    0    0  501  0.00000000000E+00  0.00000000000E+00  0.14526334843E+04  0.14526334843E+04  0.25500000920E-02 0.  1.
        2   -1    0    0  501    0  0.00000000000E+00  0.00000000000E+00 -0.16470678804E+04  0.16470678804E+04  0.25500000920E-02 0. -1.
    10030    2    1    2    0    0  0.00000000000E+00  0.00000000000E+00 -0.19443439608E+03  0.30997013647E+04  0.30935972291E+04 0.  0.
        1    1    3    3  502    0  0.29732555590E+03 -0.43940507229E+03 -0.15530488969E+04  0.16411703689E+04  0.50400001928E-02 0. -1.
       -1    1    3    3    0  502 -0.29732555590E+03  0.43940507229E+03  0.13586145008E+04  0.14585309957E+04  0.50400001928E-02 0.  1.
</event>
<event>
 5   0  0.3758062E-06  0.3212557E+04  0.7818609E-02  0.8185509E-01
        2   -1    0    0  501    0  0.00000000000E+00  0.00000000000E+00  0.30056393627E+04  0.30056393627E+04  0.25500000920E-02 0. -1.
       -2   -1    0    0    0  501  0.00000000000E+00  0.00000000000E+00 -0.85842970265E+03  0.85842970266E+03  0.25500000920E-02 0.  1.
    10030    2    1    2    0    0  0.00000000000E+00  0.00000000000E+00  0.21472096600E+04  0.38640690653E+04  0.32125566793E+04 0.  0.
        2    1    3    3  502    0  0.74228069458E+03  0.13708339134E+04  0.15393918502E+04  0.21908659283E+04  0.25500000920E-02 0. -1.
       -2    1    3    3    0  502 -0.74228069458E+03 -0.13708339134E+04  0.60781780984E+03  0.16732031370E+04  0.25500000920E-02 0.  1.
</event>
<event>
 5   0  0.3497546E-06  0.2963990E+04  0.7818609E-02  0.8254089E-01
        2   -1    0    0  501    0  0.00000000000E+00  0.00000000000E+00  0.15168824515E+04  0.15168824515E+04  0.25500000920E-02 0. -1.
       -2   -1    0    0    0  501  0.00000000000E+00  0.00000000000E+00 -0.14479102359E+04  0.14479102359E+04  0.25500000920E-02 0.  1.
    10030    2    1    2    0    0  0.00000000000E+00  0.00000000000E+00  0.68972215512E+02  0.29647926874E+04  0.29639903024E+04 0.  0.
        4    1    3    3  502    0 -0.57744538093E+03  0.67377963935E+03 -0.11528001889E+04  0.14547756043E+04  0.12699999809E+01 0.  1.
       -4    1    3    3    0  502  0.57744538093E+03 -0.67377963935E+03  0.12217724044E+04  0.15100170831E+04  0.12699999809E+01 0. -1.
</event>
<event>
 5   0  0.1273980E-06  0.3250710E+04  0.7818609E-02  0.8175552E-01
        1   -1    0    0  501    0  0.00000000000E+00  0.00000000000E+00  0.22797384146E+04  0.22797384146E+04  0.50400001928E-02 0. -1.
       -1   -1    0    0    0  501  0.00000000000E+00  0.00000000000E+00 -0.11588080414E+04  0.11588080414E+04  0.50400001928E-02 0.  1.
    10030    2    1    2    0    0  0.00000000000E+00  0.00000000000E+00  0.11209303732E+04  0.34385464559E+04  0.32507102036E+04 0.  0.
        4    1    3    3  502    0 -0.22147001834E+03  0.12619257006E+04  0.16183922582E+04  0.20641464476E+04  0.12699999809E+01 0. -1.
       -4    1    3    3    0  502  0.22147001834E+03 -0.12619257006E+04 -0.49746188504E+03  0.13744000083E+04  0.12699999809E+01 0.  1.
</event>
<event>
 5   0  0.1268836E-06  0.3203034E+04  0.7818609E-02  0.8188016E-01
        1   -1    0    0  501    0  0.00000000000E+00  0.00000000000E+00  0.22048440113E+04  0.22048440113E+04  0.50400001928E-02 0.  1.
       -1   -1    0    0    0  501  0.00000000000E+00  0.00000000000E+00 -0.11632824833E+04  0.11632824833E+04  0.50400001928E-02 0. -1.
    10030    2    1    2    0    0  0.00000000000E+00  0.00000000000E+00  0.10415615280E+04  0.33681264946E+04  0.32030338223E+04 0.  0.
        1    1    3    3  502    0 -0.11472561458E+04  0.85708342499E+03  0.12747212251E+04  0.19172122635E+04  0.50400001928E-02 0. -1.
       -1    1    3    3    0  502  0.11472561458E+04 -0.85708342499E+03 -0.23315969715E+03  0.14509142311E+04  0.50400001928E-02 0.  1.
</event>
<event>
 5   0  0.3497546E-06  0.3186398E+04  0.7818609E-02  0.8192419E-01
       -2   -1    0    0    0  501  0.00000000000E+00  0.00000000000E+00  0.14607729414E+04  0.14607729414E+04  0.25500000920E-02 0.  1.
        2   -1    0    0  501    0  0.00000000000E+00  0.00000000000E+00 -0.17376300546E+04  0.17376300546E+04  0.25500000920E-02 0. -1.
    10030    2    1    2    0    0  0.00000000000E+00  0.00000000000E+00 -0.27685711322E+03  0.31984029961E+04  0.31863979450E+04 0.  0.
        4    1    3    3  502    0 -0.48922404768E+03 -0.14641143336E+04 -0.53400775194E+03  0.16334432475E+04  0.12699999809E+01 0. -1.
       -4    1    3    3    0  502  0.48922404768E+03  0.14641143336E+04  0.25715063872E+03  0.15649597486E+04  0.12699999809E+01 0.  1.
</event>
<event>
 5   0  0.3656086E-06  0.3226256E+04  0.7818609E-02  0.8181917E-01
        2   -1    0    0  501    0  0.00000000000E+00  0.00000000000E+00  0.19112450722E+04  0.19112450722E+04  0.25500000920E-02 0. -1.
       -2   -1    0    0    0  501  0.00000000000E+00  0.00000000000E+00 -0.13615112597E+04  0.13615112597E+04  0.25500000920E-02 0.  1.
    10030    2    1    2    0    0  0.00000000000E+00  0.00000000000E+00  0.54973381241E+03  0.32727563319E+04  0.32262558397E+04 0.  0.
        3    1    3    3  502    0 -0.66959043225E+03 -0.37983113026E+03  0.17128878460E+04  0.18779264676E+04  0.10100000352E+00 0. -1.
       -3    1    3    3    0  502  0.66959043225E+03  0.37983113026E+03 -0.11631540336E+04  0.13948298643E+04  0.10100000352E+00 0.  1.
</event>
<event>
 5   0  0.1273754E-06  0.3182081E+04  0.7818609E-02  0.8193566E-01
       -1   -1    0    0    0  501  0.00000000000E+00  0.00000000000E+00  0.13429141713E+04  0.13429141713E+04  0.50400001928E-02 0. -1.
        1   -1    0    0  501    0  0.00000000000E+00  0.00000000000E+00 -0.18850124568E+04  0.18850124568E+04  0.50400001928E-02 0.  1.
    10030    2    1    2    0    0  0.00000000000E+00  0.00000000000E+00 -0.54209828550E+03  0.32279266282E+04  0.31820810432E+04 0.  0.
        2    1    3    3  502    0 -0.54529874675E+03 -0.24932792846E+03 -0.17660168486E+04  0.18650283238E+04  0.25500000920E-02 0.  1.
       -2    1    3    3    0  502  0.54529874675E+03  0.24932792846E+03  0.12239185631E+04  0.13628983044E+04  0.25500000920E-02 0. -1.
</event>
<event>
 5   0  0.1240725E-06  0.2537555E+04  0.7818609E-02  0.8389727E-01
       -1   -1    0    0    0  501  0.00000000000E+00  0.00000000000E+00  0.14625022320E+04  0.14625022320E+04  0.50400001928E-02 0.  1.
        1   -1    0    0  501    0  0.00000000000E+00  0.00000000000E+00 -0.11007139992E+04  0.11007139992E+04  0.50400001928E-02 0. -1.
    10030    2    1    2    0    0  0.00000000000E+00  0.00000000000E+00  0.36178823277E+03  0.25632162312E+04  0.25375552649E+04 0.  0.
        3    1    3    3  502    0  0.11096119065E+04  0.50222845504E+03 -0.17812189255E+03  0.12309343699E+04  0.10100000352E+00 0. -1.
       -3    1    3    3    0  502 -0.11096119065E+04 -0.50222845504E+03  0.53991012532E+03  0.13322818613E+04  0.10100000352E+00 0.  1.
</event>
<event>
 5   0  0.3758062E-06  0.3202231E+04  0.7818609E-02  0.8188228E-01
        2   -1    0    0  501    0  0.00000000000E+00  0.00000000000E+00  0.14248358432E+04  0.14248358432E+04  0.25500000920E-02 0.  1.
       -2   -1    0    0    0  501  0.00000000000E+00  0.00000000000E+00 -0.17992042660E+04  0.17992042660E+04  0.25500000920E-02 0. -1.
    10030    2    1    2    0    0  0.00000000000E+00  0.00000000000E+00 -0.37436842275E+03  0.32240401092E+04  0.32022309269E+04 0.  0.
        2    1    3    3  502    0  0.76229601291E+02 -0.14468241482E+04 -0.87333850949E+03  0.16916947775E+04  0.25500000920E-02 0. -1.
       -2    1    3    3    0  502 -0.76229601291E+02  0.14468241482E+04  0.49897008674E+03  0.15323453317E+04  0.25500000920E-02 0.  1.
</event>
<event>
 5   0  0.3497546E-06  0.3656983E+04  0.7818609E-02  0.8077562E-01
        2   -1    0    0  501    0  0.00000000000E+00  0.00000000000E+00  0.31360113211E+04  0.31360113211E+04  0.25500000920E-02 0.  1.
       -2   -1    0    0    0  501  0.00000000000E+00  0.00000000000E+00 -0.10661256015E+04  0.10661256015E+04  0.25500000920E-02 0. -1.
    10030    2    1    2    0    0  0.00000000000E+00  0.00000000000E+00  0.20698857195E+04  0.42021369226E+04  0.36569834323E+04 0.  0.
        4    1    3    3  502    0 -0.16622034470E+03  0.12937151795E+04 -0.43750756854E+03  0.13757698405E+04  0.12699999809E+01 0. -1.
       -4    1    3    3    0  502  0.16622034470E+03 -0.12937151795E+04  0.25073932881E+04  0.28263670821E+04  0.12699999809E+01 0.  1.
</event>
<event>
 5   0  0.1268836E-06  0.2562339E+04  0.7818609E-02  0.8381108E-01
        1   -1    0    0  501    0  0.00000000000E+00  0.00000000000E+00  0.19383924307E+04  0.19383924307E+04  0.50400001928E-02 0.  1.
       -1   -1    0    0    0  501  0.00000000000E+00  0.00000000000E+00 -0.84678141075E+03  0.84678141076E+03  0.50400001928E-02 0. -1.
    10030    2    1    2    0    0  0.00000000000E+00  0.00000000000E+00  0.10916110199E+04  0.27851738414E+04  0.25623385233E+04 0.  0.
        1    1    3    3  502    0  0.20854573079E+03  0.24282584695E+03 -0.80261856932E+03  0.86409043602E+03  0.50400001928E-02 0. -1.
       -1    1    3    3    0  502 -0.20854573079E+03 -0.24282584695E+03  0.18942295892E+04  0.19210834054E+04  0.50400001928E-02 0.  1.
</event>
<event>
 5   0  0.1268836E-06  0.3179000E+04  0.7818609E-02  0.8194385E-01
        1   -1    0    0  501    0  0.00000000000E+00  0.00000000000E+00  0.17642858128E+04  0.17642858128E+04  0.50400001928E-02 0.  1.
       -1   -1    0    0    0  501  0.00000000000E+00  0.00000000000E+00 -0.14320297498E+04  0.14320297498E+04  0.50400001928E-02 0. -1.
    10030    2    1    2    0    0  0.00000000000E+00  0.00000000000E+00  0.33225606307E+03  0.31963155626E+04  0.31789996987E+04 0.  0.
        1    1    3    3  502    0 -0.95369849131E+03  0.10507730683E+04  0.88616068250E+03  0.16730049637E+04  0.50400001928E-02 0.  1.
       -1    1    3    3    0  502  0.95369849131E+03 -0.10507730683E+04 -0.55390461943E+03  0.15233105989E+04  0.50400001928E-02 0. -1.
</event>
<event>
 5   0  0.3656086E-06  0.3214777E+04  0.7818609E-02  0.8184925E-01
        2   -1    0    0  501    0  0.00000000000E+00  0.00000000000E+00  0.93038060770E+03  0.93038060770E+03  0.25500000920E-02 0. -1.
       -2   -1    0    0    0  501  0.00000000000E+00  0.00000000000E+00 -0.27770333164E+04  0.27770333164E+04  0.25500000920E-02 0.  1.
    10030    2    1    2    0    0  0.00000000000E+00  0.00000000000E+00 -0.18466527087E+04  0.37074139241E+04  0.32147770961E+04 0.  0.
        3    1    3    3  502    0 -0.13016046232E+04 -0.94313123153E+03 -0.91735404159E+03  0.18507321694E+04  0.10100000352E+00 0. -1.
       -3    1    3    3    0  502  0.13016046232E+04  0.94313123153E+03 -0.92929866709E+03  0.18566817546E+04  0.10100000352E+00 0.  1.
</event>
<event>
 5   0  0.1273980E-06  0.3245090E+04  0.7818609E-02  0.8177010E-01
       -1   -1    0    0    0  501  0.00000000000E+00  0.00000000000E+00  0.12358359937E+04  0.12358359937E+04  0.50400001928E-02 0.  1.
        1   -1    0    0  501    0  0.00000000000E+00  0.00000000000E+00 -0.21302599992E+04  0.21302599992E+04  0.50400001928E-02 0. -1.
    10030    2    1    2    0    0  0.00000000000E+00  0.00000000000E+00 -0.89442400550E+03  0.33660959930E+04  0.32450898188E+04 0.  0.
        4    1    3    3  502    0 -0.85344286058E+03 -0.20740905231E+03 -0.18623673930E+04  0.20590767714E+04  0.12699999809E+01 0. -1.
       -4    1    3    3    0  502  0.85344286058E+03  0.20740905231E+03  0.96794338749E+03  0.13070192216E+04  0.12699999809E+01 0.  1.
</event>
<event>
 5   0  0.1268836E-06  0.3168017E+04  0.7818609E-02  0.8197315E-01
        1   -1    0    0  501    0  0.00000000000E+00  0.00000000000E+00  0.14138304315E+04  0.14138304315E+04  0.50400001928E-02 0. -1.
       -1   -1    0    0    0  501  0.00000000000E+00  0.00000000000E+00 -0.17746705124E+04  0.17746705124E+04  0.50400001928E-02 0.  1.
    10030    2    1    2    0    0  0.00000000000E+00  0.00000000000E+00 -0.36084008086E+03  0.31885009439E+04  0.31680171567E+04 0.  0.
        1    1    3    3  502    0  0.85285153045E+03  0.56779315247E+03  0.10354216391E+04  0.14566546494E+04  0.50400001928E-02 0. -1.
       -1    1    3    3    0  502 -0.85285153045E+03 -0.56779315247E+03 -0.13962617200E+04  0.17318462945E+04  0.50400001928E-02 0.  1.
</event>
<event>
 5   0  0.1268836E-06  0.3156357E+04  0.7818609E-02  0.8200439E-01
        1   -1    0    0  501    0  0.00000000000E+00  0.00000000000E+00  0.16841347762E+04  0.16841347762E+04  0.50400001928E-02 0. -1.
       -1   -1    0    0    0  501  0.00000000000E+00  0.00000000000E+00 -0.14788885326E+04  0.14788885326E+04  0.50400001928E-02 0.  1.
    10030    2    1    2    0    0  0.00000000000E+00  0.00000000000E+00  0.20524624355E+03  0.31630233088E+04  0.31563571458E+04 0.  0.
        1    1    3    3  502    0 -0.96866295856E+03  0.74280016325E+01 -0.11459153105E+04  0.15004949188E+04  0.50400001928E-02 0.  1.
       -1    1    3    3    0  502  0.96866295856E+03 -0.74280016325E+01  0.13511615540E+04  0.16625283900E+04  0.50400001928E-02 0. -1.
</event>
<event>
 5   0  0.1240725E-06  0.3226458E+04  0.7818609E-02  0.8181865E-01
        1   -1    0    0  501    0  0.00000000000E+00  0.00000000000E+00  0.17218126608E+04  0.17218126608E+04  0.50400001928E-02 0.  1.
       -1   -1    0    0    0  501  0.00000000000E+00  0.00000000000E+00 -0.15114926938E+04  0.15114926938E+04  0.50400001928E-02 0. -1.
    10030    2    1    2    0    0  0.00000000000E+00  0.00000000000E+00  0.21031996694E+03  0.32333053546E+04  0.32264576594E+04 0.  0.
        3    1    3    3  502    0 -0.83351576519E+03  0.13737310458E+04  0.24906743953E+03  0.16260135660E+04  0.10100000352E+00 0.  1.
       -3    1    3    3    0  502  0.83351576519E+03 -0.13737310458E+04 -0.38747472589E+02  0.16072917887E+04  0.10100000352E+00 0. -1.
</event>
<event>
 5   0  0.3745943E-06  0.3229517E+04  0.7818609E-02  0.8181065E-01
        2   -1    0    0  501    0  0.00000000000E+00  0.00000000000E+00  0.27642434003E+04  0.27642434003E+04  0.25500000920E-02 0.  1.
       -2   -1    0    0    0  501  0.00000000000E+00  0.00000000000E+00 -0.94327623736E+03  0.94327623737E+03  0.25500000920E-02 0. -1.
    10030    2    1    2    0    0  0.00000000000E+00  0.00000000000E+00  0.18209671629E+04  0.37075196377E+04  0.32295170622E+04 0.  0.
        5    1    3    3  502    0  0.50871182022E+03 -0.70705764265E+03 -0.65043288041E+03  0.10871077444E+04  0.46999998093E+01 0. -1.
       -5    1    3    3    0  502 -0.50871182022E+03  0.70705764265E+03  0.24714000433E+04  0.26204118932E+04  0.46999998093E+01 0.  1.
</event>
<event>
 5   0  0.1273980E-06  0.2285648E+04  0.7818609E-02  0.8483602E-01
       -1   -1    0    0    0  501  0.00000000000E+00  0.00000000000E+00  0.53879082395E+03  0.53879082397E+03  0.50400001928E-02 0. -1.
        1   -1    0    0  501    0  0.00000000000E+00  0.00000000000E+00 -0.24240323728E+04  0.24240323728E+04  0.50400001928E-02 0.  1.
    10030    2    1    2    0    0  0.00000000000E+00  0.00000000000E+00 -0.18852415488E+04  0.29628231968E+04  0.22856477414E+04 0.  0.
        4    1    3    3  502    0 -0.45096213519E+03  0.71147164228E+03 -0.19437648459E+04  0.21184386076E+04  0.12699999809E+01 0.  1.
       -4    1    3    3    0  502  0.45096213519E+03 -0.71147164228E+03  0.58523297103E+02  0.84438458912E+03  0.12699999809E+01 0. -1.
</event>
<event>
 5   0  0.1268836E-06  0.2431034E+04  0.7818609E-02  0.8427975E-01
       -1   -1    0    0    0  501  0.00000000000E+00  0.00000000000E+00  0.10303635777E+04  0.10303635777E+04  0.50400001928E-02 0.  1.
        1   -1    0    0  501    0  0.00000000000E+00  0.00000000000E+00 -0.14339420343E+04  0.14339420343E+04  0.50400001928E-02 0. -1.
    10030    2    1    2    0    0  0.00000000000E+00  0.00000000000E+00 -0.40357845661E+03  0.24643056120E+04  0.24310340555E+04 0.  0.
        1    1    3    3  502    0  0.26082774106E+03  0.14343843591E+03 -0.13964242768E+04  0.14277977645E+04  0.50400001928E-02 0. -1.
       -1    1    3    3    0  502 -0.26082774106E+03 -0.14343843591E+03  0.99284582018E+03  0.10365078476E+04  0.50400001928E-02 0.  1.
</event>
<event>
 5   0  0.1268836E-06  0.3195328E+04  0.7818609E-02  0.8190052E-01
        1   -1    0    0  501    0  0.00000000000E+00  0.00000000000E+00  0.22691699375E+04  0.22691699375E+04  0.50400001928E-02 0. -1.
       -1   -1    0    0    0  501  0.00000000000E+00  0.00000000000E+00 -0.11248741090E+04  0.11248741090E+04  0.50400001928E-02 0.  1.
    10030    2    1    2    0    0  0.00000000000E+00  0.00000000000E+00  0.11442958285E+04  0.33940440465E+04  0.31953281594E+04 0.  0.
        1    1    3    3  502    0 -0.15363983711E+04  0.94531302795E+02  0.11766683787E+03  0.15437945481E+04  0.50400001928E-02 0.  1.
       -1    1    3    3    0  502  0.15363983711E+04 -0.94531302795E+02  0.10266289907E+04  0.18502494984E+04  0.50400001928E-02 0. -1.
</event>
<event>
 5   0  0.3745943E-06  0.3387902E+04  0.7818609E-02  0.8140882E-01
       -2   -1    0    0    0  501  0.00000000000E+00  0.00000000000E+00  0.15439171875E+04  0.15439171875E+04  0.25500000920E-02 0.  1.
        2   -1    0    0  501    0  0.00000000000E+00  0.00000000000E+00 -0.18585645106E+04  0.18585645106E+04  0.25500000920E-02 0. -1.
    10030    2    1    2    0    0  0.00000000000E+00  0.00000000000E+00 -0.31464732316E+03  0.34024816981E+04  0.33879018238E+04 0.  0.
        5    1    3    3  502    0 -0.13593158618E+04 -0.35624732002E+03  0.79268367360E+03  0.16133881311E+04  0.46999998093E+01 0.  1.
       -5    1    3    3    0  502  0.13593158618E+04  0.35624732002E+03 -0.11073309968E+04  0.17890935670E+04  0.46999998093E+01 0. -1.
</event>
<event>
 5   0  0.3497546E-06  0.3213543E+04  0.7818609E-02  0.8185250E-01
        2   -1    0    0  501    0  0.00000000000E+00  0.00000000000E+00  0.15424594180E+04  0.15424594180E+04  0.25500000920E-02 0. -1.
       -2   -1    0    0    0  501  0.00000000000E+00  0.00000000000E+00 -0.16737646430E+04  0.16737646430E+04  0.25500000920E-02 0.  1.
    10030    2    1    2    0    0  0.00000000000E+00  0.00000000000E+00 -0.13130522498E+03  0.32162240609E+04  0.32135426165E+04 0.  0.
        4    1    3    3  502    0  0.81452614993E+03 -0.85113866927E+03  0.10278809586E+04  0.15634675440E+04  0.12699999809E+01 0. -1.
       -4    1    3    3    0  502 -0.81452614993E+03  0.85113866927E+03 -0.11591861836E+04  0.16527565169E+04  0.12699999809E+01 0.  1.
</event>
<event>
 5   0  0.1306843E-06  0.3082810E+04  0.7818609E-02  0.8220471E-01
       -1   -1    0    0    0  501  0.00000000000E+00  0.00000000000E+00  0.16900041350E+04  0.16900041350E+04  0.50400001928E-02 0. -1.
        1   -1    0    0  501    0  0.00000000000E+00  0.00000000000E+00 -0.14058718435E+04  0.14058718435E+04  0.50400001928E-02 0.  1.
    10030    2    1    2    0    0  0.00000000000E+00  0.00000000000E+00  0.28413229150E+03  0.30958759785E+04  0.30828099058E+04 0.  0.
        5    1    3    3  502    0  0.66619028340E+03 -0.10837584403E+04 -0.73200511730E+03  0.14677177632E+04  0.46999998093E+01 0.  1.
       -5    1    3    3    0  502 -0.66619028340E+03  0.10837584403E+04  0.10161374088E+04  0.16281582153E+04  0.46999998093E+01 0. -1.
</event>
<event>
 5   0  0.3497546E-06  0.2740211E+04  0.7818609E-02  0.8322075E-01
        2   -1    0    0  501    0  0.00000000000E+00  0.00000000000E+00  0.10864442623E+04  0.10864442623E+04  0.25500000920E-02 0. -1.
       -2   -1    0    0    0  501  0.00000000000E+00  0.00000000000E+00 -0.17278279243E+04  0.17278279243E+04  0.25500000920E-02 0.  1.
    10030    2    1    2    0    0  0.00000000000E+00  0.00000000000E+00 -0.64138366200E+03  0.28142721867E+04  0.27402107472E+04 0.  0.
        4    1    3    3  502    0  0.97099117200E+03  0.74378475854E+03 -0.95474936937E+03  0.15516402915E+04  0.12699999809E+01 0.  1.
       -4    1    3    3    0  502 -0.97099117200E+03 -0.74378475854E+03  0.31336570737E+03  0.12626318951E+04  0.12699999809E+01 0. -1.
</event>
<event>
 5   0  0.1240725E-06  0.3195921E+04  0.7818609E-02  0.8189895E-01
        1   -1    0    0  501    0  0.00000000000E+00  0.00000000000E+00  0.14051695132E+04  0.14051695132E+04  0.50400001928E-02 0.  1.
       -1   -1    0    0    0  501  0.00000000000E+00  0.00000000000E+00 -0.18172026894E+04  0.18172026894E+04  0.50400001928E-02 0. -1.
    10030    2    1    2    0    0  0.00000000000E+00  0.00000000000E+00 -0.41203317620E+03  0.32223722026E+04  0.31959210369E+04 0.  0.
        3    1    3    3  502    0 -0.10244557655E+04  0.12608155426E+03  0.10239450924E+04  0.14539153126E+04  0.10100000352E+00 0.  1.
       -3    1    3    3    0  502  0.10244557655E+04 -0.12608155426E+03 -0.14359782686E+04  0.17684568900E+04  0.10100000352E+00 0. -1.
</event>
<event>
 5   0  0.3758062E-06  0.3225787E+04  0.7818609E-02  0.8182040E-01
        2   -1    0    0  501    0  0.00000000000E+00  0.00000000000E+00  0.11961017867E+04  0.11961017867E+04  0.25500000920E-02 0. -1.
       -2   -1    0    0    0  501  0.00000000000E+00  0.00000000000E+00 -0.21749204544E+04  0.21749204544E+04  0.25500000920E-02 0.  1.
    10030    2    1    2    0    0  0.00000000000E+00  0.00000000000E+00 -0.97881866767E+03  0.33710222411E+04  0.32257874955E+04 0.  0.
        2    1    3    3  502    0  0.64345827446E+03  0.14365277267E+04 -0.85706706387E+03  0.17922651624E+04  0.25500000920E-02 0. -1.
       -2    1    3    3    0  502 -0.64345827446E+03 -0.14365277267E+04 -0.12175160380E+03  0.15787570787E+04  0.25500000920E-02 0.  1.
</event>
<event>
 5   0  0.3531437E-06  0.3324323E+04  0.7818609E-02  0.8156734E-01
        2   -1    0    0  501    0  0.00000000000E+00  0.00000000000E+00  0.18759733470E+04  0.18759733470E+04  0.25500000920E-02 0.  1.
       -2   -1    0    0    0  501  0.00000000000E+00  0.00000000000E+00 -0.14727182322E+04  0.14727182322E+04  0.25500000920E-02 0. -1.
    10030    2    1    2    0    0  0.00000000000E+00  0.00000000000E+00  0.40325511476E+03  0.33486915792E+04  0.33243225784E+04 0.  0.
        1    1    3    3  502    0 -0.11516109640E+04  0.35248446407E+03  0.13555936014E+04  0.18133083362E+04  0.50400001928E-02 0.  1.
       -1    1    3    3    0  502  0.11516109640E+04 -0.35248446407E+03 -0.95233848664E+03  0.15353832431E+04  0.50400001928E-02 0. -1.
</event>
<event>
 5   0  0.1273980E-06  0.2406087E+04  0.7818609E-02  0.8437228E-01
       -1   -1    0    0    0  501  0.00000000000E+00  0.00000000000E+00  0.16788134078E+04  0.16788134078E+04  0.50400001928E-02 0.  1.
        1   -1    0    0  501    0  0.00000000000E+00  0.00000000000E+00 -0.86210544358E+03  0.86210544360E+03  0.50400001928E-02 0. -1.
    10030    2    1    2    0    0  0.00000000000E+00  0.00000000000E+00  0.81670796422E+03  0.25409188514E+04  0.24060874279E+04 0.  0.
        4    1    3    3  502    0 -0.10663728122E+04 -0.54945930048E+03  0.31239933764E+03  0.12396174638E+04  0.12699999809E+01 0. -1.
       -4    1    3    3    0  502  0.10663728122E+04  0.54945930048E+03  0.50430862658E+03  0.13013013876E+04  0.12699999809E+01 0.  1.
</event>
<event>
 5   0  0.3531437E-06  0.3130394E+04  0.7818609E-02  0.8207446E-01
        2   -1    0    0  501    0  0.00000000000E+00  0.00000000000E+00  0.22611505524E+04  0.22611505524E+04  0.25500000920E-02 0. -1.
       -2   -1    0    0    0  501  0.00000000000E+00  0.00000000000E+00 -0.10834488461E+04  0.10834488461E+04  0.25500000920E-02 0.  1.
    10030    2    1    2    0    0  0.00000000000E+00  0.00000000000E+00  0.11777017063E+04  0.33445993985E+04  0.31303935579E+04 0.  0.
        1    1    3    3  502    0  0.87134979336E+03  0.53712055191E+03  0.18539758097E+04  0.21177760157E+04  0.50400001928E-02 0. -1.
       -1    1    3    3    0  502 -0.87134979336E+03 -0.53712055191E+03 -0.67627410337E+03  0.12268233828E+04  0.50400001928E-02 0.  1.
</event>
<event>
 5   0  0.1273754E-06  0.3210765E+04  0.7818609E-02  0.8185980E-01
       -1   -1    0    0    0  501  0.00000000000E+00  0.00000000000E+00  0.14129154901E+04  0.14129154901E+04  0.50400001928E-02 0. -1.
        1   -1    0    0  501    0  0.00000000000E+00  0.00000000000E+00 -0.18240669802E+04  0.18240669802E+04  0.50400001928E-02 0.  1.
    10030    2    1    2    0    0  0.00000000000E+00  0.00000000000E+00 -0.41115149007E+03  0.32369824703E+04  0.32107647010E+04 0.  0.
        2    1    3    3  502    0 -0.31741925617E+03 -0.15710472329E+04 -0.29746880260E+03  0.16301632068E+04  0.25500000920E-02 0.  1.
       -2    1    3    3    0  502  0.31741925617E+03  0.15710472329E+04 -0.11368268747E+03  0.16068192635E+04  0.25500000920E-02 0. -1.
</event>
<event>
 5   0  0.3497546E-06  0.3186875E+04  0.7818609E-02  0.8192292E-01
        2   -1    0    0  501    0  0.00000000000E+00  0.00000000000E+00  0.18739160517E+04  0.18739160517E+04  0.25500000920E-02 0.  1.
       -2   -1    0    0    0  501  0.00000000000E+00  0.00000000000E+00 -0.13549394065E+04  0.13549394065E+04  0.25500000920E-02 0. -1.
    10030    2    1    2    0    0  0.00000000000E+00  0.00000000000E+00  0.51897664524E+03  0.32288554582E+04  0.31868747719E+04 0.  0.
        4    1    3    3  502    0  0.49031079789E+03 -0.96916052426E+03 -0.92178809546E+03  0.14245601799E+04  0.12699999809E+01 0. -1.
       -4    1    3    3    0  502 -0.49031079789E+03  0.96916052426E+03  0.14407647407E+04  0.18042952783E+04  0.12699999809E+01 0.  1.
</event>
<event>
 5   0  0.3656086E-06  0.3189822E+04  0.7818609E-02  0.8191510E-01
        2   -1    0    0  501    0  0.00000000000E+00  0.00000000000E+00  0.17296645616E+04  0.17296645616E+04  0.25500000920E-02 0.  1.
       -2   -1    0    0    0  501  0.00000000000E+00  0.00000000000E+00 -0.14706561027E+04  0.14706561027E+04  0.25500000920E-02 0. -1.
    10030    2    1    2    0    0  0.00000000000E+00  0.00000000000E+00  0.25900845891E+03  0.32003206644E+04  0.31898224046E+04 0.  0.
        3    1    3    3  502    0 -0.13529561999E+03  0.15697922399E+04  0.37768275969E+03  0.16202459253E+04  0.10100000352E+00 0.  1.
       -3    1    3    3    0  502  0.13529561999E+03 -0.15697922399E+04 -0.11867430079E+03  0.15800747391E+04  0.10100000352E+00 0. -1.
</event>
<event>
 5   0  0.1273754E-06  0.3168520E+04  0.7818609E-02  0.8197181E-01
        1   -1    0    0  501    0  0.00000000000E+00  0.00000000000E+00  0.27812654065E+04  0.27812654065E+04  0.50400001928E-02 0. -1.
       -1   -1    0    0    0  501  0.00000000000E+00  0.00000000000E+00 -0.90242341449E+03  0.90242341450E+03  0.50400001928E-02 0.  1.
    10030    2    1    2    0    0  0.00000000000E+00  0.00000000000E+00  0.18788419920E+04  0.36836888210E+04  0.31685195437E+04 0.  0.
        2    1    3    3  502    0  0.36451465518E+03 -0.49201208011E+03  0.26381284404E+04  0.27082593097E+04  0.25500000920E-02 0. -1.
       -2    1    3    3    0  502 -0.36451465518E+03  0.49201208011E+03 -0.75928644836E+03  0.97542951128E+03  0.25500000920E-02 0.  1.
</event>
<event>
 5   0  0.1273980E-06  0.3250084E+04  0.7818609E-02  0.8175714E-01
        1   -1    0    0  501    0  0.00000000000E+00  0.00000000000E+00  0.23394085105E+04  0.23394085105E+04  0.50400001928E-02 0. -1.
       -1   -1    0    0    0  501  0.00000000000E+00  0.00000000000E+00 -0.11288161021E+04  0.11288161021E+04  0.50400001928E-02 0.  1.
    10030    2    1    2    0    0  0.00000000000E+00  0.00000000000E+00  0.12105924084E+04  0.34682246127E+04  0.32500843042E+04 0.  0.
        4    1    3    3  502    0  0.91072584876E+03 -0.88410779385E+03  0.16881412288E+04  0.21120820496E+04  0.12699999809E+01 0. -1.
       -4    1    3    3    0  502 -0.91072584876E+03  0.88410779385E+03 -0.47754882037E+03  0.13561425631E+04  0.12699999809E+01 0.  1.
</event>
<event>
 5   0  0.1240725E-06  0.3185066E+04  0.7818609E-02  0.8192772E-01
        1   -1    0    0  501    0  0.00000000000E+00  0.00000000000E+00  0.85967528079E+03  0.85967528081E+03  0.50400001928E-02 0.  1.
       -1   -1    0    0    0  501  0.00000000000E+00  0.00000000000E+00 -0.29501395214E+04  0.29501395214E+04  0.50400001928E-02 0. -1.
    10030    2    1    2    0    0  0.00000000000E+00  0.00000000000E+00 -0.20904642406E+04  0.38098148022E+04  0.31850664178E+04 0.  0.
        3    1    3    3  502    0  0.14633306402E+04  0.61250732036E+03 -0.12129501226E+04  0.19969350991E+04  0.10100000352E+00 0. -1.
       -3    1    3    3    0  502 -0.14633306402E+04 -0.61250732036E+03 -0.87751411801E+03  0.18128797030E+04  0.10100000352E+00 0.  1.
</event>
<event>
 5   0  0.1240725E-06  0.3204311E+04  0.7818609E-02  0.8187680E-01
       -1   -1    0    0    0  501  0.00000000000E+00  0.00000000000E+00  0.12465732315E+04  0.12465732315E+04  0.50400001928E-02 0.  1.
        1   -1    0    0  501    0  0.00000000000E+00  0.00000000000E+00 -0.20591667187E+04  0.20591667187E+04  0.50400001928E-02 0. -1.
    10030    2    1    2    0    0  0.00000000000E+00  0.00000000000E+00 -0.81259348721E+03  0.33057399502E+04  0.32043109154E+04 0.  0.
        3    1    3    3  502    0 -0.15421373741E+04  0.29576237495E+03 -0.73454924227E+03  0.17335586701E+04  0.10100000352E+00 0.  1.
       -3    1    3    3    0  502  0.15421373741E+04 -0.29576237495E+03 -0.78044244939E+02  0.15721812801E+04  0.10100000352E+00 0. -1.
</event>
<event>
 5   0  0.3531437E-06  0.3190803E+04  0.7818609E-02  0.8191250E-01
       -2   -1    0    0    0  501  0.00000000000E+00  0.00000000000E+00  0.26592656695E+04  0.26592656695E+04  0.25500000920E-02 0.  1.
        2   -1    0    0  501    0  0.00000000000E+00  0.00000000000E+00 -0.95714637502E+03  0.95714637502E+03  0.25500000920E-02 0. -1.
    10030    2    1    2    0    0  0.00000000000E+00  0.00000000000E+00  0.17021192945E+04  0.36164120445E+04  0.31908033445E+04 0.  0.
        1    1    3    3  502    0 -0.42632177178E+03 -0.15074126959E+04  0.11934533206E+04  0.19693588087E+04  0.50400001928E-02 0. -1.
       -1    1    3    3    0  502  0.42632177178E+03  0.15074126959E+04  0.50866597386E+03  0.16470532358E+04  0.50400001928E-02 0.  1.
</event>
<event>
 5   0  0.3745943E-06  0.3260761E+04  0.7818609E-02  0.8172952E-01
        2   -1    0    0  501    0  0.00000000000E+00  0.00000000000E+00  0.14616697965E+04  0.14616697965E+04  0.25500000920E-02 0. -1.
       -2   -1    0    0    0  501  0.00000000000E+00  0.00000000000E+00 -0.18185640709E+04  0.18185640709E+04  0.25500000920E-02 0.  1.
    10030    2    1    2    0    0  0.00000000000E+00  0.00000000000E+00 -0.35689427442E+03  0.32802338674E+04  0.32607607551E+04 0.  0.
        5    1    3    3  502    0  0.27145138563E+03  0.27217086394E+02  0.14385386320E+04  0.14641865012E+04  0.46999998093E+01 0. -1.
       -5    1    3    3    0  502 -0.27145138563E+03 -0.27217086394E+02 -0.17954329065E+04  0.18160473662E+04  0.46999998093E+01 0.  1.
</event>
<event>
 5   0  0.3758062E-06  0.3218124E+04  0.7818609E-02  0.8184047E-01
        2   -1    0    0  501    0  0.00000000000E+00  0.00000000000E+00  0.20257213916E+04  0.20257213916E+04  0.25500000920E-02 0.  1.
       -2   -1    0    0    0  501  0.00000000000E+00  0.00000000000E+00 -0.12781028364E+04  0.12781028364E+04  0.25500000920E-02 0. -1.
    10030    2    1    2    0    0  0.00000000000E+00  0.00000000000E+00  0.74761855521E+03  0.33038242281E+04  0.32181238363E+04 0.  0.
        2    1    3    3  502    0  0.70441514788E+03 -0.94256408880E+03  0.15005111583E+04  0.19068721767E+04  0.25500000920E-02 0.  1.
       -2    1    3    3    0  502 -0.70441514788E+03  0.94256408880E+03 -0.75289260309E+03  0.13969520514E+04  0.25500000920E-02 0. -1.
</event>
<event>
 5   0  0.1268836E-06  0.3137991E+04  0.7818609E-02  0.8205388E-01
       -1   -1    0    0    0  501  0.00000000000E+00  0.00000000000E+00  0.15900140457E+04  0.15900140457E+04  0.50400001928E-02 0. -1.
        1   -1    0    0  501    0  0.00000000000E+00  0.00000000000E+00 -0.15482552227E+04  0.15482552228E+04  0.50400001928E-02 0.  1.
    10030    2    1    2    0    0  0.00000000000E+00  0.00000000000E+00  0.41758822997E+02  0.31382692685E+04  0.31379914280E+04 0.  0.
        1    1    3    3  502    0  0.13001150410E+03 -0.15628643246E+04  0.68838452498E+02  0.15697727927E+04  0.50400001928E-02 0. -1.
       -1    1    3    3    0  502 -0.13001150410E+03  0.15628643246E+04 -0.27079629501E+02  0.15684964758E+04  0.50400001928E-02 0.  1.
</event>
<event>
 5   0  0.3758062E-06  0.3163881E+04  0.7818609E-02  0.8198422E-01
        2   -1    0    0  501    0  0.00000000000E+00  0.00000000000E+00  0.21777281572E+04  0.21777281572E+04  0.25500000920E-02 0. -1.
       -2   -1    0    0    0  501  0.00000000000E+00  0.00000000000E+00 -0.11491497524E+04  0.11491497524E+04  0.25500000920E-02 0.  1.
    10030    2    1    2    0    0  0.00000000000E+00  0.00000000000E+00  0.10285784048E+04  0.33268779097E+04  0.31638810172E+04 0.  0.
        2    1    3    3  502    0  0.17362489372E+03 -0.14636529414E+04 -0.89862795689E+02  0.14766519084E+04  0.25500000920E-02 0.  1.
       -2    1    3    3    0  502 -0.17362489372E+03  0.14636529414E+04  0.11184412005E+04  0.18502260012E+04  0.25500000920E-02 0. -1.
</event>
<event>
 5   0  0.1268836E-06  0.2317960E+04  0.7818609E-02  0.8470873E-01
        1   -1    0    0  501    0  0.00000000000E+00  0.00000000000E+00  0.18318995450E+04  0.18318995450E+04  0.50400001928E-02 0. -1.
       -1   -1    0    0    0  501  0.00000000000E+00  0.00000000000E+00 -0.73324670132E+03  0.73324670134E+03  0.50400001928E-02 0.  1.
    10030    2    1    2    0    0  0.00000000000E+00  0.00000000000E+00  0.10986528436E+04  0.25651462463E+04  0.23179597050E+04 0.  0.
        1    1    3    3  502    0  0.37030610982E+03  0.79656528401E+03 -0.28733376569E+03  0.92423133446E+03  0.50400001928E-02 0.  1.
       -1    1    3    3    0  502 -0.37030610982E+03 -0.79656528401E+03  0.13859866093E+04  0.16409149118E+04  0.50400001928E-02 0. -1.
</event>
<event>
 5   0  0.1306843E-06  0.3018610E+04  0.7818609E-02  0.8238436E-01
        1   -1    0    0  501    0  0.00000000000E+00  0.00000000000E+00  0.19203076298E+04  0.19203076298E+04  0.50400001928E-02 0. -1.
       -1   -1    0    0    0  501  0.00000000000E+00  0.00000000000E+00 -0.11862694503E+04  0.11862694503E+04  0.50400001928E-02 0.  1.
    10030    2    1    2    0    0  0.00000000000E+00  0.00000000000E+00  0.73403817958E+03  0.31065770801E+04  0.30186104594E+04 0.  0.
        5    1    3    3  502    0 -0.23321509785E+03 -0.92880041323E+03 -0.83356192293E+03  0.12696090181E+04  0.46999998093E+01 0.  1.
       -5    1    3    3    0  502  0.23321509785E+03  0.92880041323E+03  0.15676001025E+04  0.18369680620E+04  0.46999998093E+01 0. -1.
</event>
<event>
 5   0  0.3497546E-06  0.3162411E+04  0.7818609E-02  0.8198816E-01
        2   -1    0    0  501    0  0.00000000000E+00  0.00000000000E+00  0.11752800022E+04  0.11752800022E+04  0.25500000920E-02 0. -1.
       -2   -1    0    0    0  501  0.00000000000E+00  0.00000000000E+00 -0.21273316218E+04  0.21273316218E+04  0.25500000920E-02 0.  1.
    10030    2    1    2    0    0  0.00000000000E+00  0.00000000000E+00 -0.95205161959E+03  0.33026116239E+04  0.31624106710E+04 0.  0.
        4    1    3    3  502    0  0.13198664056E+03  0.91915846839E+03  0.86053183439E+03  0.12660131967E+04  0.12699999809E+01 0. -1.
       -4    1    3    3    0  502 -0.13198664056E+03 -0.91915846839E+03 -0.18125834540E+04  0.20365984272E+04  0.12699999809E+01 0.  1.
</event>
<event>
 5   0  0.1240725E-06  0.3216600E+04  0.7818609E-02  0.8184447E-01
       -1   -1    0    0    0  501  0.00000000000E+00  0.00000000000E+00  0.11180477319E+04  0.11180477319E+04  0.50400001928E-02 0. -1.
        1   -1    0    0  501    0  0.00000000000E+00  0.00000000000E+00 -0.23135223610E+04  0.23135223610E+04  0.50400001928E-02 0.  1.
    10030    2    1    2    0    0  0.00000000000E+00  0.00000000000E+00 -0.11954746291E+04  0.34315700930E+04  0.32165997131E+04 0.  0.
        3    1    3    3  502    0  0.10763179309E+04 -0.11833701772E+04 -0.77562377199E+03  0.17777563136E+04  0.10100000352E+00 0.  1.
       -3    1    3    3    0  502 -0.10763179309E+04  0.11833701772E+04 -0.41985085712E+03  0.16538137794E+04  0.10100000352E+00 0. -1.
</event>
<event>
 5   0  0.1185575E-06  0.3211427E+04  0.7818609E-02  0.8185806E-01
        3   -1    0    0  501    0  0.00000000000E+00  0.00000000000E+00  0.17434996524E+04  0.17434996553E+04  0.10100000352E+00 0. -1.
       -3   -1    0    0    0  501  0.00000000000E+00  0.00000000000E+00 -0.14788165422E+04  0.14788165457E+04  0.10100000352E+00 0.  1.
    10030    2    1    2    0    0  0.00000000000E+00  0.00000000000E+00  0.26468311019E+03  0.32223162010E+04  0.32114271828E+04 0.  0.
        3    1    3    3  502    0 -0.77056285529E+03  0.40119555564E+03  0.14873244489E+04  0.17224572606E+04  0.10100000352E+00 0. -1.
       -3    1    3    3    0  502  0.77056285529E+03 -0.40119555564E+03 -0.12226413388E+04  0.14998589404E+04  0.10100000352E+00 0.  1.
</event>
<event>
 5   0  0.1268836E-06  0.3176554E+04  0.7818609E-02  0.8195037E-01
        1   -1    0    0  501    0  0.00000000000E+00  0.00000000000E+00  0.25049602598E+04  0.25049602598E+04  0.50400001928E-02 0. -1.
       -1   -1    0    0    0  501  0.00000000000E+00  0.00000000000E+00 -0.10070515884E+04  0.10070515884E+04  0.50400001928E-02 0.  1.
    10030    2    1    2    0    0  0.00000000000E+00  0.00000000000E+00  0.14979086715E+04  0.35120118482E+04  0.31765542391E+04 0.  0.
        1    1    3    3  502    0  0.11024500431E+04 -0.93032620842E+03  0.14146385108E+02  0.14426028809E+04  0.50400001928E-02 0.  1.
       -1    1    3    3    0  502 -0.11024500431E+04  0.93032620842E+03  0.14837622864E+04  0.20694089674E+04  0.50400001928E-02 0. -1.
</event>
<event>
 5   0  0.1273754E-06  0.3172620E+04  0.7818609E-02  0.8196086E-01
       -1   -1    0    0    0  501  0.00000000000E+00  0.00000000000E+00  0.10758182003E+04  0.10758182003E+04  0.50400001928E-02 0. -1.
        1   -1    0    0  501    0  0.00000000000E+00  0.00000000000E+00 -0.23390378228E+04  0.23390378228E+04  0.50400001928E-02 0.  1.
    10030    2    1    2    0    0  0.00000000000E+00  0.00000000000E+00 -0.12632196224E+04  0.34148560231E+04  0.31726200283E+04 0.  0.
        2    1    3    3  502    0 -0.10544760456E+04  0.10209034615E+04  0.16185891866E+02  0.14677961682E+04  0.25500000920E-02 0. -1.
       -2    1    3    3    0  502  0.10544760456E+04 -0.10209034615E+04 -0.12794055143E+04  0.19470598549E+04  0.25500000920E-02 0.  1.
</event>
<event>
 5   0  0.1273980E-06  0.3316880E+04  0.7818609E-02  0.8158613E-01
        1   -1    0    0  501    0  0.00000000000E+00  0.00000000000E+00  0.25574286333E+04  0.25574286333E+04  0.50400001928E-02 0. -1.
       -1   -1    0    0    0  501  0.00000000000E+00  0.00000000000E+00 -0.10754643473E+04  0.10754643473E+04  0.50400001928E-02 0.  1.
    10030    2    1    2    0    0  0.00000000000E+00  0.00000000000E+00  0.14819642859E+04  0.36328929806E+04  0.33168800496E+04 0.  0.
        4    1    3    3  502    0  0.63646736695E+03  0.79848746268E+03  0.21722958434E+04  0.24003215996E+04  0.12699999809E+01 0. -1.
       -4    1    3    3    0  502 -0.63646736695E+03 -0.79848746268E+03 -0.69033155745E+03  0.12325713810E+04  0.12699999809E+01 0.  1.
</event>
<event>
 5   0  0.1185575E-06  0.3154633E+04  0.7818609E-02  0.8200902E-01
        3   -1    0    0  501    0  0.00000000000E+00  0.00000000000E+00  0.12094947516E+04  0.12094947558E+04  0.10100000352E+00 0.  1.
       -3   -1    0    0    0  501  0.00000000000E+00  0.00000000000E+00 -0.20569971146E+04  0.20569971171E+04  0.10100000352E+00 0. -1.
    10030    2    1    2    0    0  0.00000000000E+00  0.00000000000E+00 -0.84750236302E+03  0.32664918728E+04  0.31546329263E+04 0.  0.
        2    1    3    3  502    0  0.74238040065E+03  0.71480913066E+03  0.81267767635E+03  0.13124502879E+04  0.25500000920E-02 0.  1.
       -2    1    3    3    0  502 -0.74238040065E+03 -0.71480913066E+03 -0.16601800394E+04  0.19540415849E+04  0.25500000920E-02 0. -1.
</event>
<event>
 5   0  0.3531437E-06  0.3224891E+04  0.7818609E-02  0.8182274E-01
        2   -1    0    0  501    0  0.00000000000E+00  0.00000000000E+00  0.25741969381E+04  0.25741969381E+04  0.25500000920E-02 0. -1.
       -2   -1    0    0    0  501  0.00000000000E+00  0.00000000000E+00 -0.10100161674E+04  0.10100161674E+04  0.25500000920E-02 0.  1.
    10030    2    1    2    0    0  0.00000000000E+00  0.00000000000E+00  0.15641807707E+04  0.35842131054E+04  0.32248910217E+04 0.  0.
        1    1    3    3  502    0 -0.44316318656E+03 -0.25975566627E+03  0.24808259839E+04  0.25334490677E+04  0.50400001928E-02 0. -1.
       -1    1    3    3    0  502  0.44316318656E+03  0.25975566627E+03 -0.91664521323E+03  0.10507640378E+04  0.50400001928E-02 0.  1.
</event>
<event>
 5   0  0.1273754E-06  0.3174129E+04  0.7818609E-02  0.8195683E-01
        1   -1    0    0  501    0  0.00000000000E+00  0.00000000000E+00  0.85618924274E+03  0.85618924275E+03  0.50400001928E-02 0.  1.
       -1   -1    0    0    0  501  0.00000000000E+00  0.00000000000E+00 -0.29418419612E+04  0.29418419612E+04  0.50400001928E-02 0. -1.
    10030    2    1    2    0    0  0.00000000000E+00  0.00000000000E+00 -0.20856527185E+04  0.37980312040E+04  0.31741288197E+04 0.  0.
        2    1    3    3  502    0 -0.79824474401E+03 -0.44272782185E+02 -0.26832984933E+04  0.27998652744E+04  0.25500000920E-02 0. -1.
       -2    1    3    3    0  502  0.79824474401E+03  0.44272782185E+02  0.59764577490E+03  0.99816592951E+03  0.25500000920E-02 0.  1.
</event>
<event>
 5   0  0.3656086E-06  0.3236000E+04  0.7818609E-02  0.8179374E-01
        2   -1    0    0  501    0  0.00000000000E+00  0.00000000000E+00  0.12241702132E+04  0.12241702132E+04  0.25500000920E-02 0. -1.
       -2   -1    0    0    0  501  0.00000000000E+00  0.00000000000E+00 -0.21385296564E+04  0.21385296564E+04  0.25500000920E-02 0.  1.
    10030    2    1    2    0    0  0.00000000000E+00  0.00000000000E+00 -0.91435944320E+03  0.33626998695E+04  0.32360001887E+04 0.  0.
        3    1    3    3  502    0  0.11812526574E+04  0.49880221280E+03  0.56825061147E+03  0.14025228182E+04  0.10100000352E+00 0. -1.
       -3    1    3    3    0  502 -0.11812526574E+04 -0.49880221280E+03 -0.14826100547E+04  0.19601770513E+04  0.10100000352E+00 0.  1.
</event>
<event>
 5   0  0.1273980E-06  0.3183060E+04  0.7818609E-02  0.8193305E-01
       -1   -1    0    0    0  501  0.00000000000E+00  0.00000000000E+00  0.14909272534E+04  0.14909272534E+04  0.50400001928E-02 0. -1.
        1   -1    0    0  501    0  0.00000000000E+00  0.00000000000E+00 -0.16989206972E+04  0.16989206972E+04  0.50400001928E-02 0.  1.
    10030    2    1    2    0    0  0.00000000000E+00  0.00000000000E+00 -0.20799344380E+03  0.31898479506E+04  0.31830596405E+04 0.  0.
        4    1    3    3  502    0 -0.74721487769E+03  0.20131223059E+03 -0.14976850545E+04  0.16857991645E+04  0.12699999809E+01 0.  1.
       -4    1    3    3    0  502  0.74721487769E+03 -0.20131223059E+03  0.12896916107E+04  0.15040487861E+04  0.12699999809E+01 0. -1.
</event>
<event>
 5   0  0.3531437E-06  0.3178545E+04  0.7818609E-02  0.8194507E-01
       -2   -1    0    0    0  501  0.00000000000E+00  0.00000000000E+00  0.89448941180E+03  0.89448941181E+03  0.25500000920E-02 0. -1.
        2   -1    0    0  501    0  0.00000000000E+00  0.00000000000E+00 -0.28237187309E+04  0.28237187309E+04  0.25500000920E-02 0.  1.
    10030    2    1    2    0    0  0.00000000000E+00  0.00000000000E+00 -0.19292293191E+04  0.37182081427E+04  0.31785446398E+04 0.  0.
        1    1    3    3  502    0  0.36211579276E+03 -0.11681126138E+04 -0.21519138318E+04  0.24751460695E+04  0.50400001928E-02 0.  1.
       -1    1    3    3    0  502 -0.36211579276E+03  0.11681126138E+04  0.22268451266E+03  0.12430620733E+04  0.50400001928E-02 0. -1.
</event>
<event>
 5   0  0.1240725E-06  0.3206313E+04  0.7818609E-02  0.8187152E-01
        1   -1    0    0  501    0  0.00000000000E+00  0.00000000000E+00  0.89230919446E+03  0.89230919448E+03  0.50400001928E-02 0.  1.
       -1   -1    0    0    0  501  0.00000000000E+00  0.00000000000E+00 -0.28802917327E+04  0.28802917327E+04  0.50400001928E-02 0. -1.
    10030    2    1    2    0    0  0.00000000000E+00  0.00000000000E+00 -0.19879825382E+04  0.37726009272E+04  0.32063130202E+04 0.  0.
        3    1    3    3  502    0  0.82048361858E+03 -0.75562834061E+03 -0.23488606039E+04  0.26002526232E+04  0.10100000352E+00 0. -1.
       -3    1    3    3    0  502 -0.82048361858E+03  0.75562834061E+03  0.36087806566E+03  0.11723483040E+04  0.10100000352E+00 0.  1.
</event>
<event>
 5   0  0.3497546E-06  0.2646328E+04  0.7818609E-02  0.8352633E-01
       -2   -1    0    0    0  501  0.00000000000E+00  0.00000000000E+00  0.75421636374E+03  0.75421636375E+03  0.25500000920E-02 0.  1.
        2   -1    0    0  501    0  0.00000000000E+00  0.00000000000E+00 -0.23213002327E+04  0.23213002327E+04  0.25500000920E-02 0. -1.
    10030    2    1    2    0    0  0.00000000000E+00  0.00000000000E+00 -0.15670838689E+04  0.30755165964E+04  0.26463277353E+04 0.  0.
        4    1    3    3  502    0  0.96306672311E+03  0.77010171485E+03 -0.22592807278E+03  0.12536344249E+04  0.12699999809E+01 0.  1.
       -4    1    3    3    0  502 -0.96306672311E+03 -0.77010171485E+03 -0.13411557962E+04  0.18218821715E+04  0.12699999809E+01 0. -1.
</event>
<event>
 5   0  0.3497546E-06  0.3118401E+04  0.7818609E-02  0.8210706E-01
       -2   -1    0    0    0  501  0.00000000000E+00  0.00000000000E+00  0.15945415231E+04  0.15945415231E+04  0.25500000920E-02 0.  1.
        2   -1    0    0  501    0  0.00000000000E+00  0.00000000000E+00 -0.15246426920E+04  0.15246426920E+04  0.25500000920E-02 0. -1.
    10030    2    1    2    0    0  0.00000000000E+00  0.00000000000E+00  0.69898831152E+02  0.31191842151E+04  0.31184009237E+04 0.  0.
        4    1    3    3  502    0 -0.43732807020E+03  0.14293369317E+04  0.47873254127E+03  0.15695369905E+04  0.12699999809E+01 0.  1.
       -4    1    3    3    0  502  0.43732807020E+03 -0.14293369317E+04 -0.40883371012E+03  0.15496472246E+04  0.12699999809E+01 0. -1.
</event>
<event>
 5   0  0.3745943E-06  0.2816172E+04  0.7818609E-02  0.8298265E-01
        2   -1    0    0  501    0  0.00000000000E+00  0.00000000000E+00  0.19998241667E+04  0.19998241667E+04  0.25500000920E-02 0. -1.
       -2   -1    0    0    0  501  0.00000000000E+00  0.00000000000E+00 -0.99144009095E+03  0.99144009095E+03  0.25500000920E-02 0.  1.
    10030    2    1    2    0    0  0.00000000000E+00  0.00000000000E+00  0.10083840758E+04  0.29912642577E+04  0.28161717659E+04 0.  0.
        5    1    3    3  502    0  0.11578285414E+04  0.53343111840E+03 -0.13095607117E+03  0.12815175660E+04  0.46999998093E+01 0.  1.
       -5    1    3    3    0  502 -0.11578285414E+04 -0.53343111840E+03  0.11393401470E+04  0.17097466917E+04  0.46999998093E+01 0. -1.
</event>
<event>
 5   0  0.3758062E-06  0.3075471E+04  0.7818609E-02  0.8222502E-01
       -2   -1    0    0    0  501  0.00000000000E+00  0.00000000000E+00  0.92588381619E+03  0.92588381620E+03  0.25500000920E-02 0. -1.
        2   -1    0    0  501    0  0.00000000000E+00  0.00000000000E+00 -0.25539163572E+04  0.25539163572E+04  0.25500000920E-02 0.  1.
    10030    2    1    2    0    0  0.00000000000E+00  0.00000000000E+00 -0.16280325410E+04  0.34798001734E+04  0.30754705806E+04 0.  0.
        2    1    3    3  502    0  0.44854324578E+03 -0.43960768114E+02 -0.24775092575E+04  0.25181691193E+04  0.25500000920E-02 0.  1.
       -2    1    3    3    0  502 -0.44854324578E+03  0.43960768114E+02  0.84947671645E+03  0.96163105413E+03  0.25500000920E-02 0. -1.
</event>
<event>
 5   0  0.3656086E-06  0.3187998E+04  0.7818609E-02  0.8191994E-01
       -2   -1    0    0    0  501  0.00000000000E+00  0.00000000000E+00  0.19219053845E+04  0.19219053845E+04  0.25500000920E-02 0.  1.
        2   -1    0    0  501    0  0.00000000000E+00  0.00000000000E+00 -0.13220384510E+04  0.13220384510E+04  0.25500000920E-02 0. -1.
    10030    2    1    2    0    0  0.00000000000E+00  0.00000000000E+00  0.59986693353E+03  0.32439438355E+04  0.31879980034E+04 0.  0.
        3    1    3    3  502    0  0.12225168860E+04  0.37637871374E+03 -0.66787500346E+03  0.14430057184E+04  0.10100000352E+00 0. -1.
       -3    1    3    3    0  502 -0.12225168860E+04 -0.37637871374E+03  0.12677419370E+04  0.18009381171E+04  0.10100000352E+00 0.  1.
</event>
<event>
 5   0  0.3656086E-06  0.3136474E+04  0.7818609E-02  0.8205799E-01
       -2   -1    0    0    0  501  0.00000000000E+00  0.00000000000E+00  0.14682227232E+04  0.14682227232E+04  0.25500000920E-02 0. -1.
        2   -1    0    0  501    0  0.00000000000E+00  0.00000000000E+00 -0.16750647017E+04  0.16750647017E+04  0.25500000920E-02 0.  1.
    10030    2    1    2    0    0  0.00000000000E+00  0.00000000000E+00 -0.20684197855E+03  0.31432874249E+04  0.31364744908E+04 0.  0.
        3    1    3    3  502    0 -0.13313561902E+04  0.11267246745E+03  0.71943721556E+03  0.15174960650E+04  0.10100000352E+00 0. -1.
       -3    1    3    3    0  502  0.13313561902E+04 -0.11267246745E+03 -0.92627919411E+03  0.16257913598E+04  0.10100000352E+00 0.  1.
</event>
<event>
 5   0  0.3758062E-06  0.3178566E+04  0.7818609E-02  0.8194501E-01
        2   -1    0    0  501    0  0.00000000000E+00  0.00000000000E+00  0.11737582517E+04  0.11737582517E+04  0.25500000920E-02 0.  1.
       -2   -1    0    0    0  501  0.00000000000E+00  0.00000000000E+00 -0.21519086673E+04  0.21519086673E+04  0.25500000920E-02 0. -1.
    10030    2    1    2    0    0  0.00000000000E+00  0.00000000000E+00 -0.97815041560E+03  0.33256669189E+04  0.31785660635E+04 0.  0.
        2    1    3    3  502    0 -0.12754955706E+04  0.55836982915E+02  0.50120110531E+03  0.13715718236E+04  0.25500000920E-02 0.  1.
       -2    1    3    3    0  502  0.12754955706E+04 -0.55836982915E+02 -0.14793515209E+04  0.19540950954E+04  0.25500000920E-02 0. -1.
</event>
<event>
 5   0  0.3745943E-06  0.3057578E+04  0.7818609E-02  0.8227478E-01
       -2   -1    0    0    0  501  0.00000000000E+00  0.00000000000E+00  0.11451783324E+04  0.11451783324E+04  0.25500000920E-02 0.  1.
        2   -1    0    0  501    0  0.00000000000E+00  0.00000000000E+00 -0.20409016005E+04  0.20409016005E+04  0.25500000920E-02 0. -1.
    10030    2    1    2    0    0  0.00000000000E+00  0.00000000000E+00 -0.89572326812E+03  0.31860799329E+04  0.30575783172E+04 0.  0.
        5    1    3    3  502    0  0.15151525031E+04 -0.12192462674E+03 -0.61787973869E+03  0.16408382564E+04  0.46999998093E+01 0. -1.
       -5    1    3    3    0  502 -0.15151525031E+04  0.12192462674E+03 -0.27784352943E+03  0.15452416766E+04  0.46999998093E+01 0.  1.
</event>
<event>
 5   0  0.3656086E-06  0.3179889E+04  0.7818609E-02  0.8194149E-01
        2   -1    0    0  501    0  0.00000000000E+00  0.00000000000E+00  0.17031385209E+04  0.17031385209E+04  0.25500000920E-02 0. -1.
       -2   -1    0    0    0  501  0.00000000000E+00  0.00000000000E+00 -0.14842738128E+04  0.14842738128E+04  0.25500000920E-02 0.  1.
    10030    2    1    2    0    0  0.00000000000E+00  0.00000000000E+00  0.21886470813E+03  0.31874123338E+04  0.31798892473E+04 0.  0.
        3    1    3    3  502    0  0.47705276233E+02 -0.15815378055E+04 -0.47098143449E+02  0.15829579492E+04  0.10100000352E+00 0.  1.
       -3    1    3    3    0  502 -0.47705276233E+02  0.15815378055E+04  0.26596285158E+03  0.16044543846E+04  0.10100000352E+00 0. -1.
</event>
<event>
 5   0  0.1273980E-06  0.3197041E+04  0.7818609E-02  0.8189599E-01
       -1   -1    0    0    0  501  0.00000000000E+00  0.00000000000E+00  0.11686822255E+04  0.11686822255E+04  0.50400001928E-02 0. -1.
        1   -1    0    0  501    0  0.00000000000E+00  0.00000000000E+00 -0.21864516931E+04  0.21864516931E+04  0.50400001928E-02 0.  1.
    10030    2    1    2    0    0  0.00000000000E+00  0.00000000000E+00 -0.10177694676E+04  0.33551339185E+04  0.31970406507E+04 0.  0.
        4    1    3    3  502    0 -0.40911010766E+03  0.15100652196E+04 -0.16464346601E+03  0.15731424384E+04  0.12699999809E+01 0. -1.
       -4    1    3    3    0  502  0.40911010766E+03 -0.15100652196E+04 -0.85312600162E+03  0.17819914801E+04  0.12699999809E+01 0.  1.
</event>
<event>
 5   0  0.3531437E-06  0.3256317E+04  0.7818609E-02  0.8174100E-01
        2   -1    0    0  501    0  0.00000000000E+00  0.00000000000E+00  0.16107830263E+04  0.16107830263E+04  0.25500000920E-02 0.  1.
       -2   -1    0    0    0  501  0.00000000000E+00  0.00000000000E+00 -0.16457217269E+04  0.16457217269E+04  0.25500000920E-02 0. -1.
    10030    2    1    2    0    0  0.00000000000E+00  0.00000000000E+00 -0.34938700626E+02  0.32565047532E+04  0.32563173210E+04 0.  0.
        1    1    3    3  502    0 -0.11910816710E+04 -0.40754584343E+03  0.10151265038E+04  0.16171737631E+04  0.50400001928E-02 0.  1.
       -1    1    3    3    0  502  0.11910816710E+04  0.40754584343E+03 -0.10500652044E+04  0.16393309901E+04  0.50400001928E-02 0. -1.
</event>
<event>
 5   0  0.3758062E-06  0.3006731E+04  0.7818609E-02  0.8241811E-01
       -2   -1    0    0    0  501  0.00000000000E+00  0.00000000000E+00  0.16716030588E+04  0.16716030588E+04  0.25500000920E-02 0. -1.
        2   -1    0    0  501    0  0.00000000000E+00  0.00000000000E+00 -0.13520603071E+04  0.13520603071E+04  0.25500000920E-02 0.  1.
    10030    2    1    2    0    0  0.00000000000E+00  0.00000000000E+00  0.31954275171E+03  0.30236633660E+04  0.30067312119E+04 0.  0.
        2    1    3    3  502    0 -0.98550966100E+03 -0.98987812036E+03  0.71879767405E+03  0.15709099533E+04  0.25500000920E-02 0. -1.
       -2    1    3    3    0  502  0.98550966100E+03  0.98987812036E+03 -0.39925492233E+03  0.14527534127E+04  0.25500000920E-02 0.  1.
</event>
<event>
 5   0  0.1273754E-06  0.3212028E+04  0.7818609E-02  0.8185648E-01
        1   -1    0    0  501    0  0.00000000000E+00  0.00000000000E+00  0.18925370880E+04  0.18925370880E+04  0.50400001928E-02 0. -1.
       -1   -1    0    0    0  501  0.00000000000E+00  0.00000000000E+00 -0.13628698092E+04  0.13628698092E+04  0.50400001928E-02 0.  1.
    10030    2    1    2    0    0  0.00000000000E+00  0.00000000000E+00  0.52966727883E+03  0.32554068972E+04  0.32120284308E+04 0.  0.
        2    1    3    3  502    0  0.10695770459E+04 -0.61291859023E+03  0.13081125782E+04  0.17974489625E+04  0.25500000920E-02 0. -1.
       -2    1    3    3    0  502 -0.10695770459E+04  0.61291859023E+03 -0.77844529934E+03  0.14579579348E+04  0.25500000920E-02 0.  1.
</event>
<event>
 5   0  0.3745943E-06  0.3161145E+04  0.7818609E-02  0.8199155E-01
       -2   -1    0    0    0  501  0.00000000000E+00  0.00000000000E+00  0.11126029828E+04  0.11126029828E+04  0.25500000920E-02 0.  1.
        2   -1    0    0  501    0  0.00000000000E+00  0.00000000000E+00 -0.22453736057E+04  0.22453736057E+04  0.25500000920E-02 0. -1.
    10030    2    1    2    0    0  0.00000000000E+00  0.00000000000E+00 -0.11327706229E+04  0.33579765884E+04  0.31611449642E+04 0.  0.
        5    1    3    3  502    0  0.13529329659E+04 -0.20621729171E+03 -0.14063375264E+04  0.19623354733E+04  0.46999998093E+01 0. -1.
       -5    1    3    3    0  502 -0.13529329659E+04  0.20621729171E+03  0.27356690347E+03  0.13956411152E+04  0.46999998093E+01 0.  1.
</event>
<event>
 5   0  0.1240725E-06  0.3138793E+04  0.7818609E-02  0.8205171E-01
       -1   -1    0    0    0  501  0.00000000000E+00  0.00000000000E+00  0.13108132151E+04  0.13108132151E+04  0.50400001928E-02 0. -1.
        1   -1    0    0  501    0  0.00000000000E+00  0.00000000000E+00 -0.18789906332E+04  0.18789906332E+04  0.50400001928E-02 0.  1.
    10030    2    1    2    0    0  0.00000000000E+00  0.00000000000E+00 -0.56817741809E+03  0.31898038483E+04  0.31387932414E+04 0.  0.
        3    1    3    3  502    0  0.11940150190E+04 -0.11550495500E+03  0.74428189317E+03  0.14117254715E+04  0.10100000352E+00 0. -1.
       -3    1    3    3    0  502 -0.11940150190E+04  0.11550495500E+03 -0.13124593113E+04  0.17780783768E+04  0.10100000352E+00 0.  1.
</event>
<event>
 5   0  0.1240725E-06  0.3235052E+04  0.7818609E-02  0.8179621E-01
        1   -1    0    0  501    0  0.00000000000E+00  0.00000000000E+00  0.25713676842E+04  0.25713676843E+04  0.50400001928E-02 0.  1.
       -1   -1    0    0    0  501  0.00000000000E+00  0.00000000000E+00 -0.10175093869E+04  0.10175093869E+04  0.50400001928E-02 0. -1.
    10030    2    1    2    0    0  0.00000000000E+00  0.00000000000E+00  0.15538582973E+04  0.35888770712E+04  0.32350522444E+04 0.  0.
        3    1    3    3  502    0 -0.13627515102E+04 -0.54936010518E+03  0.26561606591E+02  0.14695556243E+04  0.10100000352E+00 0. -1.
       -3    1    3    3    0  502  0.13627515102E+04  0.54936010518E+03  0.15272966907E+04  0.21193214469E+04  0.10100000352E+00 0.  1.
</event>
<event>
 5   0  0.1273980E-06  0.3141670E+04  0.7818609E-02  0.8204394E-01
        1   -1    0    0  501    0  0.00000000000E+00  0.00000000000E+00  0.22887343551E+04  0.22887343551E+04  0.50400001928E-02 0. -1.
       -1   -1    0    0    0  501  0.00000000000E+00  0.00000000000E+00 -0.10781165062E+04  0.10781165062E+04  0.50400001928E-02 0.  1.
    10030    2    1    2    0    0  0.00000000000E+00  0.00000000000E+00  0.12106178489E+04  0.33668508614E+04  0.31416698023E+04 0.  0.
        4    1    3    3  502    0 -0.79079138346E+03 -0.90660810067E+03  0.16877709944E+04  0.20726460872E+04  0.12699999809E+01 0. -1.
       -4    1    3    3    0  502  0.79079138346E+03  0.90660810067E+03 -0.47715314548E+03  0.12942047742E+04  0.12699999809E+01 0.  1.
</event>
<event>
 5   0  0.3497546E-06  0.3122410E+04  0.7818609E-02  0.8209615E-01
        2   -1    0    0  501    0  0.00000000000E+00  0.00000000000E+00  0.17767066486E+04  0.17767066486E+04  0.25500000920E-02 0.  1.
       -2   -1    0    0    0  501  0.00000000000E+00  0.00000000000E+00 -0.13718417621E+04  0.13718417621E+04  0.25500000920E-02 0. -1.
    10030    2    1    2    0    0  0.00000000000E+00  0.00000000000E+00  0.40486488646E+03  0.31485484108E+04  0.31224095693E+04 0.  0.
        4    1    3    3  502    0  0.45452397252E+03 -0.31717384634E+03  0.16741598610E+04  0.17635203837E+04  0.12699999809E+01 0.  1.
       -4    1    3    3    0  502 -0.45452397252E+03  0.31717384634E+03 -0.12692949746E+04  0.13850280271E+04  0.12699999809E+01 0. -1.
</event>
<event>
 5   0  0.3758062E-06  0.3219979E+04  0.7818609E-02  0.8183561E-01
       -2   -1    0    0    0  501  0.00000000000E+00  0.00000000000E+00  0.15879669715E+04  0.15879669715E+04  0.25500000920E-02 0.  1.
        2   -1    0    0  501    0  0.00000000000E+00  0.00000000000E+00 -0.16323174164E+04  0.16323174164E+04  0.25500000920E-02 0. -1.
    10030    2    1    2    0    0  0.00000000000E+00  0.00000000000E+00 -0.44350444944E+02  0.32202843879E+04  0.32199789715E+04 0.  0.
        2    1    3    3  502    0  0.98867792835E+03  0.79584638924E+02  0.12461123964E+04  0.15926750658E+04  0.25500000920E-02 0.  1.
       -2    1    3    3    0  502 -0.98867792835E+03 -0.79584638924E+02 -0.12904628413E+04  0.16276093222E+04  0.25500000920E-02 0. -1.
</event>
<event>
 5   0  0.3497546E-06  0.3074439E+04  0.7818609E-02  0.8222788E-01
        2   -1    0    0  501    0  0.00000000000E+00  0.00000000000E+00  0.18092634942E+04  0.18092634942E+04  0.25500000920E-02 0.  1.
       -2   -1    0    0    0  501  0.00000000000E+00  0.00000000000E+00 -0.13060804480E+04  0.13060804480E+04  0.25500000920E-02 0. -1.
    10030    2    1    2    0    0  0.00000000000E+00  0.00000000000E+00  0.50318304621E+03  0.31153439423E+04  0.30744389245E+04 0.  0.
        4    1    3    3  502    0 -0.59910751647E+02 -0.13405641552E+04 -0.50827938218E+03  0.14349394049E+04  0.12699999809E+01 0. -1.
       -4    1    3    3    0  502  0.59910751647E+02  0.13405641552E+04  0.10114624284E+04  0.16804045374E+04  0.12699999809E+01 0.  1.
</event>
<event>
 5   0  0.3531437E-06  0.3199047E+04  0.7818609E-02  0.8189069E-01
        2   -1    0    0  501    0  0.00000000000E+00  0.00000000000E+00  0.13405508146E+04  0.13405508146E+04  0.25500000920E-02 0.  1.
       -2   -1    0    0    0  501  0.00000000000E+00  0.00000000000E+00 -0.19085249209E+04  0.19085249209E+04  0.25500000920E-02 0. -1.
    10030    2    1    2    0    0  0.00000000000E+00  0.00000000000E+00 -0.56797410634E+03  0.32490757355E+04  0.31990465063E+04 0.  0.
        1    1    3    3  502    0 -0.12405338898E+04  0.45146881841E+03 -0.12012872568E+04  0.17848920133E+04  0.50400001928E-02 0. -1.
       -1    1    3    3    0  502  0.12405338898E+04 -0.45146881841E+03  0.63331315042E+03  0.14641837222E+04  0.50400001928E-02 0.  1.
</event>
<event>
 5   0  0.3656086E-06  0.3217821E+04  0.7818609E-02  0.8184126E-01
       -2   -1    0    0    0  501  0.00000000000E+00  0.00000000000E+00  0.16112262374E+04  0.16112262374E+04  0.25500000920E-02 0.  1.
        2   -1    0    0  501    0  0.00000000000E+00  0.00000000000E+00 -0.16065980754E+04  0.16065980754E+04  0.25500000920E-02 0. -1.
    10030    2    1    2    0    0  0.00000000000E+00  0.00000000000E+00  0.46281620887E+01  0.32178243128E+04  0.32178209845E+04 0.  0.
        3    1    3    3  502    0  0.30178881926E+03 -0.14199094254E+04 -0.69149762956E+03  0.16079142545E+04  0.10100000352E+00 0. -1.
       -3    1    3    3    0  502 -0.30178881926E+03  0.14199094254E+04  0.69612579165E+03  0.16099100583E+04  0.10100000352E+00 0.  1.
</event>
<event>
 5   0  0.1268836E-06  0.3253819E+04  0.7818609E-02  0.8174746E-01
       -1   -1    0    0    0  501  0.00000000000E+00  0.00000000000E+00  0.17365621725E+04  0.17365621725E+04  0.50400001928E-02 0. -1.
        1   -1    0    0  501    0  0.00000000000E+00  0.00000000000E+00 -0.15241809520E+04  0.15241809521E+04  0.50400001928E-02 0.  1.
    10030    2    1    2    0    0  0.00000000000E+00  0.00000000000E+00  0.21238122044E+03  0.32607431245E+04  0.32538192853E+04 0.  0.
        1    1    3    3  502    0  0.10032202217E+04 -0.17605262775E+03 -0.11651261123E+04  0.15475671871E+04  0.50400001928E-02 0.  1.
       -1    1    3    3    0  502 -0.10032202217E+04  0.17605262775E+03  0.13775073328E+04  0.17131759375E+04  0.50400001928E-02 0. -1.
</event>
<event>
 5   0  0.3758062E-06  0.3144024E+04  0.7818609E-02  0.8203759E-01
        2   -1    0    0  501    0  0.00000000000E+00  0.00000000000E+00  0.19016863165E+04  0.19016863165E+04  0.25500000920E-02 0. -1.
       -2   -1    0    0    0  501  0.00000000000E+00  0.00000000000E+00 -0.12994896147E+04  0.12994896147E+04  0.25500000920E-02 0.  1.
    10030    2    1    2    0    0  0.00000000000E+00  0.00000000000E+00  0.60219670183E+03  0.32011759312E+04  0.31440239304E+04 0.  0.
        2    1    3    3  502    0 -0.87933835495E+02 -0.45768901504E+03  0.18297256864E+04  0.18881492742E+04  0.25500000920E-02 0. -1.
       -2    1    3    3    0  502  0.87933835495E+02  0.45768901504E+03 -0.12275289846E+04  0.13130266570E+04  0.25500000920E-02 0.  1.
</event>
<event>
 5   0  0.1273754E-06  0.3199768E+04  0.7818609E-02  0.8188879E-01
       -1   -1    0    0    0  501  0.00000000000E+00  0.00000000000E+00  0.77673004384E+03  0.77673004386E+03  0.50400001928E-02 0.  1.
        1   -1    0    0  501    0  0.00000000000E+00  0.00000000000E+00 -0.32953894843E+04  0.32953894843E+04  0.50400001928E-02 0. -1.
    10030    2    1    2    0    0  0.00000000000E+00  0.00000000000E+00 -0.25186594404E+04  0.40721195281E+04  0.31997675032E+04 0.  0.
        2    1    3    3  502    0 -0.82521060762E+02 -0.14603670777E+04 -0.43442771141E+03  0.15258470315E+04  0.25500000920E-02 0.  1.
       -2    1    3    3    0  502  0.82521060762E+02  0.14603670777E+04 -0.20842317290E+04  0.25462724966E+04  0.25500000920E-02 0. -1.
</event>
<event>
 5   0  0.3497546E-06  0.3162840E+04  0.7818609E-02  0.8198701E-01
        2   -1    0    0  501    0  0.00000000000E+00  0.00000000000E+00  0.19586552027E+04  0.19586552027E+04  0.25500000920E-02 0. -1.
       -2   -1    0    0    0  501  0.00000000000E+00  0.00000000000E+00 -0.12768396284E+04  0.12768396284E+04  0.25500000920E-02 0.  1.
    10030    2    1    2    0    0  0.00000000000E+00  0.00000000000E+00  0.68181557429E+03  0.32354948311E+04  0.31628395984E+04 0.  0.
        4    1    3    3  502    0 -0.10339040748E+03  0.11492021430E+04 -0.76538368658E+03  0.13846186993E+04  0.12699999809E+01 0.  1.
       -4    1    3    3    0  502  0.10339040748E+03 -0.11492021430E+04  0.14471992609E+04  0.18508761318E+04  0.12699999809E+01 0. -1.
</event>
<event>
 5   0  0.3497546E-06  0.2954799E+04  0.7818609E-02  0.8256757E-01
       -2   -1    0    0    0  501  0.00000000000E+00  0.00000000000E+00  0.11488117280E+04  0.11488117280E+04  0.25500000920E-02 0.  1.
        2   -1    0    0  501    0  0.00000000000E+00  0.00000000000E+00 -0.18999715624E+04  0.18999715624E+04  0.25500000920E-02 0. -1.
    10030    2    1    2    0    0  0.00000000000E+00  0.00000000000E+00 -0.75115983443E+03  0.30487832904E+04  0.29547992241E+04 0.  0.
        4    1    3    3  502    0  0.11249035118E+04  0.43588112853E+03  0.50436944615E+03  0.13075895458E+04  0.12699999809E+01 0.  1.
       -4    1    3    3    0  502 -0.11249035118E+04 -0.43588112853E+03 -0.12555292806E+04  0.17411937446E+04  0.12699999809E+01 0. -1.
</event>
<event>
 5   0  0.1268836E-06  0.3220687E+04  0.7818609E-02  0.8183375E-01
       -1   -1    0    0    0  501  0.00000000000E+00  0.00000000000E+00  0.19902430832E+04  0.19902430832E+04  0.50400001928E-02 0.  1.
        1   -1    0    0  501    0  0.00000000000E+00  0.00000000000E+00 -0.13029597117E+04  0.13029597117E+04  0.50400001928E-02 0. -1.
    10030    2    1    2    0    0  0.00000000000E+00  0.00000000000E+00  0.68728337150E+03  0.32932027950E+04  0.32206872273E+04 0.  0.
        1    1    3    3  502    0 -0.11725805749E+04  0.10764107606E+04  0.94011262328E+02  0.15945041385E+04  0.50400001928E-02 0.  1.
       -1    1    3    3    0  502  0.11725805749E+04 -0.10764107606E+04  0.59327210917E+03  0.16986986565E+04  0.50400001928E-02 0. -1.
</event>
<event>
 5   0  0.1240725E-06  0.3185852E+04  0.7818609E-02  0.8192564E-01
       -1   -1    0    0    0  501  0.00000000000E+00  0.00000000000E+00  0.10391190826E+04  0.10391190826E+04  0.50400001928E-02 0. -1.
        1   -1    0    0  501    0  0.00000000000E+00  0.00000000000E+00 -0.24418893964E+04  0.24418893964E+04  0.50400001928E-02 0.  1.
    10030    2    1    2    0    0  0.00000000000E+00  0.00000000000E+00 -0.14027703138E+04  0.34810084790E+04  0.31858523942E+04 0.  0.
        3    1    3    3  502    0  0.90726476217E+03 -0.44377338218E+03  0.64454421820E+03  0.11981241266E+04  0.10100000352E+00 0. -1.
       -3    1    3    3    0  502 -0.90726476217E+03  0.44377338218E+03 -0.20473145320E+04  0.22828843524E+04  0.10100000352E+00 0.  1.
</event>
<event>
 5   0  0.3656086E-06  0.3060621E+04  0.7818609E-02  0.8226629E-01
        2   -1    0    0  501    0  0.00000000000E+00  0.00000000000E+00  0.18140646594E+04  0.18140646594E+04  0.25500000920E-02 0. -1.
       -2   -1    0    0    0  501  0.00000000000E+00  0.00000000000E+00 -0.12909411611E+04  0.12909411611E+04  0.25500000920E-02 0.  1.
    10030    2    1    2    0    0  0.00000000000E+00  0.00000000000E+00  0.52312349823E+03  0.31050058205E+04  0.30606213342E+04 0.  0.
        3    1    3    3  502    0 -0.41776857651E+03  0.91100597030E+03  0.14347874596E+04  0.17501649996E+04  0.10100000352E+00 0. -1.
       -3    1    3    3    0  502  0.41776857651E+03 -0.91100597030E+03 -0.91166396134E+03  0.13548408209E+04  0.10100000352E+00 0.  1.
</event>
<event>
 5   0  0.1306843E-06  0.2913744E+04  0.7818609E-02  0.8268800E-01
       -1   -1    0    0    0  501  0.00000000000E+00  0.00000000000E+00  0.18167001329E+04  0.18167001329E+04  0.50400001928E-02 0. -1.
        1   -1    0    0  501    0  0.00000000000E+00  0.00000000000E+00 -0.11683140238E+04  0.11683140239E+04  0.50400001928E-02 0.  1.
    10030    2    1    2    0    0  0.00000000000E+00  0.00000000000E+00  0.64838610902E+03  0.29850141567E+04  0.29137441496E+04 0.  0.
        5    1    3    3  502    0  0.16773041537E+03 -0.13731945301E+04  0.79215649001E+03  0.15941551695E+04  0.46999998093E+01 0. -1.
       -5    1    3    3    0  502 -0.16773041537E+03  0.13731945301E+04 -0.14377038099E+03  0.13908589872E+04  0.46999998093E+01 0.  1.
</event>
<event>
 5   0  0.1273980E-06  0.3008307E+04  0.7818609E-02  0.8241363E-01
        1   -1    0    0  501    0  0.00000000000E+00  0.00000000000E+00  0.13713982761E+04  0.13713982761E+04  0.50400001928E-02 0.  1.
       -1   -1    0    0    0  501  0.00000000000E+00  0.00000000000E+00 -0.16497595260E+04  0.16497595260E+04  0.50400001928E-02 0. -1.
    10030    2    1    2    0    0  0.00000000000E+00  0.00000000000E+00 -0.27836124986E+03  0.30211578021E+04  0.30083067463E+04 0.  0.
        4    1    3    3  502    0  0.75156350402E+03 -0.86022682739E+03  0.84358950145E+03  0.14200291388E+04  0.12699999809E+01 0.  1.
       -4    1    3    3    0  502 -0.75156350402E+03  0.86022682739E+03 -0.11219507513E+04  0.16011286633E+04  0.12699999809E+01 0. -1.
</event>
<event>
 5   0  0.3497546E-06  0.3197682E+04  0.7818609E-02  0.8189430E-01
       -2   -1    0    0    0  501  0.00000000000E+00  0.00000000000E+00  0.19631474229E+04  0.19631474229E+04  0.25500000920E-02 0.  1.
        2   -1    0    0  501    0  0.00000000000E+00  0.00000000000E+00 -0.13021400717E+04  0.13021400717E+04  0.25500000920E-02 0. -1.
    10030    2    1    2    0    0  0.00000000000E+00  0.00000000000E+00  0.66100735117E+03  0.32652874946E+04  0.31976822394E+04 0.  0.
        4    1    3    3  502    0  0.59834625371E+03  0.14671512968E+04  0.11211259698E+03  0.15884338244E+04  0.12699999809E+01 0. -1.
       -4    1    3    3    0  502 -0.59834625371E+03 -0.14671512968E+04  0.54889475419E+03  0.16768536702E+04  0.12699999809E+01 0.  1.
</event>
<event>
 5   0  0.3531437E-06  0.3239937E+04  0.7818609E-02  0.8178349E-01
        2   -1    0    0  501    0  0.00000000000E+00  0.00000000000E+00  0.28622902554E+04  0.28622902554E+04  0.25500000920E-02 0.  1.
       -2   -1    0    0    0  501  0.00000000000E+00  0.00000000000E+00 -0.91685265880E+03  0.91685265881E+03  0.25500000920E-02 0. -1.
    10030    2    1    2    0    0  0.00000000000E+00  0.00000000000E+00  0.19454375966E+04  0.37791429142E+04  0.32399373024E+04 0.  0.
        1    1    3    3  502    0  0.31694369595E+02  0.57099678631E+03  0.27406341239E+04  0.27996637770E+04  0.50400001928E-02 0.  1.
       -1    1    3    3    0  502 -0.31694369595E+02 -0.57099678631E+03 -0.79519652735E+03  0.97947913718E+03  0.50400001928E-02 0. -1.
</event>
<event>
 5   0  0.1273754E-06  0.3204319E+04  0.7818609E-02  0.8187677E-01
        1   -1    0    0  501    0  0.00000000000E+00  0.00000000000E+00  0.16214271652E+04  0.16214271652E+04  0.50400001928E-02 0. -1.
       -1   -1    0    0    0  501  0.00000000000E+00  0.00000000000E+00 -0.15831207990E+04  0.15831207990E+04  0.50400001928E-02 0.  1.
    10030    2    1    2    0    0  0.00000000000E+00  0.00000000000E+00  0.38306366197E+02  0.32045479642E+04  0.32043190037E+04 0.  0.
        2    1    3    3  502    0  0.69641384666E+03  0.12504064059E+04 -0.70090287750E+03  0.15936666118E+04  0.25500000920E-02 0. -1.
       -2    1    3    3    0  502 -0.69641384666E+03 -0.12504064059E+04  0.73920924370E+03  0.16108813525E+04  0.25500000920E-02 0.  1.
</event>
<event>
 5   0  0.3758062E-06  0.3179982E+04  0.7818609E-02  0.8194124E-01
       -2   -1    0    0    0  501  0.00000000000E+00  0.00000000000E+00  0.17970242548E+04  0.17970242548E+04  0.25500000920E-02 0. -1.
        2   -1    0    0  501    0  0.00000000000E+00  0.00000000000E+00 -0.14068099242E+04  0.14068099242E+04  0.25500000920E-02 0.  1.
    10030    2    1    2    0    0  0.00000000000E+00  0.00000000000E+00  0.39021433058E+03  0.32038341791E+04  0.31799821105E+04 0.  0.
        2    1    3    3  502    0  0.62407922909E+03 -0.34920043315E+02  0.16680501825E+04  0.17813157230E+04  0.25500000920E-02 0. -1.
       -2    1    3    3    0  502 -0.62407922909E+03  0.34920043315E+02 -0.12778358519E+04  0.14225184561E+04  0.25500000920E-02 0.  1.
</event>
<event>
 5   0  0.3531437E-06  0.3209355E+04  0.7818609E-02  0.8186351E-01
       -2   -1    0    0    0  501  0.00000000000E+00  0.00000000000E+00  0.15682145593E+04  0.15682145593E+04  0.25500000920E-02 0. -1.
        2   -1    0    0  501    0  0.00000000000E+00  0.00000000000E+00 -0.16419878857E+04  0.16419878857E+04  0.25500000920E-02 0.  1.
    10030    2    1    2    0    0  0.00000000000E+00  0.00000000000E+00 -0.73773326383E+02  0.32102024451E+04  0.32093546446E+04 0.  0.
        1    1    3    3  502    0 -0.41672754105E+03  0.10448154073E+04 -0.11816050871E+04  0.16314078768E+04  0.50400001928E-02 0.  1.
       -1    1    3    3    0  502  0.41672754105E+03 -0.10448154073E+04  0.11078317607E+04  0.15787945683E+04  0.50400001928E-02 0. -1.
</event>
<event>
 5   0  0.3656086E-06  0.2969377E+04  0.7818609E-02  0.8252530E-01
        2   -1    0    0  501    0  0.00000000000E+00  0.00000000000E+00  0.19627840559E+04  0.19627840559E+04  0.25500000920E-02 0.  1.
       -2   -1    0    0    0  501  0.00000000000E+00  0.00000000000E+00 -0.11230478026E+04  0.11230478026E+04  0.25500000920E-02 0. -1.
    10030    2    1    2    0    0  0.00000000000E+00  0.00000000000E+00  0.83973625322E+03  0.30858318585E+04  0.29693772553E+04 0.  0.
        3    1    3    3  502    0  0.10856212923E+04  0.76810595539E+02 -0.62960205221E+03  0.12573274085E+04  0.10100000352E+00 0. -1.
       -3    1    3    3    0  502 -0.10856212923E+04 -0.76810595539E+02  0.14693383054E+04  0.18285044500E+04  0.10100000352E+00 0.  1.
</event>
<event>
 5   0  0.3758062E-06  0.3207907E+04  0.7818609E-02  0.8186732E-01
        2   -1    0    0  501    0  0.00000000000E+00  0.00000000000E+00  0.20853083560E+04  0.20853083560E+04  0.25500000920E-02 0.  1.
       -2   -1    0    0    0  501  0.00000000000E+00  0.00000000000E+00 -0.12337108717E+04  0.12337108717E+04  0.25500000920E-02 0. -1.
    10030    2    1    2    0    0  0.00000000000E+00  0.00000000000E+00  0.85159748436E+03  0.33190192277E+04  0.32079074735E+04 0.  0.
        2    1    3    3  502    0 -0.11655745375E+04  0.10731580896E+04  0.16727344682E+03  0.15931769185E+04  0.25500000920E-02 0. -1.
       -2    1    3    3    0  502  0.11655745375E+04 -0.10731580896E+04  0.68432403754E+03  0.17258423092E+04  0.25500000920E-02 0.  1.
</event>
<event>
 5   0  0.1306843E-06  0.3199820E+04  0.7818609E-02  0.8188865E-01
        1   -1    0    0  501    0  0.00000000000E+00  0.00000000000E+00  0.17267035218E+04  0.17267035218E+04  0.50400001928E-02 0. -1.
       -1   -1    0    0    0  501  0.00000000000E+00  0.00000000000E+00 -0.14824273789E+04  0.14824273789E+04  0.50400001928E-02 0.  1.
    10030    2    1    2    0    0  0.00000000000E+00  0.00000000000E+00  0.24427614288E+03  0.32091309008E+04  0.31998203550E+04 0.  0.
        5    1    3    3  502    0  0.12244912368E+04  0.84564267661E+03 -0.46710886071E+03  0.15597125066E+04  0.46999998093E+01 0.  1.
       -5    1    3    3    0  502 -0.12244912368E+04 -0.84564267661E+03  0.71138500359E+03  0.16494183941E+04  0.46999998093E+01 0. -1.
</event>
<event>
 5   0  0.3497546E-06  0.2380003E+04  0.7818609E-02  0.8447028E-01
       -2   -1    0    0    0  501  0.00000000000E+00  0.00000000000E+00  0.54757011394E+03  0.54757011395E+03  0.25500000920E-02 0. -1.
        2   -1    0    0  501    0  0.00000000000E+00  0.00000000000E+00 -0.25861589725E+04  0.25861589725E+04  0.25500000920E-02 0.  1.
    10030    2    1    2    0    0  0.00000000000E+00  0.00000000000E+00 -0.20385888586E+04  0.31337290865E+04  0.23800028263E+04 0.  0.
        4    1    3    3  502    0 -0.56613403904E+03  0.21631688076E+02 -0.23971891454E+04  0.24632281851E+04  0.12699999809E+01 0.  1.
       -4    1    3    3    0  502  0.56613403904E+03 -0.21631688076E+02  0.35860028685E+03  0.67050090136E+03  0.12699999809E+01 0. -1.
</event>
<event>
 5   0  0.1240725E-06  0.3199845E+04  0.7818609E-02  0.8188858E-01
        1   -1    0    0  501    0  0.00000000000E+00  0.00000000000E+00  0.13724876439E+04  0.13724876439E+04  0.50400001928E-02 0. -1.
       -1   -1    0    0    0  501  0.00000000000E+00  0.00000000000E+00 -0.18650459708E+04  0.18650459708E+04  0.50400001928E-02 0.  1.
    10030    2    1    2    0    0  0.00000000000E+00  0.00000000000E+00 -0.49255832691E+03  0.32375336147E+04  0.31998453401E+04 0.  0.
        3    1    3    3  502    0  0.12263257007E+04 -0.10230547467E+04 -0.14903890778E+03  0.16039726760E+04  0.10100000352E+00 0.  1.
       -3    1    3    3    0  502 -0.12263257007E+04  0.10230547467E+04 -0.34351941913E+03  0.16335609387E+04  0.10100000352E+00 0. -1.
</event>
<event>
 5   0  0.1240725E-06  0.3185885E+04  0.7818609E-02  0.8192555E-01
        1   -1    0    0  501    0  0.00000000000E+00  0.00000000000E+00  0.19554387053E+04  0.19554387053E+04  0.50400001928E-02 0. -1.
       -1   -1    0    0    0  501  0.00000000000E+00  0.00000000000E+00 -0.12976449038E+04  0.12976449038E+04  0.50400001928E-02 0.  1.
    10030    2    1    2    0    0  0.00000000000E+00  0.00000000000E+00  0.65779380143E+03  0.32530836091E+04  0.31858845369E+04 0.  0.
        3    1    3    3  502    0 -0.14085539982E+04 -0.76618711656E+01  0.10884842165E+04  0.17801350988E+04  0.10100000352E+00 0. -1.
       -3    1    3    3    0  502  0.14085539982E+04  0.76618711656E+01 -0.43069041507E+03  0.14729485103E+04  0.10100000352E+00 0.  1.
</event>
<event>
 5   0  0.3656086E-06  0.2989697E+04  0.7818609E-02  0.8246679E-01
       -2   -1    0    0    0  501  0.00000000000E+00  0.00000000000E+00  0.93398222631E+03  0.93398222632E+03  0.25500000920E-02 0.  1.
        2   -1    0    0  501    0  0.00000000000E+00  0.00000000000E+00 -0.23925204295E+04  0.23925204295E+04  0.25500000920E-02 0. -1.
    10030    2    1    2    0    0  0.00000000000E+00  0.00000000000E+00 -0.14585382032E+04  0.33265026558E+04  0.29896966784E+04 0.  0.
        3    1    3    3  502    0 -0.11460585842E+03 -0.95632938913E+03 -0.20012398675E+04  0.22209595721E+04  0.10100000352E+00 0. -1.
       -3    1    3    3    0  502  0.11460585842E+03  0.95632938913E+03  0.54270166434E+03  0.11055430837E+04  0.10100000352E+00 0.  1.
</event>
<event>
 5   0  0.1185575E-06  0.2641993E+04  0.7818609E-02  0.8354076E-01
       -3   -1    0    0    0  501  0.00000000000E+00  0.00000000000E+00  0.70195787383E+03  0.70195788109E+03  0.10100000352E+00 0. -1.
        3   -1    0    0  501    0  0.00000000000E+00  0.00000000000E+00 -0.24859488047E+04  0.24859488067E+04  0.10100000352E+00 0.  1.
    10030    2    1    2    0    0  0.00000000000E+00  0.00000000000E+00 -0.17839909309E+04  0.31879066878E+04  0.26419926966E+04 0.  0.
        3    1    3    3  502    0  0.89339279476E+03 -0.65058699862E+03 -0.17651295572E+04  0.20825696849E+04  0.10100000352E+00 0.  1.
       -3    1    3    3    0  502 -0.89339279476E+03  0.65058699862E+03 -0.18861373679E+02  0.11053370030E+04  0.10100000352E+00 0. -1.
</event>
<event>
 5   0  0.1240725E-06  0.3249111E+04  0.7818609E-02  0.8175966E-01
        1   -1    0    0  501    0  0.00000000000E+00  0.00000000000E+00  0.18644269106E+04  0.18644269106E+04  0.50400001928E-02 0. -1.
       -1   -1    0    0    0  501  0.00000000000E+00  0.00000000000E+00 -0.14155455379E+04  0.14155455379E+04  0.50400001928E-02 0.  1.
    10030    2    1    2    0    0  0.00000000000E+00  0.00000000000E+00  0.44888137270E+03  0.32799724485E+04  0.32491113825E+04 0.  0.
        3    1    3    3  502    0 -0.51622806089E+02 -0.15279558225E+04 -0.33020241114E+03  0.15640804174E+04  0.10100000352E+00 0.  1.
       -3    1    3    3    0  502  0.51622806089E+02  0.15279558225E+04  0.77908378384E+03  0.17158920310E+04  0.10100000352E+00 0. -1.
</event>
<event>
 5   0  0.1273980E-06  0.3268846E+04  0.7818609E-02  0.8170868E-01
       -1   -1    0    0    0  501  0.00000000000E+00  0.00000000000E+00  0.22678700331E+04  0.22678700331E+04  0.50400001928E-02 0.  1.
        1   -1    0    0  501    0  0.00000000000E+00  0.00000000000E+00 -0.11779062689E+04  0.11779062689E+04  0.50400001928E-02 0. -1.
    10030    2    1    2    0    0  0.00000000000E+00  0.00000000000E+00  0.10899637642E+04  0.34457763020E+04  0.32688458692E+04 0.  0.
        4    1    3    3  502    0 -0.15692686093E+04  0.45153960172E+03  0.47161033007E+03  0.16996793510E+04  0.12699999809E+01 0. -1.
       -4    1    3    3    0  502  0.15692686093E+04 -0.45153960172E+03  0.61835343415E+03  0.17460969510E+04  0.12699999809E+01 0.  1.
</event>
<event>
 5   0  0.1306843E-06  0.3191371E+04  0.7818609E-02  0.8191100E-01
        1   -1    0    0  501    0  0.00000000000E+00  0.00000000000E+00  0.15656938302E+04  0.15656938302E+04  0.50400001928E-02 0. -1.
       -1   -1    0    0    0  501  0.00000000000E+00  0.00000000000E+00 -0.16262515683E+04  0.16262515683E+04  0.50400001928E-02 0.  1.
    10030    2    1    2    0    0  0.00000000000E+00  0.00000000000E+00 -0.60557738117E+02  0.31919453985E+04  0.31913708947E+04 0.  0.
        5    1    3    3  502    0 -0.43225003456E+03 -0.13492762727E+04  0.70388556102E+03  0.15820440972E+04  0.46999998093E+01 0. -1.
       -5    1    3    3    0  502  0.43225003456E+03  0.13492762727E+04 -0.76444329914E+03  0.16099013013E+04  0.46999998093E+01 0.  1.
</event>
<event>
 5   0  0.1273980E-06  0.3217476E+04  0.7818609E-02  0.8184217E-01
       -1   -1    0    0    0  501  0.00000000000E+00  0.00000000000E+00  0.10606302198E+04  0.10606302198E+04  0.50400001928E-02 0.  1.
        1   -1    0    0  501    0  0.00000000000E+00  0.00000000000E+00 -0.24400942318E+04  0.24400942318E+04  0.50400001928E-02 0. -1.
    10030    2    1    2    0    0  0.00000000000E+00  0.00000000000E+00 -0.13794640121E+04  0.35007244516E+04  0.32174758314E+04 0.  0.
        4    1    3    3  502    0 -0.58926641184E+03 -0.33166599413E+03  0.89849969327E+03  0.11245179178E+04  0.12699999809E+01 0.  1.
       -4    1    3    3    0  502  0.58926641184E+03  0.33166599413E+03 -0.22779637053E+04  0.23762065338E+04  0.12699999809E+01 0. -1.
</event>
<event>
 5   0  0.3531437E-06  0.3158548E+04  0.7818609E-02  0.8199851E-01
       -2   -1    0    0    0  501  0.00000000000E+00  0.00000000000E+00  0.11062487767E+04  0.11062487767E+04  0.25500000920E-02 0. -1.
        2   -1    0    0  501    0  0.00000000000E+00  0.00000000000E+00 -0.22545621672E+04  0.22545621672E+04  0.25500000920E-02 0.  1.
    10030    2    1    2    0    0  0.00000000000E+00  0.00000000000E+00 -0.11483133905E+04  0.33608109439E+04  0.31585481725E+04 0.  0.
        1    1    3    3  502    0  0.15193819456E+04  0.32418342668E+03 -0.27228095562E+03  0.15772613321E+04  0.50400001928E-02 0. -1.
       -1    1    3    3    0  502 -0.15193819456E+04 -0.32418342668E+03 -0.87603243486E+03  0.17835496118E+04  0.50400001928E-02 0.  1.
</event>
<event>
 5   0  0.1268836E-06  0.3200060E+04  0.7818609E-02  0.8188801E-01
        1   -1    0    0  501    0  0.00000000000E+00  0.00000000000E+00  0.23189712220E+04  0.23189712220E+04  0.50400001928E-02 0. -1.
       -1   -1    0    0    0  501  0.00000000000E+00  0.00000000000E+00 -0.11039795338E+04  0.11039795338E+04  0.50400001928E-02 0.  1.
    10030    2    1    2    0    0  0.00000000000E+00  0.00000000000E+00  0.12149916882E+04  0.34229507559E+04  0.32000604799E+04 0.  0.
        1    1    3    3  502    0 -0.29266115884E+03 -0.66136747746E+03  0.21341552789E+04  0.22533699760E+04  0.50400001928E-02 0. -1.
       -1    1    3    3    0  502  0.29266115884E+03  0.66136747746E+03 -0.91916359072E+03  0.11695807799E+04  0.50400001928E-02 0.  1.
</event>
<event>
 5   0  0.3656086E-06  0.3324189E+04  0.7818609E-02  0.8156768E-01
       -2   -1    0    0    0  501  0.00000000000E+00  0.00000000000E+00  0.17111499726E+04  0.17111499726E+04  0.25500000920E-02 0. -1.
        2   -1    0    0  501    0  0.00000000000E+00  0.00000000000E+00 -0.16144457240E+04  0.16144457240E+04  0.25500000920E-02 0.  1.
    10030    2    1    2    0    0  0.00000000000E+00  0.00000000000E+00  0.96704248558E+02  0.33255956966E+04  0.33241893787E+04 0.  0.
        3    1    3    3  502    0  0.27853686738E+03  0.78521196781E+03  0.14871601755E+04  0.17046366237E+04  0.10100000352E+00 0. -1.
       -3    1    3    3    0  502 -0.27853686738E+03 -0.78521196781E+03 -0.13904559270E+04  0.16209590729E+04  0.10100000352E+00 0.  1.
</event>
<event>
 5   0  0.3497546E-06  0.3042862E+04  0.7818609E-02  0.8231596E-01
       -2   -1    0    0    0  501  0.00000000000E+00  0.00000000000E+00  0.29618273571E+04  0.29618273571E+04  0.25500000920E-02 0. -1.
        2   -1    0    0  501    0  0.00000000000E+00  0.00000000000E+00 -0.78152838062E+03  0.78152838062E+03  0.25500000920E-02 0.  1.
    10030    2    1    2    0    0  0.00000000000E+00  0.00000000000E+00  0.21802989765E+04  0.37433557378E+04  0.30428619016E+04 0.  0.
        4    1    3    3  502    0  0.12083958727E+04 -0.91541193183E+03  0.12484163998E+04  0.19638596462E+04  0.12699999809E+01 0.  1.
       -4    1    3    3    0  502 -0.12083958727E+04  0.91541193183E+03  0.93188257673E+03  0.17794960915E+04  0.12699999809E+01 0. -1.
</event>
<event>
 5   0  0.1273980E-06  0.3073439E+04  0.7818609E-02  0.8223065E-01
        1   -1    0    0  501    0  0.00000000000E+00  0.00000000000E+00  0.15288311173E+04  0.15288311173E+04  0.50400001928E-02 0.  1.
       -1   -1    0    0    0  501  0.00000000000E+00  0.00000000000E+00 -0.15446486077E+04  0.15446486077E+04  0.50400001928E-02 0. -1.
    10030    2    1    2    0    0  0.00000000000E+00  0.00000000000E+00 -0.15817490376E+02  0.30734797251E+04  0.30734390229E+04 0.  0.
        4    1    3    3  502    0 -0.26118814641E+03 -0.14291129227E+04 -0.50883678015E+03  0.15393178605E+04  0.12699999809E+01 0. -1.
       -4    1    3    3    0  502  0.26118814641E+03  0.14291129227E+04  0.49301928978E+03  0.15341618646E+04  0.12699999809E+01 0.  1.
</event>
<event>
 5   0  0.1268836E-06  0.3246548E+04  0.7818609E-02  0.8176631E-01
       -1   -1    0    0    0  501  0.00000000000E+00  0.00000000000E+00  0.20174406772E+04  0.20174406772E+04  0.50400001928E-02 0.  1.
        1   -1    0    0  501    0  0.00000000000E+00  0.00000000000E+00 -0.13061195167E+04  0.13061195167E+04  0.50400001928E-02 0. -1.
    10030    2    1    2    0    0  0.00000000000E+00  0.00000000000E+00  0.71132116048E+03  0.33235601939E+04  0.32465481006E+04 0.  0.
        1    1    3    3  502    0  0.95825804323E+03  0.18770701409E+03  0.16831575296E+04  0.19458961098E+04  0.50400001928E-02 0.  1.
       -1    1    3    3    0  502 -0.95825804323E+03 -0.18770701409E+03 -0.97183636909E+03  0.13776640842E+04  0.50400001928E-02 0. -1.
</event>
<event>
 5   0  0.3758062E-06  0.3155866E+04  0.7818609E-02  0.8200571E-01
        2   -1    0    0  501    0  0.00000000000E+00  0.00000000000E+00  0.14333904108E+04  0.14333904108E+04  0.25500000920E-02 0. -1.
       -2   -1    0    0    0  501  0.00000000000E+00  0.00000000000E+00 -0.17370514292E+04  0.17370514292E+04  0.25500000920E-02 0.  1.
    10030    2    1    2    0    0  0.00000000000E+00  0.00000000000E+00 -0.30366101838E+03  0.31704418400E+04  0.31558661960E+04 0.  0.
        2    1    3    3  502    0  0.12685150429E+04 -0.92352790018E+03 -0.31945034621E+03  0.16012753418E+04  0.25500000920E-02 0.  1.
       -2    1    3    3    0  502 -0.12685150429E+04  0.92352790018E+03  0.15789327831E+02  0.15691664983E+04  0.25500000920E-02 0. -1.
</event>
<event>
 5   0  0.3656086E-06  0.2634934E+04  0.7818609E-02  0.8356431E-01
       -2   -1    0    0    0  501  0.00000000000E+00  0.00000000000E+00  0.10033554102E+04  0.10033554102E+04  0.25500000920E-02 0.  1.
        2   -1    0    0  501    0  0.00000000000E+00  0.00000000000E+00 -0.17299141232E+04  0.17299141232E+04  0.25500000920E-02 0. -1.
    10030    2    1    2    0    0  0.00000000000E+00  0.00000000000E+00 -0.72655871299E+03  0.27332695333E+04  0.26349335434E+04 0.  0.
        3    1    3    3  502    0 -0.66155469676E+03  0.27228649291E+03 -0.15108780454E+04  0.16716898724E+04  0.10100000352E+00 0. -1.
       -3    1    3    3    0  502  0.66155469676E+03 -0.27228649291E+03  0.78431933246E+03  0.10615796609E+04  0.10100000352E+00 0.  1.
</event>
<event>
 5   0  0.1273980E-06  0.3157782E+04  0.7818609E-02  0.8200057E-01
       -1   -1    0    0    0  501  0.00000000000E+00  0.00000000000E+00  0.15985406307E+04  0.15985406307E+04  0.50400001928E-02 0.  1.
        1   -1    0    0  501    0  0.00000000000E+00  0.00000000000E+00 -0.15594832075E+04  0.15594832075E+04  0.50400001928E-02 0. -1.
    10030    2    1    2    0    0  0.00000000000E+00  0.00000000000E+00  0.39057423281E+02  0.31580238382E+04  0.31577823041E+04 0.  0.
        4    1    3    3  502    0  0.48841369021E+03 -0.61794657079E+03 -0.13489654312E+04  0.15620868236E+04  0.12699999809E+01 0. -1.
       -4    1    3    3    0  502 -0.48841369021E+03  0.61794657079E+03  0.13880228544E+04  0.15959370146E+04  0.12699999809E+01 0.  1.
</event>
<event>
 5   0  0.1273754E-06  0.3237945E+04  0.7818609E-02  0.8178867E-01
        1   -1    0    0  501    0  0.00000000000E+00  0.00000000000E+00  0.29991682550E+04  0.29991682550E+04  0.50400001928E-02 0.  1.
       -1   -1    0    0    0  501  0.00000000000E+00  0.00000000000E+00 -0.87393272948E+03  0.87393272949E+03  0.50400001928E-02 0. -1.
    10030    2    1    2    0    0  0.00000000000E+00  0.00000000000E+00  0.21252355255E+04  0.38731009845E+04  0.32379445945E+04 0.  0.
        2    1    3    3  502    0  0.14778124343E+04 -0.65777621511E+03  0.98262549129E+03  0.18926573901E+04  0.25500000920E-02 0. -1.
       -2    1    3    3    0  502 -0.14778124343E+04  0.65777621511E+03  0.11426100342E+04  0.19804435944E+04  0.25500000920E-02 0.  1.
</event>
<event>
 5   0  0.1268836E-06  0.3190896E+04  0.7818609E-02  0.8191226E-01
       -1   -1    0    0    0  501  0.00000000000E+00  0.00000000000E+00  0.17241569387E+04  0.17241569387E+04  0.50400001928E-02 0.  1.
        1   -1    0    0  501    0  0.00000000000E+00  0.00000000000E+00 -0.14763469123E+04  0.14763469123E+04  0.50400001928E-02 0. -1.
    10030    2    1    2    0    0  0.00000000000E+00  0.00000000000E+00  0.24781002641E+03  0.32005038509E+04  0.31908956565E+04 0.  0.
        1    1    3    3  502    0  0.59493477571E+03  0.49787212657E+03 -0.12744341403E+04  0.14919807036E+04  0.50400001928E-02 0. -1.
       -1    1    3    3    0  502 -0.59493477571E+03 -0.49787212657E+03  0.15222441668E+04  0.17085231474E+04  0.50400001928E-02 0.  1.
</event>
<event>
 5   0  0.3758062E-06  0.3222749E+04  0.7818609E-02  0.8182835E-01
       -2   -1    0    0    0  501  0.00000000000E+00  0.00000000000E+00  0.13910686631E+04  0.13910686632E+04  0.25500000920E-02 0. -1.
        2   -1    0    0  501    0  0.00000000000E+00  0.00000000000E+00 -0.18665706784E+04  0.18665706784E+04  0.25500000920E-02 0.  1.
    10030    2    1    2    0    0  0.00000000000E+00  0.00000000000E+00 -0.47550201525E+03  0.32576393415E+04  0.32227491235E+04 0.  0.
        2    1    3    3  502    0 -0.14221723021E+03 -0.15883180906E+04 -0.38416230898E+01  0.15946770380E+04  0.25500000920E-02 0. -1.
       -2    1    3    3    0  502  0.14221723021E+03  0.15883180906E+04 -0.47166039216E+03  0.16629623035E+04  0.25500000920E-02 0.  1.
</event>
<event>
 5   0  0.1306843E-06  0.2845084E+04  0.7818609E-02  0.8289407E-01
       -1   -1    0    0    0  501  0.00000000000E+00  0.00000000000E+00  0.14068760966E+04  0.14068760966E+04  0.50400001928E-02 0. -1.
        1   -1    0    0  501    0  0.00000000000E+00  0.00000000000E+00 -0.14383821339E+04  0.14383821339E+04  0.50400001928E-02 0.  1.
    10030    2    1    2    0    0  0.00000000000E+00  0.00000000000E+00 -0.31506037296E+02  0.28452582305E+04  0.28450837893E+04 0.  0.
        5    1    3    3  502    0 -0.25264181028E+03 -0.12791888237E+04  0.55300974913E+03  0.14163311066E+04  0.46999998093E+01 0.  1.
       -5    1    3    3    0  502  0.25264181028E+03  0.12791888237E+04 -0.58451578643E+03  0.14289271239E+04  0.46999998093E+01 0. -1.
</event>
<event>
 5   0  0.1240725E-06  0.2749741E+04  0.7818609E-02  0.8319044E-01
       -1   -1    0    0    0  501  0.00000000000E+00  0.00000000000E+00  0.79037658643E+03  0.79037658644E+03  0.50400001928E-02 0.  1.
        1   -1    0    0  501    0  0.00000000000E+00  0.00000000000E+00 -0.23916059580E+04  0.23916059580E+04  0.50400001928E-02 0. -1.
    10030    2    1    2    0    0  0.00000000000E+00  0.00000000000E+00 -0.16012293716E+04  0.31819825444E+04  0.27497413356E+04 0.  0.
        3    1    3    3  502    0 -0.13432645822E+04  0.15550891114E+03 -0.10881174811E+04  0.17356677165E+04  0.10100000352E+00 0. -1.
       -3    1    3    3    0  502  0.13432645822E+04 -0.15550891114E+03 -0.51311189043E+03  0.14463148279E+04  0.10100000352E+00 0.  1.
</event>
<event>
 5   0  0.3656086E-06  0.3195338E+04  0.7818609E-02  0.8190050E-01
        2   -1    0    0  501    0  0.00000000000E+00  0.00000000000E+00  0.12484755450E+04  0.12484755450E+04  0.25500000920E-02 0.  1.
       -2   -1    0    0    0  501  0.00000000000E+00  0.00000000000E+00 -0.20445300487E+04  0.20445300487E+04  0.25500000920E-02 0. -1.
    10030    2    1    2    0    0  0.00000000000E+00  0.00000000000E+00 -0.79605450370E+03  0.32930055937E+04  0.31953377078E+04 0.  0.
        3    1    3    3  502    0  0.77331599441E+03 -0.99949446563E+03  0.60936799994E+03  0.14029740495E+04  0.10100000352E+00 0.  1.
       -3    1    3    3    0  502 -0.77331599441E+03  0.99949446563E+03 -0.14054225036E+04  0.18900315442E+04  0.10100000352E+00 0. -1.
</event>
<event>
 5   0  0.3656086E-06  0.3215036E+04  0.7818609E-02  0.8184857E-01
       -2   -1    0    0    0  501  0.00000000000E+00  0.00000000000E+00  0.21687735854E+04  0.21687735854E+04  0.25500000920E-02 0. -1.
        2   -1    0    0  501    0  0.00000000000E+00  0.00000000000E+00 -0.11915096065E+04  0.11915096065E+04  0.25500000920E-02 0.  1.
    10030    2    1    2    0    0  0.00000000000E+00  0.00000000000E+00  0.97726397890E+03  0.33602831919E+04  0.32150362743E+04 0.  0.
        3    1    3    3  502    0 -0.86954091784E+03 -0.61922268460E+03 -0.76757226988E+03  0.13148023960E+04  0.10100000352E+00 0.  1.
       -3    1    3    3    0  502  0.86954091784E+03  0.61922268460E+03  0.17448362488E+04  0.20454807958E+04  0.10100000352E+00 0. -1.
</event>
<event>
 5   0  0.1268836E-06  0.3218722E+04  0.7818609E-02  0.8183890E-01
        1   -1    0    0  501    0  0.00000000000E+00  0.00000000000E+00  0.16800490724E+04  0.16800490724E+04  0.50400001928E-02 0.  1.
       -1   -1    0    0    0  501  0.00000000000E+00  0.00000000000E+00 -0.15416470890E+04  0.15416470890E+04  0.50400001928E-02 0. -1.
    10030    2    1    2    0    0  0.00000000000E+00  0.00000000000E+00  0.13840198342E+03  0.32216961613E+04  0.32187219586E+04 0.  0.
        1    1    3    3  502    0 -0.51004752166E+03  0.15207135287E+04  0.20094575589E+03  0.16165077505E+04  0.50400001928E-02 0. -1.
       -1    1    3    3    0  502  0.51004752166E+03 -0.15207135287E+04 -0.62543772472E+02  0.16051884108E+04  0.50400001928E-02 0.  1.
</event>
<event>
 5   0  0.3531437E-06  0.3251970E+04  0.7818609E-02  0.8175225E-01
       -2   -1    0    0    0  501  0.00000000000E+00  0.00000000000E+00  0.92756773408E+03  0.92756773408E+03  0.25500000920E-02 0. -1.
        2   -1    0    0  501    0  0.00000000000E+00  0.00000000000E+00 -0.28502795331E+04  0.28502795331E+04  0.25500000920E-02 0.  1.
    10030    2    1    2    0    0  0.00000000000E+00  0.00000000000E+00 -0.19227117990E+04  0.37778472671E+04  0.32519700663E+04 0.  0.
        1    1    3    3  502    0 -0.92976638321E+03  0.14558715337E+03  0.57902391092E+03  0.11049569385E+04  0.50400001928E-02 0. -1.
       -1    1    3    3    0  502  0.92976638321E+03 -0.14558715337E+03 -0.25017357099E+04  0.26728903286E+04  0.50400001928E-02 0.  1.
</event>
<event>
 5   0  0.1273754E-06  0.3189858E+04  0.7818609E-02  0.8191501E-01
       -1   -1    0    0    0  501  0.00000000000E+00  0.00000000000E+00  0.13996156064E+04  0.13996156064E+04  0.50400001928E-02 0.  1.
        1   -1    0    0  501    0  0.00000000000E+00  0.00000000000E+00 -0.18174981024E+04  0.18174981024E+04  0.50400001928E-02 0. -1.
    10030    2    1    2    0    0  0.00000000000E+00  0.00000000000E+00 -0.41788249597E+03  0.32171137088E+04  0.31898581215E+04 0.  0.
        2    1    3    3  502    0  0.69596099288E+03 -0.82181347509E+03  0.97757159401E+03  0.14544364245E+04  0.25500000920E-02 0. -1.
       -2    1    3    3    0  502 -0.69596099288E+03  0.82181347509E+03 -0.13954540900E+04  0.17626772843E+04  0.25500000920E-02 0.  1.
</event>
<event>
 5   0  0.1268836E-06  0.3143514E+04  0.7818609E-02  0.8203896E-01
        1   -1    0    0  501    0  0.00000000000E+00  0.00000000000E+00  0.23144813537E+04  0.23144813537E+04  0.50400001928E-02 0.  1.
       -1   -1    0    0    0  501  0.00000000000E+00  0.00000000000E+00 -0.10673752418E+04  0.10673752418E+04  0.50400001928E-02 0. -1.
    10030    2    1    2    0    0  0.00000000000E+00  0.00000000000E+00  0.12471061119E+04  0.33818565955E+04  0.31435140175E+04 0.  0.
        1    1    3    3  502    0  0.78130567507E+03  0.11709683986E+04 -0.12860973788E+03  0.14135579271E+04  0.50400001928E-02 0. -1.
       -1    1    3    3    0  502 -0.78130567507E+03 -0.11709683986E+04  0.13757158498E+04  0.19682986684E+04  0.50400001928E-02 0.  1.
</event>
<event>
 5   0  0.1185575E-06  0.3343452E+04  0.7818609E-02  0.8151926E-01
       -4   -1    0    0    0  501  0.00000000000E+00  0.00000000000E+00  0.17160752817E+04  0.17160757516E+04  0.12699999809E+01 0.  1.
        4   -1    0    0  501    0  0.00000000000E+00  0.00000000000E+00 -0.16285223116E+04  0.16285228068E+04  0.12699999809E+01 0. -1.
    10030    2    1    2    0    0  0.00000000000E+00  0.00000000000E+00  0.87552970070E+02  0.33445985585E+04  0.33434524065E+04 0.  0.
        5    1    3    3  502    0 -0.11043913719E+04 -0.89121810964E+03  0.92764962767E+03  0.16954368001E+04  0.46999998093E+01 0.  1.
       -5    1    3    3    0  502  0.11043913719E+04  0.89121810964E+03 -0.84009665760E+03  0.16491617584E+04  0.46999998093E+01 0. -1.
</event>
<event>
 5   0  0.3531437E-06  0.3224453E+04  0.7818609E-02  0.8182389E-01
       -2   -1    0    0    0  501  0.00000000000E+00  0.00000000000E+00  0.12304369464E+04  0.12304369464E+04  0.25500000920E-02 0. -1.
        2   -1    0    0  501    0  0.00000000000E+00  0.00000000000E+00 -0.21124806007E+04  0.21124806007E+04  0.25500000920E-02 0.  1.
    10030    2    1    2    0    0  0.00000000000E+00  0.00000000000E+00 -0.88204365432E+03  0.33429175471E+04  0.32244529333E+04 0.  0.
        1    1    3    3  502    0 -0.32318145048E+03  0.31653322514E+03  0.11632917311E+04  0.12481535099E+04  0.50400001928E-02 0. -1.
       -1    1    3    3    0  502  0.32318145048E+03 -0.31653322514E+03 -0.20453353855E+04  0.20947640372E+04  0.50400001928E-02 0.  1.
</event>
<event>
 5   0  0.1273980E-06  0.3192144E+04  0.7818609E-02  0.8190895E-01
        1   -1    0    0  501    0  0.00000000000E+00  0.00000000000E+00  0.18234067176E+04  0.18234067176E+04  0.50400001928E-02 0. -1.
       -1   -1    0    0    0  501  0.00000000000E+00  0.00000000000E+00 -0.13970803692E+04  0.13970803692E+04  0.50400001928E-02 0.  1.
    10030    2    1    2    0    0  0.00000000000E+00  0.00000000000E+00  0.42632634833E+03  0.32204870868E+04  0.31921439380E+04 0.  0.
        4    1    3    3  502    0  0.12578320298E+04  0.31150960589E+03 -0.72691746894E+03  0.14857961735E+04  0.12699999809E+01 0.  1.
       -4    1    3    3    0  502 -0.12578320298E+04 -0.31150960589E+03  0.11532438173E+04  0.17346909133E+04  0.12699999809E+01 0. -1.
</event>
<event>
 5   0  0.1273754E-06  0.3234244E+04  0.7818609E-02  0.8179832E-01
        1   -1    0    0  501    0  0.00000000000E+00  0.00000000000E+00  0.21144338060E+04  0.21144338060E+04  0.50400001928E-02 0. -1.
       -1   -1    0    0    0  501  0.00000000000E+00  0.00000000000E+00 -0.12367772293E+04  0.12367772293E+04  0.50400001928E-02 0.  1.
    10030    2    1    2    0    0  0.00000000000E+00  0.00000000000E+00  0.87765657676E+03  0.33512110353E+04  0.32342440131E+04 0.  0.
        2    1    3    3  502    0  0.12746576572E+04 -0.33364539703E+03  0.14102916892E+04  0.19300243632E+04  0.25500000920E-02 0. -1.
       -2    1    3    3    0  502 -0.12746576572E+04  0.33364539703E+03 -0.53263511245E+03  0.14211866721E+04  0.25500000920E-02 0.  1.
</event>
<event>
 5   0  0.3758062E-06  0.3159180E+04  0.7818609E-02  0.8199682E-01
       -2   -1    0    0    0  501  0.00000000000E+00  0.00000000000E+00  0.14385094701E+04  0.14385094701E+04  0.25500000920E-02 0.  1.
        2   -1    0    0  501    0  0.00000000000E+00  0.00000000000E+00 -0.17345069466E+04  0.17345069466E+04  0.25500000920E-02 0. -1.
    10030    2    1    2    0    0  0.00000000000E+00  0.00000000000E+00 -0.29599747654E+03  0.31730164167E+04  0.31591800637E+04 0.  0.
        2    1    3    3  502    0 -0.13768527537E+04  0.41884941552E+03 -0.80196204215E+03  0.16475137193E+04  0.25500000920E-02 0. -1.
       -2    1    3    3    0  502  0.13768527537E+04 -0.41884941552E+03  0.50596456562E+03  0.15255026974E+04  0.25500000920E-02 0.  1.
</event>
<event>
 5   0  0.1240725E-06  0.3215098E+04  0.7818609E-02  0.8184841E-01
        1   -1    0    0  501    0  0.00000000000E+00  0.00000000000E+00  0.19383592233E+04  0.19383592233E+04  0.50400001928E-02 0.  1.
       -1   -1    0    0    0  501  0.00000000000E+00  0.00000000000E+00 -0.13331968197E+04  0.13331968197E+04  0.50400001928E-02 0. -1.
    10030    2    1    2    0    0  0.00000000000E+00  0.00000000000E+00  0.60516240365E+03  0.32715560430E+04  0.32150983512E+04 0.  0.
        3    1    3    3  502    0 -0.12701049413E+04 -0.81921185050E+03 -0.25470346663E+03  0.15326932126E+04  0.10100000352E+00 0. -1.
       -3    1    3    3    0  502  0.12701049413E+04  0.81921185050E+03  0.85986587029E+03  0.17388628304E+04  0.10100000352E+00 0.  1.
</event>
<event>
 5   0  0.3745943E-06  0.3187523E+04  0.7818609E-02  0.8192120E-01
       -2   -1    0    0    0  501  0.00000000000E+00  0.00000000000E+00  0.15063306857E+04  0.15063306857E+04  0.25500000920E-02 0. -1.
        2   -1    0    0  501    0  0.00000000000E+00  0.00000000000E+00 -0.16862671746E+04  0.16862671746E+04  0.25500000920E-02 0.  1.
    10030    2    1    2    0    0  0.00000000000E+00  0.00000000000E+00 -0.17993648885E+03  0.31925978603E+04  0.31875231697E+04 0.  0.
        5    1    3    3  502    0  0.13560876949E+04 -0.15914559294E+03 -0.91331878830E+03  0.16427033984E+04  0.46999998093E+01 0.  1.
       -5    1    3    3    0  502 -0.13560876949E+04  0.15914559294E+03  0.73338229945E+03  0.15498944619E+04  0.46999998093E+01 0. -1.
</event>
<event>
 5   0  0.1240725E-06  0.3233173E+04  0.7818609E-02  0.8180111E-01
        1   -1    0    0  501    0  0.00000000000E+00  0.00000000000E+00  0.11705324650E+04  0.11705324650E+04  0.50400001928E-02 0.  1.
       -1   -1    0    0    0  501  0.00000000000E+00  0.00000000000E+00 -0.22326183211E+04  0.22326183211E+04  0.50400001928E-02 0. -1.
    10030    2    1    2    0    0  0.00000000000E+00  0.00000000000E+00 -0.10620858561E+04  0.34031507861E+04  0.32331731947E+04 0.  0.
        3    1    3    3  502    0  0.10137214716E+04 -0.67368580825E+03 -0.16508680220E+04  0.20510604639E+04  0.10100000352E+00 0. -1.
       -3    1    3    3    0  502 -0.10137214716E+04  0.67368580825E+03  0.58878216593E+03  0.13520903222E+04  0.10100000352E+00 0.  1.
</event>
<event>
 5   0  0.3758062E-06  0.3203461E+04  0.7818609E-02  0.8187904E-01
        2   -1    0    0  501    0  0.00000000000E+00  0.00000000000E+00  0.16565044609E+04  0.16565044609E+04  0.25500000920E-02 0.  1.
       -2   -1    0    0    0  501  0.00000000000E+00  0.00000000000E+00 -0.15487677167E+04  0.15487677167E+04  0.25500000920E-02 0. -1.
    10030    2    1    2    0    0  0.00000000000E+00  0.00000000000E+00  0.10773674420E+03  0.32052721775E+04  0.32034610230E+04 0.  0.
        2    1    3    3  502    0  0.59613652093E+03 -0.14578788901E+04  0.34515325121E+03  0.16124268593E+04  0.25500000920E-02 0.  1.
       -2    1    3    3    0  502 -0.59613652093E+03  0.14578788901E+04 -0.23741650701E+03  0.15928453182E+04  0.25500000920E-02 0. -1.
</event>
<event>
 5   0  0.3758062E-06  0.2981051E+04  0.7818609E-02  0.8249163E-01
        2   -1    0    0  501    0  0.00000000000E+00  0.00000000000E+00  0.19382972285E+04  0.19382972285E+04  0.25500000920E-02 0. -1.
       -2   -1    0    0    0  501  0.00000000000E+00  0.00000000000E+00 -0.11461951823E+04  0.11461951823E+04  0.25500000920E-02 0.  1.
    10030    2    1    2    0    0  0.00000000000E+00  0.00000000000E+00  0.79210204621E+03  0.30844924108E+04  0.29810514556E+04 0.  0.
        2    1    3    3  502    0 -0.12781898809E+04  0.61938060681E+03  0.86369082234E+03  0.16623367722E+04  0.25500000920E-02 0. -1.
       -2    1    3    3    0  502  0.12781898809E+04 -0.61938060681E+03 -0.71588776128E+02  0.14221556386E+04  0.25500000920E-02 0.  1.
</event>
<event>
 5   0  0.1268836E-06  0.3202407E+04  0.7818609E-02  0.8188182E-01
        1   -1    0    0  501    0  0.00000000000E+00  0.00000000000E+00  0.20900401239E+04  0.20900401239E+04  0.50400001928E-02 0. -1.
       -1   -1    0    0    0  501  0.00000000000E+00  0.00000000000E+00 -0.12267001870E+04  0.12267001871E+04  0.50400001928E-02 0.  1.
    10030    2    1    2    0    0  0.00000000000E+00  0.00000000000E+00  0.86333993681E+03  0.33167403109E+04  0.32024069766E+04 0.  0.
        1    1    3    3  502    0  0.23954108641E+03  0.75489251540E+03 -0.10096354770E+04  0.12832016359E+04  0.50400001928E-02 0.  1.
       -1    1    3    3    0  502 -0.23954108641E+03 -0.75489251540E+03  0.18729754138E+04  0.20335386750E+04  0.50400001928E-02 0. -1.
</event>
<event>
 5   0  0.3656086E-06  0.3141646E+04  0.7818609E-02  0.8204400E-01
        2   -1    0    0  501    0  0.00000000000E+00  0.00000000000E+00  0.27958471321E+04  0.27958471321E+04  0.25500000920E-02 0.  1.
       -2   -1    0    0    0  501  0.00000000000E+00  0.00000000000E+00 -0.88255380295E+03  0.88255380296E+03  0.25500000920E-02 0. -1.
    10030    2    1    2    0    0  0.00000000000E+00  0.00000000000E+00  0.19132933292E+04  0.36784009351E+04  0.31416463957E+04 0.  0.
        3    1    3    3  502    0 -0.10953809945E+04  0.11054398433E+04  0.12067508692E+04  0.19692903394E+04  0.10100000352E+00 0.  1.
       -3    1    3    3    0  502  0.10953809945E+04 -0.11054398433E+04  0.70654245993E+03  0.17091105957E+04  0.10100000352E+00 0. -1.
</event>
<event>
 5   0  0.3758062E-06  0.3209480E+04  0.7818609E-02  0.8186318E-01
        2   -1    0    0  501    0  0.00000000000E+00  0.00000000000E+00  0.24915243347E+04  0.24915243347E+04  0.25500000920E-02 0. -1.
       -2   -1    0    0    0  501  0.00000000000E+00  0.00000000000E+00 -0.10335800021E+04  0.10335800021E+04  0.25500000920E-02 0.  1.
    10030    2    1    2    0    0  0.00000000000E+00  0.00000000000E+00  0.14579443326E+04  0.35251043368E+04  0.32094795386E+04 0.  0.
        2    1    3    3  502    0 -0.10304531762E+04  0.10255086961E+04  0.14752690149E+04  0.20712123262E+04  0.25500000920E-02 0. -1.
       -2    1    3    3    0  502  0.10304531762E+04 -0.10255086961E+04 -0.17324682257E+02  0.14538920106E+04  0.25500000920E-02 0.  1.
</event>
<event>
 5   0  0.1240725E-06  0.3161653E+04  0.7818609E-02  0.8199019E-01
       -1   -1    0    0    0  501  0.00000000000E+00  0.00000000000E+00  0.16074014447E+04  0.16074014447E+04  0.50400001928E-02 0. -1.
        1   -1    0    0  501    0  0.00000000000E+00  0.00000000000E+00 -0.15546909577E+04  0.15546909577E+04  0.50400001928E-02 0.  1.
    10030    2    1    2    0    0  0.00000000000E+00  0.00000000000E+00  0.52710486973E+02  0.31620924024E+04  0.31616530433E+04 0.  0.
        3    1    3    3  502    0 -0.11489627247E+04 -0.12779507485E+02  0.11122012045E+04  0.15991467062E+04  0.10100000352E+00 0. -1.
       -3    1    3    3    0  502  0.11489627247E+04  0.12779507485E+02 -0.10594907175E+04  0.15629456962E+04  0.10100000352E+00 0.  1.
</event>
<event>
 5   0  0.1240725E-06  0.3218174E+04  0.7818609E-02  0.8184034E-01
       -1   -1    0    0    0  501  0.00000000000E+00  0.00000000000E+00  0.28550592628E+04  0.28550592628E+04  0.50400001928E-02 0. -1.
        1   -1    0    0  501    0  0.00000000000E+00  0.00000000000E+00 -0.90686771911E+03  0.90686771913E+03  0.50400001928E-02 0.  1.
    10030    2    1    2    0    0  0.00000000000E+00  0.00000000000E+00  0.19481915437E+04  0.37619269820E+04  0.32181740672E+04 0.  0.
        3    1    3    3  502    0 -0.67976956989E+03  0.79819068575E+03  0.24009809106E+04  0.26199054148E+04  0.10100000352E+00 0. -1.
       -3    1    3    3    0  502  0.67976956989E+03 -0.79819068575E+03 -0.45278936690E+03  0.11420215672E+04  0.10100000352E+00 0.  1.
</event>
<event>
 5   0  0.1273980E-06  0.3179912E+04  0.7818609E-02  0.8194143E-01
       -1   -1    0    0    0  501  0.00000000000E+00  0.00000000000E+00  0.16331343599E+04  0.16331343600E+04  0.50400001928E-02 0. -1.
        1   -1    0    0  501    0  0.00000000000E+00  0.00000000000E+00 -0.15479194950E+04  0.15479194950E+04  0.50400001928E-02 0.  1.
    10030    2    1    2    0    0  0.00000000000E+00  0.00000000000E+00  0.85214864917E+02  0.31810538550E+04  0.31799122716E+04 0.  0.
        4    1    3    3  502    0  0.21070655986E+03 -0.61256059223E+03 -0.14099231917E+04  0.15516161745E+04  0.12699999809E+01 0.  1.
       -4    1    3    3    0  502 -0.21070655986E+03  0.61256059223E+03  0.14951380566E+04  0.16294376805E+04  0.12699999809E+01 0. -1.
</event>
<event>
 5   0  0.3656086E-06  0.3163112E+04  0.7818609E-02  0.8198628E-01
       -2   -1    0    0    0  501  0.00000000000E+00  0.00000000000E+00  0.23072470996E+04  0.23072470996E+04  0.25500000920E-02 0. -1.
        2   -1    0    0  501    0  0.00000000000E+00  0.00000000000E+00 -0.10841139687E+04  0.10841139687E+04  0.25500000920E-02 0.  1.
    10030    2    1    2    0    0  0.00000000000E+00  0.00000000000E+00  0.12231331309E+04  0.33913610683E+04  0.31631116389E+04 0.  0.
        3    1    3    3  502    0 -0.51223780449E+03 -0.42606874446E+03  0.21494326701E+04  0.22503295219E+04  0.10100000352E+00 0. -1.
       -3    1    3    3    0  502  0.51223780449E+03  0.42606874446E+03 -0.92629953926E+03  0.11410315464E+04  0.10100000352E+00 0.  1.
</event>
<event>
 5   0  0.3758062E-06  0.3200977E+04  0.7818609E-02  0.8188559E-01
       -2   -1    0    0    0  501  0.00000000000E+00  0.00000000000E+00  0.11471227300E+04  0.11471227300E+04  0.25500000920E-02 0.  1.
        2   -1    0    0  501    0  0.00000000000E+00  0.00000000000E+00 -0.22330338206E+04  0.22330338206E+04  0.25500000920E-02 0. -1.
    10030    2    1    2    0    0  0.00000000000E+00  0.00000000000E+00 -0.10859110906E+04  0.33801565506E+04  0.32009772586E+04 0.  0.
        2    1    3    3  502    0  0.40160343347E+01  0.15724345759E+04 -0.22793239730E+03  0.15888737526E+04  0.25500000920E-02 0. -1.
       -2    1    3    3    0  502 -0.40160343347E+01 -0.15724345759E+04 -0.85797869326E+03  0.17912827979E+04  0.25500000920E-02 0.  1.
</event>
<event>
 5   0  0.3497546E-06  0.3194405E+04  0.7818609E-02  0.8190296E-01
        2   -1    0    0  501    0  0.00000000000E+00  0.00000000000E+00  0.33199134054E+04  0.33199134054E+04  0.25500000920E-02 0. -1.
       -2   -1    0    0    0  501  0.00000000000E+00  0.00000000000E+00 -0.76841059150E+03  0.76841059150E+03  0.25500000920E-02 0.  1.
    10030    2    1    2    0    0  0.00000000000E+00  0.00000000000E+00  0.25515028139E+04  0.40883239969E+04  0.31944054993E+04 0.  0.
        4    1    3    3  502    0  0.71390753893E+03 -0.10100054918E+04 -0.17633124595E+02  0.12369671004E+04  0.12699999809E+01 0.  1.
       -4    1    3    3    0  502 -0.71390753893E+03  0.10100054918E+04  0.25691359384E+04  0.28513568964E+04  0.12699999809E+01 0. -1.
</event>
<event>
 5   0  0.1273754E-06  0.2446003E+04  0.7818609E-02  0.8422479E-01
        1   -1    0    0  501    0  0.00000000000E+00  0.00000000000E+00  0.22262021724E+04  0.22262021724E+04  0.50400001928E-02 0. -1.
       -1   -1    0    0    0  501  0.00000000000E+00  0.00000000000E+00 -0.67187615146E+03  0.67187615148E+03  0.50400001928E-02 0.  1.
    10030    2    1    2    0    0  0.00000000000E+00  0.00000000000E+00  0.15543260209E+04  0.28980783239E+04  0.24460025740E+04 0.  0.
        2    1    3    3  502    0 -0.44169227930E+03  0.11221063096E+04  0.53574545390E+03  0.13195597110E+04  0.25500000920E-02 0.  1.
       -2    1    3    3    0  502  0.44169227930E+03 -0.11221063096E+04  0.10185805671E+04  0.15785186129E+04  0.25500000920E-02 0. -1.
</event>
<event>
 5   0  0.1185575E-06  0.3266884E+04  0.7818609E-02  0.8171373E-01
       -3   -1    0    0    0  501  0.00000000000E+00  0.00000000000E+00  0.15178366594E+04  0.15178366628E+04  0.10100000352E+00 0.  1.
        3   -1    0    0  501    0  0.00000000000E+00  0.00000000000E+00 -0.17578523402E+04  0.17578523431E+04  0.10100000352E+00 0. -1.
    10030    2    1    2    0    0  0.00000000000E+00  0.00000000000E+00 -0.24001568074E+03  0.32756890059E+04  0.32668839796E+04 0.  0.
        5    1    3    3  502    0  0.81323525898E+03 -0.82442829829E+03 -0.12751010197E+04  0.17224802773E+04  0.46999998093E+01 0. -1.
       -5    1    3    3    0  502 -0.81323525898E+03  0.82442829829E+03  0.10350853389E+04  0.15532087285E+04  0.46999998093E+01 0.  1.
</event>
<event>
 5   0  0.3531437E-06  0.3253052E+04  0.7818609E-02  0.8174945E-01
        2   -1    0    0  501    0  0.00000000000E+00  0.00000000000E+00  0.98698641550E+03  0.98698641550E+03  0.25500000920E-02 0.  1.
       -2   -1    0    0    0  501  0.00000000000E+00  0.00000000000E+00 -0.26804688224E+04  0.26804688224E+04  0.25500000920E-02 0. -1.
    10030    2    1    2    0    0  0.00000000000E+00  0.00000000000E+00 -0.16934824069E+04  0.36674552379E+04  0.32530516841E+04 0.  0.
        1    1    3    3  502    0 -0.66317601411E+03 -0.82362938378E+03  0.54658525966E+03  0.11903458462E+04  0.50400001928E-02 0.  1.
       -1    1    3    3    0  502  0.66317601411E+03  0.82362938378E+03 -0.22400676666E+04  0.24771093917E+04  0.50400001928E-02 0. -1.
</event>
<event>
 5   0  0.3758062E-06  0.3191819E+04  0.7818609E-02  0.8190981E-01
       -2   -1    0    0    0  501  0.00000000000E+00  0.00000000000E+00  0.19997345458E+04  0.19997345458E+04  0.25500000920E-02 0. -1.
        2   -1    0    0  501    0  0.00000000000E+00  0.00000000000E+00 -0.12736327043E+04  0.12736327043E+04  0.25500000920E-02 0.  1.
    10030    2    1    2    0    0  0.00000000000E+00  0.00000000000E+00  0.72610184142E+03  0.32733672501E+04  0.31918191161E+04 0.  0.
        2    1    3    3  502    0 -0.26344384798E+03 -0.67383106102E+03  0.18218837526E+04  0.19602834917E+04  0.25500000920E-02 0. -1.
       -2    1    3    3    0  502  0.26344384798E+03  0.67383106102E+03 -0.10957819111E+04  0.13130837584E+04  0.25500000920E-02 0.  1.
</event>
<event>
 5   0  0.1268836E-06  0.3208580E+04  0.7818609E-02  0.8186555E-01
       -1   -1    0    0    0  501  0.00000000000E+00  0.00000000000E+00  0.30241236004E+04  0.30241236005E+04  0.50400001928E-02 0.  1.
        1   -1    0    0  501    0  0.00000000000E+00  0.00000000000E+00 -0.85107187778E+03  0.85107187780E+03  0.50400001928E-02 0. -1.
    10030    2    1    2    0    0  0.00000000000E+00  0.00000000000E+00  0.21730517227E+04  0.38751954782E+04  0.32085800918E+04 0.  0.
        1    1    3    3  502    0 -0.25721911560E+03  0.74252117513E+03  0.27757706775E+04  0.28848574009E+04  0.50400001928E-02 0.  1.
       -1    1    3    3    0  502  0.25721911560E+03 -0.74252117513E+03 -0.60271895487E+03  0.99033807740E+03  0.50400001928E-02 0. -1.
</event>
<event>
 5   0  0.1240725E-06  0.3228331E+04  0.7818609E-02  0.8181375E-01
       -1   -1    0    0    0  501  0.00000000000E+00  0.00000000000E+00  0.16174496399E+04  0.16174496399E+04  0.50400001928E-02 0.  1.
        1   -1    0    0  501    0  0.00000000000E+00  0.00000000000E+00 -0.16108877157E+04  0.16108877157E+04  0.50400001928E-02 0. -1.
    10030    2    1    2    0    0  0.00000000000E+00  0.00000000000E+00  0.65619242146E+01  0.32283373555E+04  0.32283306866E+04 0.  0.
        3    1    3    3  502    0  0.32098510219E+03  0.20488658776E+03  0.15718886126E+04  0.16173570325E+04  0.10100000352E+00 0.  1.
       -3    1    3    3    0  502 -0.32098510219E+03 -0.20488658776E+03 -0.15653266884E+04  0.16109803231E+04  0.10100000352E+00 0. -1.
</event>
<event>
 5   0  0.1273980E-06  0.2828095E+04  0.7818609E-02  0.8294599E-01
       -1   -1    0    0    0  501  0.00000000000E+00  0.00000000000E+00  0.10682770512E+04  0.10682770512E+04  0.50400001928E-02 0. -1.
        1   -1    0    0  501    0  0.00000000000E+00  0.00000000000E+00 -0.18717333128E+04  0.18717333128E+04  0.50400001928E-02 0.  1.
    10030    2    1    2    0    0  0.00000000000E+00  0.00000000000E+00 -0.80345626161E+03  0.29400103640E+04  0.28280945840E+04 0.  0.
        4    1    3    3  502    0  0.73546202478E+03  0.74622452837E+02 -0.16548577419E+04  0.18124648022E+04  0.12699999809E+01 0.  1.
       -4    1    3    3    0  502 -0.73546202478E+03 -0.74622452837E+02  0.85140148028E+03  0.11275455618E+04  0.12699999809E+01 0. -1.
</event>
<event>
 5   0  0.1240725E-06  0.3178277E+04  0.7818609E-02  0.8194578E-01
        1   -1    0    0  501    0  0.00000000000E+00  0.00000000000E+00  0.20171042020E+04  0.20171042020E+04  0.50400001928E-02 0. -1.
       -1   -1    0    0    0  501  0.00000000000E+00  0.00000000000E+00 -0.12519733019E+04  0.12519733019E+04  0.50400001928E-02 0.  1.
    10030    2    1    2    0    0  0.00000000000E+00  0.00000000000E+00  0.76513090009E+03  0.32690775039E+04  0.31782766450E+04 0.  0.
        3    1    3    3  502    0  0.52637164343E+03  0.72439545864E+03 -0.96777972631E+03  0.13184890960E+04  0.10100000352E+00 0.  1.
       -3    1    3    3    0  502 -0.52637164343E+03 -0.72439545864E+03  0.17329106264E+04  0.19505884078E+04  0.10100000352E+00 0. -1.
</event>
<event>
 5   0  0.3656086E-06  0.3205017E+04  0.7818609E-02  0.8187494E-01
        2   -1    0    0  501    0  0.00000000000E+00  0.00000000000E+00  0.29939226644E+04  0.29939226644E+04  0.25500000920E-02 0. -1.
       -2   -1    0    0    0  501  0.00000000000E+00  0.00000000000E+00 -0.85774864343E+03  0.85774864344E+03  0.25500000920E-02 0.  1.
    10030    2    1    2    0    0  0.00000000000E+00  0.00000000000E+00  0.21361740210E+04  0.38516713078E+04  0.32050167575E+04 0.  0.
        3    1    3    3  502    0 -0.55435180818E+03  0.79891925490E+03 -0.46266651886E+03  0.10768649966E+04  0.10100000352E+00 0.  1.
       -3    1    3    3    0  502  0.55435180818E+03 -0.79891925490E+03  0.25988405398E+04  0.27748063112E+04  0.10100000352E+00 0. -1.
</event>
<event>
 5   0  0.1273754E-06  0.3093128E+04  0.7818609E-02  0.8217626E-01
        1   -1    0    0  501    0  0.00000000000E+00  0.00000000000E+00  0.82306312800E+03  0.82306312801E+03  0.50400001928E-02 0. -1.
       -1   -1    0    0    0  501  0.00000000000E+00  0.00000000000E+00 -0.29060470387E+04  0.29060470387E+04  0.50400001928E-02 0.  1.
    10030    2    1    2    0    0  0.00000000000E+00  0.00000000000E+00 -0.20829839107E+04  0.37291101667E+04  0.30931279740E+04 0.  0.
        2    1    3    3  502    0  0.13838595850E+04 -0.21957031012E+03 -0.18307592978E+04  0.23054192848E+04  0.25500000920E-02 0.  1.
       -2    1    3    3    0  502 -0.13838595850E+04  0.21957031012E+03 -0.25222461287E+03  0.14236908819E+04  0.25500000920E-02 0. -1.
</event>
<event>
 5   0  0.3531437E-06  0.3213747E+04  0.7818609E-02  0.8185196E-01
        2   -1    0    0  501    0  0.00000000000E+00  0.00000000000E+00  0.26186276126E+04  0.26186276126E+04  0.25500000920E-02 0. -1.
       -2   -1    0    0    0  501  0.00000000000E+00  0.00000000000E+00 -0.98602864751E+03  0.98602864751E+03  0.25500000920E-02 0.  1.
    10030    2    1    2    0    0  0.00000000000E+00  0.00000000000E+00  0.16325989650E+04  0.36046562601E+04  0.32137466254E+04 0.  0.
        1    1    3    3  502    0  0.44739404589E+03  0.38332058306E+03 -0.86051769823E+03  0.10428743024E+04  0.50400001928E-02 0.  1.
       -1    1    3    3    0  502 -0.44739404589E+03 -0.38332058306E+03  0.24931166633E+04  0.25617819576E+04  0.50400001928E-02 0. -1.
</event>
<event>
 5   0  0.1273754E-06  0.3249999E+04  0.7818609E-02  0.8175736E-01
        1   -1    0    0  501    0  0.00000000000E+00  0.00000000000E+00  0.17300387060E+04  0.17300387060E+04  0.50400001928E-02 0. -1.
       -1   -1    0    0    0  501  0.00000000000E+00  0.00000000000E+00 -0.15263379251E+04  0.15263379251E+04  0.50400001928E-02 0.  1.
    10030    2    1    2    0    0  0.00000000000E+00  0.00000000000E+00  0.20370078090E+03  0.32563766310E+04  0.32499991931E+04 0.  0.
        2    1    3    3  502    0  0.14434443379E+04  0.52730355654E+03 -0.42743147434E+03  0.15950793907E+04  0.25500000920E-02 0.  1.
       -2    1    3    3    0  502 -0.14434443379E+04 -0.52730355654E+03  0.63113225524E+03  0.16612972404E+04  0.25500000920E-02 0. -1.
</event>
<event>
 5   0  0.1240725E-06  0.3115659E+04  0.7818609E-02  0.8211454E-01
        1   -1    0    0  501    0  0.00000000000E+00  0.00000000000E+00  0.33717637961E+04  0.33717637961E+04  0.50400001928E-02 0. -1.
       -1   -1    0    0    0  501  0.00000000000E+00  0.00000000000E+00 -0.71975175236E+03  0.71975175238E+03  0.50400001928E-02 0.  1.
    10030    2    1    2    0    0  0.00000000000E+00  0.00000000000E+00  0.26520120437E+04  0.40915155485E+04  0.31156590961E+04 0.  0.
        3    1    3    3  502    0  0.59686358963E+03 -0.81063859659E+03 -0.23525233718E+03  0.10337914448E+04  0.10100000352E+00 0.  1.
       -3    1    3    3    0  502 -0.59686358963E+03  0.81063859659E+03  0.28872643809E+04  0.30577241037E+04  0.10100000352E+00 0. -1.
</event>
<event>
 5   0  0.3497546E-06  0.3174706E+04  0.7818609E-02  0.8195529E-01
       -2   -1    0    0    0  501  0.00000000000E+00  0.00000000000E+00  0.15455512210E+04  0.15455512210E+04  0.25500000920E-02 0.  1.
        2   -1    0    0  501    0  0.00000000000E+00  0.00000000000E+00 -0.16302857664E+04  0.16302857664E+04  0.25500000920E-02 0. -1.
    10030    2    1    2    0    0  0.00000000000E+00  0.00000000000E+00 -0.84734545330E+02  0.31758369874E+04  0.31747063844E+04 0.  0.
        4    1    3    3  502    0  0.89983352164E+03 -0.44450040425E+03 -0.12726050473E+04  0.16207424828E+04  0.12699999809E+01 0. -1.
       -4    1    3    3    0  502 -0.89983352164E+03  0.44450040425E+03  0.11878705020E+04  0.15550945047E+04  0.12699999809E+01 0.  1.
</event>
<event>
 5   0  0.1273980E-06  0.3279366E+04  0.7818609E-02  0.8168166E-01
       -1   -1    0    0    0  501  0.00000000000E+00  0.00000000000E+00  0.34874909467E+04  0.34874909467E+04  0.50400001928E-02 0.  1.
        1   -1    0    0  501    0  0.00000000000E+00  0.00000000000E+00 -0.77091527092E+03  0.77091527094E+03  0.50400001928E-02 0. -1.
    10030    2    1    2    0    0  0.00000000000E+00  0.00000000000E+00  0.27165756757E+04  0.42584062176E+04  0.32793658094E+04 0.  0.
        4    1    3    3  502    0  0.92714957642E+03  0.85866117166E+03  0.27150369410E+04  0.29947174405E+04  0.12699999809E+01 0.  1.
       -4    1    3    3    0  502 -0.92714957642E+03 -0.85866117166E+03  0.15387347764E+01  0.12636887771E+04  0.12699999809E+01 0. -1.
</event>
<event>
 5   0  0.3758062E-06  0.3228812E+04  0.7818609E-02  0.8181249E-01
       -2   -1    0    0    0  501  0.00000000000E+00  0.00000000000E+00  0.16346209222E+04  0.16346209222E+04  0.25500000920E-02 0. -1.
        2   -1    0    0  501    0  0.00000000000E+00  0.00000000000E+00 -0.15944411323E+04  0.15944411323E+04  0.25500000920E-02 0.  1.
    10030    2    1    2    0    0  0.00000000000E+00  0.00000000000E+00  0.40179789923E+02  0.32290620545E+04  0.32288120627E+04 0.  0.
        2    1    3    3  502    0  0.10793332928E+04 -0.75604137119E+03  0.95276486969E+03  0.16261364668E+04  0.25500000920E-02 0. -1.
       -2    1    3    3    0  502 -0.10793332928E+04  0.75604137119E+03 -0.91258507977E+03  0.16029255877E+04  0.25500000920E-02 0.  1.
</event>
<event>
 5   0  0.1306843E-06  0.2979771E+04  0.7818609E-02  0.8249531E-01
        1   -1    0    0  501    0  0.00000000000E+00  0.00000000000E+00  0.24620583137E+04  0.24620583137E+04  0.50400001928E-02 0.  1.
       -1   -1    0    0    0  501  0.00000000000E+00  0.00000000000E+00 -0.90158643652E+03  0.90158643653E+03  0.50400001928E-02 0. -1.
    10030    2    1    2    0    0  0.00000000000E+00  0.00000000000E+00  0.15604718771E+04  0.33636447502E+04  0.29797707171E+04 0.  0.
        5    1    3    3  502    0  0.65569841386E+03 -0.30993021244E+03 -0.68886127921E+03  0.10002745116E+04  0.46999998093E+01 0. -1.
       -5    1    3    3    0  502 -0.65569841386E+03  0.30993021244E+03  0.22493331564E+04  0.23633702386E+04  0.46999998093E+01 0.  1.
</event>
<event>
 5   0  0.3656086E-06  0.3209360E+04  0.7818609E-02  0.8186350E-01
       -2   -1    0    0    0  501  0.00000000000E+00  0.00000000000E+00  0.20561490911E+04  0.20561490911E+04  0.25500000920E-02 0. -1.
        2   -1    0    0  501    0  0.00000000000E+00  0.00000000000E+00 -0.12523400820E+04  0.12523400820E+04  0.25500000920E-02 0.  1.
    10030    2    1    2    0    0  0.00000000000E+00  0.00000000000E+00  0.80380900913E+03  0.33084891732E+04  0.32093600119E+04 0.  0.
        3    1    3    3  502    0  0.11320956326E+04  0.68815271494E+03  0.13353008442E+04  0.18810164899E+04  0.10100000352E+00 0. -1.
       -3    1    3    3    0  502 -0.11320956326E+04 -0.68815271494E+03 -0.53149183507E+03  0.14274726833E+04  0.10100000352E+00 0.  1.
</event>
<event>
 5   0  0.1273754E-06  0.2673938E+04  0.7818609E-02  0.8343511E-01
       -1   -1    0    0    0  501  0.00000000000E+00  0.00000000000E+00  0.76359703073E+03  0.76359703074E+03  0.50400001928E-02 0. -1.
        1   -1    0    0  501    0  0.00000000000E+00  0.00000000000E+00 -0.23408766889E+04  0.23408766889E+04  0.50400001928E-02 0.  1.
    10030    2    1    2    0    0  0.00000000000E+00  0.00000000000E+00 -0.15772796582E+04  0.31044737197E+04  0.26739382857E+04 0.  0.
        2    1    3    3  502    0  0.92147965955E+03  0.83963501749E+02  0.33178874018E+03  0.98298443564E+03  0.25500000920E-02 0. -1.
       -2    1    3    3    0  502 -0.92147965955E+03 -0.83963501749E+02 -0.19090683984E+04  0.21214892840E+04  0.25500000920E-02 0.  1.
</event>
<event>
 5   0  0.3758062E-06  0.3195185E+04  0.7818609E-02  0.8190090E-01
       -2   -1    0    0    0  501  0.00000000000E+00  0.00000000000E+00  0.14765013076E+04  0.14765013076E+04  0.25500000920E-02 0.  1.
        2   -1    0    0  501    0  0.00000000000E+00  0.00000000000E+00 -0.17286144327E+04  0.17286144327E+04  0.25500000920E-02 0. -1.
    10030    2    1    2    0    0  0.00000000000E+00  0.00000000000E+00 -0.25211312513E+03  0.32051157403E+04  0.31951847960E+04 0.  0.
        2    1    3    3  502    0 -0.10957883789E+04 -0.37359981752E+03 -0.12303744694E+04  0.16894230760E+04  0.25500000920E-02 0. -1.
       -2    1    3    3    0  502  0.10957883789E+04  0.37359981752E+03  0.97826134422E+03  0.15156926643E+04  0.25500000920E-02 0.  1.
</event>
<event>
 5   0  0.3531437E-06  0.3011702E+04  0.7818609E-02  0.8240397E-01
       -2   -1    0    0    0  501  0.00000000000E+00  0.00000000000E+00  0.13020214337E+04  0.13020214337E+04  0.25500000920E-02 0.  1.
        2   -1    0    0  501    0  0.00000000000E+00  0.00000000000E+00 -0.17415896712E+04  0.17415896712E+04  0.25500000920E-02 0. -1.
    10030    2    1    2    0    0  0.00000000000E+00  0.00000000000E+00 -0.43956823753E+03  0.30436111049E+04  0.30117018980E+04 0.  0.
        1    1    3    3  502    0 -0.94225074883E+03 -0.75627951469E+03  0.68851088449E+03  0.13906266271E+04  0.50400001928E-02 0.  1.
       -1    1    3    3    0  502  0.94225074883E+03  0.75627951469E+03 -0.11280791220E+04  0.16529844777E+04  0.50400001928E-02 0. -1.
</event>
<event>
 5   0  0.1240725E-06  0.3182492E+04  0.7818609E-02  0.8193456E-01
        1   -1    0    0  501    0  0.00000000000E+00  0.00000000000E+00  0.87577413915E+03  0.87577413917E+03  0.50400001928E-02 0. -1.
       -1   -1    0    0    0  501  0.00000000000E+00  0.00000000000E+00 -0.28912299740E+04  0.28912299740E+04  0.50400001928E-02 0.  1.
    10030    2    1    2    0    0  0.00000000000E+00  0.00000000000E+00 -0.20154558349E+04  0.37670041132E+04  0.31824923828E+04 0.  0.
        3    1    3    3  502    0  0.98652343611E+03  0.12484830230E+04 -0.10210188878E+04  0.18906131090E+04  0.10100000352E+00 0. -1.
       -3    1    3    3    0  502 -0.98652343611E+03 -0.12484830230E+04 -0.99443694706E+03  0.18763910042E+04  0.10100000352E+00 0.  1.
</event>
<event>
 5   0  0.1273980E-06  0.3171912E+04  0.7818609E-02  0.8196275E-01
       -1   -1    0    0    0  501  0.00000000000E+00  0.00000000000E+00  0.13105701969E+04  0.13105701969E+04  0.50400001928E-02 0.  1.
        1   -1    0    0  501    0  0.00000000000E+00  0.00000000000E+00 -0.19192071408E+04  0.19192071409E+04  0.50400001928E-02 0. -1.
    10030    2    1    2    0    0  0.00000000000E+00  0.00000000000E+00 -0.60863694398E+03  0.32297773377E+04  0.31719115249E+04 0.  0.
        4    1    3    3  502    0 -0.29497547089E+03 -0.72922709498E+03 -0.17065659413E+04  0.18791358677E+04  0.12699999809E+01 0. -1.
       -4    1    3    3    0  502  0.29497547089E+03  0.72922709498E+03  0.10979289973E+04  0.13506414700E+04  0.12699999809E+01 0.  1.
</event>
<event>
 5   0  0.3758062E-06  0.3159468E+04  0.7818609E-02  0.8199604E-01
        2   -1    0    0  501    0  0.00000000000E+00  0.00000000000E+00  0.10292011634E+04  0.10292011634E+04  0.25500000920E-02 0.  1.
       -2   -1    0    0    0  501  0.00000000000E+00  0.00000000000E+00 -0.24247534747E+04  0.24247534747E+04  0.25500000920E-02 0. -1.
    10030    2    1    2    0    0  0.00000000000E+00  0.00000000000E+00 -0.13955523113E+04  0.34539546381E+04  0.31594677382E+04 0.  0.
        2    1    3    3  502    0 -0.77243351778E+02 -0.29953695772E+03 -0.23913205220E+04  0.24112450650E+04  0.25500000920E-02 0. -1.
       -2    1    3    3    0  502  0.77243351778E+02  0.29953695772E+03  0.99576821071E+03  0.10427095731E+04  0.25500000920E-02 0.  1.
</event>
<event>
 5   0  0.3497546E-06  0.3254254E+04  0.7818609E-02  0.8174634E-01
       -2   -1    0    0    0  501  0.00000000000E+00  0.00000000000E+00  0.10426724858E+04  0.10426724858E+04  0.25500000920E-02 0. -1.
        2   -1    0    0  501    0  0.00000000000E+00  0.00000000000E+00 -0.25391883609E+04  0.25391883609E+04  0.25500000920E-02 0.  1.
    10030    2    1    2    0    0  0.00000000000E+00  0.00000000000E+00 -0.14965158751E+04  0.35818608466E+04  0.32542537332E+04 0.  0.
        4    1    3    3  502    0  0.12563325635E+04  0.13397645437E+03 -0.18767640206E+04  0.22624248059E+04  0.12699999809E+01 0.  1.
       -4    1    3    3    0  502 -0.12563325635E+04 -0.13397645437E+03  0.38024814553E+03  0.13194360407E+04  0.12699999809E+01 0. -1.
</event>
<event>
 5   0  0.3656086E-06  0.3142095E+04  0.7818609E-02  0.8204279E-01
        2   -1    0    0  501    0  0.00000000000E+00  0.00000000000E+00  0.21681203591E+04  0.21681203591E+04  0.25500000920E-02 0. -1.
       -2   -1    0    0    0  501  0.00000000000E+00  0.00000000000E+00 -0.11384008749E+04  0.11384008749E+04  0.25500000920E-02 0.  1.
    10030    2    1    2    0    0  0.00000000000E+00  0.00000000000E+00  0.10297194842E+04  0.33065212340E+04  0.31420949150E+04 0.  0.
        3    1    3    3  502    0  0.10974907782E+04  0.11221612836E+04  0.44459632044E+03  0.16313791261E+04  0.10100000352E+00 0.  1.
       -3    1    3    3    0  502 -0.10974907782E+04 -0.11221612836E+04  0.58512316378E+03  0.16751421079E+04  0.10100000352E+00 0. -1.
</event>
<event>
 5   0  0.3745943E-06  0.3170058E+04  0.7818609E-02  0.8196770E-01
        2   -1    0    0  501    0  0.00000000000E+00  0.00000000000E+00  0.19034340538E+04  0.19034340538E+04  0.25500000920E-02 0.  1.
       -2   -1    0    0    0  501  0.00000000000E+00  0.00000000000E+00 -0.13198864467E+04  0.13198864467E+04  0.25500000920E-02 0. -1.
    10030    2    1    2    0    0  0.00000000000E+00  0.00000000000E+00  0.58354760707E+03  0.32233205005E+04  0.31700579236E+04 0.  0.
        5    1    3    3  502    0  0.58898404407E+03  0.45831031521E+03  0.17136045390E+04  0.18690674560E+04  0.46999998093E+01 0.  1.
       -5    1    3    3    0  502 -0.58898404407E+03 -0.45831031521E+03 -0.11300569319E+04  0.13542530445E+04  0.46999998093E+01 0. -1.
</event>
<event>
 5   0  0.1273980E-06  0.3183442E+04  0.7818609E-02  0.8193204E-01
       -1   -1    0    0    0  501  0.00000000000E+00  0.00000000000E+00  0.14014717276E+04  0.14014717276E+04  0.50400001928E-02 0. -1.
        1   -1    0    0  501    0  0.00000000000E+00  0.00000000000E+00 -0.18077967010E+04  0.18077967010E+04  0.50400001928E-02 0.  1.
    10030    2    1    2    0    0  0.00000000000E+00  0.00000000000E+00 -0.40632497347E+03  0.32092684286E+04  0.31834421407E+04 0.  0.
        4    1    3    3  502    0 -0.43592825803E+03  0.15265185163E+04 -0.31934556587E+03  0.16193441358E+04  0.12699999809E+01 0. -1.
       -4    1    3    3    0  502  0.43592825803E+03 -0.15265185163E+04 -0.86979407593E+02  0.15899242928E+04  0.12699999809E+01 0.  1.
</event>
<event>
 5   0  0.1306843E-06  0.3165390E+04  0.7818609E-02  0.8198018E-01
       -1   -1    0    0    0  501  0.00000000000E+00  0.00000000000E+00  0.10524768960E+04  0.10524768960E+04  0.50400001928E-02 0.  1.
        1   -1    0    0  501    0  0.00000000000E+00  0.00000000000E+00 -0.23800271357E+04  0.23800271357E+04  0.50400001928E-02 0. -1.
    10030    2    1    2    0    0  0.00000000000E+00  0.00000000000E+00 -0.13275502397E+04  0.34325040317E+04  0.31653900690E+04 0.  0.
        5    1    3    3  502    0  0.97515278527E+03  0.99939276508E+03  0.14421428555E+03  0.14037552150E+04  0.46999998093E+01 0.  1.
       -5    1    3    3    0  502 -0.97515278527E+03 -0.99939276508E+03 -0.14717645253E+04  0.20287488167E+04  0.46999998093E+01 0. -1.
</event>
<event>
 5   0  0.1268836E-06  0.3105592E+04  0.7818609E-02  0.8214205E-01
       -1   -1    0    0    0  501  0.00000000000E+00  0.00000000000E+00  0.14640892272E+04  0.14640892272E+04  0.50400001928E-02 0.  1.
        1   -1    0    0  501    0  0.00000000000E+00  0.00000000000E+00 -0.16468768569E+04  0.16468768569E+04  0.50400001928E-02 0. -1.
    10030    2    1    2    0    0  0.00000000000E+00  0.00000000000E+00 -0.18278762965E+03  0.31109660841E+04  0.31055915151E+04 0.  0.
        1    1    3    3  502    0  0.10431986998E+03 -0.63956616401E+03  0.13221638462E+04  0.14724281815E+04  0.50400001928E-02 0.  1.
       -1    1    3    3    0  502 -0.10431986998E+03  0.63956616401E+03 -0.15049514759E+04  0.16385379026E+04  0.50400001928E-02 0. -1.
</event>
<event>
 5   0  0.3497546E-06  0.3198486E+04  0.7818609E-02  0.8189217E-01
       -2   -1    0    0    0  501  0.00000000000E+00  0.00000000000E+00  0.14940210563E+04  0.14940210563E+04  0.25500000920E-02 0. -1.
        2   -1    0    0  501    0  0.00000000000E+00  0.00000000000E+00 -0.17118752691E+04  0.17118752691E+04  0.25500000920E-02 0.  1.
    10030    2    1    2    0    0  0.00000000000E+00  0.00000000000E+00 -0.21785421282E+03  0.32058963254E+04  0.31984857028E+04 0.  0.
        4    1    3    3  502    0 -0.21764359504E+03  0.15054910217E+04 -0.60373487328E+03  0.16365724430E+04  0.12699999809E+01 0.  1.
       -4    1    3    3    0  502  0.21764359504E+03 -0.15054910217E+04  0.38588066046E+03  0.15693238824E+04  0.12699999809E+01 0. -1.
</event>
<event>
 5   0  0.3497546E-06  0.3200080E+04  0.7818609E-02  0.8188796E-01
       -2   -1    0    0    0  501  0.00000000000E+00  0.00000000000E+00  0.11207823066E+04  0.11207823066E+04  0.25500000920E-02 0. -1.
        2   -1    0    0  501    0  0.00000000000E+00  0.00000000000E+00 -0.22842324365E+04  0.22842324365E+04  0.25500000920E-02 0.  1.
    10030    2    1    2    0    0  0.00000000000E+00  0.00000000000E+00 -0.11634501299E+04  0.34050147432E+04  0.32000795610E+04 0.  0.
        4    1    3    3  502    0 -0.17624798533E+03  0.11367870682E+04 -0.17650499774E+04  0.21068344089E+04  0.12699999809E+01 0.  1.
       -4    1    3    3    0  502  0.17624798533E+03 -0.11367870682E+04  0.60159984755E+03  0.12981803343E+04  0.12699999809E+01 0. -1.
</event>
<event>
 5   0  0.1185575E-06  0.3188458E+04  0.7818609E-02  0.8191872E-01
        3   -1    0    0  501    0  0.00000000000E+00  0.00000000000E+00  0.87803671660E+03  0.87803672241E+03  0.10100000352E+00 0.  1.
       -3   -1    0    0    0  501  0.00000000000E+00  0.00000000000E+00 -0.28946016025E+04  0.28946016042E+04  0.10100000352E+00 0. -1.
    10030    2    1    2    0    0  0.00000000000E+00  0.00000000000E+00 -0.20165648859E+04  0.37726383266E+04  0.31884582489E+04 0.  0.
        4    1    3    3  502    0  0.15446821828E+04  0.14548116877E+03 -0.14419877170E+04  0.21181449443E+04  0.12699999809E+01 0.  1.
       -4    1    3    3    0  502 -0.15446821828E+04 -0.14548116877E+03 -0.57457716892E+03  0.16544933823E+04  0.12699999809E+01 0. -1.
</event>
<event>
 5   0  0.3758062E-06  0.3301227E+04  0.7818609E-02  0.8162583E-01
       -2   -1    0    0    0  501  0.00000000000E+00  0.00000000000E+00  0.10922383851E+04  0.10922383851E+04  0.25500000920E-02 0.  1.
        2   -1    0    0  501    0  0.00000000000E+00  0.00000000000E+00 -0.24944409964E+04  0.24944409964E+04  0.25500000920E-02 0. -1.
    10030    2    1    2    0    0  0.00000000000E+00  0.00000000000E+00 -0.14022026112E+04  0.35866793815E+04  0.33012265634E+04 0.  0.
        2    1    3    3  502    0 -0.50228437044E+03 -0.21444042725E+03 -0.23934310677E+04  0.24549514377E+04  0.25500000920E-02 0. -1.
       -2    1    3    3    0  502  0.50228437044E+03  0.21444042725E+03  0.99122845652E+03  0.11317279437E+04  0.25500000920E-02 0.  1.
</event>
<event>
 5   0  0.1273754E-06  0.2315382E+04  0.7818609E-02  0.8471881E-01
       -1   -1    0    0    0  501  0.00000000000E+00  0.00000000000E+00  0.92394754172E+03  0.92394754173E+03  0.50400001928E-02 0.  1.
        1   -1    0    0  501    0  0.00000000000E+00  0.00000000000E+00 -0.14505682520E+04  0.14505682520E+04  0.50400001928E-02 0. -1.
    10030    2    1    2    0    0  0.00000000000E+00  0.00000000000E+00 -0.52662071032E+03  0.23745157938E+04  0.23153824484E+04 0.  0.
        2    1    3    3  502    0  0.30684775491E+03  0.62720243978E+03 -0.12103172427E+04  0.13972853227E+04  0.25500000920E-02 0.  1.
       -2    1    3    3    0  502 -0.30684775491E+03 -0.62720243978E+03  0.68369653237E+03  0.97723047104E+03  0.25500000920E-02 0. -1.
</event>
<event>
 5   0  0.1240725E-06  0.3107426E+04  0.7818609E-02  0.8213703E-01
        1   -1    0    0  501    0  0.00000000000E+00  0.00000000000E+00  0.23694281292E+04  0.23694281292E+04  0.50400001928E-02 0. -1.
       -1   -1    0    0    0  501  0.00000000000E+00  0.00000000000E+00 -0.10188214604E+04  0.10188214604E+04  0.50400001928E-02 0.  1.
    10030    2    1    2    0    0  0.00000000000E+00  0.00000000000E+00  0.13506066688E+04  0.33882495896E+04  0.31074260904E+04 0.  0.
        3    1    3    3  502    0 -0.63982455888E+03  0.68705679373E+03  0.20251649247E+04  0.22321996968E+04  0.10100000352E+00 0. -1.
       -3    1    3    3    0  502  0.63982455888E+03 -0.68705679373E+03 -0.67455825582E+03  0.11560498928E+04  0.10100000352E+00 0.  1.
</event>
<event>
 5   0  0.3745943E-06  0.3054386E+04  0.7818609E-02  0.8228369E-01
        2   -1    0    0  501    0  0.00000000000E+00  0.00000000000E+00  0.14201707515E+04  0.14201707515E+04  0.25500000920E-02 0.  1.
       -2   -1    0    0    0  501  0.00000000000E+00  0.00000000000E+00 -0.16422806168E+04  0.16422806168E+04  0.25500000920E-02 0. -1.
    10030    2    1    2    0    0  0.00000000000E+00  0.00000000000E+00 -0.22210986536E+03  0.30624513683E+04  0.30543862871E+04 0.  0.
        5    1    3    3  502    0  0.43064794759E+03 -0.10089394510E+04  0.95423836302E+03  0.14539633469E+04  0.46999998093E+01 0.  1.
       -5    1    3    3    0  502 -0.43064794759E+03  0.10089394510E+04 -0.11763482284E+04  0.16084880214E+04  0.46999998093E+01 0. -1.
</event>
<event>
 5   0  0.3531437E-06  0.3209264E+04  0.7818609E-02  0.8186375E-01
        2   -1    0    0  501    0  0.00000000000E+00  0.00000000000E+00  0.27769086687E+04  0.27769086687E+04  0.25500000920E-02 0. -1.
       -2   -1    0    0    0  501  0.00000000000E+00  0.00000000000E+00 -0.92723391364E+03  0.92723391364E+03  0.25500000920E-02 0.  1.
    10030    2    1    2    0    0  0.00000000000E+00  0.00000000000E+00  0.18496747550E+04  0.37041425823E+04  0.32092640232E+04 0.  0.
        1    1    3    3  502    0 -0.90017404300E+03 -0.13276008192E+04  0.97654065021E+03  0.18778894761E+04  0.50400001928E-02 0. -1.
       -1    1    3    3    0  502  0.90017404300E+03  0.13276008192E+04  0.87313410483E+03  0.18262531062E+04  0.50400001928E-02 0.  1.
</event>
<event>
 5   0  0.1273980E-06  0.3194543E+04  0.7818609E-02  0.8190260E-01
       -1   -1    0    0    0  501  0.00000000000E+00  0.00000000000E+00  0.99578894032E+03  0.99578894033E+03  0.50400001928E-02 0.  1.
        1   -1    0    0  501    0  0.00000000000E+00  0.00000000000E+00 -0.25620657222E+04  0.25620657222E+04  0.50400001928E-02 0. -1.
    10030    2    1    2    0    0  0.00000000000E+00  0.00000000000E+00 -0.15662767818E+04  0.35578546625E+04  0.31945432916E+04 0.  0.
        4    1    3    3  502    0 -0.10636795955E+04 -0.94829941622E+03  0.20437563420E+02  0.14251685414E+04  0.12699999809E+01 0.  1.
       -4    1    3    3    0  502  0.10636795955E+04  0.94829941622E+03 -0.15867143453E+04  0.21326861211E+04  0.12699999809E+01 0. -1.
</event>
<event>
 5   0  0.1273980E-06  0.3176914E+04  0.7818609E-02  0.8194941E-01
       -1   -1    0    0    0  501  0.00000000000E+00  0.00000000000E+00  0.13353400463E+04  0.13353400463E+04  0.50400001928E-02 0. -1.
        1   -1    0    0  501    0  0.00000000000E+00  0.00000000000E+00 -0.18895534065E+04  0.18895534065E+04  0.50400001928E-02 0.  1.
    10030    2    1    2    0    0  0.00000000000E+00  0.00000000000E+00 -0.55421336017E+03  0.32248934528E+04  0.31769144359E+04 0.  0.
        4    1    3    3  502    0  0.13967770409E+04  0.51453050386E+03  0.28576460383E+03  0.15157146048E+04  0.12699999809E+01 0. -1.
       -4    1    3    3    0  502 -0.13967770409E+04 -0.51453050386E+03 -0.83997796400E+03  0.17091788480E+04  0.12699999809E+01 0.  1.
</event>
<event>
 5   0  0.1306843E-06  0.3186000E+04  0.7818609E-02  0.8192524E-01
       -1   -1    0    0    0  501  0.00000000000E+00  0.00000000000E+00  0.21330727789E+04  0.21330727789E+04  0.50400001928E-02 0.  1.
        1   -1    0    0  501    0  0.00000000000E+00  0.00000000000E+00 -0.11896680846E+04  0.11896680846E+04  0.50400001928E-02 0. -1.
    10030    2    1    2    0    0  0.00000000000E+00  0.00000000000E+00  0.94340469434E+03  0.33227408635E+04  0.31859997534E+04 0.  0.
        5    1    3    3  502    0 -0.15437168210E+04 -0.29612944108E+03  0.20200684989E+03  0.15847975034E+04  0.46999998093E+01 0.  1.
       -5    1    3    3    0  502  0.15437168210E+04  0.29612944108E+03  0.74139784445E+03  0.17379433601E+04  0.46999998093E+01 0. -1.
</event>
<event>
 5   0  0.3497546E-06  0.3103030E+04  0.7818609E-02  0.8214907E-01
       -2   -1    0    0    0  501  0.00000000000E+00  0.00000000000E+00  0.23401517593E+04  0.23401517593E+04  0.25500000920E-02 0.  1.
        2   -1    0    0  501    0  0.00000000000E+00  0.00000000000E+00 -0.10286505386E+04  0.10286505386E+04  0.25500000920E-02 0. -1.
    10030    2    1    2    0    0  0.00000000000E+00  0.00000000000E+00  0.13115012208E+04  0.33688022979E+04  0.31030297243E+04 0.  0.
        4    1    3    3  502    0 -0.91563905032E+03 -0.12202128271E+04  0.96259311828E+03  0.18038573497E+04  0.12699999809E+01 0.  1.
       -4    1    3    3    0  502  0.91563905032E+03  0.12202128271E+04  0.34890810249E+03  0.15649449482E+04  0.12699999809E+01 0. -1.
</event>
<event>
 5   0  0.1306843E-06  0.2874802E+04  0.7818609E-02  0.8280414E-01
        1   -1    0    0  501    0  0.00000000000E+00  0.00000000000E+00  0.15504058921E+04  0.15504058921E+04  0.50400001928E-02 0.  1.
       -1   -1    0    0    0  501  0.00000000000E+00  0.00000000000E+00 -0.13326329841E+04  0.13326329841E+04  0.50400001928E-02 0. -1.
    10030    2    1    2    0    0  0.00000000000E+00  0.00000000000E+00  0.21777290797E+03  0.28830388762E+04  0.28748022753E+04 0.  0.
        5    1    3    3  502    0  0.48973789001E+03  0.10063453644E+04  0.10134272730E+04  0.15098447341E+04  0.46999998093E+01 0.  1.
       -5    1    3    3    0  502 -0.48973789001E+03 -0.10063453644E+04 -0.79565436499E+03  0.13731941421E+04  0.46999998093E+01 0. -1.
</event>
<event>
 5   0  0.3656086E-06  0.3132456E+04  0.7818609E-02  0.8206887E-01
       -2   -1    0    0    0  501  0.00000000000E+00  0.00000000000E+00  0.75093037754E+03  0.75093037755E+03  0.25500000920E-02 0.  1.
        2   -1    0    0  501    0  0.00000000000E+00  0.00000000000E+00 -0.32667071109E+04  0.32667071109E+04  0.25500000920E-02 0. -1.
    10030    2    1    2    0    0  0.00000000000E+00  0.00000000000E+00 -0.25157767333E+04  0.40176374884E+04  0.31324556528E+04 0.  0.
        3    1    3    3  502    0 -0.52314996083E+03 -0.14750183690E+04 -0.13359525819E+04  0.20577012372E+04  0.10100000352E+00 0.  1.
       -3    1    3    3    0  502  0.52314996083E+03  0.14750183690E+04 -0.11798241515E+04  0.19599362512E+04  0.10100000352E+00 0. -1.
</event>
<event>
 5   0  0.3656086E-06  0.3203477E+04  0.7818609E-02  0.8187900E-01
       -2   -1    0    0    0  501  0.00000000000E+00  0.00000000000E+00  0.14596714540E+04  0.14596714540E+04  0.25500000920E-02 0. -1.
        2   -1    0    0  501    0  0.00000000000E+00  0.00000000000E+00 -0.17576322404E+04  0.17576322404E+04  0.25500000920E-02 0.  1.
    10030    2    1    2    0    0  0.00000000000E+00  0.00000000000E+00 -0.29796078638E+03  0.32173036944E+04  0.32034766164E+04 0.  0.
        3    1    3    3  502    0 -0.11943004519E+04  0.10123229226E+04 -0.48869225223E+03  0.16401132267E+04  0.10100000352E+00 0.  1.
       -3    1    3    3    0  502  0.11943004519E+04 -0.10123229226E+04  0.19073146585E+03  0.15771904676E+04  0.10100000352E+00 0. -1.
</event>
<event>
 5   0  0.1185575E-06  0.3170754E+04  0.7818609E-02  0.8196584E-01
        3   -1    0    0  501    0  0.00000000000E+00  0.00000000000E+00  0.16335097621E+04  0.16335097652E+04  0.10100000352E+00 0.  1.
       -3   -1    0    0    0  501  0.00000000000E+00  0.00000000000E+00 -0.15386627896E+04  0.15386627929E+04  0.10100000352E+00 0. -1.
    10030    2    1    2    0    0  0.00000000000E+00  0.00000000000E+00  0.94846972491E+02  0.31721725582E+04  0.31707542936E+04 0.  0.
        3    1    3    3  502    0 -0.11782797668E+04 -0.41010142321E+03 -0.93122380566E+03  0.15568250295E+04  0.10100000352E+00 0. -1.
       -3    1    3    3    0  502  0.11782797668E+04  0.41010142321E+03  0.10260707782E+04  0.16153475286E+04  0.10100000352E+00 0.  1.
</event>
<event>
 5   0  0.1306843E-06  0.2322569E+04  0.7818609E-02  0.8469075E-01
        1   -1    0    0  501    0  0.00000000000E+00  0.00000000000E+00  0.10161190963E+04  0.10161190963E+04  0.50400001928E-02 0. -1.
       -1   -1    0    0    0  501  0.00000000000E+00  0.00000000000E+00 -0.13271889002E+04  0.13271889002E+04  0.50400001928E-02 0.  1.
    10030    2    1    2    0    0  0.00000000000E+00  0.00000000000E+00 -0.31106980389E+03  0.23433079964E+04  0.23225692548E+04 0.  0.
        5    1    3    3  502    0 -0.45692011116E+03 -0.33217833834E+03  0.86813875945E+03  0.10357632124E+04  0.46999998093E+01 0. -1.
       -5    1    3    3    0  502  0.45692011116E+03  0.33217833834E+03 -0.11792085633E+04  0.13075447841E+04  0.46999998093E+01 0.  1.
</event>
<event>
 5   0  0.3656086E-06  0.3244278E+04  0.7818609E-02  0.8177220E-01
        2   -1    0    0  501    0  0.00000000000E+00  0.00000000000E+00  0.18874144582E+04  0.18874144582E+04  0.25500000920E-02 0.  1.
       -2   -1    0    0    0  501  0.00000000000E+00  0.00000000000E+00 -0.13941482442E+04  0.13941482442E+04  0.25500000920E-02 0. -1.
    10030    2    1    2    0    0  0.00000000000E+00  0.00000000000E+00  0.49326621401E+03  0.32815627025E+04  0.32442783808E+04 0.  0.
        3    1    3    3  502    0  0.11457805577E+04  0.70812664567E+03 -0.66767937362E+03  0.15033469955E+04  0.10100000352E+00 0. -1.
       -3    1    3    3    0  502 -0.11457805577E+04 -0.70812664567E+03  0.11609455876E+04  0.17782157070E+04  0.10100000352E+00 0.  1.
</event>
<event>
 5   0  0.3758062E-06  0.3227768E+04  0.7818609E-02  0.8181522E-01
       -2   -1    0    0    0  501  0.00000000000E+00  0.00000000000E+00  0.13407869061E+04  0.13407869061E+04  0.25500000920E-02 0.  1.
        2   -1    0    0  501    0  0.00000000000E+00  0.00000000000E+00 -0.19426067439E+04  0.19426067439E+04  0.25500000920E-02 0. -1.
    10030    2    1    2    0    0  0.00000000000E+00  0.00000000000E+00 -0.60181983777E+03  0.32833936501E+04  0.32277680747E+04 0.  0.
        2    1    3    3  502    0  0.13072421261E+04 -0.60207894517E+03  0.44190780598E+03  0.15055442675E+04  0.25500000920E-02 0.  1.
       -2    1    3    3    0  502 -0.13072421261E+04  0.60207894517E+03 -0.10437276437E+04  0.17778493825E+04  0.25500000920E-02 0. -1.
</event>
<event>
 5   0  0.3531437E-06  0.2983831E+04  0.7818609E-02  0.8248363E-01
        2   -1    0    0  501    0  0.00000000000E+00  0.00000000000E+00  0.17941806644E+04  0.17941806644E+04  0.25500000920E-02 0. -1.
       -2   -1    0    0    0  501  0.00000000000E+00  0.00000000000E+00 -0.12405729690E+04  0.12405729690E+04  0.25500000920E-02 0.  1.
    10030    2    1    2    0    0  0.00000000000E+00  0.00000000000E+00  0.55360769537E+03  0.30347536334E+04  0.29838311170E+04 0.  0.
        1    1    3    3  502    0 -0.12734571057E+04  0.16823222256E+03  0.10485801244E+04  0.16581662637E+04  0.50400001928E-02 0. -1.
       -1    1    3    3    0  502  0.12734571057E+04 -0.16823222256E+03 -0.49497242906E+03  0.13765873697E+04  0.50400001928E-02 0.  1.
</event>
<event>
 5   0  0.1268836E-06  0.3174732E+04  0.7818609E-02  0.8195523E-01
        1   -1    0    0  501    0  0.00000000000E+00  0.00000000000E+00  0.13204405966E+04  0.13204405966E+04  0.50400001928E-02 0.  1.
       -1   -1    0    0    0  501  0.00000000000E+00  0.00000000000E+00 -0.19082496003E+04  0.19082496003E+04  0.50400001928E-02 0. -1.
    10030    2    1    2    0    0  0.00000000000E+00  0.00000000000E+00 -0.58780900366E+03  0.32286901970E+04  0.31747316364E+04 0.  0.
        1    1    3    3  502    0  0.14249948998E+04  0.64558886375E+03 -0.20382048374E+02  0.15645481372E+04  0.50400001928E-02 0.  1.
       -1    1    3    3    0  502 -0.14249948998E+04 -0.64558886375E+03 -0.56742695529E+03  0.16641420598E+04  0.50400001928E-02 0. -1.
</event>
<event>
 5   0  0.3497546E-06  0.2710448E+04  0.7818609E-02  0.8331623E-01
       -2   -1    0    0    0  501  0.00000000000E+00  0.00000000000E+00  0.12158304116E+04  0.12158304116E+04  0.25500000920E-02 0. -1.
        2   -1    0    0  501    0  0.00000000000E+00  0.00000000000E+00 -0.15105985864E+04  0.15105985864E+04  0.25500000920E-02 0.  1.
    10030    2    1    2    0    0  0.00000000000E+00  0.00000000000E+00 -0.29476817479E+03  0.27264289980E+04  0.27104477129E+04 0.  0.
        4    1    3    3  502    0  0.67572893988E+03  0.32355285616E+03  0.98858139180E+03  0.12403994647E+04  0.12699999809E+01 0. -1.
       -4    1    3    3    0  502 -0.67572893988E+03 -0.32355285616E+03 -0.12833495666E+04  0.14860295333E+04  0.12699999809E+01 0.  1.
</event>
<event>
 5   0  0.3497546E-06  0.3245151E+04  0.7818609E-02  0.8176994E-01
        2   -1    0    0  501    0  0.00000000000E+00  0.00000000000E+00  0.18990686895E+04  0.18990686895E+04  0.25500000920E-02 0. -1.
       -2   -1    0    0    0  501  0.00000000000E+00  0.00000000000E+00 -0.13863376807E+04  0.13863376807E+04  0.25500000920E-02 0.  1.
    10030    2    1    2    0    0  0.00000000000E+00  0.00000000000E+00  0.51273100884E+03  0.32854063701E+04  0.32451505249E+04 0.  0.
        4    1    3    3  502    0 -0.14684207430E+04 -0.67901388701E+03  0.13060895073E+03  0.16230772157E+04  0.12699999809E+01 0. -1.
       -4    1    3    3    0  502  0.14684207430E+04  0.67901388701E+03  0.38212205811E+03  0.16623291544E+04  0.12699999809E+01 0.  1.
</event>
<event>
 5   0  0.3656086E-06  0.3173978E+04  0.7818609E-02  0.8195724E-01
        2   -1    0    0  501    0  0.00000000000E+00  0.00000000000E+00  0.14881174720E+04  0.14881174720E+04  0.25500000920E-02 0. -1.
       -2   -1    0    0    0  501  0.00000000000E+00  0.00000000000E+00 -0.16924291548E+04  0.16924291548E+04  0.25500000920E-02 0.  1.
    10030    2    1    2    0    0  0.00000000000E+00  0.00000000000E+00 -0.20431168285E+03  0.31805466268E+04  0.31739775647E+04 0.  0.
        3    1    3    3  502    0  0.79744172544E+03  0.22770846479E+02  0.12725805915E+04  0.15019631117E+04  0.10100000352E+00 0. -1.
       -3    1    3    3    0  502 -0.79744172544E+03 -0.22770846479E+02 -0.14768922743E+04  0.16785835151E+04  0.10100000352E+00 0.  1.
</event>
<event>
 5   0  0.1273980E-06  0.3215703E+04  0.7818609E-02  0.8184682E-01
        1   -1    0    0  501    0  0.00000000000E+00  0.00000000000E+00  0.24766750241E+04  0.24766750241E+04  0.50400001928E-02 0.  1.
       -1   -1    0    0    0  501  0.00000000000E+00  0.00000000000E+00 -0.10438133670E+04  0.10438133670E+04  0.50400001928E-02 0. -1.
    10030    2    1    2    0    0  0.00000000000E+00  0.00000000000E+00  0.14328616571E+04  0.35204883911E+04  0.32157030310E+04 0.  0.
        4    1    3    3  502    0  0.15366972306E+04  0.83810535353E+02  0.20677290465E+03  0.15528101079E+04  0.12699999809E+01 0. -1.
       -4    1    3    3    0  502 -0.15366972306E+04 -0.83810535353E+02  0.12260887524E+04  0.19676782831E+04  0.12699999809E+01 0.  1.
</event>
<event>
 5   0  0.1273754E-06  0.3407931E+04  0.7818609E-02  0.8135963E-01
       -1   -1    0    0    0  501  0.00000000000E+00  0.00000000000E+00  0.17988118544E+04  0.17988118544E+04  0.50400001928E-02 0.  1.
        1   -1    0    0  501    0  0.00000000000E+00  0.00000000000E+00 -0.16141199135E+04  0.16141199135E+04  0.50400001928E-02 0. -1.
    10030    2    1    2    0    0  0.00000000000E+00  0.00000000000E+00  0.18469194089E+03  0.34129317679E+04  0.34079307709E+04 0.  0.
        2    1    3    3  502    0  0.10768484940E+04  0.10647865034E+04  0.87459723321E+03  0.17487976719E+04  0.25500000920E-02 0.  1.
       -2    1    3    3    0  502 -0.10768484940E+04 -0.10647865034E+04 -0.68990529232E+03  0.16641340960E+04  0.25500000920E-02 0. -1.
</event>
<event>
 5   0  0.3656086E-06  0.2350948E+04  0.7818609E-02  0.8458100E-01
        2   -1    0    0  501    0  0.00000000000E+00  0.00000000000E+00  0.12454967124E+04  0.12454967124E+04  0.25500000920E-02 0. -1.
       -2   -1    0    0    0  501  0.00000000000E+00  0.00000000000E+00 -0.11093875680E+04  0.11093875680E+04  0.25500000920E-02 0.  1.
    10030    2    1    2    0    0  0.00000000000E+00  0.00000000000E+00  0.13610914449E+03  0.23548842804E+04  0.23509475270E+04 0.  0.
        3    1    3    3  502    0 -0.98403140532E+01  0.84426642749E+03  0.88726019501E+03  0.12247911235E+04  0.10100000352E+00 0. -1.
       -3    1    3    3    0  502  0.98403140532E+01 -0.84426642749E+03 -0.75115105053E+03  0.11300931569E+04  0.10100000352E+00 0.  1.
</event>
<event>
 5   0  0.3497546E-06  0.3304276E+04  0.7818609E-02  0.8161808E-01
        2   -1    0    0  501    0  0.00000000000E+00  0.00000000000E+00  0.17838998167E+04  0.17838998167E+04  0.25500000920E-02 0. -1.
       -2   -1    0    0    0  501  0.00000000000E+00  0.00000000000E+00 -0.15301081987E+04  0.15301081987E+04  0.25500000920E-02 0.  1.
    10030    2    1    2    0    0  0.00000000000E+00  0.00000000000E+00  0.25379161796E+03  0.33140080154E+04  0.33042758572E+04 0.  0.
        4    1    3    3  502    0 -0.53395949140E+03  0.52640851748E+03  0.16034205414E+04  0.17700784478E+04  0.12699999809E+01 0. -1.
       -4    1    3    3    0  502  0.53395949140E+03 -0.52640851748E+03 -0.13496289235E+04  0.15439295676E+04  0.12699999809E+01 0.  1.
</event>
<event>
 5   0  0.3497546E-06  0.3127794E+04  0.7818609E-02  0.8208151E-01
       -2   -1    0    0    0  501  0.00000000000E+00  0.00000000000E+00  0.10937802237E+04  0.10937802237E+04  0.25500000920E-02 0. -1.
        2   -1    0    0  501    0  0.00000000000E+00  0.00000000000E+00 -0.22360749950E+04  0.22360749950E+04  0.25500000920E-02 0.  1.
    10030    2    1    2    0    0  0.00000000000E+00  0.00000000000E+00 -0.11422947713E+04  0.33298552187E+04  0.31277944998E+04 0.  0.
        4    1    3    3  502    0 -0.52115225272E+02 -0.94215825247E+03 -0.18988703419E+04  0.21203981602E+04  0.12699999809E+01 0.  1.
       -4    1    3    3    0  502  0.52115225272E+02  0.94215825247E+03  0.75657557065E+03  0.12094570585E+04  0.12699999809E+01 0. -1.
</event>
<event>
 5   0  0.1240725E-06  0.3229874E+04  0.7818609E-02  0.8180972E-01
        1   -1    0    0  501    0  0.00000000000E+00  0.00000000000E+00  0.24499507087E+04  0.24499507087E+04  0.50400001928E-02 0. -1.
       -1   -1    0    0    0  501  0.00000000000E+00  0.00000000000E+00 -0.10645198743E+04  0.10645198743E+04  0.50400001928E-02 0.  1.
    10030    2    1    2    0    0  0.00000000000E+00  0.00000000000E+00  0.13854308344E+04  0.35144705830E+04  0.32298738182E+04 0.  0.
        3    1    3    3  502    0  0.10217178344E+04  0.94964538803E+03  0.15782339202E+04  0.21063133701E+04  0.10100000352E+00 0. -1.
       -3    1    3    3    0  502 -0.10217178344E+04 -0.94964538803E+03 -0.19280308579E+03  0.14081572129E+04  0.10100000352E+00 0.  1.
</event>
<event>
 5   0  0.1268836E-06  0.3203577E+04  0.7818609E-02  0.8187873E-01
        1   -1    0    0  501    0  0.00000000000E+00  0.00000000000E+00  0.15958571209E+04  0.15958571209E+04  0.50400001928E-02 0.  1.
       -1   -1    0    0    0  501  0.00000000000E+00  0.00000000000E+00 -0.16077423916E+04  0.16077423916E+04  0.50400001928E-02 0. -1.
    10030    2    1    2    0    0  0.00000000000E+00  0.00000000000E+00 -0.11885270685E+02  0.32035995126E+04  0.32035774655E+04 0.  0.
        1    1    3    3  502    0 -0.12102404737E+04  0.48956778737E+03  0.92216316553E+03  0.15983565079E+04  0.50400001928E-02 0.  1.
       -1    1    3    3    0  502  0.12102404737E+04 -0.48956778737E+03 -0.93404843622E+03  0.16052430046E+04  0.50400001928E-02 0. -1.
</event>
<event>
 5   0  0.1273980E-06  0.3221726E+04  0.7818609E-02  0.8183103E-01
       -1   -1    0    0    0  501  0.00000000000E+00  0.00000000000E+00  0.17993403149E+04  0.17993403149E+04  0.50400001928E-02 0.  1.
        1   -1    0    0  501    0  0.00000000000E+00  0.00000000000E+00 -0.14421278692E+04  0.14421278692E+04  0.50400001928E-02 0. -1.
    10030    2    1    2    0    0  0.00000000000E+00  0.00000000000E+00  0.35721244569E+03  0.32414681841E+04  0.32217255093E+04 0.  0.
        4    1    3    3  502    0 -0.53984088205E+03 -0.12630771409E+04  0.10252407458E+04  0.17140339091E+04  0.12699999809E+01 0. -1.
       -4    1    3    3    0  502  0.53984088205E+03  0.12630771409E+04 -0.66802830013E+03  0.15274342750E+04  0.12699999809E+01 0.  1.
</event>
<event>
 5   0  0.3531437E-06  0.3114609E+04  0.7818609E-02  0.8211740E-01
        2   -1    0    0  501    0  0.00000000000E+00  0.00000000000E+00  0.19620213859E+04  0.19620213859E+04  0.25500000920E-02 0. -1.
       -2   -1    0    0    0  501  0.00000000000E+00  0.00000000000E+00 -0.12360707127E+04  0.12360707127E+04  0.25500000920E-02 0.  1.
    10030    2    1    2    0    0  0.00000000000E+00  0.00000000000E+00  0.72595067328E+03  0.31980920986E+04  0.31146089146E+04 0.  0.
        1    1    3    3  502    0 -0.52817532427E+03  0.10650420793E+04  0.13958773189E+04  0.18335095564E+04  0.50400001928E-02 0. -1.
       -1    1    3    3    0  502  0.52817532427E+03 -0.10650420793E+04 -0.66992664565E+03  0.13645825422E+04  0.50400001928E-02 0.  1.
</event>
<event>
 5   0  0.3497546E-06  0.3073773E+04  0.7818609E-02  0.8222973E-01
       -2   -1    0    0    0  501  0.00000000000E+00  0.00000000000E+00  0.11746466798E+04  0.11746466798E+04  0.25500000920E-02 0. -1.
        2   -1    0    0  501    0  0.00000000000E+00  0.00000000000E+00 -0.20108346502E+04  0.20108346502E+04  0.25500000920E-02 0.  1.
    10030    2    1    2    0    0  0.00000000000E+00  0.00000000000E+00 -0.83618797040E+03  0.31854813301E+04  0.30737730857E+04 0.  0.
        4    1    3    3  502    0 -0.33224435801E+03 -0.11849246837E+04 -0.13721966306E+04  0.18431923462E+04  0.12699999809E+01 0.  1.
       -4    1    3    3    0  502  0.33224435801E+03  0.11849246837E+04  0.53600866018E+03  0.13422889838E+04  0.12699999809E+01 0. -1.
</event>
<event>
 5   0  0.1306843E-06  0.3818283E+04  0.7818609E-02  0.8042243E-01
       -1   -1    0    0    0  501  0.00000000000E+00  0.00000000000E+00  0.15156280456E+04  0.15156280456E+04  0.50400001928E-02 0. -1.
        1   -1    0    0  501    0  0.00000000000E+00  0.00000000000E+00 -0.24048255086E+04  0.24048255086E+04  0.50400001928E-02 0.  1.
    10030    2    1    2    0    0  0.00000000000E+00  0.00000000000E+00 -0.88919746299E+03  0.39204535542E+04  0.38182828526E+04 0.  0.
        5    1    3    3  502    0 -0.93569477157E+03  0.36184647305E+03  0.12231618529E+04  0.15819622574E+04  0.46999998093E+01 0. -1.
       -5    1    3    3    0  502  0.93569477157E+03 -0.36184647305E+03 -0.21123593159E+04  0.23384912968E+04  0.46999998093E+01 0.  1.
</event>
<event>
 5   0  0.3531437E-06  0.3190639E+04  0.7818609E-02  0.8191294E-01
        2   -1    0    0  501    0  0.00000000000E+00  0.00000000000E+00  0.22982844245E+04  0.22982844245E+04  0.25500000920E-02 0. -1.
       -2   -1    0    0    0  501  0.00000000000E+00  0.00000000000E+00 -0.11073668415E+04  0.11073668415E+04  0.25500000920E-02 0.  1.
    10030    2    1    2    0    0  0.00000000000E+00  0.00000000000E+00  0.11909175831E+04  0.34056512660E+04  0.31906387849E+04 0.  0.
        1    1    3    3  502    0  0.14582800124E+04  0.64159770567E+03  0.50733778033E+03  0.16720107158E+04  0.50400001928E-02 0. -1.
       -1    1    3    3    0  502 -0.14582800124E+04 -0.64159770567E+03  0.68357980273E+03  0.17336405502E+04  0.50400001928E-02 0.  1.
</event>
<event>
 5   0  0.1240725E-06  0.3101753E+04  0.7818609E-02  0.8215257E-01
       -1   -1    0    0    0  501  0.00000000000E+00  0.00000000000E+00  0.16048338960E+04  0.16048338960E+04  0.50400001928E-02 0. -1.
        1   -1    0    0  501    0  0.00000000000E+00  0.00000000000E+00 -0.14987335871E+04  0.14987335871E+04  0.50400001928E-02 0.  1.
    10030    2    1    2    0    0  0.00000000000E+00  0.00000000000E+00  0.10610030884E+03  0.31035674831E+04  0.31017533504E+04 0.  0.
        3    1    3    3  502    0 -0.74912342519E+03  0.13399650750E+04 -0.16736518743E+03  0.15442484983E+04  0.10100000352E+00 0.  1.
       -3    1    3    3    0  502  0.74912342519E+03 -0.13399650750E+04  0.27346549627E+03  0.15593189848E+04  0.10100000352E+00 0. -1.
</event>
<event>
 5   0  0.1185575E-06  0.3097035E+04  0.7818609E-02  0.8216552E-01
        3   -1    0    0  501    0  0.00000000000E+00  0.00000000000E+00  0.16388949475E+04  0.16388949506E+04  0.10100000352E+00 0. -1.
       -3   -1    0    0    0  501  0.00000000000E+00  0.00000000000E+00 -0.14631239018E+04  0.14631239053E+04  0.10100000352E+00 0.  1.
    10030    2    1    2    0    0  0.00000000000E+00  0.00000000000E+00  0.17577104573E+03  0.31020188559E+04  0.30970349565E+04 0.  0.
        2    1    3    3  502    0  0.65324198004E+03 -0.13796909305E+04 -0.17259881055E+03  0.15362494907E+04  0.25500000920E-02 0.  1.
       -2    1    3    3    0  502 -0.65324198004E+03  0.13796909305E+04  0.34836985628E+03  0.15657693652E+04  0.25500000920E-02 0. -1.
</event>
<event>
 5   0  0.1306843E-06  0.3224849E+04  0.7818609E-02  0.8182285E-01
        1   -1    0    0  501    0  0.00000000000E+00  0.00000000000E+00  0.71681451955E+03  0.71681451957E+03  0.50400001928E-02 0. -1.
       -1   -1    0    0    0  501  0.00000000000E+00  0.00000000000E+00 -0.36270380300E+04  0.36270380300E+04  0.50400001928E-02 0.  1.
    10030    2    1    2    0    0  0.00000000000E+00  0.00000000000E+00 -0.29102235105E+04  0.43438525496E+04  0.32248494681E+04 0.  0.
        5    1    3    3  502    0  0.68331468915E+03 -0.10457297716E+03  0.50708295128E+03  0.85732705629E+03  0.46999998093E+01 0. -1.
       -5    1    3    3    0  502 -0.68331468915E+03  0.10457297716E+03 -0.34173064617E+04  0.34865254933E+04  0.46999998093E+01 0.  1.
</event>
<event>
 5   0  0.3745943E-06  0.3331687E+04  0.7818609E-02  0.8154879E-01
       -2   -1    0    0    0  501  0.00000000000E+00  0.00000000000E+00  0.12070774881E+04  0.12070774881E+04  0.25500000920E-02 0.  1.
        2   -1    0    0  501    0  0.00000000000E+00  0.00000000000E+00 -0.22989693060E+04  0.22989693060E+04  0.25500000920E-02 0. -1.
    10030    2    1    2    0    0  0.00000000000E+00  0.00000000000E+00 -0.10918918180E+04  0.35060467941E+04  0.33316867170E+04 0.  0.
        5    1    3    3  502    0 -0.12244039848E+04  0.80777763754E+03 -0.13767847801E+04  0.20117724152E+04  0.46999998093E+01 0. -1.
       -5    1    3    3    0  502  0.12244039848E+04 -0.80777763754E+03  0.28489296214E+03  0.14942743789E+04  0.46999998093E+01 0.  1.
</event>
<event>
 5   0  0.3745943E-06  0.3088206E+04  0.7818609E-02  0.8218982E-01
       -2   -1    0    0    0  501  0.00000000000E+00  0.00000000000E+00  0.85683029691E+03  0.85683029691E+03  0.25500000920E-02 0. -1.
        2   -1    0    0  501    0  0.00000000000E+00  0.00000000000E+00 -0.27826437237E+04  0.27826437237E+04  0.25500000920E-02 0.  1.
    10030    2    1    2    0    0  0.00000000000E+00  0.00000000000E+00 -0.19258134268E+04  0.36394740206E+04  0.30882055942E+04 0.  0.
        5    1    3    3  502    0 -0.13166953889E+04  0.26680884922E+03 -0.65879144301E+02  0.13450783846E+04  0.46999998093E+01 0. -1.
       -5    1    3    3    0  502  0.13166953889E+04 -0.26680884922E+03 -0.18599342825E+04  0.22943956359E+04  0.46999998093E+01 0.  1.
</event>
<event>
 5   0  0.3497546E-06  0.2346747E+04  0.7818609E-02  0.8459714E-01
        2   -1    0    0  501    0  0.00000000000E+00  0.00000000000E+00  0.15352887909E+04  0.15352887909E+04  0.25500000920E-02 0.  1.
       -2   -1    0    0    0  501  0.00000000000E+00  0.00000000000E+00 -0.89677274883E+03  0.89677274884E+03  0.25500000920E-02 0. -1.
    10030    2    1    2    0    0  0.00000000000E+00  0.00000000000E+00  0.63851604205E+03  0.24320615397E+04  0.23467468114E+04 0.  0.
        4    1    3    3  502    0  0.85189609447E+03 -0.54486031838E+03  0.93604463558E+03  0.13779625884E+04  0.12699999809E+01 0.  1.
       -4    1    3    3    0  502 -0.85189609447E+03  0.54486031838E+03 -0.29752859353E+03  0.10540989513E+04  0.12699999809E+01 0. -1.
</event>
<event>
 5   0  0.1268836E-06  0.3200282E+04  0.7818609E-02  0.8188743E-01
       -1   -1    0    0    0  501  0.00000000000E+00  0.00000000000E+00  0.18885105447E+04  0.18885105447E+04  0.50400001928E-02 0.  1.
        1   -1    0    0  501    0  0.00000000000E+00  0.00000000000E+00 -0.13558048367E+04  0.13558048367E+04  0.50400001928E-02 0. -1.
    10030    2    1    2    0    0  0.00000000000E+00  0.00000000000E+00  0.53270570801E+03  0.32443153815E+04  0.32002823193E+04 0.  0.
        1    1    3    3  502    0  0.13027086673E+03  0.12372823388E+04  0.12864855359E+04  0.17896600568E+04  0.50400001928E-02 0. -1.
       -1    1    3    3    0  502 -0.13027086673E+03 -0.12372823388E+04 -0.75377982790E+03  0.14546553247E+04  0.50400001928E-02 0.  1.
</event>
<event>
 5   0  0.3745943E-06  0.3074353E+04  0.7818609E-02  0.8222812E-01
       -2   -1    0    0    0  501  0.00000000000E+00  0.00000000000E+00  0.80628192361E+03  0.80628192362E+03  0.25500000920E-02 0.  1.
        2   -1    0    0  501    0  0.00000000000E+00  0.00000000000E+00 -0.29306274615E+04  0.29306274615E+04  0.25500000920E-02 0. -1.
    10030    2    1    2    0    0  0.00000000000E+00  0.00000000000E+00 -0.21243455379E+04  0.37369093851E+04  0.30743532309E+04 0.  0.
        5    1    3    3  502    0 -0.10381038831E+04 -0.87029039640E+03 -0.17908533974E+03  0.13664401542E+04  0.46999998093E+01 0.  1.
       -5    1    3    3    0  502  0.10381038831E+04  0.87029039640E+03 -0.19452601981E+04  0.23704692309E+04  0.46999998093E+01 0. -1.
</event>
<event>
 5   0  0.1306843E-06  0.3238895E+04  0.7818609E-02  0.8178620E-01
       -1   -1    0    0    0  501  0.00000000000E+00  0.00000000000E+00  0.13369448054E+04  0.13369448054E+04  0.50400001928E-02 0.  1.
        1   -1    0    0  501    0  0.00000000000E+00  0.00000000000E+00 -0.19616438101E+04  0.19616438101E+04  0.50400001928E-02 0. -1.
    10030    2    1    2    0    0  0.00000000000E+00  0.00000000000E+00 -0.62469900475E+03  0.32985886155E+04  0.32388945657E+04 0.  0.
        5    1    3    3  502    0  0.12757149259E+04  0.65102379719E+03 -0.10821285085E+04  0.17950779247E+04  0.46999998093E+01 0. -1.
       -5    1    3    3    0  502 -0.12757149259E+04 -0.65102379719E+03  0.45742950378E+03  0.15035106909E+04  0.46999998093E+01 0.  1.
</event>
<event>
 5   0  0.3656086E-06  0.2578661E+04  0.7818609E-02  0.8375486E-01
        2   -1    0    0  501    0  0.00000000000E+00  0.00000000000E+00  0.16212035963E+04  0.16212035963E+04  0.25500000920E-02 0. -1.
       -2   -1    0    0    0  501  0.00000000000E+00  0.00000000000E+00 -0.10253941276E+04  0.10253941276E+04  0.25500000920E-02 0.  1.
    10030    2    1    2    0    0  0.00000000000E+00  0.00000000000E+00  0.59580946878E+03  0.26465977239E+04  0.25786606192E+04 0.  0.
        3    1    3    3  502    0 -0.31118197241E+03 -0.82485623118E+03 -0.66770655473E+03  0.11059177526E+04  0.10100000352E+00 0.  1.
       -3    1    3    3    0  502  0.31118197241E+03  0.82485623118E+03  0.12635160235E+04  0.15406799713E+04  0.10100000352E+00 0. -1.
</event>
<event>
 5   0  0.3745943E-06  0.2332276E+04  0.7818609E-02  0.8465303E-01
       -2   -1    0    0    0  501  0.00000000000E+00  0.00000000000E+00  0.13425296122E+04  0.13425296122E+04  0.25500000920E-02 0. -1.
        2   -1    0    0  501    0  0.00000000000E+00  0.00000000000E+00 -0.10129216880E+04  0.10129216880E+04  0.25500000920E-02 0.  1.
    10030    2    1    2    0    0  0.00000000000E+00  0.00000000000E+00  0.32960792423E+03  0.23554513002E+04  0.23322755935E+04 0.  0.
        5    1    3    3  502    0 -0.66104648277E+03  0.65140180173E+02  0.11327797039E+04  0.13131784505E+04  0.46999998093E+01 0. -1.
       -5    1    3    3    0  502  0.66104648277E+03 -0.65140180173E+02 -0.80317177965E+03  0.10422728496E+04  0.46999998093E+01 0.  1.
</event>
<event>
 5   0  0.1273980E-06  0.3198962E+04  0.7818609E-02  0.8189091E-01
        1   -1    0    0  501    0  0.00000000000E+00  0.00000000000E+00  0.17663466967E+04  0.17663466967E+04  0.50400001928E-02 0. -1.
       -1   -1    0    0    0  501  0.00000000000E+00  0.00000000000E+00 -0.14483787060E+04  0.14483787060E+04  0.50400001928E-02 0.  1.
    10030    2    1    2    0    0  0.00000000000E+00  0.00000000000E+00  0.31796799073E+03  0.32147254027E+04  0.31989616708E+04 0.  0.
        4    1    3    3  502    0 -0.70364473221E+03 -0.58247737716E+03  0.14784436371E+04  0.17378702498E+04  0.12699999809E+01 0. -1.
       -4    1    3    3    0  502  0.70364473221E+03  0.58247737716E+03 -0.11604756463E+04  0.14768551529E+04  0.12699999809E+01 0.  1.
</event>
<event>
 5   0  0.3656086E-06  0.3000119E+04  0.7818609E-02  0.8243697E-01
       -2   -1    0    0    0  501  0.00000000000E+00  0.00000000000E+00  0.13717537625E+04  0.13717537625E+04  0.25500000920E-02 0.  1.
        2   -1    0    0  501    0  0.00000000000E+00  0.00000000000E+00 -0.16403658742E+04  0.16403658742E+04  0.25500000920E-02 0. -1.
    10030    2    1    2    0    0  0.00000000000E+00  0.00000000000E+00 -0.26861211171E+03  0.30121196367E+04  0.30001187042E+04 0.  0.
        3    1    3    3  502    0 -0.66039145401E+03 -0.12902092310E+04 -0.52240285370E+03  0.15406691676E+04  0.10100000352E+00 0. -1.
       -3    1    3    3    0  502  0.66039145401E+03  0.12902092310E+04  0.25379074199E+03  0.14714504691E+04  0.10100000352E+00 0.  1.
</event>
<event>
 5   0  0.3758062E-06  0.3277130E+04  0.7818609E-02  0.8168739E-01
        2   -1    0    0  501    0  0.00000000000E+00  0.00000000000E+00  0.19646097535E+04  0.19646097535E+04  0.25500000920E-02 0. -1.
       -2   -1    0    0    0  501  0.00000000000E+00  0.00000000000E+00 -0.13666302643E+04  0.13666302643E+04  0.25500000920E-02 0.  1.
    10030    2    1    2    0    0  0.00000000000E+00  0.00000000000E+00  0.59797948924E+03  0.33312400178E+04  0.32771299313E+04 0.  0.
        2    1    3    3  502    0  0.32154047540E+03  0.14469600832E+04 -0.41097882277E+03  0.15381759823E+04  0.25500000920E-02 0.  1.
       -2    1    3    3    0  502 -0.32154047540E+03 -0.14469600832E+04  0.10089583120E+04  0.17930640354E+04  0.25500000920E-02 0. -1.
</event>
<event>
 5   0  0.3497546E-06  0.3211215E+04  0.7818609E-02  0.8185862E-01
        2   -1    0    0  501    0  0.00000000000E+00  0.00000000000E+00  0.20235532433E+04  0.20235532433E+04  0.25500000920E-02 0. -1.
       -2   -1    0    0    0  501  0.00000000000E+00  0.00000000000E+00 -0.12739845935E+04  0.12739845935E+04  0.25500000920E-02 0.  1.
    10030    2    1    2    0    0  0.00000000000E+00  0.00000000000E+00  0.74956864980E+03  0.32975378367E+04  0.32112151320E+04 0.  0.
        4    1    3    3  502    0  0.11114050251E+04 -0.42764124188E+03  0.14807105193E+04  0.19001587872E+04  0.12699999809E+01 0. -1.
       -4    1    3    3    0  502 -0.11114050251E+04  0.42764124188E+03 -0.73114186954E+03  0.13973790495E+04  0.12699999809E+01 0.  1.
</event>
<event>
 5   0  0.3656086E-06  0.2943713E+04  0.7818609E-02  0.8259989E-01
        2   -1    0    0  501    0  0.00000000000E+00  0.00000000000E+00  0.14759138549E+04  0.14759138549E+04  0.25500000920E-02 0.  1.
       -2   -1    0    0    0  501  0.00000000000E+00  0.00000000000E+00 -0.14678103477E+04  0.14678103477E+04  0.25500000920E-02 0. -1.
    10030    2    1    2    0    0  0.00000000000E+00  0.00000000000E+00  0.81035072661E+01  0.29437242026E+04  0.29437130489E+04 0.  0.
        3    1    3    3  502    0 -0.74169825039E+03 -0.66429511526E+03  0.10880103448E+04  0.14748460311E+04  0.10100000352E+00 0.  1.
       -3    1    3    3    0  502  0.74169825039E+03  0.66429511526E+03 -0.10799068376E+04  0.14688781715E+04  0.10100000352E+00 0. -1.
</event>
<event>
 5   0  0.3531437E-06  0.3223445E+04  0.7818609E-02  0.8182653E-01
       -2   -1    0    0    0  501  0.00000000000E+00  0.00000000000E+00  0.24859767393E+04  0.24859767393E+04  0.25500000920E-02 0.  1.
        2   -1    0    0  501    0  0.00000000000E+00  0.00000000000E+00 -0.10449210729E+04  0.10449210729E+04  0.25500000920E-02 0. -1.
    10030    2    1    2    0    0  0.00000000000E+00  0.00000000000E+00  0.14410556663E+04  0.35308978122E+04  0.32234450401E+04 0.  0.
        1    1    3    3  502    0  0.12513846693E+04  0.34086568252E+03  0.17686048989E+04  0.21931977322E+04  0.50400001928E-02 0.  1.
       -1    1    3    3    0  502 -0.12513846693E+04 -0.34086568252E+03 -0.32754923262E+03  0.13377000800E+04  0.50400001928E-02 0. -1.
</event>
<event>
 5   0  0.3531437E-06  0.2904552E+04  0.7818609E-02  0.8271524E-01
        2   -1    0    0  501    0  0.00000000000E+00  0.00000000000E+00  0.11624203211E+04  0.11624203211E+04  0.25500000920E-02 0. -1.
       -2   -1    0    0    0  501  0.00000000000E+00  0.00000000000E+00 -0.18144089878E+04  0.18144089878E+04  0.25500000920E-02 0.  1.
    10030    2    1    2    0    0  0.00000000000E+00  0.00000000000E+00 -0.65198866669E+03  0.29768293089E+04  0.29045522052E+04 0.  0.
        1    1    3    3  502    0  0.67634768245E+03 -0.60507649166E+03 -0.14880258394E+04  0.17429241656E+04  0.50400001928E-02 0.  1.
       -1    1    3    3    0  502 -0.67634768245E+03  0.60507649166E+03  0.83603717274E+03  0.12339051433E+04  0.50400001928E-02 0. -1.
</event>
<event>
 5   0  0.1268836E-06  0.3151330E+04  0.7818609E-02  0.8201790E-01
        1   -1    0    0  501    0  0.00000000000E+00  0.00000000000E+00  0.11351028220E+04  0.11351028220E+04  0.50400001928E-02 0. -1.
       -1   -1    0    0    0  501  0.00000000000E+00  0.00000000000E+00 -0.21872209328E+04  0.21872209328E+04  0.50400001928E-02 0.  1.
    10030    2    1    2    0    0  0.00000000000E+00  0.00000000000E+00 -0.10521181108E+04  0.33223237548E+04  0.31513302926E+04 0.  0.
        1    1    3    3  502    0 -0.60747170426E+03  0.95827589885E+03  0.62661298278E+03  0.12961320920E+04  0.50400001928E-02 0. -1.
       -1    1    3    3    0  502  0.60747170426E+03 -0.95827589885E+03 -0.16787310936E+04  0.20261916628E+04  0.50400001928E-02 0.  1.
</event>
<event>
 5   0  0.1273754E-06  0.2295698E+04  0.7818609E-02  0.8479619E-01
       -1   -1    0    0    0  501  0.00000000000E+00  0.00000000000E+00  0.11371146738E+04  0.11371146738E+04  0.50400001928E-02 0. -1.
        1   -1    0    0  501    0  0.00000000000E+00  0.00000000000E+00 -0.11586842171E+04  0.11586842171E+04  0.50400001928E-02 0.  1.
    10030    2    1    2    0    0  0.00000000000E+00  0.00000000000E+00 -0.21569543265E+02  0.22957988909E+04  0.22956975633E+04 0.  0.
        2    1    3    3  502    0 -0.11343259472E+04 -0.72021988293E+02 -0.17102387628E+03  0.11494049276E+04  0.25500000920E-02 0. -1.
       -2    1    3    3    0  502  0.11343259472E+04  0.72021988293E+02  0.14945433301E+03  0.11463939633E+04  0.25500000920E-02 0.  1.
</event>
<event>
 5   0  0.3531437E-06  0.3080220E+04  0.7818609E-02  0.8221187E-01
       -2   -1    0    0    0  501  0.00000000000E+00  0.00000000000E+00  0.13796629503E+04  0.13796629503E+04  0.25500000920E-02 0.  1.
        2   -1    0    0  501    0  0.00000000000E+00  0.00000000000E+00 -0.17192165226E+04  0.17192165226E+04  0.25500000920E-02 0. -1.
    10030    2    1    2    0    0  0.00000000000E+00  0.00000000000E+00 -0.33955357228E+03  0.30988794729E+04  0.30802203426E+04 0.  0.
        1    1    3    3  502    0 -0.46693686153E+03 -0.56004728183E+03 -0.15345549425E+04  0.16989825962E+04  0.50400001928E-02 0. -1.
       -1    1    3    3    0  502  0.46693686153E+03  0.56004728183E+03  0.11950013702E+04  0.13998968767E+04  0.50400001928E-02 0.  1.
</event>
<event>
 5   0  0.1306843E-06  0.3178007E+04  0.7818609E-02  0.8194650E-01
       -1   -1    0    0    0  501  0.00000000000E+00  0.00000000000E+00  0.11463098711E+04  0.11463098711E+04  0.50400001928E-02 0. -1.
        1   -1    0    0  501    0  0.00000000000E+00  0.00000000000E+00 -0.22026609197E+04  0.22026609197E+04  0.50400001928E-02 0.  1.
    10030    2    1    2    0    0  0.00000000000E+00  0.00000000000E+00 -0.10563510486E+04  0.33489707908E+04  0.31780068942E+04 0.  0.
        5    1    3    3  502    0 -0.43332289231E+03 -0.11232381322E+04 -0.16210169155E+04  0.20191955233E+04  0.46999998093E+01 0.  1.
       -5    1    3    3    0  502  0.43332289231E+03  0.11232381322E+04  0.56466586696E+03  0.13297752675E+04  0.46999998093E+01 0. -1.
</event>
<event>
 5   0  0.3745943E-06  0.3122778E+04  0.7818609E-02  0.8209514E-01
        2   -1    0    0  501    0  0.00000000000E+00  0.00000000000E+00  0.17933886155E+04  0.17933886155E+04  0.25500000920E-02 0.  1.
       -2   -1    0    0    0  501  0.00000000000E+00  0.00000000000E+00 -0.13594014362E+04  0.13594014362E+04  0.25500000920E-02 0. -1.
    10030    2    1    2    0    0  0.00000000000E+00  0.00000000000E+00  0.43398717932E+03  0.31527900516E+04  0.31227776478E+04 0.  0.
        5    1    3    3  502    0 -0.14900616085E+04  0.30452848178E+03  0.57379035668E+03  0.16255087378E+04  0.46999998093E+01 0. -1.
       -5    1    3    3    0  502  0.14900616085E+04 -0.30452848178E+03 -0.13980317736E+03  0.15272813138E+04  0.46999998093E+01 0.  1.
</event>
<event>
 5   0  0.1240725E-06  0.3302928E+04  0.7818609E-02  0.8162151E-01
        1   -1    0    0  501    0  0.00000000000E+00  0.00000000000E+00  0.19002049783E+04  0.19002049783E+04  0.50400001928E-02 0. -1.
       -1   -1    0    0    0  501  0.00000000000E+00  0.00000000000E+00 -0.14352839401E+04  0.14352839401E+04  0.50400001928E-02 0.  1.
    10030    2    1    2    0    0  0.00000000000E+00  0.00000000000E+00  0.46492103815E+03  0.33354889184E+04  0.33029282089E+04 0.  0.
        3    1    3    3  502    0 -0.13147089435E+04 -0.58728524134E+03 -0.58419578701E+03  0.15539138614E+04  0.10100000352E+00 0.  1.
       -3    1    3    3    0  502  0.13147089435E+04  0.58728524134E+03  0.10491168252E+04  0.17815750570E+04  0.10100000352E+00 0. -1.
</event>
<event>
 5   0  0.3758062E-06  0.3165160E+04  0.7818609E-02  0.8198079E-01
       -2   -1    0    0    0  501  0.00000000000E+00  0.00000000000E+00  0.13063390032E+04  0.13063390032E+04  0.25500000920E-02 0.  1.
        2   -1    0    0  501    0  0.00000000000E+00  0.00000000000E+00 -0.19172356597E+04  0.19172356597E+04  0.25500000920E-02 0. -1.
    10030    2    1    2    0    0  0.00000000000E+00  0.00000000000E+00 -0.61089665650E+03  0.32235746630E+04  0.31651601670E+04 0.  0.
        2    1    3    3  502    0 -0.14215540105E+04  0.15925449138E+03  0.38408582668E+03  0.14811143508E+04  0.25500000920E-02 0.  1.
       -2    1    3    3    0  502  0.14215540105E+04 -0.15925449138E+03 -0.99498248317E+03  0.17424603122E+04  0.25500000920E-02 0. -1.
</event>
<event>
 5   0  0.1273980E-06  0.3699355E+04  0.7818609E-02  0.8068105E-01
        1   -1    0    0  501    0  0.00000000000E+00  0.00000000000E+00  0.18657441072E+04  0.18657441072E+04  0.50400001928E-02 0.  1.
       -1   -1    0    0    0  501  0.00000000000E+00  0.00000000000E+00 -0.18337489507E+04  0.18337489507E+04  0.50400001928E-02 0. -1.
    10030    2    1    2    0    0  0.00000000000E+00  0.00000000000E+00  0.31995156552E+02  0.36994930579E+04  0.36993546998E+04 0.  0.
        4    1    3    3  502    0 -0.13139029138E+04  0.12738376151E+04  0.28489710919E+03  0.18520721131E+04  0.12699999809E+01 0.  1.
       -4    1    3    3    0  502  0.13139029138E+04 -0.12738376151E+04 -0.25290195264E+03  0.18474209447E+04  0.12699999809E+01 0. -1.
</event>
<event>
 5   0  0.1306843E-06  0.3213198E+04  0.7818609E-02  0.8185340E-01
       -1   -1    0    0    0  501  0.00000000000E+00  0.00000000000E+00  0.17155307031E+04  0.17155307031E+04  0.50400001928E-02 0.  1.
        1   -1    0    0  501    0  0.00000000000E+00  0.00000000000E+00 -0.15045841051E+04  0.15045841051E+04  0.50400001928E-02 0. -1.
    10030    2    1    2    0    0  0.00000000000E+00  0.00000000000E+00  0.21094659802E+03  0.32201148082E+04  0.32131979259E+04 0.  0.
        5    1    3    3  502    0 -0.11492466114E+04 -0.85742444699E+03  0.83173580605E+03  0.16576341566E+04  0.46999998093E+01 0.  1.
       -5    1    3    3    0  502  0.11492466114E+04  0.85742444699E+03 -0.62078920802E+03  0.15624806517E+04  0.46999998093E+01 0. -1.
</event>
<event>
 5   0  0.1268836E-06  0.3179236E+04  0.7818609E-02  0.8194322E-01
        1   -1    0    0  501    0  0.00000000000E+00  0.00000000000E+00  0.20269962568E+04  0.20269962568E+04  0.50400001928E-02 0.  1.
       -1   -1    0    0    0  501  0.00000000000E+00  0.00000000000E+00 -0.12466159062E+04  0.12466159063E+04  0.50400001928E-02 0. -1.
    10030    2    1    2    0    0  0.00000000000E+00  0.00000000000E+00  0.78038035053E+03  0.32736121630E+04  0.31792362451E+04 0.  0.
        1    1    3    3  502    0  0.53325075679E+03 -0.24604803760E+03  0.19111956582E+04  0.19993911200E+04  0.50400001928E-02 0.  1.
       -1    1    3    3    0  502 -0.53325075679E+03  0.24604803760E+03 -0.11308153077E+04  0.12742210431E+04  0.50400001928E-02 0. -1.
</event>
<event>
 5   0  0.1273754E-06  0.3204923E+04  0.7818609E-02  0.8187518E-01
       -1   -1    0    0    0  501  0.00000000000E+00  0.00000000000E+00  0.21266973428E+04  0.21266973428E+04  0.50400001928E-02 0. -1.
        1   -1    0    0  501    0  0.00000000000E+00  0.00000000000E+00 -0.12074508021E+04  0.12074508021E+04  0.50400001928E-02 0.  1.
    10030    2    1    2    0    0  0.00000000000E+00  0.00000000000E+00  0.91924654067E+03  0.33341481450E+04  0.32049227214E+04 0.  0.
        2    1    3    3  502    0 -0.29983893469E+03 -0.10669022268E+04 -0.74449984307E+03  0.13350894220E+04  0.25500000920E-02 0.  1.
       -2    1    3    3    0  502  0.29983893469E+03  0.10669022268E+04  0.16637463837E+04  0.19990587230E+04  0.25500000920E-02 0. -1.
</event>
<event>
 5   0  0.3656086E-06  0.3213799E+04  0.7818609E-02  0.8185182E-01
        2   -1    0    0  501    0  0.00000000000E+00  0.00000000000E+00  0.20763099105E+04  0.20763099105E+04  0.25500000920E-02 0.  1.
       -2   -1    0    0    0  501  0.00000000000E+00  0.00000000000E+00 -0.12436131538E+04  0.12436131538E+04  0.25500000920E-02 0. -1.
    10030    2    1    2    0    0  0.00000000000E+00  0.00000000000E+00  0.83269675673E+03  0.33199230642E+04  0.32137991947E+04 0.  0.
        3    1    3    3  502    0 -0.22487291659E+03 -0.46970086033E+03  0.19867241177E+04  0.20538401732E+04  0.10100000352E+00 0.  1.
       -3    1    3    3    0  502  0.22487291659E+03  0.46970086033E+03 -0.11540273610E+04  0.12660828910E+04  0.10100000352E+00 0. -1.
</event>
<event>
 5   0  0.3531437E-06  0.3243499E+04  0.7818609E-02  0.8177423E-01
        2   -1    0    0  501    0  0.00000000000E+00  0.00000000000E+00  0.26327754736E+04  0.26327754736E+04  0.25500000920E-02 0. -1.
       -2   -1    0    0    0  501  0.00000000000E+00  0.00000000000E+00 -0.99897285559E+03  0.99897285559E+03  0.25500000920E-02 0.  1.
    10030    2    1    2    0    0  0.00000000000E+00  0.00000000000E+00  0.16338026181E+04  0.36317483292E+04  0.32434988719E+04 0.  0.
        1    1    3    3  502    0  0.12188359987E+04  0.10524625221E+04  0.10317925225E+04  0.19125465646E+04  0.50400001928E-02 0. -1.
       -1    1    3    3    0  502 -0.12188359987E+04 -0.10524625221E+04  0.60201009558E+03  0.17192017646E+04  0.50400001928E-02 0.  1.
</event>
<event>
 5   0  0.1273754E-06  0.3172166E+04  0.7818609E-02  0.8196207E-01
        1   -1    0    0  501    0  0.00000000000E+00  0.00000000000E+00  0.24478232078E+04  0.24478232078E+04  0.50400001928E-02 0. -1.
       -1   -1    0    0    0  501  0.00000000000E+00  0.00000000000E+00 -0.10277125188E+04  0.10277125188E+04  0.50400001928E-02 0.  1.
    10030    2    1    2    0    0  0.00000000000E+00  0.00000000000E+00  0.14201106889E+04  0.34755357266E+04  0.31721655408E+04 0.  0.
        2    1    3    3  502    0  0.26082862934E+03  0.10937993888E+04  0.19356150320E+04  0.22385339463E+04  0.25500000920E-02 0. -1.
       -2    1    3    3    0  502 -0.26082862934E+03 -0.10937993888E+04 -0.51550434303E+03  0.12370017803E+04  0.25500000920E-02 0.  1.
</event>
<event>
 5   0  0.1273980E-06  0.3111811E+04  0.7818609E-02  0.8212504E-01
       -1   -1    0    0    0  501  0.00000000000E+00  0.00000000000E+00  0.11484917787E+04  0.11484917788E+04  0.50400001928E-02 0.  1.
        1   -1    0    0  501    0  0.00000000000E+00  0.00000000000E+00 -0.21078445006E+04  0.21078445006E+04  0.50400001928E-02 0. -1.
    10030    2    1    2    0    0  0.00000000000E+00  0.00000000000E+00 -0.95935272185E+03  0.32563362794E+04  0.31118110996E+04 0.  0.
        4    1    3    3  502    0  0.31655407152E+03  0.32698734517E+03 -0.20366336741E+04  0.20868650027E+04  0.12699999809E+01 0. -1.
       -4    1    3    3    0  502 -0.31655407152E+03 -0.32698734517E+03  0.10772809522E+04  0.11694712767E+04  0.12699999809E+01 0.  1.
</event>
<event>
 5   0  0.1240725E-06  0.3068659E+04  0.7818609E-02  0.8224392E-01
        1   -1    0    0  501    0  0.00000000000E+00  0.00000000000E+00  0.17464587363E+04  0.17464587363E+04  0.50400001928E-02 0.  1.
       -1   -1    0    0    0  501  0.00000000000E+00  0.00000000000E+00 -0.13479660770E+04  0.13479660770E+04  0.50400001928E-02 0. -1.
    10030    2    1    2    0    0  0.00000000000E+00  0.00000000000E+00  0.39849265928E+03  0.30944248133E+04  0.30686590762E+04 0.  0.
        3    1    3    3  502    0  0.49178464109E+03  0.25537117237E+03 -0.12435362204E+04  0.13614143053E+04  0.10100000352E+00 0. -1.
       -3    1    3    3    0  502 -0.49178464109E+03 -0.25537117237E+03  0.16420288797E+04  0.17330105080E+04  0.10100000352E+00 0.  1.
</event>
<event>
 5   0  0.1273980E-06  0.3193706E+04  0.7818609E-02  0.8190481E-01
       -1   -1    0    0    0  501  0.00000000000E+00  0.00000000000E+00  0.12582081552E+04  0.12582081552E+04  0.50400001928E-02 0.  1.
        1   -1    0    0  501    0  0.00000000000E+00  0.00000000000E+00 -0.20266437858E+04  0.20266437858E+04  0.50400001928E-02 0. -1.
    10030    2    1    2    0    0  0.00000000000E+00  0.00000000000E+00 -0.76843563057E+03  0.32848519410E+04  0.31937061474E+04 0.  0.
        4    1    3    3  502    0 -0.74822962287E+03  0.10992214569E+04 -0.12936481595E+04  0.18551718393E+04  0.12699999809E+01 0. -1.
       -4    1    3    3    0  502  0.74822962287E+03 -0.10992214569E+04  0.52521252889E+03  0.14296801017E+04  0.12699999809E+01 0.  1.
</event>
<event>
 5   0  0.3758062E-06  0.3182141E+04  0.7818609E-02  0.8193550E-01
       -2   -1    0    0    0  501  0.00000000000E+00  0.00000000000E+00  0.10450025642E+04  0.10450025642E+04  0.25500000920E-02 0.  1.
        2   -1    0    0  501    0  0.00000000000E+00  0.00000000000E+00 -0.24224869814E+04  0.24224869814E+04  0.25500000920E-02 0. -1.
    10030    2    1    2    0    0  0.00000000000E+00  0.00000000000E+00 -0.13774844172E+04  0.34674895456E+04  0.31821408563E+04 0.  0.
        2    1    3    3  502    0  0.10205375740E+03  0.15925632550E+03  0.10327075347E+04  0.10498868505E+04  0.25500000920E-02 0.  1.
       -2    1    3    3    0  502 -0.10205375740E+03 -0.15925632550E+03 -0.24101919518E+04  0.24176026951E+04  0.25500000920E-02 0. -1.
</event>
<event>
 5   0  0.3531437E-06  0.3214352E+04  0.7818609E-02  0.8185037E-01
        2   -1    0    0  501    0  0.00000000000E+00  0.00000000000E+00  0.24374954692E+04  0.24374954692E+04  0.25500000920E-02 0.  1.
       -2   -1    0    0    0  501  0.00000000000E+00  0.00000000000E+00 -0.10597000324E+04  0.10597000324E+04  0.25500000920E-02 0. -1.
    10030    2    1    2    0    0  0.00000000000E+00  0.00000000000E+00  0.13777954368E+04  0.34971955017E+04  0.32143515848E+04 0.  0.
        1    1    3    3  502    0 -0.73509907801E+03  0.10666540897E+04  0.17238611609E+04  0.21563438742E+04  0.50400001928E-02 0.  1.
       -1    1    3    3    0  502  0.73509907801E+03 -0.10666540897E+04 -0.34606572409E+03  0.13408516275E+04  0.50400001928E-02 0. -1.
</event>
<event>
 5   0  0.1268836E-06  0.3070292E+04  0.7818609E-02  0.8223939E-01
       -1   -1    0    0    0  501  0.00000000000E+00  0.00000000000E+00  0.14985117325E+04  0.14985117325E+04  0.50400001928E-02 0. -1.
        1   -1    0    0  501    0  0.00000000000E+00  0.00000000000E+00 -0.15726757136E+04  0.15726757136E+04  0.50400001928E-02 0.  1.
    10030    2    1    2    0    0  0.00000000000E+00  0.00000000000E+00 -0.74163981110E+02  0.30711874461E+04  0.30702918482E+04 0.  0.
        1    1    3    3  502    0 -0.43670540626E+03  0.14008604334E+04  0.41421637074E+03  0.15246956311E+04  0.50400001928E-02 0. -1.
       -1    1    3    3    0  502  0.43670540626E+03 -0.14008604334E+04 -0.48838035185E+03  0.15464918150E+04  0.50400001928E-02 0.  1.
</event>
<event>
 5   0  0.3758062E-06  0.3236974E+04  0.7818609E-02  0.8179120E-01
        2   -1    0    0  501    0  0.00000000000E+00  0.00000000000E+00  0.13123273232E+04  0.13123273232E+04  0.25500000920E-02 0. -1.
       -2   -1    0    0    0  501  0.00000000000E+00  0.00000000000E+00 -0.19960718042E+04  0.19960718042E+04  0.25500000920E-02 0.  1.
    10030    2    1    2    0    0  0.00000000000E+00  0.00000000000E+00 -0.68374448106E+03  0.33083991274E+04  0.32369736284E+04 0.  0.
        2    1    3    3  502    0  0.96138370374E+03 -0.75372142321E+02  0.98663994927E+03  0.13796368998E+04  0.25500000920E-02 0. -1.
       -2    1    3    3    0  502 -0.96138370374E+03  0.75372142321E+02 -0.16703844303E+04  0.19287622276E+04  0.25500000920E-02 0.  1.
</event>
<event>
 5   0  0.1240725E-06  0.3383239E+04  0.7818609E-02  0.8142032E-01
        1   -1    0    0  501    0  0.00000000000E+00  0.00000000000E+00  0.13692459795E+04  0.13692459795E+04  0.50400001928E-02 0. -1.
       -1   -1    0    0    0  501  0.00000000000E+00  0.00000000000E+00 -0.20898917493E+04  0.20898917493E+04  0.50400001928E-02 0.  1.
    10030    2    1    2    0    0  0.00000000000E+00  0.00000000000E+00 -0.72064576979E+03  0.34591377288E+04  0.33832386113E+04 0.  0.
        3    1    3    3  502    0  0.89393290705E+03  0.48966752131E+03  0.10200330914E+04  0.14419978646E+04  0.10100000352E+00 0. -1.
       -3    1    3    3    0  502 -0.89393290705E+03 -0.48966752131E+03 -0.17406788612E+04  0.20171398642E+04  0.10100000352E+00 0.  1.
</event>
<event>
 5   0  0.3531437E-06  0.3199529E+04  0.7818609E-02  0.8188942E-01
       -2   -1    0    0    0  501  0.00000000000E+00  0.00000000000E+00  0.10882550304E+04  0.10882550305E+04  0.25500000920E-02 0.  1.
        2   -1    0    0  501    0  0.00000000000E+00  0.00000000000E+00 -0.23516966775E+04  0.23516966775E+04  0.25500000920E-02 0. -1.
    10030    2    1    2    0    0  0.00000000000E+00  0.00000000000E+00 -0.12634416471E+04  0.34399517080E+04  0.31995285524E+04 0.  0.
        1    1    3    3  502    0 -0.15404564042E+04  0.25591505980E+03 -0.25812238818E+03  0.15827588630E+04  0.50400001928E-02 0.  1.
       -1    1    3    3    0  502  0.15404564042E+04 -0.25591505980E+03 -0.10053192589E+04  0.18571928450E+04  0.50400001928E-02 0. -1.
</event>
<event>
 5   0  0.1240725E-06  0.3262480E+04  0.7818609E-02  0.8172509E-01
       -1   -1    0    0    0  501  0.00000000000E+00  0.00000000000E+00  0.19824365238E+04  0.19824365238E+04  0.50400001928E-02 0.  1.
        1   -1    0    0  501    0  0.00000000000E+00  0.00000000000E+00 -0.13422593205E+04  0.13422593206E+04  0.50400001928E-02 0. -1.
    10030    2    1    2    0    0  0.00000000000E+00  0.00000000000E+00  0.64017720325E+03  0.33246958443E+04  0.32624799778E+04 0.  0.
        3    1    3    3  502    0 -0.14787217850E+03  0.76414053319E+03  0.17810125883E+04  0.19436519198E+04  0.10100000352E+00 0.  1.
       -3    1    3    3    0  502  0.14787217850E+03 -0.76414053319E+03 -0.11408353850E+04  0.13810439245E+04  0.10100000352E+00 0. -1.
</event>
<event>
 5   0  0.3745943E-06  0.3187162E+04  0.7818609E-02  0.8192216E-01
       -2   -1    0    0    0  501  0.00000000000E+00  0.00000000000E+00  0.16848327091E+04  0.16848327091E+04  0.25500000920E-02 0.  1.
        2   -1    0    0  501    0  0.00000000000E+00  0.00000000000E+00 -0.15072711003E+04  0.15072711003E+04  0.25500000920E-02 0. -1.
    10030    2    1    2    0    0  0.00000000000E+00  0.00000000000E+00  0.17756160886E+03  0.31921038094E+04  0.31871615279E+04 0.  0.
        5    1    3    3  502    0 -0.14279982136E+04  0.59948320300E+03 -0.28719250808E+03  0.15751382909E+04  0.46999998093E+01 0.  1.
       -5    1    3    3    0  502  0.14279982136E+04 -0.59948320300E+03  0.46475411694E+03  0.16169655185E+04  0.46999998093E+01 0. -1.
</event>
<event>
 5   0  0.3531437E-06  0.3153848E+04  0.7818609E-02  0.8201113E-01
       -2   -1    0    0    0  501  0.00000000000E+00  0.00000000000E+00  0.20950010068E+04  0.20950010068E+04  0.25500000920E-02 0. -1.
        2   -1    0    0  501    0  0.00000000000E+00  0.00000000000E+00 -0.11869631251E+04  0.11869631251E+04  0.25500000920E-02 0.  1.
    10030    2    1    2    0    0  0.00000000000E+00  0.00000000000E+00  0.90803788171E+03  0.32819641319E+04  0.31538477719E+04 0.  0.
        1    1    3    3  502    0 -0.55567671538E+03 -0.74554308587E+03  0.17793639543E+04  0.20076720815E+04  0.50400001928E-02 0. -1.
       -1    1    3    3    0  502  0.55567671538E+03  0.74554308587E+03 -0.87132607259E+03  0.12742920504E+04  0.50400001928E-02 0.  1.
</event>
<event>
 5   0  0.1273754E-06  0.3289552E+04  0.7818609E-02  0.8165559E-01
       -1   -1    0    0    0  501  0.00000000000E+00  0.00000000000E+00  0.12444939276E+04  0.12444939277E+04  0.50400001928E-02 0. -1.
        1   -1    0    0  501    0  0.00000000000E+00  0.00000000000E+00 -0.21738054742E+04  0.21738054742E+04  0.50400001928E-02 0.  1.
    10030    2    1    2    0    0  0.00000000000E+00  0.00000000000E+00 -0.92931154655E+03  0.34182994018E+04  0.32895517704E+04 0.  0.
        2    1    3    3  502    0  0.79288542651E+03  0.53977126809E+03  0.92377748966E+03  0.13316850873E+04  0.25500000920E-02 0. -1.
       -2    1    3    3    0  502 -0.79288542651E+03 -0.53977126809E+03 -0.18530890362E+04  0.20866143145E+04  0.25500000920E-02 0.  1.
</event>
<event>
 5   0  0.3758062E-06  0.3222155E+04  0.7818609E-02  0.8182991E-01
        2   -1    0    0  501    0  0.00000000000E+00  0.00000000000E+00  0.12369041097E+04  0.12369041097E+04  0.25500000920E-02 0.  1.
       -2   -1    0    0    0  501  0.00000000000E+00  0.00000000000E+00 -0.20984409389E+04  0.20984409389E+04  0.25500000920E-02 0. -1.
    10030    2    1    2    0    0  0.00000000000E+00  0.00000000000E+00 -0.86153682919E+03  0.33353450486E+04  0.32221546960E+04 0.  0.
        2    1    3    3  502    0  0.11041967662E+04  0.23650474618E+02  0.78336323671E+03  0.13540560565E+04  0.25500000920E-02 0.  1.
       -2    1    3    3    0  502 -0.11041967662E+04 -0.23650474618E+02 -0.16449000659E+04  0.19812889921E+04  0.25500000920E-02 0. -1.
</event>
<event>
 5   0  0.3531437E-06  0.3164730E+04  0.7818609E-02  0.8198194E-01
        2   -1    0    0  501    0  0.00000000000E+00  0.00000000000E+00  0.26991364592E+04  0.26991364592E+04  0.25500000920E-02 0.  1.
       -2   -1    0    0    0  501  0.00000000000E+00  0.00000000000E+00 -0.92765955861E+03  0.92765955861E+03  0.25500000920E-02 0. -1.
    10030    2    1    2    0    0  0.00000000000E+00  0.00000000000E+00  0.17714769006E+04  0.36267960178E+04  0.31647304696E+04 0.  0.
        1    1    3    3  502    0 -0.10571620211E+04 -0.20524082545E+03  0.22143945831E+04  0.24623685152E+04  0.50400001928E-02 0.  1.
       -1    1    3    3    0  502  0.10571620211E+04  0.20524082545E+03 -0.44291768247E+03  0.11644275026E+04  0.50400001928E-02 0. -1.
</event>
<event>
 5   0  0.1273754E-06  0.3111476E+04  0.7818609E-02  0.8212595E-01
       -1   -1    0    0    0  501  0.00000000000E+00  0.00000000000E+00  0.95510483462E+03  0.95510483463E+03  0.50400001928E-02 0.  1.
        1   -1    0    0  501    0  0.00000000000E+00  0.00000000000E+00 -0.25340895631E+04  0.25340895631E+04  0.50400001928E-02 0. -1.
    10030    2    1    2    0    0  0.00000000000E+00  0.00000000000E+00 -0.15789847285E+04  0.34891943978E+04  0.31114763011E+04 0.  0.
        2    1    3    3  502    0 -0.73132884839E+03  0.51836952770E+03  0.63638805285E+03  0.10993355291E+04  0.25500000920E-02 0.  1.
       -2    1    3    3    0  502  0.73132884839E+03 -0.51836952770E+03 -0.22153727814E+04  0.23898588687E+04  0.25500000920E-02 0. -1.
</event>
<event>
 5   0  0.1273980E-06  0.3247657E+04  0.7818609E-02  0.8176343E-01
        1   -1    0    0  501    0  0.00000000000E+00  0.00000000000E+00  0.35313556688E+04  0.35313556688E+04  0.50400001928E-02 0.  1.
       -1   -1    0    0    0  501  0.00000000000E+00  0.00000000000E+00 -0.74668754797E+03  0.74668754799E+03  0.50400001928E-02 0. -1.
    10030    2    1    2    0    0  0.00000000000E+00  0.00000000000E+00  0.27846681209E+04  0.42780432168E+04  0.32476571897E+04 0.  0.
        4    1    3    3  502    0  0.13692532037E+04 -0.24661382419E+03  0.28932545441E+03  0.14210501559E+04  0.12699999809E+01 0. -1.
       -4    1    3    3    0  502 -0.13692532037E+04  0.24661382419E+03  0.24953426665E+04  0.28569930609E+04  0.12699999809E+01 0.  1.
</event>
<event>
 5   0  0.3745943E-06  0.3087967E+04  0.7818609E-02  0.8219048E-01
        2   -1    0    0  501    0  0.00000000000E+00  0.00000000000E+00  0.18457026956E+04  0.18457026956E+04  0.25500000920E-02 0. -1.
       -2   -1    0    0    0  501  0.00000000000E+00  0.00000000000E+00 -0.12915868411E+04  0.12915868411E+04  0.25500000920E-02 0.  1.
    10030    2    1    2    0    0  0.00000000000E+00  0.00000000000E+00  0.55411585445E+03  0.31372895367E+04  0.30879671723E+04 0.  0.
        5    1    3    3  502    0  0.11349205583E+04 -0.54766178585E+03  0.11834312585E+04  0.17287306728E+04  0.46999998093E+01 0. -1.
       -5    1    3    3    0  502 -0.11349205583E+04  0.54766178585E+03 -0.62931540408E+03  0.14085588639E+04  0.46999998093E+01 0.  1.
</event>
<event>
 5   0  0.1240725E-06  0.3329579E+04  0.7818609E-02  0.8155409E-01
       -1   -1    0    0    0  501  0.00000000000E+00  0.00000000000E+00  0.13461830814E+04  0.13461830814E+04  0.50400001928E-02 0. -1.
        1   -1    0    0  501    0  0.00000000000E+00  0.00000000000E+00 -0.20588023239E+04  0.20588023239E+04  0.50400001928E-02 0.  1.
    10030    2    1    2    0    0  0.00000000000E+00  0.00000000000E+00 -0.71261924251E+03  0.34049854053E+04  0.33295794667E+04 0.  0.
        3    1    3    3  502    0  0.20797534981E+03  0.13447549295E+04 -0.13371479436E+04  0.19077694305E+04  0.10100000352E+00 0. -1.
       -3    1    3    3    0  502 -0.20797534981E+03 -0.13447549295E+04  0.62452870107E+03  0.14972159748E+04  0.10100000352E+00 0.  1.
</event>
<event>
 5   0  0.1240725E-06  0.2898850E+04  0.7818609E-02  0.8273220E-01
       -1   -1    0    0    0  501  0.00000000000E+00  0.00000000000E+00  0.21280819350E+04  0.21280819351E+04  0.50400001928E-02 0. -1.
        1   -1    0    0  501    0  0.00000000000E+00  0.00000000000E+00 -0.98719519985E+03  0.98719519987E+03  0.50400001928E-02 0.  1.
    10030    2    1    2    0    0  0.00000000000E+00  0.00000000000E+00  0.11408867352E+04  0.31152771349E+04  0.28988496140E+04 0.  0.
        3    1    3    3  502    0 -0.59313900361E+03 -0.87533548323E+03 -0.49493761479E+03  0.11674713438E+04  0.10100000352E+00 0.  1.
       -3    1    3    3    0  502  0.59313900361E+03  0.87533548323E+03  0.16358243500E+04  0.19478057911E+04  0.10100000352E+00 0. -1.
</event>
<event>
 5   0  0.3656086E-06  0.2885296E+04  0.7818609E-02  0.8277266E-01
        2   -1    0    0  501    0  0.00000000000E+00  0.00000000000E+00  0.13896986614E+04  0.13896986614E+04  0.25500000920E-02 0. -1.
       -2   -1    0    0    0  501  0.00000000000E+00  0.00000000000E+00 -0.14976145633E+04  0.14976145633E+04  0.25500000920E-02 0.  1.
    10030    2    1    2    0    0  0.00000000000E+00  0.00000000000E+00 -0.10791590188E+03  0.28873132247E+04  0.28852957934E+04 0.  0.
        3    1    3    3  502    0  0.19598147830E+03 -0.94721657504E+03 -0.11250357089E+04  0.14836890969E+04  0.10100000352E+00 0.  1.
       -3    1    3    3    0  502 -0.19598147830E+03  0.94721657504E+03  0.10171198070E+04  0.14036241277E+04  0.10100000352E+00 0. -1.
</event>
<event>
 5   0  0.3745943E-06  0.3182719E+04  0.7818609E-02  0.8193396E-01
        2   -1    0    0  501    0  0.00000000000E+00  0.00000000000E+00  0.10602929890E+04  0.10602929890E+04  0.25500000920E-02 0. -1.
       -2   -1    0    0    0  501  0.00000000000E+00  0.00000000000E+00 -0.23884198074E+04  0.23884198074E+04  0.25500000920E-02 0.  1.
    10030    2    1    2    0    0  0.00000000000E+00  0.00000000000E+00 -0.13281268185E+04  0.34487127964E+04  0.31827188230E+04 0.  0.
        5    1    3    3  502    0  0.10561991918E+04 -0.67166541800E+03 -0.17288987635E+04  0.21344329904E+04  0.46999998093E+01 0.  1.
       -5    1    3    3    0  502 -0.10561991918E+04  0.67166541800E+03  0.40077194498E+03  0.13142798059E+04  0.46999998093E+01 0. -1.
</event>
<event>
 5   0  0.1306843E-06  0.3190221E+04  0.7818609E-02  0.8191405E-01
        1   -1    0    0  501    0  0.00000000000E+00  0.00000000000E+00  0.14938987852E+04  0.14938987852E+04  0.50400001928E-02 0. -1.
       -1   -1    0    0    0  501  0.00000000000E+00  0.00000000000E+00 -0.17031794989E+04  0.17031794989E+04  0.50400001928E-02 0.  1.
    10030    2    1    2    0    0  0.00000000000E+00  0.00000000000E+00 -0.20928071371E+03  0.31970782841E+04  0.31902211738E+04 0.  0.
        5    1    3    3  502    0 -0.76282139977E+03  0.13154107067E+04 -0.58749948953E+03  0.16301470962E+04  0.46999998093E+01 0.  1.
       -5    1    3    3    0  502  0.76282139977E+03 -0.13154107067E+04  0.37821877582E+03  0.15669311879E+04  0.46999998093E+01 0. -1.
</event>
<event>
 5   0  0.1273754E-06  0.3170808E+04  0.7818609E-02  0.8196570E-01
        1   -1    0    0  501    0  0.00000000000E+00  0.00000000000E+00  0.11389501830E+04  0.11389501830E+04  0.50400001928E-02 0. -1.
       -1   -1    0    0    0  501  0.00000000000E+00  0.00000000000E+00 -0.22068616122E+04  0.22068616123E+04  0.50400001928E-02 0.  1.
    10030    2    1    2    0    0  0.00000000000E+00  0.00000000000E+00 -0.10679114293E+04  0.33458117953E+04  0.31708077439E+04 0.  0.
        2    1    3    3  502    0 -0.14665931435E+04  0.36749912349E+03 -0.30600931267E+02  0.15122458369E+04  0.25500000920E-02 0. -1.
       -2    1    3    3    0  502  0.14665931435E+04 -0.36749912349E+03 -0.10373104980E+04  0.18335659583E+04  0.25500000920E-02 0.  1.
</event>
<event>
 5   0  0.3497546E-06  0.3282728E+04  0.7818609E-02  0.8167304E-01
        2   -1    0    0  501    0  0.00000000000E+00  0.00000000000E+00  0.17416914231E+04  0.17416914231E+04  0.25500000920E-02 0.  1.
       -2   -1    0    0    0  501  0.00000000000E+00  0.00000000000E+00 -0.15468162139E+04  0.15468162139E+04  0.25500000920E-02 0. -1.
    10030    2    1    2    0    0  0.00000000000E+00  0.00000000000E+00  0.19487520923E+03  0.32885076370E+04  0.32827284583E+04 0.  0.
        4    1    3    3  502    0 -0.71938336571E+03  0.38358151665E+03 -0.13296501775E+04  0.15596853574E+04  0.12699999809E+01 0. -1.
       -4    1    3    3    0  502  0.71938336571E+03 -0.38358151665E+03  0.15245253867E+04  0.17288222796E+04  0.12699999809E+01 0.  1.
</event>
<event>
 5   0  0.3745943E-06  0.3200630E+04  0.7818609E-02  0.8188651E-01
       -2   -1    0    0    0  501  0.00000000000E+00  0.00000000000E+00  0.10232286218E+04  0.10232286218E+04  0.25500000920E-02 0. -1.
        2   -1    0    0  501    0  0.00000000000E+00  0.00000000000E+00 -0.25028692858E+04  0.25028692858E+04  0.25500000920E-02 0.  1.
    10030    2    1    2    0    0  0.00000000000E+00  0.00000000000E+00 -0.14796406640E+04  0.35260979076E+04  0.32006296192E+04 0.  0.
        5    1    3    3  502    0  0.11375944403E+04 -0.87088511672E+03  0.45725834308E+02  0.14334137362E+04  0.46999998093E+01 0. -1.
       -5    1    3    3    0  502 -0.11375944403E+04  0.87088511672E+03 -0.15253664983E+04  0.20926841714E+04  0.46999998093E+01 0.  1.
</event>
<event>
 5   0  0.1268836E-06  0.3224541E+04  0.7818609E-02  0.8182366E-01
       -1   -1    0    0    0  501  0.00000000000E+00  0.00000000000E+00  0.91878722179E+03  0.91878722181E+03  0.50400001928E-02 0.  1.
        1   -1    0    0  501    0  0.00000000000E+00  0.00000000000E+00 -0.28291818167E+04  0.28291818167E+04  0.50400001928E-02 0. -1.
    10030    2    1    2    0    0  0.00000000000E+00  0.00000000000E+00 -0.19103945949E+04  0.37479690385E+04  0.32245409604E+04 0.  0.
        1    1    3    3  502    0 -0.10446184361E+04 -0.97693392486E+03 -0.18201653657E+04  0.23148713850E+04  0.50400001928E-02 0. -1.
       -1    1    3    3    0  502  0.10446184361E+04  0.97693392486E+03 -0.90229229153E+02  0.14330976535E+04  0.50400001928E-02 0.  1.
</event>
<event>
 5   0  0.3758062E-06  0.3240576E+04  0.7818609E-02  0.8178183E-01
        2   -1    0    0  501    0  0.00000000000E+00  0.00000000000E+00  0.20653381562E+04  0.20653381562E+04  0.25500000920E-02 0.  1.
       -2   -1    0    0    0  501  0.00000000000E+00  0.00000000000E+00 -0.12711396729E+04  0.12711396729E+04  0.25500000920E-02 0. -1.
    10030    2    1    2    0    0  0.00000000000E+00  0.00000000000E+00  0.79419848323E+03  0.33364778291E+04  0.32405760404E+04 0.  0.
        2    1    3    3  502    0 -0.22376336524E+03  0.12576581727E+04 -0.62917372523E+03  0.14239500341E+04  0.25500000920E-02 0. -1.
       -2    1    3    3    0  502  0.22376336524E+03 -0.12576581727E+04  0.14233722085E+04  0.19125277950E+04  0.25500000920E-02 0.  1.
</event>
<event>
 5   0  0.1273754E-06  0.3250894E+04  0.7818609E-02  0.8175504E-01
       -1   -1    0    0    0  501  0.00000000000E+00  0.00000000000E+00  0.19193211765E+04  0.19193211765E+04  0.50400001928E-02 0. -1.
        1   -1    0    0  501    0  0.00000000000E+00  0.00000000000E+00 -0.13765693630E+04  0.13765693630E+04  0.50400001928E-02 0.  1.
    10030    2    1    2    0    0  0.00000000000E+00  0.00000000000E+00  0.54275181343E+03  0.32958905395E+04  0.32508944796E+04 0.  0.
        2    1    3    3  502    0 -0.60818154734E+03  0.15025190138E+04  0.14874492587E+03  0.16277509743E+04  0.25500000920E-02 0. -1.
       -2    1    3    3    0  502  0.60818154734E+03 -0.15025190138E+04  0.39400688757E+03  0.16681395652E+04  0.25500000920E-02 0.  1.
</event>
<event>
 5   0  0.3531437E-06  0.3254979E+04  0.7818609E-02  0.8174446E-01
       -2   -1    0    0    0  501  0.00000000000E+00  0.00000000000E+00  0.11140110719E+04  0.11140110719E+04  0.25500000920E-02 0. -1.
        2   -1    0    0  501    0  0.00000000000E+00  0.00000000000E+00 -0.23776449106E+04  0.23776449106E+04  0.25500000920E-02 0.  1.
    10030    2    1    2    0    0  0.00000000000E+00  0.00000000000E+00 -0.12636338387E+04  0.34916559825E+04  0.32549794195E+04 0.  0.
        1    1    3    3  502    0  0.28387893397E+03 -0.12945674745E+04 -0.16450789017E+04  0.21125285296E+04  0.50400001928E-02 0.  1.
       -1    1    3    3    0  502 -0.28387893397E+03  0.12945674745E+04  0.38144506304E+03  0.13791274529E+04  0.50400001928E-02 0. -1.
</event>
<event>
 5   0  0.1240725E-06  0.3212239E+04  0.7818609E-02  0.8185592E-01
        1   -1    0    0  501    0  0.00000000000E+00  0.00000000000E+00  0.12813629249E+04  0.12813629249E+04  0.50400001928E-02 0. -1.
       -1   -1    0    0    0  501  0.00000000000E+00  0.00000000000E+00 -0.20131842919E+04  0.20131842919E+04  0.50400001928E-02 0.  1.
    10030    2    1    2    0    0  0.00000000000E+00  0.00000000000E+00 -0.73182136703E+03  0.32945472168E+04  0.32122389155E+04 0.  0.
        3    1    3    3  502    0 -0.64441584221E+03 -0.83760047459E+03  0.87453119383E+03  0.13717329011E+04  0.10100000352E+00 0. -1.
       -3    1    3    3    0  502  0.64441584221E+03  0.83760047459E+03 -0.16063525609E+04  0.19228143157E+04  0.10100000352E+00 0.  1.
</event>
<event>
 5   0  0.1240725E-06  0.3066005E+04  0.7818609E-02  0.8225130E-01
        1   -1    0    0  501    0  0.00000000000E+00  0.00000000000E+00  0.10289956372E+04  0.10289956373E+04  0.50400001928E-02 0.  1.
       -1   -1    0    0    0  501  0.00000000000E+00  0.00000000000E+00 -0.22838737555E+04  0.22838737555E+04  0.50400001928E-02 0. -1.
    10030    2    1    2    0    0  0.00000000000E+00  0.00000000000E+00 -0.12548781183E+04  0.33128693928E+04  0.30660046513E+04 0.  0.
        3    1    3    3  502    0 -0.67433251466E+03 -0.44880050527E+03  0.77887326980E+03  0.11237392111E+04  0.10100000352E+00 0.  1.
       -3    1    3    3    0  502  0.67433251466E+03  0.44880050527E+03 -0.20337513881E+04  0.21891301817E+04  0.10100000352E+00 0. -1.
</event>
<event>
 5   0  0.3497546E-06  0.3223498E+04  0.7818609E-02  0.8182639E-01
        2   -1    0    0  501    0  0.00000000000E+00  0.00000000000E+00  0.14879213867E+04  0.14879213867E+04  0.25500000920E-02 0.  1.
       -2   -1    0    0    0  501  0.00000000000E+00  0.00000000000E+00 -0.17458821152E+04  0.17458821152E+04  0.25500000920E-02 0. -1.
    10030    2    1    2    0    0  0.00000000000E+00  0.00000000000E+00 -0.25796072852E+03  0.32338035019E+04  0.32234983095E+04 0.  0.
        4    1    3    3  502    0  0.14253296448E+04 -0.45644356945E+03 -0.72908030139E+03  0.16647717643E+04  0.12699999809E+01 0. -1.
       -4    1    3    3    0  502 -0.14253296448E+04  0.45644356945E+03  0.47111957287E+03  0.15690317375E+04  0.12699999809E+01 0.  1.
</event>
<event>
 5   0  0.3531437E-06  0.2986399E+04  0.7818609E-02  0.8247625E-01
        2   -1    0    0  501    0  0.00000000000E+00  0.00000000000E+00  0.12050175213E+04  0.12050175213E+04  0.25500000920E-02 0. -1.
       -2   -1    0    0    0  501  0.00000000000E+00  0.00000000000E+00 -0.18503005754E+04  0.18503005754E+04  0.25500000920E-02 0.  1.
    10030    2    1    2    0    0  0.00000000000E+00  0.00000000000E+00 -0.64528305402E+03  0.30553180967E+04  0.29863989104E+04 0.  0.
        1    1    3    3  502    0  0.72892626562E+03 -0.12962534344E+04 -0.46004716852E+03  0.15566791141E+04  0.50400001928E-02 0.  1.
       -1    1    3    3    0  502 -0.72892626562E+03  0.12962534344E+04 -0.18523588550E+03  0.14986389826E+04  0.50400001928E-02 0. -1.
</event>
<event>
 5   0  0.1273754E-06  0.3178203E+04  0.7818609E-02  0.8194597E-01
       -1   -1    0    0    0  501  0.00000000000E+00  0.00000000000E+00  0.21197315373E+04  0.21197315373E+04  0.50400001928E-02 0.  1.
        1   -1    0    0  501    0  0.00000000000E+00  0.00000000000E+00 -0.11913035730E+04  0.11913035730E+04  0.50400001928E-02 0. -1.
    10030    2    1    2    0    0  0.00000000000E+00  0.00000000000E+00  0.92842796433E+03  0.33110351103E+04  0.31782031113E+04 0.  0.
        2    1    3    3  502    0  0.75632649297E+03 -0.47286881697E+03 -0.90589815911E+03  0.12713324336E+04  0.25500000920E-02 0. -1.
       -2    1    3    3    0  502 -0.75632649297E+03  0.47286881697E+03  0.18343261234E+04  0.20397026767E+04  0.25500000920E-02 0.  1.
</event>
<event>
 5   0  0.1273980E-06  0.3171031E+04  0.7818609E-02  0.8196510E-01
        1   -1    0    0  501    0  0.00000000000E+00  0.00000000000E+00  0.20931013170E+04  0.20931013170E+04  0.50400001928E-02 0. -1.
       -1   -1    0    0    0  501  0.00000000000E+00  0.00000000000E+00 -0.12010214548E+04  0.12010214548E+04  0.50400001928E-02 0.  1.
    10030    2    1    2    0    0  0.00000000000E+00  0.00000000000E+00  0.89207986229E+03  0.32941227718E+04  0.31710311186E+04 0.  0.
        4    1    3    3  502    0 -0.23346452005E+03  0.80704251937E+03 -0.95078717394E+03  0.12687872845E+04  0.12699999809E+01 0.  1.
       -4    1    3    3    0  502  0.23346452005E+03 -0.80704251937E+03  0.18428670362E+04  0.20253354873E+04  0.12699999809E+01 0. -1.
</event>
<event>
 5   0  0.1306843E-06  0.3197254E+04  0.7818609E-02  0.8189543E-01
        1   -1    0    0  501    0  0.00000000000E+00  0.00000000000E+00  0.28602629869E+04  0.28602629869E+04  0.50400001928E-02 0.  1.
       -1   -1    0    0    0  501  0.00000000000E+00  0.00000000000E+00 -0.89348727430E+03  0.89348727431E+03  0.50400001928E-02 0. -1.
    10030    2    1    2    0    0  0.00000000000E+00  0.00000000000E+00  0.19667757126E+04  0.37537502613E+04  0.31972541845E+04 0.  0.
        5    1    3    3  502    0  0.94576826007E+03 -0.11725443375E+04  0.16115329122E+04  0.22059914420E+04  0.46999998093E+01 0.  1.
       -5    1    3    3    0  502 -0.94576826007E+03  0.11725443375E+04  0.35524280048E+03  0.15477588192E+04  0.46999998093E+01 0. -1.
</event>
<event>
 5   0  0.3758062E-06  0.3206595E+04  0.7818609E-02  0.8187078E-01
       -2   -1    0    0    0  501  0.00000000000E+00  0.00000000000E+00  0.15255720827E+04  0.15255720827E+04  0.25500000920E-02 0. -1.
        2   -1    0    0  501    0  0.00000000000E+00  0.00000000000E+00 -0.16849828605E+04  0.16849828605E+04  0.25500000920E-02 0.  1.
    10030    2    1    2    0    0  0.00000000000E+00  0.00000000000E+00 -0.15941077779E+03  0.32105549433E+04  0.32065949616E+04 0.  0.
        2    1    3    3  502    0 -0.34232077021E+03 -0.15449536277E+04  0.17848433624E+03  0.15924578110E+04  0.25500000920E-02 0. -1.
       -2    1    3    3    0  502  0.34232077021E+03  0.15449536277E+04 -0.33789511404E+03  0.16180971323E+04  0.25500000920E-02 0.  1.
</event>
<event>
 5   0  0.1273980E-06  0.3170704E+04  0.7818609E-02  0.8196597E-01
        1   -1    0    0  501    0  0.00000000000E+00  0.00000000000E+00  0.23095551570E+04  0.23095551570E+04  0.50400001928E-02 0.  1.
       -1   -1    0    0    0  501  0.00000000000E+00  0.00000000000E+00 -0.10882359109E+04  0.10882359109E+04  0.50400001928E-02 0. -1.
    10030    2    1    2    0    0  0.00000000000E+00  0.00000000000E+00  0.12213192461E+04  0.33977910680E+04  0.31707039345E+04 0.  0.
        4    1    3    3  502    0  0.10565106038E+04 -0.99443549392E+03 -0.74023341137E+02  0.14527896184E+04  0.12699999809E+01 0. -1.
       -4    1    3    3    0  502 -0.10565106038E+04  0.99443549392E+03  0.12953425873E+04  0.19450014495E+04  0.12699999809E+01 0.  1.
</event>
<event>
 5   0  0.3745943E-06  0.3077348E+04  0.7818609E-02  0.8221982E-01
       -2   -1    0    0    0  501  0.00000000000E+00  0.00000000000E+00  0.11866687728E+04  0.11866687728E+04  0.25500000920E-02 0.  1.
        2   -1    0    0  501    0  0.00000000000E+00  0.00000000000E+00 -0.19950952761E+04  0.19950952761E+04  0.25500000920E-02 0. -1.
    10030    2    1    2    0    0  0.00000000000E+00  0.00000000000E+00 -0.80842650329E+03  0.31817640488E+04  0.30773477300E+04 0.  0.
        5    1    3    3  502    0  0.99572040904E+03  0.26717657437E+03  0.77675673143E+03  0.12908197259E+04  0.46999998093E+01 0.  1.
       -5    1    3    3    0  502 -0.99572040904E+03 -0.26717657437E+03 -0.15851832347E+04  0.18909443230E+04  0.46999998093E+01 0. -1.
</event>
<event>
 5   0  0.1306843E-06  0.3224607E+04  0.7818609E-02  0.8182349E-01
        1   -1    0    0  501    0  0.00000000000E+00  0.00000000000E+00  0.15420162872E+04  0.15420162872E+04  0.50400001928E-02 0.  1.
       -1   -1    0    0    0  501  0.00000000000E+00  0.00000000000E+00 -0.16857942789E+04  0.16857942789E+04  0.50400001928E-02 0. -1.
    10030    2    1    2    0    0  0.00000000000E+00  0.00000000000E+00 -0.14377799172E+03  0.32278105661E+04  0.32246067884E+04 0.  0.
        5    1    3    3  502    0 -0.31520681213E+03  0.14684322011E+04 -0.65886027447E+03  0.16400510403E+04  0.46999998093E+01 0.  1.
       -5    1    3    3    0  502  0.31520681213E+03 -0.14684322011E+04  0.51508228275E+03  0.15877595258E+04  0.46999998093E+01 0. -1.
</event>
<event>
 5   0  0.1268836E-06  0.3524594E+04  0.7818609E-02  0.8107986E-01
       -1   -1    0    0    0  501  0.00000000000E+00  0.00000000000E+00  0.16073503452E+04  0.16073503452E+04  0.50400001928E-02 0.  1.
        1   -1    0    0  501    0  0.00000000000E+00  0.00000000000E+00 -0.19321800654E+04  0.19321800654E+04  0.50400001928E-02 0. -1.
    10030    2    1    2    0    0  0.00000000000E+00  0.00000000000E+00 -0.32482972018E+03  0.35395304106E+04  0.35245937610E+04 0.  0.
        1    1    3    3  502    0 -0.76232459263E+03  0.13547505241E+04  0.67128554162E+03  0.16932548672E+04  0.50400001928E-02 0.  1.
       -1    1    3    3    0  502  0.76232459263E+03 -0.13547505241E+04 -0.99611526180E+03  0.18462755433E+04  0.50400001928E-02 0. -1.
</event>
<event>
 5   0  0.3758062E-06  0.3159532E+04  0.7818609E-02  0.8199587E-01
       -2   -1    0    0    0  501  0.00000000000E+00  0.00000000000E+00  0.11267874535E+04  0.11267874535E+04  0.25500000920E-02 0.  1.
        2   -1    0    0  501    0  0.00000000000E+00  0.00000000000E+00 -0.22148460224E+04  0.22148460224E+04  0.25500000920E-02 0. -1.
    10030    2    1    2    0    0  0.00000000000E+00  0.00000000000E+00 -0.10880585689E+04  0.33416334759E+04  0.31595320600E+04 0.  0.
        2    1    3    3  502    0 -0.10478268327E+04 -0.51634114625E+03  0.58080552441E+03  0.13045628800E+04  0.25500000920E-02 0.  1.
       -2    1    3    3    0  502  0.10478268327E+04  0.51634114625E+03 -0.16688640934E+04  0.20370705959E+04  0.25500000920E-02 0. -1.
</event>
<event>
 5   0  0.1306843E-06  0.3177482E+04  0.7818609E-02  0.8194789E-01
       -1   -1    0    0    0  501  0.00000000000E+00  0.00000000000E+00  0.16232071338E+04  0.16232071338E+04  0.50400001928E-02 0. -1.
        1   -1    0    0  501    0  0.00000000000E+00  0.00000000000E+00 -0.15550071115E+04  0.15550071115E+04  0.50400001928E-02 0.  1.
    10030    2    1    2    0    0  0.00000000000E+00  0.00000000000E+00  0.68200022275E+02  0.31782142453E+04  0.31774824226E+04 0.  0.
        5    1    3    3  502    0  0.10881914464E+04 -0.68635657777E+03  0.96642550507E+03  0.16091135207E+04  0.46999998093E+01 0. -1.
       -5    1    3    3    0  502 -0.10881914464E+04  0.68635657777E+03 -0.89822548279E+03  0.15691007245E+04  0.46999998093E+01 0.  1.
</event>
<event>
 5   0  0.3531437E-06  0.3009222E+04  0.7818609E-02  0.8241102E-01
       -2   -1    0    0    0  501  0.00000000000E+00  0.00000000000E+00  0.13818866807E+04  0.13818866807E+04  0.25500000920E-02 0.  1.
        2   -1    0    0  501    0  0.00000000000E+00  0.00000000000E+00 -0.16382344850E+04  0.16382344850E+04  0.25500000920E-02 0. -1.
    10030    2    1    2    0    0  0.00000000000E+00  0.00000000000E+00 -0.25634780430E+03  0.30201211658E+04  0.30092221020E+04 0.  0.
        1    1    3    3  502    0 -0.15452689085E+03 -0.77698661691E+03  0.11556258763E+04  0.14010916918E+04  0.50400001928E-02 0.  1.
       -1    1    3    3    0  502  0.15452689085E+03  0.77698661691E+03 -0.14119736806E+04  0.16190294740E+04  0.50400001928E-02 0. -1.
</event>
<event>
 5   0  0.1268836E-06  0.2490043E+04  0.7818609E-02  0.8406541E-01
        1   -1    0    0  501    0  0.00000000000E+00  0.00000000000E+00  0.18717311018E+04  0.18717311019E+04  0.50400001928E-02 0.  1.
       -1   -1    0    0    0  501  0.00000000000E+00  0.00000000000E+00 -0.82815235602E+03  0.82815235604E+03  0.50400001928E-02 0. -1.
    10030    2    1    2    0    0  0.00000000000E+00  0.00000000000E+00  0.10435787458E+04  0.26998834579E+04  0.24900429891E+04 0.  0.
        1    1    3    3  502    0 -0.10514380392E+04 -0.35713047258E+03 -0.88699378116E+02  0.11139711417E+04  0.50400001928E-02 0. -1.
       -1    1    3    3    0  502  0.10514380392E+04  0.35713047258E+03  0.11322781239E+04  0.15859123162E+04  0.50400001928E-02 0.  1.
</event>
<event>
 5   0  0.1273754E-06  0.3115521E+04  0.7818609E-02  0.8211491E-01
        1   -1    0    0  501    0  0.00000000000E+00  0.00000000000E+00  0.17542532556E+04  0.17542532556E+04  0.50400001928E-02 0. -1.
       -1   -1    0    0    0  501  0.00000000000E+00  0.00000000000E+00 -0.13832768595E+04  0.13832768595E+04  0.50400001928E-02 0.  1.
    10030    2    1    2    0    0  0.00000000000E+00  0.00000000000E+00  0.37097639613E+03  0.31375301151E+04  0.31155211019E+04 0.  0.
        2    1    3    3  502    0 -0.93558582205E+03 -0.12376212076E+04  0.44532106886E+02  0.15520986414E+04  0.25500000920E-02 0.  1.
       -2    1    3    3    0  502  0.93558582205E+03  0.12376212076E+04  0.32644428924E+03  0.15854314737E+04  0.25500000920E-02 0. -1.
</event>
<event>
 5   0  0.3497546E-06  0.3177335E+04  0.7818609E-02  0.8194829E-01
       -2   -1    0    0    0  501  0.00000000000E+00  0.00000000000E+00  0.15247874549E+04  0.15247874549E+04  0.25500000920E-02 0.  1.
        2   -1    0    0  501    0  0.00000000000E+00  0.00000000000E+00 -0.16552235516E+04  0.16552235516E+04  0.25500000920E-02 0. -1.
    10030    2    1    2    0    0  0.00000000000E+00  0.00000000000E+00 -0.13043609663E+03  0.31800110065E+04  0.31773347992E+04 0.  0.
        4    1    3    3  502    0 -0.62781766219E+03 -0.10467270176E+04 -0.10829668951E+04  0.16317510150E+04  0.12699999809E+01 0. -1.
       -4    1    3    3    0  502  0.62781766219E+03  0.10467270176E+04  0.95253079843E+03  0.15482599915E+04  0.12699999809E+01 0.  1.
</event>
<event>
 5   0  0.3758062E-06  0.3179092E+04  0.7818609E-02  0.8194361E-01
        2   -1    0    0  501    0  0.00000000000E+00  0.00000000000E+00  0.14371284699E+04  0.14371284699E+04  0.25500000920E-02 0.  1.
       -2   -1    0    0    0  501  0.00000000000E+00  0.00000000000E+00 -0.17581287061E+04  0.17581287061E+04  0.25500000920E-02 0. -1.
    10030    2    1    2    0    0  0.00000000000E+00  0.00000000000E+00 -0.32100023621E+03  0.31952571760E+04  0.31790922083E+04 0.  0.
        2    1    3    3  502    0  0.27849258881E+03 -0.83207217446E+03 -0.14926658042E+04  0.17314599125E+04  0.25500000920E-02 0. -1.
       -2    1    3    3    0  502 -0.27849258881E+03  0.83207217446E+03  0.11716655680E+04  0.14637972635E+04  0.25500000920E-02 0.  1.
</event>
<event>
 5   0  0.3497546E-06  0.3248676E+04  0.7818609E-02  0.8176079E-01
       -2   -1    0    0    0  501  0.00000000000E+00  0.00000000000E+00  0.13131831414E+04  0.13131831414E+04  0.25500000920E-02 0. -1.
        2   -1    0    0  501    0  0.00000000000E+00  0.00000000000E+00 -0.20092197906E+04  0.20092197906E+04  0.25500000920E-02 0.  1.
    10030    2    1    2    0    0  0.00000000000E+00  0.00000000000E+00 -0.69603664921E+03  0.33224029319E+04  0.32486757648E+04 0.  0.
        4    1    3    3  502    0 -0.11186633973E+04 -0.11575630765E+04 -0.12603972447E+03  0.16146974012E+04  0.12699999809E+01 0.  1.
       -4    1    3    3    0  502  0.11186633973E+04  0.11575630765E+04 -0.56999692475E+03  0.17077055307E+04  0.12699999809E+01 0. -1.
</event>
<event>
 5   0  0.1273754E-06  0.3176797E+04  0.7818609E-02  0.8194972E-01
        1   -1    0    0  501    0  0.00000000000E+00  0.00000000000E+00  0.22948415677E+04  0.22948415677E+04  0.50400001928E-02 0. -1.
       -1   -1    0    0    0  501  0.00000000000E+00  0.00000000000E+00 -0.10994267931E+04  0.10994267931E+04  0.50400001928E-02 0.  1.
    10030    2    1    2    0    0  0.00000000000E+00  0.00000000000E+00  0.11954147746E+04  0.33942683608E+04  0.31767973215E+04 0.  0.
        2    1    3    3  502    0 -0.77759225901E+02  0.44291154797E+02 -0.10967312437E+04  0.11003761287E+04  0.25500000920E-02 0.  1.
       -2    1    3    3    0  502  0.77759225901E+02 -0.44291154797E+02  0.22921460183E+04  0.22938922321E+04  0.25500000920E-02 0. -1.
</event>
<event>
 5   0  0.3531437E-06  0.3174235E+04  0.7818609E-02  0.8195655E-01
       -2   -1    0    0    0  501  0.00000000000E+00  0.00000000000E+00  0.20806011668E+04  0.20806011668E+04  0.25500000920E-02 0. -1.
        2   -1    0    0  501    0  0.00000000000E+00  0.00000000000E+00 -0.12106801809E+04  0.12106801809E+04  0.25500000920E-02 0.  1.
    10030    2    1    2    0    0  0.00000000000E+00  0.00000000000E+00  0.86992098597E+03  0.32912813477E+04  0.31742354021E+04 0.  0.
        1    1    3    3  502    0  0.10758172816E+03 -0.71611953369E+03 -0.10293980494E+04  0.12585949940E+04  0.50400001928E-02 0.  1.
       -1    1    3    3    0  502 -0.10758172816E+03  0.71611953369E+03  0.18993190353E+04  0.20326863538E+04  0.50400001928E-02 0. -1.
</event>
<event>
 5   0  0.1273980E-06  0.3213466E+04  0.7818609E-02  0.8185270E-01
       -1   -1    0    0    0  501  0.00000000000E+00  0.00000000000E+00  0.17769762925E+04  0.17769762925E+04  0.50400001928E-02 0. -1.
        1   -1    0    0  501    0  0.00000000000E+00  0.00000000000E+00 -0.14528002352E+04  0.14528002352E+04  0.50400001928E-02 0.  1.
    10030    2    1    2    0    0  0.00000000000E+00  0.00000000000E+00  0.32417605727E+03  0.32297765277E+04  0.32134663999E+04 0.  0.
        4    1    3    3  502    0  0.10408704056E+04 -0.11723248261E+04  0.51577362225E+03  0.16503880578E+04  0.12699999809E+01 0. -1.
       -4    1    3    3    0  502 -0.10408704056E+04  0.11723248261E+04 -0.19159756498E+03  0.15793884699E+04  0.12699999809E+01 0.  1.
</event>
<event>
 5   0  0.1273754E-06  0.3140413E+04  0.7818609E-02  0.8204734E-01
        1   -1    0    0  501    0  0.00000000000E+00  0.00000000000E+00  0.19919874878E+04  0.19919874878E+04  0.50400001928E-02 0.  1.
       -1   -1    0    0    0  501  0.00000000000E+00  0.00000000000E+00 -0.12377330365E+04  0.12377330365E+04  0.50400001928E-02 0. -1.
    10030    2    1    2    0    0  0.00000000000E+00  0.00000000000E+00  0.75425445131E+03  0.32297205242E+04  0.31404131714E+04 0.  0.
        2    1    3    3  502    0 -0.14579094744E+04 -0.54721426588E+03  0.16988933662E+03  0.15664628546E+04  0.25500000920E-02 0. -1.
       -2    1    3    3    0  502  0.14579094744E+04  0.54721426588E+03  0.58436511469E+03  0.16632576696E+04  0.25500000920E-02 0.  1.
</event>
<event>
 5   0  0.1268836E-06  0.3234639E+04  0.7818609E-02  0.8179729E-01
       -1   -1    0    0    0  501  0.00000000000E+00  0.00000000000E+00  0.12940988095E+04  0.12940988095E+04  0.50400001928E-02 0. -1.
        1   -1    0    0  501    0  0.00000000000E+00  0.00000000000E+00 -0.20212694021E+04  0.20212694022E+04  0.50400001928E-02 0.  1.
    10030    2    1    2    0    0  0.00000000000E+00  0.00000000000E+00 -0.72717059268E+03  0.33153682116E+04  0.32346389764E+04 0.  0.
        1    1    3    3  502    0 -0.40346439813E+03 -0.74023846080E+03 -0.17782444961E+04  0.19679659518E+04  0.50400001928E-02 0.  1.
       -1    1    3    3    0  502  0.40346439813E+03  0.74023846080E+03  0.10510739034E+04  0.13474022599E+04  0.50400001928E-02 0. -1.
</event>
<event>
 5   0  0.3531437E-06  0.3196993E+04  0.7818609E-02  0.8189612E-01
       -2   -1    0    0    0  501  0.00000000000E+00  0.00000000000E+00  0.10241694328E+04  0.10241694328E+04  0.25500000920E-02 0.  1.
        2   -1    0    0  501    0  0.00000000000E+00  0.00000000000E+00 -0.24948916051E+04  0.24948916051E+04  0.25500000920E-02 0. -1.
    10030    2    1    2    0    0  0.00000000000E+00  0.00000000000E+00 -0.14707221723E+04  0.35190610379E+04  0.31969934127E+04 0.  0.
        1    1    3    3  502    0 -0.21889024595E+02  0.76838385057E+03 -0.22780872300E+04  0.24042824915E+04  0.50400001928E-02 0. -1.
       -1    1    3    3    0  502  0.21889024595E+02 -0.76838385057E+03  0.80736505771E+03  0.11147785465E+04  0.50400001928E-02 0.  1.
</event>
<event>
 5   0  0.1240725E-06  0.3110327E+04  0.7818609E-02  0.8212909E-01
        1   -1    0    0  501    0  0.00000000000E+00  0.00000000000E+00  0.19559575635E+04  0.19559575635E+04  0.50400001928E-02 0.  1.
       -1   -1    0    0    0  501  0.00000000000E+00  0.00000000000E+00 -0.12364959910E+04  0.12364959910E+04  0.50400001928E-02 0. -1.
    10030    2    1    2    0    0  0.00000000000E+00  0.00000000000E+00  0.71946157245E+03  0.31924535545E+04  0.31103271120E+04 0.  0.
        3    1    3    3  502    0 -0.58670294497E+03  0.69155968134E+03  0.16564409932E+04  0.18884575485E+04  0.10100000352E+00 0.  1.
       -3    1    3    3    0  502  0.58670294497E+03 -0.69155968134E+03 -0.93697942075E+03  0.13039960060E+04  0.10100000352E+00 0. -1.
</event>
<event>
 5   0  0.1306843E-06  0.3126211E+04  0.7818609E-02  0.8208581E-01
        1   -1    0    0  501    0  0.00000000000E+00  0.00000000000E+00  0.18260251807E+04  0.18260251808E+04  0.50400001928E-02 0. -1.
       -1   -1    0    0    0  501  0.00000000000E+00  0.00000000000E+00 -0.13380418894E+04  0.13380418894E+04  0.50400001928E-02 0.  1.
    10030    2    1    2    0    0  0.00000000000E+00  0.00000000000E+00  0.48798329133E+03  0.31640670702E+04  0.31262106026E+04 0.  0.
        5    1    3    3  502    0  0.22928869583E+03  0.52281926193E+03  0.17167282771E+04  0.18091686914E+04  0.46999998093E+01 0. -1.
       -5    1    3    3    0  502 -0.22928869583E+03 -0.52281926193E+03 -0.12287449858E+04  0.13548983787E+04  0.46999998093E+01 0.  1.
</event>
<event>
 5   0  0.1240725E-06  0.3175989E+04  0.7818609E-02  0.8195187E-01
        1   -1    0    0  501    0  0.00000000000E+00  0.00000000000E+00  0.10376825013E+04  0.10376825013E+04  0.50400001928E-02 0. -1.
       -1   -1    0    0    0  501  0.00000000000E+00  0.00000000000E+00 -0.24301516518E+04  0.24301516518E+04  0.50400001928E-02 0.  1.
    10030    2    1    2    0    0  0.00000000000E+00  0.00000000000E+00 -0.13924691505E+04  0.34678341531E+04  0.31759885671E+04 0.  0.
        3    1    3    3  502    0 -0.61464906519E+03 -0.14636720709E+04 -0.73986147087E+03  0.17514349576E+04  0.10100000352E+00 0. -1.
       -3    1    3    3    0  502  0.61464906519E+03  0.14636720709E+04 -0.65260767961E+03  0.17163991955E+04  0.10100000352E+00 0.  1.
</event>
<event>
 5   0  0.3758062E-06  0.3117530E+04  0.7818609E-02  0.8210943E-01
        2   -1    0    0  501    0  0.00000000000E+00  0.00000000000E+00  0.25402125437E+04  0.25402125437E+04  0.25500000920E-02 0.  1.
       -2   -1    0    0    0  501  0.00000000000E+00  0.00000000000E+00 -0.95651406093E+03  0.95651406093E+03  0.25500000920E-02 0. -1.
    10030    2    1    2    0    0  0.00000000000E+00  0.00000000000E+00  0.15836984828E+04  0.34967266046E+04  0.31175304430E+04 0.  0.
        2    1    3    3  502    0  0.14235723216E+04 -0.16026936025E+03  0.14809965982E+04  0.20604842505E+04  0.25500000920E-02 0.  1.
       -2    1    3    3    0  502 -0.14235723216E+04  0.16026936025E+03  0.10270188459E+03  0.14362423541E+04  0.25500000920E-02 0. -1.
</event>
<event>
 5   0  0.3497546E-06  0.3172359E+04  0.7818609E-02  0.8196155E-01
        2   -1    0    0  501    0  0.00000000000E+00  0.00000000000E+00  0.28657538344E+04  0.28657538344E+04  0.25500000920E-02 0.  1.
       -2   -1    0    0    0  501  0.00000000000E+00  0.00000000000E+00 -0.87794205884E+03  0.87794205884E+03  0.25500000920E-02 0. -1.
    10030    2    1    2    0    0  0.00000000000E+00  0.00000000000E+00  0.19878117756E+04  0.37436958932E+04  0.31723592618E+04 0.  0.
        4    1    3    3  502    0  0.27596858973E+03  0.11825144438E+03  0.28319150702E+04  0.28477862708E+04  0.12699999809E+01 0.  1.
       -4    1    3    3    0  502 -0.27596858973E+03 -0.11825144438E+03 -0.84410329464E+03  0.89590962241E+03  0.12699999809E+01 0. -1.
</event>
<event>
 5   0  0.3497546E-06  0.2976344E+04  0.7818609E-02  0.8250518E-01
        2   -1    0    0  501    0  0.00000000000E+00  0.00000000000E+00  0.19119720443E+04  0.19119720443E+04  0.25500000920E-02 0.  1.
       -2   -1    0    0    0  501  0.00000000000E+00  0.00000000000E+00 -0.11583097193E+04  0.11583097193E+04  0.25500000920E-02 0. -1.
    10030    2    1    2    0    0  0.00000000000E+00  0.00000000000E+00  0.75366232503E+03  0.30702817636E+04  0.29763439330E+04 0.  0.
        4    1    3    3  502    0  0.86711816199E+03 -0.24757689308E+03 -0.84436771277E+03  0.12353730902E+04  0.12699999809E+01 0. -1.
       -4    1    3    3    0  502 -0.86711816199E+03  0.24757689308E+03  0.15980300378E+04  0.18349086733E+04  0.12699999809E+01 0.  1.
</event>
<event>
 5   0  0.1185575E-06  0.3229122E+04  0.7818609E-02  0.8181168E-01
       -3   -1    0    0    0  501  0.00000000000E+00  0.00000000000E+00  0.17693209894E+04  0.17693209923E+04  0.10100000352E+00 0.  1.
        3   -1    0    0  501    0  0.00000000000E+00  0.00000000000E+00 -0.14733373803E+04  0.14733373838E+04  0.10100000352E+00 0. -1.
    10030    2    1    2    0    0  0.00000000000E+00  0.00000000000E+00  0.29598360908E+03  0.32426583761E+04  0.32291217145E+04 0.  0.
        3    1    3    3  502    0  0.67530736395E+03  0.89179843188E+03  0.13171155971E+04  0.17280445553E+04  0.10100000352E+00 0.  1.
       -3    1    3    3    0  502 -0.67530736395E+03 -0.89179843188E+03 -0.10211319880E+04  0.15146138208E+04  0.10100000352E+00 0. -1.
</event>
<event>
 5   0  0.1240725E-06  0.3213923E+04  0.7818609E-02  0.8185150E-01
        1   -1    0    0  501    0  0.00000000000E+00  0.00000000000E+00  0.20405189759E+04  0.20405189759E+04  0.50400001928E-02 0. -1.
       -1   -1    0    0    0  501  0.00000000000E+00  0.00000000000E+00 -0.12655239438E+04  0.12655239438E+04  0.50400001928E-02 0.  1.
    10030    2    1    2    0    0  0.00000000000E+00  0.00000000000E+00  0.77499503212E+03  0.33060429197E+04  0.32139232236E+04 0.  0.
        3    1    3    3  502    0  0.47681757095E+03 -0.28873425270E+03  0.19378813110E+04  0.20164588889E+04  0.10100000352E+00 0. -1.
       -3    1    3    3    0  502 -0.47681757095E+03  0.28873425270E+03 -0.11628862789E+04  0.12895840308E+04  0.10100000352E+00 0.  1.
</event>
<event>
 5   0  0.1273980E-06  0.3226628E+04  0.7818609E-02  0.8181820E-01
        1   -1    0    0  501    0  0.00000000000E+00  0.00000000000E+00  0.24824229649E+04  0.24824229649E+04  0.50400001928E-02 0.  1.
       -1   -1    0    0    0  501  0.00000000000E+00  0.00000000000E+00 -0.10484842924E+04  0.10484842925E+04  0.50400001928E-02 0. -1.
    10030    2    1    2    0    0  0.00000000000E+00  0.00000000000E+00  0.14339386725E+04  0.35309072574E+04  0.32266276426E+04 0.  0.
        4    1    3    3  502    0  0.66524225761E+03 -0.80346820515E+02  0.23229408140E+04  0.24176555816E+04  0.12699999809E+01 0.  1.
       -4    1    3    3    0  502 -0.66524225761E+03  0.80346820515E+02 -0.88900214159E+03  0.11132516757E+04  0.12699999809E+01 0. -1.
</event>
<event>
 5   0  0.3745943E-06  0.2523465E+04  0.7818609E-02  0.8394673E-01
        2   -1    0    0  501    0  0.00000000000E+00  0.00000000000E+00  0.25683583345E+04  0.25683583345E+04  0.25500000920E-02 0. -1.
       -2   -1    0    0    0  501  0.00000000000E+00  0.00000000000E+00 -0.61983928923E+03  0.61983928923E+03  0.25500000920E-02 0.  1.
    10030    2    1    2    0    0  0.00000000000E+00  0.00000000000E+00  0.19485190453E+04  0.31881976237E+04  0.25234653987E+04 0.  0.
        5    1    3    3  502    0  0.34695577612E+03  0.11048836870E+04  0.16069809583E+04  0.19807968505E+04  0.46999998093E+01 0. -1.
       -5    1    3    3    0  502 -0.34695577612E+03 -0.11048836870E+04  0.34153808696E+03  0.12074007733E+04  0.46999998093E+01 0.  1.
</event>
<event>
 5   0  0.1306843E-06  0.3193274E+04  0.7818609E-02  0.8190596E-01
       -1   -1    0    0    0  501  0.00000000000E+00  0.00000000000E+00  0.18886870987E+04  0.18886870987E+04  0.50400001928E-02 0. -1.
        1   -1    0    0  501    0  0.00000000000E+00  0.00000000000E+00 -0.13497469997E+04  0.13497469997E+04  0.50400001928E-02 0.  1.
    10030    2    1    2    0    0  0.00000000000E+00  0.00000000000E+00  0.53894009906E+03  0.32384340984E+04  0.31932740220E+04 0.  0.
        5    1    3    3  502    0  0.52511810335E+03  0.92908715341E+03  0.14738149725E+04  0.18196440928E+04  0.46999998093E+01 0. -1.
       -5    1    3    3    0  502 -0.52511810335E+03 -0.92908715341E+03 -0.93487487345E+03  0.14187900056E+04  0.46999998093E+01 0.  1.
</event>
<event>
 5   0  0.1273754E-06  0.3200036E+04  0.7818609E-02  0.8188808E-01
       -1   -1    0    0    0  501  0.00000000000E+00  0.00000000000E+00  0.85137587058E+03  0.85137587060E+03  0.50400001928E-02 0.  1.
        1   -1    0    0  501    0  0.00000000000E+00  0.00000000000E+00 -0.30069651445E+04  0.30069651445E+04  0.50400001928E-02 0. -1.
    10030    2    1    2    0    0  0.00000000000E+00  0.00000000000E+00 -0.21555892739E+04  0.38583410151E+04  0.32000359796E+04 0.  0.
        2    1    3    3  502    0 -0.81044325186E+02  0.15499719598E+04 -0.15464395756E+04  0.21909944363E+04  0.25500000920E-02 0. -1.
       -2    1    3    3    0  502  0.81044325186E+02 -0.15499719598E+04 -0.60914969833E+03  0.16673465788E+04  0.25500000920E-02 0.  1.
</event>
<event>
 5   0  0.3656086E-06  0.3211289E+04  0.7818609E-02  0.8185842E-01
        2   -1    0    0  501    0  0.00000000000E+00  0.00000000000E+00  0.22291291527E+04  0.22291291527E+04  0.25500000920E-02 0. -1.
       -2   -1    0    0    0  501  0.00000000000E+00  0.00000000000E+00 -0.11565478137E+04  0.11565478138E+04  0.25500000920E-02 0.  1.
    10030    2    1    2    0    0  0.00000000000E+00  0.00000000000E+00  0.10725813390E+04  0.33856769665E+04  0.32112891169E+04 0.  0.
        3    1    3    3  502    0  0.15219132117E+04 -0.39876671670E+03  0.19815671802E+03  0.15857177597E+04  0.10100000352E+00 0.  1.
       -3    1    3    3    0  502 -0.15219132117E+04  0.39876671670E+03  0.87442462096E+03  0.17999592068E+04  0.10100000352E+00 0. -1.
</event>
<event>
 5   0  0.1240725E-06  0.3177444E+04  0.7818609E-02  0.8194800E-01
       -1   -1    0    0    0  501  0.00000000000E+00  0.00000000000E+00  0.88418628337E+03  0.88418628339E+03  0.50400001928E-02 0.  1.
        1   -1    0    0  501    0  0.00000000000E+00  0.00000000000E+00 -0.28546439797E+04  0.28546439797E+04  0.50400001928E-02 0. -1.
    10030    2    1    2    0    0  0.00000000000E+00  0.00000000000E+00 -0.19704576963E+04  0.37388302631E+04  0.31774436585E+04 0.  0.
        3    1    3    3  502    0  0.14009859407E+04 -0.30361196530E+03 -0.17911422717E+04  0.22941517995E+04  0.10100000352E+00 0.  1.
       -3    1    3    3    0  502 -0.14009859407E+04  0.30361196530E+03 -0.17931542461E+03  0.14446784636E+04  0.10100000352E+00 0. -1.
</event>
<event>
 5   0  0.1240725E-06  0.3216907E+04  0.7818609E-02  0.8184366E-01
       -1   -1    0    0    0  501  0.00000000000E+00  0.00000000000E+00  0.11805371635E+04  0.11805371635E+04  0.50400001928E-02 0. -1.
        1   -1    0    0  501    0  0.00000000000E+00  0.00000000000E+00 -0.21914793911E+04  0.21914793911E+04  0.50400001928E-02 0.  1.
    10030    2    1    2    0    0  0.00000000000E+00  0.00000000000E+00 -0.10109422276E+04  0.33720165546E+04  0.32169071259E+04 0.  0.
        3    1    3    3  502    0 -0.10758335715E+03 -0.19760173834E+03 -0.21749033657E+04  0.21865098413E+04  0.10100000352E+00 0.  1.
       -3    1    3    3    0  502  0.10758335715E+03  0.19760173834E+03  0.11639611382E+04  0.11855067132E+04  0.10100000352E+00 0. -1.
</event>
<event>
 5   0  0.1240725E-06  0.3217406E+04  0.7818609E-02  0.8184235E-01
        1   -1    0    0  501    0  0.00000000000E+00  0.00000000000E+00  0.25654514747E+04  0.25654514747E+04  0.50400001928E-02 0.  1.
       -1   -1    0    0    0  501  0.00000000000E+00  0.00000000000E+00 -0.10087604474E+04  0.10087604474E+04  0.50400001928E-02 0. -1.
    10030    2    1    2    0    0  0.00000000000E+00  0.00000000000E+00  0.15566910273E+04  0.35742119220E+04  0.32174063948E+04 0.  0.
        3    1    3    3  502    0 -0.72619724631E+03  0.43011271467E+03  0.22997357372E+04  0.24497232209E+04  0.10100000352E+00 0.  1.
       -3    1    3    3    0  502  0.72619724631E+03 -0.43011271467E+03 -0.74304470990E+03  0.11244887011E+04  0.10100000352E+00 0. -1.
</event>
<event>
 5   0  0.1273754E-06  0.3226302E+04  0.7818609E-02  0.8181905E-01
       -1   -1    0    0    0  501  0.00000000000E+00  0.00000000000E+00  0.10992674029E+04  0.10992674030E+04  0.50400001928E-02 0.  1.
        1   -1    0    0  501    0  0.00000000000E+00  0.00000000000E+00 -0.23672632741E+04  0.23672632741E+04  0.50400001928E-02 0. -1.
    10030    2    1    2    0    0  0.00000000000E+00  0.00000000000E+00 -0.12679958712E+04  0.34665306771E+04  0.32263015057E+04 0.  0.
        2    1    3    3  502    0 -0.10898369650E+04 -0.11867873910E+04 -0.55044925292E+03  0.17027047018E+04  0.25500000920E-02 0.  1.
       -2    1    3    3    0  502  0.10898369650E+04  0.11867873910E+04 -0.71754661826E+03  0.17638259753E+04  0.25500000920E-02 0. -1.
</event>
<event>
 5   0  0.1273980E-06  0.3180782E+04  0.7818609E-02  0.8193911E-01
       -1   -1    0    0    0  501  0.00000000000E+00  0.00000000000E+00  0.11927693320E+04  0.11927693320E+04  0.50400001928E-02 0.  1.
        1   -1    0    0  501    0  0.00000000000E+00  0.00000000000E+00 -0.21205642451E+04  0.21205642451E+04  0.50400001928E-02 0. -1.
    10030    2    1    2    0    0  0.00000000000E+00  0.00000000000E+00 -0.92779491306E+03  0.33133335771E+04  0.31807822925E+04 0.  0.
        4    1    3    3  502    0 -0.87393761176E+03  0.46531217831E+03  0.83258110065E+03  0.12936287236E+04  0.12699999809E+01 0.  1.
       -4    1    3    3    0  502  0.87393761176E+03 -0.46531217831E+03 -0.17603760137E+04  0.20197048535E+04  0.12699999809E+01 0. -1.
</event>
<event>
 5   0  0.1273980E-06  0.2369670E+04  0.7818609E-02  0.8450947E-01
       -1   -1    0    0    0  501  0.00000000000E+00  0.00000000000E+00  0.85526445835E+03  0.85526445837E+03  0.50400001928E-02 0.  1.
        1   -1    0    0  501    0  0.00000000000E+00  0.00000000000E+00 -0.16414033796E+04  0.16414033796E+04  0.50400001928E-02 0. -1.
    10030    2    1    2    0    0  0.00000000000E+00  0.00000000000E+00 -0.78613892121E+03  0.24966678379E+04  0.23696699959E+04 0.  0.
        4    1    3    3  502    0 -0.33622790199E+03  0.34818522717E+02 -0.15895220588E+04  0.16250672355E+04  0.12699999809E+01 0. -1.
       -4    1    3    3    0  502  0.33622790199E+03 -0.34818522717E+02  0.80338313756E+03  0.87160060246E+03  0.12699999809E+01 0.  1.
</event>
<event>
 5   0  0.3656086E-06  0.3258736E+04  0.7818609E-02  0.8173475E-01
        2   -1    0    0  501    0  0.00000000000E+00  0.00000000000E+00  0.17769653233E+04  0.17769653233E+04  0.25500000920E-02 0.  1.
       -2   -1    0    0    0  501  0.00000000000E+00  0.00000000000E+00 -0.14940307553E+04  0.14940307553E+04  0.25500000920E-02 0. -1.
    10030    2    1    2    0    0  0.00000000000E+00  0.00000000000E+00  0.28293456793E+03  0.32709960786E+04  0.32587364694E+04 0.  0.
        3    1    3    3  502    0 -0.30126166686E+03 -0.86106392550E+03  0.14966022785E+04  0.17527144850E+04  0.10100000352E+00 0.  1.
       -3    1    3    3    0  502  0.30126166686E+03  0.86106392550E+03 -0.12136677106E+04  0.15182815936E+04  0.10100000352E+00 0. -1.
</event>
<event>
 5   0  0.3497546E-06  0.3850124E+04  0.7818609E-02  0.8035483E-01
       -2   -1    0    0    0  501  0.00000000000E+00  0.00000000000E+00  0.15740754049E+04  0.15740754049E+04  0.25500000920E-02 0. -1.
        2   -1    0    0  501    0  0.00000000000E+00  0.00000000000E+00 -0.23543112947E+04  0.23543112947E+04  0.25500000920E-02 0.  1.
    10030    2    1    2    0    0  0.00000000000E+00  0.00000000000E+00 -0.78023588982E+03  0.39283866996E+04  0.38501238964E+04 0.  0.
        4    1    3    3  502    0 -0.34966291842E+03 -0.15433090772E+04  0.72843022576E+03  0.17420330855E+04  0.12699999809E+01 0. -1.
       -4    1    3    3    0  502  0.34966291842E+03  0.15433090772E+04 -0.15086661156E+04  0.21863536140E+04  0.12699999809E+01 0.  1.
</event>
<event>
 5   0  0.3497546E-06  0.3093291E+04  0.7818609E-02  0.8217581E-01
       -2   -1    0    0    0  501  0.00000000000E+00  0.00000000000E+00  0.10039583527E+04  0.10039583527E+04  0.25500000920E-02 0. -1.
        2   -1    0    0  501    0  0.00000000000E+00  0.00000000000E+00 -0.23826815642E+04  0.23826815642E+04  0.25500000920E-02 0.  1.
    10030    2    1    2    0    0  0.00000000000E+00  0.00000000000E+00 -0.13787232115E+04  0.33866399169E+04  0.30932914884E+04 0.  0.
        4    1    3    3  502    0 -0.14213001031E+04  0.27770170746E+03 -0.94816249981E+02  0.14512766641E+04  0.12699999809E+01 0. -1.
       -4    1    3    3    0  502  0.14213001031E+04 -0.27770170746E+03 -0.12839069615E+04  0.19353632528E+04  0.12699999809E+01 0.  1.
</event>
<event>
 5   0  0.1306843E-06  0.3129527E+04  0.7818609E-02  0.8207681E-01
       -1   -1    0    0    0  501  0.00000000000E+00  0.00000000000E+00  0.83548122742E+03  0.83548122743E+03  0.50400001928E-02 0.  1.
        1   -1    0    0  501    0  0.00000000000E+00  0.00000000000E+00 -0.29306278089E+04  0.29306278089E+04  0.50400001928E-02 0. -1.
    10030    2    1    2    0    0  0.00000000000E+00  0.00000000000E+00 -0.20951465815E+04  0.37661090363E+04  0.31295268134E+04 0.  0.
        5    1    3    3  502    0 -0.11177679932E+04 -0.37679027383E+03  0.18971077762E+03  0.11947336381E+04  0.46999998093E+01 0.  1.
       -5    1    3    3    0  502  0.11177679932E+04  0.37679027383E+03 -0.22848573591E+04  0.25713753982E+04  0.46999998093E+01 0. -1.
</event>
<event>
 5   0  0.1240725E-06  0.3153608E+04  0.7818609E-02  0.8201178E-01
       -1   -1    0    0    0  501  0.00000000000E+00  0.00000000000E+00  0.14763238747E+04  0.14763238747E+04  0.50400001928E-02 0.  1.
        1   -1    0    0  501    0  0.00000000000E+00  0.00000000000E+00 -0.16841229321E+04  0.16841229321E+04  0.50400001928E-02 0. -1.
    10030    2    1    2    0    0  0.00000000000E+00  0.00000000000E+00 -0.20779905745E+03  0.31604468068E+04  0.31536080242E+04 0.  0.
        3    1    3    3  502    0  0.13886639415E+04 -0.65037120423E+02  0.64181995601E+03  0.15311924228E+04  0.10100000352E+00 0.  1.
       -3    1    3    3    0  502 -0.13886639415E+04  0.65037120423E+02 -0.84961901346E+03  0.16292543840E+04  0.10100000352E+00 0. -1.
</event>
<event>
 5   0  0.3497546E-06  0.3205259E+04  0.7818609E-02  0.8187430E-01
       -2   -1    0    0    0  501  0.00000000000E+00  0.00000000000E+00  0.15742255659E+04  0.15742255659E+04  0.25500000920E-02 0.  1.
        2   -1    0    0  501    0  0.00000000000E+00  0.00000000000E+00 -0.16315464197E+04  0.16315464197E+04  0.25500000920E-02 0. -1.
    10030    2    1    2    0    0  0.00000000000E+00  0.00000000000E+00 -0.57320853787E+02  0.32057719856E+04  0.32052594815E+04 0.  0.
        4    1    3    3  502    0  0.93308994596E+03 -0.32368799412E+03  0.12336783431E+04  0.15803147256E+04  0.12699999809E+01 0.  1.
       -4    1    3    3    0  502 -0.93308994596E+03  0.32368799412E+03 -0.12909991969E+04  0.16254572600E+04  0.12699999809E+01 0. -1.
</event>
<event>
 5   0  0.3745943E-06  0.3177807E+04  0.7818609E-02  0.8194703E-01
       -2   -1    0    0    0  501  0.00000000000E+00  0.00000000000E+00  0.10472827012E+04  0.10472827012E+04  0.25500000920E-02 0.  1.
        2   -1    0    0  501    0  0.00000000000E+00  0.00000000000E+00 -0.24106337508E+04  0.24106337508E+04  0.25500000920E-02 0. -1.
    10030    2    1    2    0    0  0.00000000000E+00  0.00000000000E+00 -0.13633510496E+04  0.34579164519E+04  0.31778074366E+04 0.  0.
        5    1    3    3  502    0  0.10509181105E+04 -0.45719306349E+03 -0.18791984472E+04  0.22011050103E+04  0.46999998093E+01 0. -1.
       -5    1    3    3    0  502 -0.10509181105E+04  0.45719306349E+03  0.51584739763E+03  0.12568114416E+04  0.46999998093E+01 0.  1.
</event>
<event>
 5   0  0.1306843E-06  0.3200909E+04  0.7818609E-02  0.8188577E-01
       -1   -1    0    0    0  501  0.00000000000E+00  0.00000000000E+00  0.16419882092E+04  0.16419882092E+04  0.50400001928E-02 0.  1.
        1   -1    0    0  501    0  0.00000000000E+00  0.00000000000E+00 -0.15599713670E+04  0.15599713670E+04  0.50400001928E-02 0. -1.
    10030    2    1    2    0    0  0.00000000000E+00  0.00000000000E+00  0.82016842182E+02  0.32019595762E+04  0.32009089905E+04 0.  0.
        5    1    3    3  502    0  0.95262121519E+02  0.10773372697E+04 -0.11390829911E+04  0.15707522450E+04  0.46999998093E+01 0. -1.
       -5    1    3    3    0  502 -0.95262121519E+02 -0.10773372697E+04  0.12210998333E+04  0.16312073312E+04  0.46999998093E+01 0.  1.
</event>
<event>
 5   0  0.1240725E-06  0.3213276E+04  0.7818609E-02  0.8185320E-01
        1   -1    0    0  501    0  0.00000000000E+00  0.00000000000E+00  0.28521415227E+04  0.28521415227E+04  0.50400001928E-02 0.  1.
       -1   -1    0    0    0  501  0.00000000000E+00  0.00000000000E+00 -0.90503422830E+03  0.90503422832E+03  0.50400001928E-02 0. -1.
    10030    2    1    2    0    0  0.00000000000E+00  0.00000000000E+00  0.19471072944E+04  0.37571757510E+04  0.32132760243E+04 0.  0.
        3    1    3    3  502    0  0.93055453663E+03  0.86867980910E+02 -0.55448024197E+03  0.10867042563E+04  0.10100000352E+00 0. -1.
       -3    1    3    3    0  502 -0.93055453663E+03 -0.86867980910E+02  0.25015875363E+04  0.26704714947E+04  0.10100000352E+00 0.  1.
</event>
<event>
 5   0  0.3758062E-06  0.3192612E+04  0.7818609E-02  0.8190771E-01
       -2   -1    0    0    0  501  0.00000000000E+00  0.00000000000E+00  0.11040421848E+04  0.11040421849E+04  0.25500000920E-02 0.  1.
        2   -1    0    0  501    0  0.00000000000E+00  0.00000000000E+00 -0.23080568541E+04  0.23080568541E+04  0.25500000920E-02 0. -1.
    10030    2    1    2    0    0  0.00000000000E+00  0.00000000000E+00 -0.12040146693E+04  0.34120990390E+04  0.31926115529E+04 0.  0.
        2    1    3    3  502    0 -0.68036909742E+03 -0.64301865792E+03  0.77987135610E+03  0.12184311368E+04  0.25500000920E-02 0.  1.
       -2    1    3    3    0  502  0.68036909742E+03  0.64301865792E+03 -0.19838860254E+04  0.21936679021E+04  0.25500000920E-02 0. -1.
</event>
<event>
 5   0  0.3745943E-06  0.3205426E+04  0.7818609E-02  0.8187386E-01
        2   -1    0    0  501    0  0.00000000000E+00  0.00000000000E+00  0.21308863293E+04  0.21308863293E+04  0.25500000920E-02 0. -1.
       -2   -1    0    0    0  501  0.00000000000E+00  0.00000000000E+00 -0.12054553178E+04  0.12054553178E+04  0.25500000920E-02 0.  1.
    10030    2    1    2    0    0  0.00000000000E+00  0.00000000000E+00  0.92543101148E+03  0.33363416470E+04  0.32054255613E+04 0.  0.
        5    1    3    3  502    0  0.14386446885E+04  0.57095197096E+03  0.29818464179E+02  0.15480942878E+04  0.46999998093E+01 0.  1.
       -5    1    3    3    0  502 -0.14386446885E+04 -0.57095197096E+03  0.89561254730E+03  0.17882473593E+04  0.46999998093E+01 0. -1.
</event>
<event>
 5   0  0.3531437E-06  0.3056252E+04  0.7818609E-02  0.8227848E-01
       -2   -1    0    0    0  501  0.00000000000E+00  0.00000000000E+00  0.12230296857E+04  0.12230296857E+04  0.25500000920E-02 0. -1.
        2   -1    0    0  501    0  0.00000000000E+00  0.00000000000E+00 -0.19093318909E+04  0.19093318909E+04  0.25500000920E-02 0.  1.
    10030    2    1    2    0    0  0.00000000000E+00  0.00000000000E+00 -0.68630220516E+03  0.31323615767E+04  0.30562523342E+04 0.  0.
        1    1    3    3  502    0  0.50532688022E+03 -0.28866746869E+03 -0.17913084473E+04  0.18834728872E+04  0.50400001928E-02 0.  1.
       -1    1    3    3    0  502 -0.50532688022E+03  0.28866746869E+03  0.11050062422E+04  0.12488886894E+04  0.50400001928E-02 0. -1.
</event>
<event>
 5   0  0.3497546E-06  0.3072129E+04  0.7818609E-02  0.8223429E-01
       -2   -1    0    0    0  501  0.00000000000E+00  0.00000000000E+00  0.97107420865E+03  0.97107420866E+03  0.25500000920E-02 0.  1.
        2   -1    0    0  501    0  0.00000000000E+00  0.00000000000E+00 -0.24297775931E+04  0.24297775931E+04  0.25500000920E-02 0. -1.
    10030    2    1    2    0    0  0.00000000000E+00  0.00000000000E+00 -0.14587033845E+04  0.34008518018E+04  0.30721291337E+04 0.  0.
        4    1    3    3  502    0  0.58816338874E+03  0.14182425140E+04 -0.78061841747E+03  0.17224153759E+04  0.12699999809E+01 0. -1.
       -4    1    3    3    0  502 -0.58816338874E+03 -0.14182425140E+04 -0.67808496701E+03  0.16784364259E+04  0.12699999809E+01 0.  1.
</event>
<event>
 5   0  0.3745943E-06  0.3193191E+04  0.7818609E-02  0.8190618E-01
        2   -1    0    0  501    0  0.00000000000E+00  0.00000000000E+00  0.18233072431E+04  0.18233072431E+04  0.25500000920E-02 0. -1.
       -2   -1    0    0    0  501  0.00000000000E+00  0.00000000000E+00 -0.13980735907E+04  0.13980735907E+04  0.25500000920E-02 0.  1.
    10030    2    1    2    0    0  0.00000000000E+00  0.00000000000E+00  0.42523365233E+03  0.32213808338E+04  0.31931913217E+04 0.  0.
        5    1    3    3  502    0  0.75719335341E+03  0.12727254346E+04  0.81447706029E+03  0.16901380944E+04  0.46999998093E+01 0. -1.
       -5    1    3    3    0  502 -0.75719335341E+03 -0.12727254346E+04 -0.38924340796E+03  0.15312427394E+04  0.46999998093E+01 0.  1.
</event>
<event>
 5   0  0.3656086E-06  0.2297779E+04  0.7818609E-02  0.8478797E-01
       -2   -1    0    0    0  501  0.00000000000E+00  0.00000000000E+00  0.12529969882E+04  0.12529969882E+04  0.25500000920E-02 0. -1.
        2   -1    0    0  501    0  0.00000000000E+00  0.00000000000E+00 -0.10534321482E+04  0.10534321482E+04  0.25500000920E-02 0.  1.
    10030    2    1    2    0    0  0.00000000000E+00  0.00000000000E+00  0.19956483994E+03  0.23064291364E+04  0.22977791965E+04 0.  0.
        3    1    3    3  502    0  0.39090824663E+03  0.90310387545E+03 -0.49535886883E+03  0.11017196950E+04  0.10100000352E+00 0.  1.
       -3    1    3    3    0  502 -0.39090824663E+03 -0.90310387545E+03  0.69492370877E+03  0.12047094415E+04  0.10100000352E+00 0. -1.
</event>
<event>
 5   0  0.1273980E-06  0.3105081E+04  0.7818609E-02  0.8214345E-01
       -1   -1    0    0    0  501  0.00000000000E+00  0.00000000000E+00  0.19971786887E+04  0.19971786887E+04  0.50400001928E-02 0.  1.
        1   -1    0    0  501    0  0.00000000000E+00  0.00000000000E+00 -0.12068936115E+04  0.12068936115E+04  0.50400001928E-02 0. -1.
    10030    2    1    2    0    0  0.00000000000E+00  0.00000000000E+00  0.79028507720E+03  0.32040723002E+04  0.31050811264E+04 0.  0.
        4    1    3    3  502    0 -0.63871715048E+03  0.11317141064E+04  0.12717212312E+04  0.18182444609E+04  0.12699999809E+01 0.  1.
       -4    1    3    3    0  502  0.63871715048E+03 -0.11317141064E+04 -0.48143615398E+03  0.13858278393E+04  0.12699999809E+01 0. -1.
</event>
<event>
 5   0  0.3745943E-06  0.3204186E+04  0.7818609E-02  0.8187712E-01
       -2   -1    0    0    0  501  0.00000000000E+00  0.00000000000E+00  0.16629539081E+04  0.16629539081E+04  0.25500000920E-02 0. -1.
        2   -1    0    0  501    0  0.00000000000E+00  0.00000000000E+00 -0.15434596803E+04  0.15434596803E+04  0.25500000920E-02 0.  1.
    10030    2    1    2    0    0  0.00000000000E+00  0.00000000000E+00  0.11949422780E+03  0.32064135885E+04  0.32041862040E+04 0.  0.
        5    1    3    3  502    0  0.98482005938E+03 -0.19956517539E+02 -0.12046229515E+04  0.15560871946E+04  0.46999998093E+01 0.  1.
       -5    1    3    3    0  502 -0.98482005938E+03  0.19956517539E+02  0.13241171793E+04  0.16503263939E+04  0.46999998093E+01 0. -1.
</event>
<event>
 5   0  0.1306843E-06  0.3196137E+04  0.7818609E-02  0.8189838E-01
        1   -1    0    0  501    0  0.00000000000E+00  0.00000000000E+00  0.15165921889E+04  0.15165921889E+04  0.50400001928E-02 0. -1.
       -1   -1    0    0    0  501  0.00000000000E+00  0.00000000000E+00 -0.16839218707E+04  0.16839218707E+04  0.50400001928E-02 0.  1.
    10030    2    1    2    0    0  0.00000000000E+00  0.00000000000E+00 -0.16732968178E+03  0.32005140596E+04  0.31961368906E+04 0.  0.
        5    1    3    3  502    0  0.38776655146E+03 -0.77845931954E+03  0.12588572180E+04  0.15300671214E+04  0.46999998093E+01 0. -1.
       -5    1    3    3    0  502 -0.38776655146E+03  0.77845931954E+03 -0.14261868998E+04  0.16704469383E+04  0.46999998093E+01 0.  1.
</event>
<event>
 5   0  0.1306843E-06  0.3145934E+04  0.7818609E-02  0.8203244E-01
        1   -1    0    0  501    0  0.00000000000E+00  0.00000000000E+00  0.20161499359E+04  0.20161499359E+04  0.50400001928E-02 0. -1.
       -1   -1    0    0    0  501  0.00000000000E+00  0.00000000000E+00 -0.12272027477E+04  0.12272027477E+04  0.50400001928E-02 0.  1.
    10030    2    1    2    0    0  0.00000000000E+00  0.00000000000E+00  0.78894718813E+03  0.32433526836E+04  0.31459337190E+04 0.  0.
        5    1    3    3  502    0 -0.44558276291E+03 -0.52421403308E+03 -0.10638462143E+04  0.12669393075E+04  0.46999998093E+01 0.  1.
       -5    1    3    3    0  502  0.44558276291E+03  0.52421403308E+03  0.18527934025E+04  0.19764133761E+04  0.46999998093E+01 0. -1.
</event>
<event>
 5   0  0.1306843E-06  0.3185673E+04  0.7818609E-02  0.8192611E-01
        1   -1    0    0  501    0  0.00000000000E+00  0.00000000000E+00  0.14104113427E+04  0.14104113427E+04  0.50400001928E-02 0.  1.
       -1   -1    0    0    0  501  0.00000000000E+00  0.00000000000E+00 -0.17988565836E+04  0.17988565836E+04  0.50400001928E-02 0. -1.
    10030    2    1    2    0    0  0.00000000000E+00  0.00000000000E+00 -0.38844524088E+03  0.32092679263E+04  0.31856727574E+04 0.  0.
        5    1    3    3  502    0  0.15046867522E+04 -0.67019058053E+02  0.32781611211E+03  0.15414471349E+04  0.46999998093E+01 0.  1.
       -5    1    3    3    0  502 -0.15046867522E+04  0.67019058053E+02 -0.71626135300E+03  0.16678207914E+04  0.46999998093E+01 0. -1.
</event>
<event>
 5   0  0.1268836E-06  0.3202141E+04  0.7818609E-02  0.8188252E-01
       -1   -1    0    0    0  501  0.00000000000E+00  0.00000000000E+00  0.16403880543E+04  0.16403880543E+04  0.50400001928E-02 0. -1.
        1   -1    0    0  501    0  0.00000000000E+00  0.00000000000E+00 -0.15626957515E+04  0.15626957516E+04  0.50400001928E-02 0.  1.
    10030    2    1    2    0    0  0.00000000000E+00  0.00000000000E+00  0.77692302734E+02  0.32030838058E+04  0.32021414356E+04 0.  0.
        1    1    3    3  502    0 -0.76685491460E+03 -0.29923880692E+03 -0.13348085547E+04  0.15682232626E+04  0.50400001928E-02 0.  1.
       -1    1    3    3    0  502  0.76685491460E+03  0.29923880692E+03  0.14125008574E+04  0.16348605432E+04  0.50400001928E-02 0. -1.
</event>
<event>
 5   0  0.3656086E-06  0.3195579E+04  0.7818609E-02  0.8189986E-01
        2   -1    0    0  501    0  0.00000000000E+00  0.00000000000E+00  0.16256815537E+04  0.16256815537E+04  0.25500000920E-02 0.  1.
       -2   -1    0    0    0  501  0.00000000000E+00  0.00000000000E+00 -0.15703755657E+04  0.15703755657E+04  0.25500000920E-02 0. -1.
    10030    2    1    2    0    0  0.00000000000E+00  0.00000000000E+00  0.55305988032E+02  0.31960571195E+04  0.31955785640E+04 0.  0.
        3    1    3    3  502    0  0.88798096362E+03 -0.12901648280E+04  0.34376219359E+03  0.16034986533E+04  0.10100000352E+00 0.  1.
       -3    1    3    3    0  502 -0.88798096362E+03  0.12901648280E+04 -0.28845620556E+03  0.15925584661E+04  0.10100000352E+00 0. -1.
</event>
<event>
 5   0  0.1185575E-06  0.3050446E+04  0.7818609E-02  0.8229471E-01
       -4   -1    0    0    0  501  0.00000000000E+00  0.00000000000E+00  0.13560148872E+04  0.13560154819E+04  0.12699999809E+01 0.  1.
        4   -1    0    0  501    0  0.00000000000E+00  0.00000000000E+00 -0.17155440993E+04  0.17155445693E+04  0.12699999809E+01 0. -1.
    10030    2    1    2    0    0  0.00000000000E+00  0.00000000000E+00 -0.35952921210E+03  0.30715600512E+04  0.30504458516E+04 0.  0.
        4    1    3    3  502    0 -0.13260653841E+04 -0.49077198300E+03 -0.75555902874E+03  0.16031773454E+04  0.12699999809E+01 0. -1.
       -4    1    3    3    0  502  0.13260653841E+04  0.49077198300E+03  0.39602981664E+03  0.14683827058E+04  0.12699999809E+01 0.  1.
</event>
<event>
 5   0  0.1273980E-06  0.2858426E+04  0.7818609E-02  0.8285355E-01
       -1   -1    0    0    0  501  0.00000000000E+00  0.00000000000E+00  0.16016710177E+04  0.16016710177E+04  0.50400001928E-02 0. -1.
        1   -1    0    0  501    0  0.00000000000E+00  0.00000000000E+00 -0.12753245097E+04  0.12753245097E+04  0.50400001928E-02 0.  1.
    10030    2    1    2    0    0  0.00000000000E+00  0.00000000000E+00  0.32634650801E+03  0.28769955274E+04  0.28584263540E+04 0.  0.
        4    1    3    3  502    0  0.12390385777E+03  0.79540918506E+03 -0.10254391045E+04  0.13036697847E+04  0.12699999809E+01 0.  1.
       -4    1    3    3    0  502 -0.12390385777E+03 -0.79540918506E+03  0.13517856125E+04  0.15733257427E+04  0.12699999809E+01 0. -1.
</event>
<event>
 5   0  0.3497546E-06  0.3206459E+04  0.7818609E-02  0.8187114E-01
       -2   -1    0    0    0  501  0.00000000000E+00  0.00000000000E+00  0.18650558768E+04  0.18650558768E+04  0.25500000920E-02 0.  1.
        2   -1    0    0  501    0  0.00000000000E+00  0.00000000000E+00 -0.13781593083E+04  0.13781593083E+04  0.25500000920E-02 0. -1.
    10030    2    1    2    0    0  0.00000000000E+00  0.00000000000E+00  0.48689656853E+03  0.32432151851E+04  0.32064585555E+04 0.  0.
        4    1    3    3  502    0 -0.44484521311E+02 -0.39616246166E+03 -0.13272272078E+04  0.13858056294E+04  0.12699999809E+01 0. -1.
       -4    1    3    3    0  502  0.44484521311E+02  0.39616246166E+03  0.18141237763E+04  0.18574095556E+04  0.12699999809E+01 0.  1.
</event>
<event>
 5   0  0.3758062E-06  0.3057140E+04  0.7818609E-02  0.8227600E-01
       -2   -1    0    0    0  501  0.00000000000E+00  0.00000000000E+00  0.14194918257E+04  0.14194918257E+04  0.25500000920E-02 0. -1.
        2   -1    0    0  501    0  0.00000000000E+00  0.00000000000E+00 -0.16460301477E+04  0.16460301477E+04  0.25500000920E-02 0.  1.
    10030    2    1    2    0    0  0.00000000000E+00  0.00000000000E+00 -0.22653832200E+03  0.30655219734E+04  0.30571400619E+04 0.  0.
        2    1    3    3  502    0 -0.52915337577E+03  0.51739459017E+03 -0.14544061240E+04  0.16318693669E+04  0.25500000920E-02 0.  1.
       -2    1    3    3    0  502  0.52915337577E+03 -0.51739459017E+03  0.12278678020E+04  0.14336526065E+04  0.25500000920E-02 0. -1.
</event>
<event>
 5   0  0.1268836E-06  0.3202389E+04  0.7818609E-02  0.8188186E-01
        1   -1    0    0  501    0  0.00000000000E+00  0.00000000000E+00  0.10625562494E+04  0.10625562494E+04  0.50400001928E-02 0. -1.
       -1   -1    0    0    0  501  0.00000000000E+00  0.00000000000E+00 -0.24128832494E+04  0.24128832494E+04  0.50400001928E-02 0.  1.
    10030    2    1    2    0    0  0.00000000000E+00  0.00000000000E+00 -0.13503270000E+04  0.34754394988E+04  0.32023892179E+04 0.  0.
        1    1    3    3  502    0  0.11336149222E+04 -0.32484136721E+03 -0.18506705783E+04  0.21944444160E+04  0.50400001928E-02 0.  1.
       -1    1    3    3    0  502 -0.11336149222E+04  0.32484136721E+03  0.50034357834E+03  0.12809950827E+04  0.50400001928E-02 0. -1.
</event>
<event>
 5   0  0.3745943E-06  0.3160846E+04  0.7818609E-02  0.8199235E-01
       -2   -1    0    0    0  501  0.00000000000E+00  0.00000000000E+00  0.17783413000E+04  0.17783413000E+04  0.25500000920E-02 0.  1.
        2   -1    0    0  501    0  0.00000000000E+00  0.00000000000E+00 -0.14045318791E+04  0.14045318791E+04  0.25500000920E-02 0. -1.
    10030    2    1    2    0    0  0.00000000000E+00  0.00000000000E+00  0.37380942094E+03  0.31828731791E+04  0.31608461195E+04 0.  0.
        5    1    3    3  502    0 -0.81618748389E+03  0.10760398247E+03 -0.11715607870E+04  0.14318929407E+04  0.46999998093E+01 0. -1.
       -5    1    3    3    0  502  0.81618748389E+03 -0.10760398247E+03  0.15453702079E+04  0.17509802385E+04  0.46999998093E+01 0.  1.
</event>
<event>
 5   0  0.1240725E-06  0.3219571E+04  0.7818609E-02  0.8183667E-01
       -1   -1    0    0    0  501  0.00000000000E+00  0.00000000000E+00  0.13864300141E+04  0.13864300141E+04  0.50400001928E-02 0.  1.
        1   -1    0    0  501    0  0.00000000000E+00  0.00000000000E+00 -0.18691242092E+04  0.18691242092E+04  0.50400001928E-02 0. -1.
    10030    2    1    2    0    0  0.00000000000E+00  0.00000000000E+00 -0.48269419516E+03  0.32555542233E+04  0.32195713402E+04 0.  0.
        3    1    3    3  502    0 -0.12458820581E+04 -0.25004669710E+03 -0.12406555671E+04  0.17759424821E+04  0.10100000352E+00 0. -1.
       -3    1    3    3    0  502  0.12458820581E+04  0.25004669710E+03  0.75796137189E+03  0.14796117412E+04  0.10100000352E+00 0.  1.
</event>
<event>
 5   0  0.3497546E-06  0.2292472E+04  0.7818609E-02  0.8480895E-01
        2   -1    0    0  501    0  0.00000000000E+00  0.00000000000E+00  0.17384618092E+04  0.17384618092E+04  0.25500000920E-02 0. -1.
       -2   -1    0    0    0  501  0.00000000000E+00  0.00000000000E+00 -0.75575813665E+03  0.75575813666E+03  0.25500000920E-02 0.  1.
    10030    2    1    2    0    0  0.00000000000E+00  0.00000000000E+00  0.98270367255E+03  0.24942199459E+04  0.22924717294E+04 0.  0.
        4    1    3    3  502    0 -0.79508121142E+03  0.60792274568E+03  0.10992055925E+04  0.14865997259E+04  0.12699999809E+01 0. -1.
       -4    1    3    3    0  502  0.79508121142E+03 -0.60792274568E+03 -0.11650191997E+03  0.10076202200E+04  0.12699999809E+01 0.  1.
</event>
<event>
 5   0  0.1185575E-06  0.3162043E+04  0.7818609E-02  0.8198914E-01
       -4   -1    0    0    0  501  0.00000000000E+00  0.00000000000E+00  0.11339870839E+04  0.11339877950E+04  0.12699999809E+01 0.  1.
        4   -1    0    0  501    0  0.00000000000E+00  0.00000000000E+00 -0.22042817648E+04  0.22042821307E+04  0.12699999809E+01 0. -1.
    10030    2    1    2    0    0  0.00000000000E+00  0.00000000000E+00 -0.10702946809E+04  0.33382699257E+04  0.31620429144E+04 0.  0.
        4    1    3    3  502    0 -0.45726221063E+02  0.89128702563E+03 -0.19129256626E+04  0.21108694069E+04  0.12699999809E+01 0. -1.
       -4    1    3    3    0  502  0.45726221063E+02 -0.89128702563E+03  0.84263098168E+03  0.12274005188E+04  0.12699999809E+01 0.  1.
</event>
<event>
 5   0  0.1268836E-06  0.3233453E+04  0.7818609E-02  0.8180038E-01
       -1   -1    0    0    0  501  0.00000000000E+00  0.00000000000E+00  0.18251220808E+04  0.18251220808E+04  0.50400001928E-02 0. -1.
        1   -1    0    0  501    0  0.00000000000E+00  0.00000000000E+00 -0.14321259600E+04  0.14321259600E+04  0.50400001928E-02 0.  1.
    10030    2    1    2    0    0  0.00000000000E+00  0.00000000000E+00  0.39299612087E+03  0.32572480408E+04  0.32334530843E+04 0.  0.
        1    1    3    3  502    0  0.13521712451E+02  0.88429642310E+03  0.15598391690E+04  0.17931149527E+04  0.50400001928E-02 0. -1.
       -1    1    3    3    0  502 -0.13521712451E+02 -0.88429642310E+03 -0.11668430481E+04  0.14641330881E+04  0.50400001928E-02 0.  1.
</event>
<event>
 5   0  0.1268836E-06  0.2421001E+04  0.7818609E-02  0.8431683E-01
       -1   -1    0    0    0  501  0.00000000000E+00  0.00000000000E+00  0.96654050975E+03  0.96654050976E+03  0.50400001928E-02 0. -1.
        1   -1    0    0  501    0  0.00000000000E+00  0.00000000000E+00 -0.15160367352E+04  0.15160367352E+04  0.50400001928E-02 0.  1.
    10030    2    1    2    0    0  0.00000000000E+00  0.00000000000E+00 -0.54949622544E+03  0.24825772450E+04  0.24210005525E+04 0.  0.
        1    1    3    3  502    0  0.28025738689E+03  0.11036387998E+04  0.14648969851E+03  0.11480514079E+04  0.50400001928E-02 0. -1.
       -1    1    3    3    0  502 -0.28025738689E+03 -0.11036387998E+04 -0.69598592395E+03  0.13345258371E+04  0.50400001928E-02 0.  1.
</event>
<event>
 5   0  0.1240725E-06  0.3190799E+04  0.7818609E-02  0.8191251E-01
        1   -1    0    0  501    0  0.00000000000E+00  0.00000000000E+00  0.18346497107E+04  0.18346497107E+04  0.50400001928E-02 0. -1.
       -1   -1    0    0    0  501  0.00000000000E+00  0.00000000000E+00 -0.13873487176E+04  0.13873487176E+04  0.50400001928E-02 0.  1.
    10030    2    1    2    0    0  0.00000000000E+00  0.00000000000E+00  0.44730099312E+03  0.32219984283E+04  0.31907985981E+04 0.  0.
        3    1    3    3  502    0 -0.30470085474E+03 -0.14073128834E+04 -0.47003598217E+03  0.15146966685E+04  0.10100000352E+00 0.  1.
       -3    1    3    3    0  502  0.30470085474E+03  0.14073128834E+04  0.91733697529E+03  0.17073017599E+04  0.10100000352E+00 0. -1.
</event>
<event>
 5   0  0.3497546E-06  0.3202069E+04  0.7818609E-02  0.8188271E-01
       -2   -1    0    0    0  501  0.00000000000E+00  0.00000000000E+00  0.12905749277E+04  0.12905749277E+04  0.25500000920E-02 0.  1.
        2   -1    0    0  501    0  0.00000000000E+00  0.00000000000E+00 -0.19861777688E+04  0.19861777688E+04  0.25500000920E-02 0. -1.
    10030    2    1    2    0    0  0.00000000000E+00  0.00000000000E+00 -0.69560284108E+03  0.32767526965E+04  0.32020688502E+04 0.  0.
        4    1    3    3  502    0 -0.98950259099E+03  0.10051689494E+04 -0.11229848523E+04  0.18029355467E+04  0.12699999809E+01 0. -1.
       -4    1    3    3    0  502  0.98950259099E+03 -0.10051689494E+04  0.42738201121E+03  0.14738171497E+04  0.12699999809E+01 0.  1.
</event>
<event>
 5   0  0.3531437E-06  0.3167596E+04  0.7818609E-02  0.8197428E-01
       -2   -1    0    0    0  501  0.00000000000E+00  0.00000000000E+00  0.11073946617E+04  0.11073946617E+04  0.25500000920E-02 0.  1.
        2   -1    0    0  501    0  0.00000000000E+00  0.00000000000E+00 -0.22651505761E+04  0.22651505761E+04  0.25500000920E-02 0. -1.
    10030    2    1    2    0    0  0.00000000000E+00  0.00000000000E+00 -0.11577559144E+04  0.33725452379E+04  0.31675957166E+04 0.  0.
        1    1    3    3  502    0  0.13969543889E+04 -0.67356145782E+03 -0.92099213878E+03  0.18037164749E+04  0.50400001928E-02 0. -1.
       -1    1    3    3    0  502 -0.13969543889E+04  0.67356145782E+03 -0.23676377562E+03  0.15688287630E+04  0.50400001928E-02 0.  1.
</event>
<event>
 5   0  0.1185575E-06  0.3186406E+04  0.7818609E-02  0.8192417E-01
       -4   -1    0    0    0  501  0.00000000000E+00  0.00000000000E+00  0.14165893074E+04  0.14165898767E+04  0.12699999809E+01 0. -1.
        4   -1    0    0  501    0  0.00000000000E+00  0.00000000000E+00 -0.17918348705E+04  0.17918353205E+04  0.12699999809E+01 0.  1.
    10030    2    1    2    0    0  0.00000000000E+00  0.00000000000E+00 -0.37524556306E+03  0.32084251972E+04  0.31864059712E+04 0.  0.
        3    1    3    3  502    0  0.47441131646E+03 -0.15207495474E+04 -0.16399876385E+03  0.16014496207E+04  0.10100000352E+00 0.  1.
       -3    1    3    3    0  502 -0.47441131646E+03  0.15207495474E+04 -0.21124679921E+03  0.16069755765E+04  0.10100000352E+00 0. -1.
</event>
<event>
 5   0  0.1273754E-06  0.3204269E+04  0.7818609E-02  0.8187691E-01
        1   -1    0    0  501    0  0.00000000000E+00  0.00000000000E+00  0.17004802961E+04  0.17004802961E+04  0.50400001928E-02 0. -1.
       -1   -1    0    0    0  501  0.00000000000E+00  0.00000000000E+00 -0.15094767595E+04  0.15094767595E+04  0.50400001928E-02 0.  1.
    10030    2    1    2    0    0  0.00000000000E+00  0.00000000000E+00  0.19100353666E+03  0.32099570556E+04  0.32042693313E+04 0.  0.
        2    1    3    3  502    0  0.18343831760E+03 -0.57494235684E+03  0.15822612056E+04  0.16934458517E+04  0.25500000920E-02 0. -1.
       -2    1    3    3    0  502 -0.18343831760E+03  0.57494235684E+03 -0.13912576689E+04  0.15165112039E+04  0.25500000920E-02 0.  1.
</event>
<event>
 5   0  0.1185575E-06  0.3262530E+04  0.7818609E-02  0.8172496E-01
        3   -1    0    0  501    0  0.00000000000E+00  0.00000000000E+00  0.19071420460E+04  0.19071420487E+04  0.10100000352E+00 0. -1.
       -3   -1    0    0    0  501  0.00000000000E+00  0.00000000000E+00 -0.13952950390E+04  0.13952950426E+04  0.10100000352E+00 0.  1.
    10030    2    1    2    0    0  0.00000000000E+00  0.00000000000E+00  0.51184700705E+03  0.33024370914E+04  0.32625302119E+04 0.  0.
        2    1    3    3  502    0  0.12594257671E+03 -0.12843405966E+04 -0.75409602682E+03  0.14946749207E+04  0.25500000920E-02 0.  1.
       -2    1    3    3    0  502 -0.12594257671E+03  0.12843405966E+04  0.12659430339E+04  0.18077621707E+04  0.25500000920E-02 0. -1.
</event>
<event>
 5   0  0.3497546E-06  0.3210826E+04  0.7818609E-02  0.8185964E-01
        2   -1    0    0  501    0  0.00000000000E+00  0.00000000000E+00  0.23647551651E+04  0.23647551651E+04  0.25500000920E-02 0. -1.
       -2   -1    0    0    0  501  0.00000000000E+00  0.00000000000E+00 -0.10899020354E+04  0.10899020354E+04  0.25500000920E-02 0.  1.
    10030    2    1    2    0    0  0.00000000000E+00  0.00000000000E+00  0.12748531297E+04  0.34546572005E+04  0.32108263532E+04 0.  0.
        4    1    3    3  502    0 -0.85918564167E+03  0.55416660989E+03 -0.69432895317E+03  0.12358781924E+04  0.12699999809E+01 0.  1.
       -4    1    3    3    0  502  0.85918564167E+03 -0.55416660989E+03  0.19691820829E+04  0.22187790081E+04  0.12699999809E+01 0. -1.
</event>
<event>
 5   0  0.1240725E-06  0.3200946E+04  0.7818609E-02  0.8188567E-01
        1   -1    0    0  501    0  0.00000000000E+00  0.00000000000E+00  0.16278562595E+04  0.16278562595E+04  0.50400001928E-02 0. -1.
       -1   -1    0    0    0  501  0.00000000000E+00  0.00000000000E+00 -0.15735500374E+04  0.15735500374E+04  0.50400001928E-02 0.  1.
    10030    2    1    2    0    0  0.00000000000E+00  0.00000000000E+00  0.54306222131E+02  0.32014062969E+04  0.32009456590E+04 0.  0.
        3    1    3    3  502    0 -0.80165701729E+03 -0.54845755566E+03  0.12993635242E+04  0.16222839585E+04  0.10100000352E+00 0. -1.
       -3    1    3    3    0  502  0.80165701729E+03  0.54845755566E+03 -0.12450573021E+04  0.15791223383E+04  0.10100000352E+00 0.  1.
</event>
<event>
 5   0  0.3497546E-06  0.2780175E+04  0.7818609E-02  0.8309450E-01
        2   -1    0    0  501    0  0.00000000000E+00  0.00000000000E+00  0.25851166551E+04  0.25851166551E+04  0.25500000920E-02 0. -1.
       -2   -1    0    0    0  501  0.00000000000E+00  0.00000000000E+00 -0.74748775183E+03  0.74748775183E+03  0.25500000920E-02 0.  1.
    10030    2    1    2    0    0  0.00000000000E+00  0.00000000000E+00  0.18376289033E+04  0.33326044070E+04  0.27801748411E+04 0.  0.
        4    1    3    3  502    0  0.13085440082E+04 -0.15629957623E+03  0.14489943000E+04  0.19586482771E+04  0.12699999809E+01 0. -1.
       -4    1    3    3    0  502 -0.13085440082E+04  0.15629957623E+03  0.38863460324E+03  0.13739561298E+04  0.12699999809E+01 0.  1.
</event>
<event>
 5   0  0.1240725E-06  0.2493972E+04  0.7818609E-02  0.8405136E-01
       -1   -1    0    0    0  501  0.00000000000E+00  0.00000000000E+00  0.16486561143E+04  0.16486561143E+04  0.50400001928E-02 0.  1.
        1   -1    0    0  501    0  0.00000000000E+00  0.00000000000E+00 -0.94317681541E+03  0.94317681543E+03  0.50400001928E-02 0. -1.
    10030    2    1    2    0    0  0.00000000000E+00  0.00000000000E+00  0.70547929891E+03  0.25918329298E+04  0.24939721118E+04 0.  0.
        3    1    3    3  502    0 -0.35723491535E+03 -0.11621027852E+04  0.64597566903E+02  0.12174861494E+04  0.10100000352E+00 0.  1.
       -3    1    3    3    0  502  0.35723491535E+03  0.11621027852E+04  0.64088173201E+03  0.13743467804E+04  0.10100000352E+00 0. -1.
</event>
<event>
 5   0  0.1240725E-06  0.3212373E+04  0.7818609E-02  0.8185557E-01
       -1   -1    0    0    0  501  0.00000000000E+00  0.00000000000E+00  0.11830659914E+04  0.11830659914E+04  0.50400001928E-02 0. -1.
        1   -1    0    0  501    0  0.00000000000E+00  0.00000000000E+00 -0.21806347580E+04  0.21806347580E+04  0.50400001928E-02 0.  1.
    10030    2    1    2    0    0  0.00000000000E+00  0.00000000000E+00 -0.99756876659E+03  0.33637007494E+04  0.32123728438E+04 0.  0.
        3    1    3    3  502    0  0.78662858730E+03  0.59660256475E+03 -0.18253983694E+04  0.20752827209E+04  0.10100000352E+00 0.  1.
       -3    1    3    3    0  502 -0.78662858730E+03 -0.59660256475E+03  0.82782960279E+03  0.12884180285E+04  0.10100000352E+00 0. -1.
</event>
<event>
 5   0  0.3497546E-06  0.3152598E+04  0.7818609E-02  0.8201449E-01
       -2   -1    0    0    0  501  0.00000000000E+00  0.00000000000E+00  0.14782308351E+04  0.14782308351E+04  0.25500000920E-02 0.  1.
        2   -1    0    0  501    0  0.00000000000E+00  0.00000000000E+00 -0.16808735402E+04  0.16808735402E+04  0.25500000920E-02 0. -1.
    10030    2    1    2    0    0  0.00000000000E+00  0.00000000000E+00 -0.20264270511E+03  0.31591043753E+04  0.31525983550E+04 0.  0.
        4    1    3    3  502    0  0.60969395664E+03  0.69778797673E+02 -0.15562549340E+04  0.16728798026E+04  0.12699999809E+01 0. -1.
       -4    1    3    3    0  502 -0.60969395664E+03 -0.69778797673E+02  0.13536122289E+04  0.14862245727E+04  0.12699999809E+01 0.  1.
</event>
<event>
 5   0  0.3531437E-06  0.3123490E+04  0.7818609E-02  0.8209321E-01
       -2   -1    0    0    0  501  0.00000000000E+00  0.00000000000E+00  0.17390588148E+04  0.17390588148E+04  0.25500000920E-02 0.  1.
        2   -1    0    0  501    0  0.00000000000E+00  0.00000000000E+00 -0.14025100278E+04  0.14025100278E+04  0.25500000920E-02 0. -1.
    10030    2    1    2    0    0  0.00000000000E+00  0.00000000000E+00  0.33654878697E+03  0.31415688426E+04  0.31234899883E+04 0.  0.
        1    1    3    3  502    0  0.17205246043E+03  0.59671854816E+03 -0.12729789169E+04  0.14163863872E+04  0.50400001928E-02 0. -1.
       -1    1    3    3    0  502 -0.17205246043E+03 -0.59671854816E+03  0.16095277039E+04  0.17251824554E+04  0.50400001928E-02 0.  1.
</event>
<event>
 5   0  0.3497546E-06  0.3195548E+04  0.7818609E-02  0.8189994E-01
        2   -1    0    0  501    0  0.00000000000E+00  0.00000000000E+00  0.11507576268E+04  0.11507576268E+04  0.25500000920E-02 0.  1.
       -2   -1    0    0    0  501  0.00000000000E+00  0.00000000000E+00 -0.22184356238E+04  0.22184356238E+04  0.25500000920E-02 0. -1.
    10030    2    1    2    0    0  0.00000000000E+00  0.00000000000E+00 -0.10676779970E+04  0.33691932507E+04  0.31955479742E+04 0.  0.
        4    1    3    3  502    0  0.10088511417E+04 -0.33830711917E+03 -0.17905163463E+04  0.20828304617E+04  0.12699999809E+01 0. -1.
       -4    1    3    3    0  502 -0.10088511417E+04  0.33830711917E+03  0.72283834926E+03  0.12863627890E+04  0.12699999809E+01 0.  1.
</event>
<event>
 5   0  0.3497546E-06  0.3174918E+04  0.7818609E-02  0.8195473E-01
        2   -1    0    0  501    0  0.00000000000E+00  0.00000000000E+00  0.94380051110E+03  0.94380051111E+03  0.25500000920E-02 0. -1.
       -2   -1    0    0    0  501  0.00000000000E+00  0.00000000000E+00 -0.26700841585E+04  0.26700841585E+04  0.25500000920E-02 0.  1.
    10030    2    1    2    0    0  0.00000000000E+00  0.00000000000E+00 -0.17262836474E+04  0.36138846696E+04  0.31749184515E+04 0.  0.
        4    1    3    3  502    0 -0.71487577549E+03 -0.11179975959E+04 -0.18548400418E+04  0.22806576228E+04  0.12699999809E+01 0.  1.
       -4    1    3    3    0  502  0.71487577549E+03  0.11179975959E+04  0.12855639439E+03  0.13332270468E+04  0.12699999809E+01 0. -1.
</event>
<event>
 5   0  0.1268836E-06  0.3217441E+04  0.7818609E-02  0.8184226E-01
        1   -1    0    0  501    0  0.00000000000E+00  0.00000000000E+00  0.12795794607E+04  0.12795794607E+04  0.50400001928E-02 0. -1.
       -1   -1    0    0    0  501  0.00000000000E+00  0.00000000000E+00 -0.20225249394E+04  0.20225249394E+04  0.50400001928E-02 0.  1.
    10030    2    1    2    0    0  0.00000000000E+00  0.00000000000E+00 -0.74294547870E+03  0.33021044001E+04  0.32174408285E+04 0.  0.
        1    1    3    3  502    0 -0.10251130192E+04 -0.50691111969E+03 -0.15326896165E+04  0.19123161470E+04  0.50400001928E-02 0.  1.
       -1    1    3    3    0  502  0.10251130192E+04  0.50691111969E+03  0.78974413777E+03  0.13897882532E+04  0.50400001928E-02 0. -1.
</event>
<event>
 5   0  0.1240725E-06  0.2935450E+04  0.7818609E-02  0.8262407E-01
       -1   -1    0    0    0  501  0.00000000000E+00  0.00000000000E+00  0.16467227881E+04  0.16467227881E+04  0.50400001928E-02 0.  1.
        1   -1    0    0  501    0  0.00000000000E+00  0.00000000000E+00 -0.13081845480E+04  0.13081845480E+04  0.50400001928E-02 0. -1.
    10030    2    1    2    0    0  0.00000000000E+00  0.00000000000E+00  0.33853824017E+03  0.29549073361E+04  0.29354504297E+04 0.  0.
        3    1    3    3  502    0  0.42353735116E+03  0.11902319438E+04 -0.58279828693E+03  0.13912907034E+04  0.10100000352E+00 0. -1.
       -3    1    3    3    0  502 -0.42353735116E+03 -0.11902319438E+04  0.92133652710E+03  0.15636166327E+04  0.10100000352E+00 0.  1.
</event>
<event>
 5   0  0.3758062E-06  0.3072001E+04  0.7818609E-02  0.8223464E-01
        2   -1    0    0  501    0  0.00000000000E+00  0.00000000000E+00  0.21549323172E+04  0.21549323172E+04  0.25500000920E-02 0. -1.
       -2   -1    0    0    0  501  0.00000000000E+00  0.00000000000E+00 -0.10948362554E+04  0.10948362554E+04  0.25500000920E-02 0.  1.
    10030    2    1    2    0    0  0.00000000000E+00  0.00000000000E+00  0.10600960618E+04  0.32497685726E+04  0.30720013208E+04 0.  0.
        2    1    3    3  502    0 -0.10212095147E+04 -0.25306866351E+03  0.17139071824E+04  0.20110669932E+04  0.25500000920E-02 0. -1.
       -2    1    3    3    0  502  0.10212095147E+04  0.25306866351E+03 -0.65381112053E+03  0.12387015794E+04  0.25500000920E-02 0.  1.
</event>
<event>
 5   0  0.1273754E-06  0.3193367E+04  0.7818609E-02  0.8190571E-01
        1   -1    0    0  501    0  0.00000000000E+00  0.00000000000E+00  0.24127164890E+04  0.24127164890E+04  0.50400001928E-02 0. -1.
       -1   -1    0    0    0  501  0.00000000000E+00  0.00000000000E+00 -0.10566504007E+04  0.10566504007E+04  0.50400001928E-02 0.  1.
    10030    2    1    2    0    0  0.00000000000E+00  0.00000000000E+00  0.13560660882E+04  0.34693668897E+04  0.31933667781E+04 0.  0.
        2    1    3    3  502    0 -0.15174339974E+04 -0.42609456933E+03  0.40054591307E+03  0.16262224777E+04  0.25500000920E-02 0.  1.
       -2    1    3    3    0  502  0.15174339974E+04  0.42609456933E+03  0.95552017518E+03  0.18431444120E+04  0.25500000920E-02 0. -1.
</event>
<event>
 5   0  0.1273980E-06  0.2964241E+04  0.7818609E-02  0.8254016E-01
        1   -1    0    0  501    0  0.00000000000E+00  0.00000000000E+00  0.10522453350E+04  0.10522453350E+04  0.50400001928E-02 0.  1.
       -1   -1    0    0    0  501  0.00000000000E+00  0.00000000000E+00 -0.20876130500E+04  0.20876130501E+04  0.50400001928E-02 0. -1.
    10030    2    1    2    0    0  0.00000000000E+00  0.00000000000E+00 -0.10353677151E+04  0.31398583851E+04  0.29642409438E+04 0.  0.
        4    1    3    3  502    0 -0.10571600830E+04  0.30454151049E+03  0.53430542355E+03  0.12230359239E+04  0.12699999809E+01 0.  1.
       -4    1    3    3    0  502  0.10571600830E+04 -0.30454151049E+03 -0.15696731386E+04  0.19168224612E+04  0.12699999809E+01 0. -1.
</event>
<event>
 5   0  0.1273980E-06  0.2317798E+04  0.7818609E-02  0.8470937E-01
       -1   -1    0    0    0  501  0.00000000000E+00  0.00000000000E+00  0.68099406679E+03  0.68099406681E+03  0.50400001928E-02 0. -1.
        1   -1    0    0  501    0  0.00000000000E+00  0.00000000000E+00 -0.19721855564E+04  0.19721855564E+04  0.50400001928E-02 0.  1.
    10030    2    1    2    0    0  0.00000000000E+00  0.00000000000E+00 -0.12911914896E+04  0.26531796232E+04  0.23177978018E+04 0.  0.
        4    1    3    3  502    0 -0.11014947841E+04  0.21474788200E+03 -0.97664451965E+03  0.14876973962E+04  0.12699999809E+01 0.  1.
       -4    1    3    3    0  502  0.11014947841E+04 -0.21474788200E+03 -0.31454696993E+03  0.11654822269E+04  0.12699999809E+01 0. -1.
</event>
<event>
 5   0  0.3758062E-06  0.3173724E+04  0.7818609E-02  0.8195791E-01
       -2   -1    0    0    0  501  0.00000000000E+00  0.00000000000E+00  0.11850510960E+04  0.11850510960E+04  0.25500000920E-02 0.  1.
        2   -1    0    0  501    0  0.00000000000E+00  0.00000000000E+00 -0.21249133267E+04  0.21249133267E+04  0.25500000920E-02 0. -1.
    10030    2    1    2    0    0  0.00000000000E+00  0.00000000000E+00 -0.93986223073E+03  0.33099644228E+04  0.31737239116E+04 0.  0.
        2    1    3    3  502    0  0.31181129218E+03 -0.71407924767E+02  0.11510769065E+04  0.11946980449E+04  0.25500000920E-02 0.  1.
       -2    1    3    3    0  502 -0.31181129218E+03  0.71407924767E+02 -0.20909391373E+04  0.21152663779E+04  0.25500000920E-02 0. -1.
</event>
<event>
 5   0  0.1268836E-06  0.3249428E+04  0.7818609E-02  0.8175884E-01
        1   -1    0    0  501    0  0.00000000000E+00  0.00000000000E+00  0.14924590774E+04  0.14924590774E+04  0.50400001928E-02 0.  1.
       -1   -1    0    0    0  501  0.00000000000E+00  0.00000000000E+00 -0.17686891604E+04  0.17686891604E+04  0.50400001928E-02 0. -1.
    10030    2    1    2    0    0  0.00000000000E+00  0.00000000000E+00 -0.27623008302E+03  0.32611482379E+04  0.32494283760E+04 0.  0.
        1    1    3    3  502    0  0.53628868979E+03 -0.14095843482E+04 -0.74458140214E+03  0.16819438332E+04  0.50400001928E-02 0. -1.
       -1    1    3    3    0  502 -0.53628868979E+03  0.14095843482E+04  0.46835131912E+03  0.15792044047E+04  0.50400001928E-02 0.  1.
</event>
<event>
 5   0  0.3758062E-06  0.3193729E+04  0.7818609E-02  0.8190475E-01
        2   -1    0    0  501    0  0.00000000000E+00  0.00000000000E+00  0.18500000162E+04  0.18500000162E+04  0.25500000920E-02 0.  1.
       -2   -1    0    0    0  501  0.00000000000E+00  0.00000000000E+00 -0.13783651087E+04  0.13783651087E+04  0.25500000920E-02 0. -1.
    10030    2    1    2    0    0  0.00000000000E+00  0.00000000000E+00  0.47163490755E+03  0.32283651249E+04  0.31937285253E+04 0.  0.
        2    1    3    3  502    0  0.95367081410E+02 -0.48472575872E+03  0.17708122663E+04  0.18384314031E+04  0.25500000920E-02 0.  1.
       -2    1    3    3    0  502 -0.95367081410E+02  0.48472575872E+03 -0.12991773588E+04  0.13899337218E+04  0.25500000920E-02 0. -1.
</event>
<event>
 5   0  0.3758062E-06  0.3201420E+04  0.7818609E-02  0.8188442E-01
        2   -1    0    0  501    0  0.00000000000E+00  0.00000000000E+00  0.12687751435E+04  0.12687751435E+04  0.25500000920E-02 0. -1.
       -2   -1    0    0    0  501  0.00000000000E+00  0.00000000000E+00 -0.20194850920E+04  0.20194850920E+04  0.25500000920E-02 0.  1.
    10030    2    1    2    0    0  0.00000000000E+00  0.00000000000E+00 -0.75070994846E+03  0.32882602355E+04  0.32014199896E+04 0.  0.
        2    1    3    3  502    0  0.80539127180E+03 -0.36665208309E+03 -0.17453970848E+04  0.19569107886E+04  0.25500000920E-02 0.  1.
       -2    1    3    3    0  502 -0.80539127180E+03  0.36665208309E+03  0.99468713633E+03  0.13313494470E+04  0.25500000920E-02 0. -1.
</event>
<event>
 5   0  0.3758062E-06  0.3255492E+04  0.7818609E-02  0.8174314E-01
       -2   -1    0    0    0  501  0.00000000000E+00  0.00000000000E+00  0.20263131552E+04  0.20263131552E+04  0.25500000920E-02 0.  1.
        2   -1    0    0  501    0  0.00000000000E+00  0.00000000000E+00 -0.13075751158E+04  0.13075751158E+04  0.25500000920E-02 0. -1.
    10030    2    1    2    0    0  0.00000000000E+00  0.00000000000E+00  0.71873803938E+03  0.33338882710E+04  0.32554917653E+04 0.  0.
        2    1    3    3  502    0 -0.10170283171E+04  0.10136329564E+04  0.11444850086E+04  0.18362037749E+04  0.25500000920E-02 0.  1.
       -2    1    3    3    0  502  0.10170283171E+04 -0.10136329564E+04 -0.42574696926E+03  0.14976844961E+04  0.25500000920E-02 0. -1.
</event>
<event>
 5   0  0.3531437E-06  0.3151608E+04  0.7818609E-02  0.8201716E-01
       -2   -1    0    0    0  501  0.00000000000E+00  0.00000000000E+00  0.13742650927E+04  0.13742650927E+04  0.25500000920E-02 0.  1.
        2   -1    0    0  501    0  0.00000000000E+00  0.00000000000E+00 -0.18068987212E+04  0.18068987212E+04  0.25500000920E-02 0. -1.
    10030    2    1    2    0    0  0.00000000000E+00  0.00000000000E+00 -0.43263362844E+03  0.31811638139E+04  0.31516077412E+04 0.  0.
        1    1    3    3  502    0 -0.51417501231E+03  0.12062772191E+04  0.66576481595E+03  0.14706200947E+04  0.50400001928E-02 0.  1.
       -1    1    3    3    0  502  0.51417501231E+03 -0.12062772191E+04 -0.10983984444E+04  0.17105437192E+04  0.50400001928E-02 0. -1.
</event>
<event>
 5   0  0.1273754E-06  0.3191800E+04  0.7818609E-02  0.8190986E-01
        1   -1    0    0  501    0  0.00000000000E+00  0.00000000000E+00  0.28556784948E+04  0.28556784948E+04  0.50400001928E-02 0. -1.
       -1   -1    0    0    0  501  0.00000000000E+00  0.00000000000E+00 -0.89187093553E+03  0.89187093555E+03  0.50400001928E-02 0.  1.
    10030    2    1    2    0    0  0.00000000000E+00  0.00000000000E+00  0.19638075593E+04  0.37475494303E+04  0.31917999002E+04 0.  0.
        2    1    3    3  502    0  0.60346799740E+03  0.13917487884E+04  0.15639612170E+04  0.21787870483E+04  0.25500000920E-02 0. -1.
       -2    1    3    3    0  502 -0.60346799740E+03 -0.13917487884E+04  0.39984634231E+03  0.15687623820E+04  0.25500000920E-02 0.  1.
</event>
<event>
 5   0  0.3497546E-06  0.2991691E+04  0.7818609E-02  0.8246107E-01
       -2   -1    0    0    0  501  0.00000000000E+00  0.00000000000E+00  0.92368997126E+03  0.92368997126E+03  0.25500000920E-02 0. -1.
        2   -1    0    0  501    0  0.00000000000E+00  0.00000000000E+00 -0.24224084282E+04  0.24224084282E+04  0.25500000920E-02 0.  1.
    10030    2    1    2    0    0  0.00000000000E+00  0.00000000000E+00 -0.14987184569E+04  0.33460983994E+04  0.29916914088E+04 0.  0.
        4    1    3    3  502    0 -0.63325127320E+03 -0.70037028170E+03 -0.20469830453E+04  0.22542552888E+04  0.12699999809E+01 0.  1.
       -4    1    3    3    0  502  0.63325127320E+03  0.70037028170E+03  0.54826458837E+03  0.10918431106E+04  0.12699999809E+01 0. -1.
</event>
<event>
 5   0  0.3745943E-06  0.3461692E+04  0.7818609E-02  0.8122929E-01
        2   -1    0    0  501    0  0.00000000000E+00  0.00000000000E+00  0.14659018782E+04  0.14659018782E+04  0.25500000920E-02 0. -1.
       -2   -1    0    0    0  501  0.00000000000E+00  0.00000000000E+00 -0.20436758819E+04  0.20436758819E+04  0.25500000920E-02 0.  1.
    10030    2    1    2    0    0  0.00000000000E+00  0.00000000000E+00 -0.57777400376E+03  0.35095777601E+04  0.34616922530E+04 0.  0.
        5    1    3    3  502    0 -0.22685709893E+03  0.15351613001E+04 -0.10660558534E+04  0.18827324646E+04  0.46999998093E+01 0.  1.
       -5    1    3    3    0  502  0.22685709893E+03 -0.15351613001E+04  0.48828184964E+03  0.16268452955E+04  0.46999998093E+01 0. -1.
</event>
<event>
 5   0  0.1240725E-06  0.3135480E+04  0.7818609E-02  0.8206068E-01
       -1   -1    0    0    0  501  0.00000000000E+00  0.00000000000E+00  0.16382777193E+04  0.16382777193E+04  0.50400001928E-02 0. -1.
        1   -1    0    0  501    0  0.00000000000E+00  0.00000000000E+00 -0.15002391809E+04  0.15002391809E+04  0.50400001928E-02 0.  1.
    10030    2    1    2    0    0  0.00000000000E+00  0.00000000000E+00  0.13803853839E+03  0.31385169001E+04  0.31354798188E+04 0.  0.
        3    1    3    3  502    0 -0.13779374153E+04  0.42212058280E+03  0.68679704340E+03  0.15964296088E+04  0.10100000352E+00 0. -1.
       -3    1    3    3    0  502  0.13779374153E+04 -0.42212058280E+03 -0.54875850501E+03  0.15420872913E+04  0.10100000352E+00 0.  1.
</event>
<event>
 5   0  0.3745943E-06  0.3211741E+04  0.7818609E-02  0.8185723E-01
       -2   -1    0    0    0  501  0.00000000000E+00  0.00000000000E+00  0.18924534019E+04  0.18924534019E+04  0.25500000920E-02 0. -1.
        2   -1    0    0  501    0  0.00000000000E+00  0.00000000000E+00 -0.13626861041E+04  0.13626861041E+04  0.25500000920E-02 0.  1.
    10030    2    1    2    0    0  0.00000000000E+00  0.00000000000E+00  0.52976729782E+03  0.32551395060E+04  0.32117409319E+04 0.  0.
        5    1    3    3  502    0  0.15291219780E+04 -0.42824630340E+03  0.50725714964E+03  0.16670155446E+04  0.46999998093E+01 0. -1.
       -5    1    3    3    0  502 -0.15291219780E+04  0.42824630340E+03  0.22510148187E+02  0.15881239614E+04  0.46999998093E+01 0.  1.
</event>
<event>
 5   0  0.1306843E-06  0.3194153E+04  0.7818609E-02  0.8190363E-01
       -1   -1    0    0    0  501  0.00000000000E+00  0.00000000000E+00  0.14167862240E+04  0.14167862240E+04  0.50400001928E-02 0.  1.
        1   -1    0    0  501    0  0.00000000000E+00  0.00000000000E+00 -0.18003096483E+04  0.18003096484E+04  0.50400001928E-02 0. -1.
    10030    2    1    2    0    0  0.00000000000E+00  0.00000000000E+00 -0.38352342435E+03  0.32170958724E+04  0.31941533518E+04 0.  0.
        5    1    3    3  502    0  0.13961592609E+04  0.33388975164E+03 -0.89670955020E+03  0.16925877098E+04  0.46999998093E+01 0. -1.
       -5    1    3    3    0  502 -0.13961592609E+04 -0.33388975164E+03  0.51318612584E+03  0.15245081626E+04  0.46999998093E+01 0.  1.
</event>
<event>
 5   0  0.3745943E-06  0.3193400E+04  0.7818609E-02  0.8190563E-01
        2   -1    0    0  501    0  0.00000000000E+00  0.00000000000E+00  0.21479451318E+04  0.21479451318E+04  0.25500000920E-02 0. -1.
       -2   -1    0    0    0  501  0.00000000000E+00  0.00000000000E+00 -0.11869251739E+04  0.11869251739E+04  0.25500000920E-02 0.  1.
    10030    2    1    2    0    0  0.00000000000E+00  0.00000000000E+00  0.96101995789E+03  0.33348703057E+04  0.31933995360E+04 0.  0.
        5    1    3    3  502    0  0.57341313702E+02  0.14057236022E+04 -0.30797612794E+03  0.14402146568E+04  0.46999998093E+01 0.  1.
       -5    1    3    3    0  502 -0.57341313702E+02 -0.14057236022E+04  0.12689960858E+04  0.18946556489E+04  0.46999998093E+01 0. -1.
</event>
<event>
 5   0  0.3758062E-06  0.3172849E+04  0.7818609E-02  0.8196025E-01
       -2   -1    0    0    0  501  0.00000000000E+00  0.00000000000E+00  0.12537948947E+04  0.12537948947E+04  0.25500000920E-02 0. -1.
        2   -1    0    0  501    0  0.00000000000E+00  0.00000000000E+00 -0.20073005419E+04  0.20073005419E+04  0.25500000920E-02 0.  1.
    10030    2    1    2    0    0  0.00000000000E+00  0.00000000000E+00 -0.75350564716E+03  0.32610954366E+04  0.31728493009E+04 0.  0.
        2    1    3    3  502    0  0.14804772314E+04 -0.52214041481E+03 -0.14170092128E+03  0.15762368466E+04  0.25500000920E-02 0. -1.
       -2    1    3    3    0  502 -0.14804772314E+04  0.52214041481E+03 -0.61180472588E+03  0.16848585900E+04  0.25500000920E-02 0.  1.
</event>
<event>
 5   0  0.1268836E-06  0.2879211E+04  0.7818609E-02  0.8279090E-01
        1   -1    0    0  501    0  0.00000000000E+00  0.00000000000E+00  0.15466387690E+04  0.15466387690E+04  0.50400001928E-02 0. -1.
       -1   -1    0    0    0  501  0.00000000000E+00  0.00000000000E+00 -0.13399791458E+04  0.13399791458E+04  0.50400001928E-02 0.  1.
    10030    2    1    2    0    0  0.00000000000E+00  0.00000000000E+00  0.20665962320E+03  0.28866179147E+04  0.28792107922E+04 0.  0.
        1    1    3    3  502    0 -0.75914961570E+03 -0.10978611969E+04  0.64402825050E+03  0.14820188036E+04  0.50400001928E-02 0. -1.
       -1    1    3    3    0  502  0.75914961570E+03  0.10978611969E+04 -0.43736862731E+03  0.14045991111E+04  0.50400001928E-02 0.  1.
</event>
<event>
 5   0  0.1240725E-06  0.3167966E+04  0.7818609E-02  0.8197329E-01
       -1   -1    0    0    0  501  0.00000000000E+00  0.00000000000E+00  0.15685521834E+04  0.15685521834E+04  0.50400001928E-02 0. -1.
        1   -1    0    0  501    0  0.00000000000E+00  0.00000000000E+00 -0.15995655935E+04  0.15995655935E+04  0.50400001928E-02 0.  1.
    10030    2    1    2    0    0  0.00000000000E+00  0.00000000000E+00 -0.31013410062E+02  0.31681177769E+04  0.31679659747E+04 0.  0.
        3    1    3    3  502    0  0.78362046300E+03  0.83459882767E+03 -0.11102672779E+04  0.15947757434E+04  0.10100000352E+00 0.  1.
       -3    1    3    3    0  502 -0.78362046300E+03 -0.83459882767E+03  0.10792538678E+04  0.15733420335E+04  0.10100000352E+00 0. -1.
</event>
<event>
 5   0  0.3497546E-06  0.3177085E+04  0.7818609E-02  0.8194895E-01
       -2   -1    0    0    0  501  0.00000000000E+00  0.00000000000E+00  0.15949118012E+04  0.15949118012E+04  0.25500000920E-02 0. -1.
        2   -1    0    0  501    0  0.00000000000E+00  0.00000000000E+00 -0.15821987995E+04  0.15821987995E+04  0.25500000920E-02 0.  1.
    10030    2    1    2    0    0  0.00000000000E+00  0.00000000000E+00  0.12713001690E+02  0.31771106007E+04  0.31770851655E+04 0.  0.
        4    1    3    3  502    0  0.12458264549E+04  0.61082580768E+03 -0.76713156024E+03  0.15854602381E+04  0.12699999809E+01 0. -1.
       -4    1    3    3    0  502 -0.12458264549E+04 -0.61082580768E+03  0.77984456193E+03  0.15916503626E+04  0.12699999809E+01 0.  1.
</event>
<event>
 5   0  0.3497546E-06  0.2916296E+04  0.7818609E-02  0.8268045E-01
       -2   -1    0    0    0  501  0.00000000000E+00  0.00000000000E+00  0.78964495810E+03  0.78964495810E+03  0.25500000920E-02 0.  1.
        2   -1    0    0  501    0  0.00000000000E+00  0.00000000000E+00 -0.26925977190E+04  0.26925977190E+04  0.25500000920E-02 0. -1.
    10030    2    1    2    0    0  0.00000000000E+00  0.00000000000E+00 -0.19029527609E+04  0.34822426771E+04  0.29162964273E+04 0.  0.
        4    1    3    3  502    0  0.14401306996E+04 -0.13689993441E+03 -0.73300332336E+03  0.16217316390E+04  0.12699999809E+01 0. -1.
       -4    1    3    3    0  502 -0.14401306996E+04  0.13689993441E+03 -0.11699494376E+04  0.18605110382E+04  0.12699999809E+01 0.  1.
</event>
<event>
 5   0  0.3531437E-06  0.3181375E+04  0.7818609E-02  0.8193753E-01
       -2   -1    0    0    0  501  0.00000000000E+00  0.00000000000E+00  0.13117273482E+04  0.13117273482E+04  0.25500000920E-02 0.  1.
        2   -1    0    0  501    0  0.00000000000E+00  0.00000000000E+00 -0.19289725999E+04  0.19289725999E+04  0.25500000920E-02 0. -1.
    10030    2    1    2    0    0  0.00000000000E+00  0.00000000000E+00 -0.61724525173E+03  0.32406999481E+04  0.31813746169E+04 0.  0.
        1    1    3    3  502    0 -0.10069485591E+03  0.13448038940E+04  0.55070144411E+03  0.14566774001E+04  0.50400001928E-02 0.  1.
       -1    1    3    3    0  502  0.10069485591E+03 -0.13448038940E+04 -0.11679466958E+04  0.17840225480E+04  0.50400001928E-02 0. -1.
</event>
<event>
 5   0  0.3745943E-06  0.3156832E+04  0.7818609E-02  0.8200312E-01
        2   -1    0    0  501    0  0.00000000000E+00  0.00000000000E+00  0.85396953596E+03  0.85396953597E+03  0.25500000920E-02 0.  1.
       -2   -1    0    0    0  501  0.00000000000E+00  0.00000000000E+00 -0.29174310664E+04  0.29174310664E+04  0.25500000920E-02 0. -1.
    10030    2    1    2    0    0  0.00000000000E+00  0.00000000000E+00 -0.20634615304E+04  0.37714006024E+04  0.31568321172E+04 0.  0.
        5    1    3    3  502    0  0.18062617392E+03  0.12044148359E+04  0.16779716595E+03  0.12293977755E+04  0.46999998093E+01 0.  1.
       -5    1    3    3    0  502 -0.18062617392E+03 -0.12044148359E+04 -0.22312586964E+04  0.25420028269E+04  0.46999998093E+01 0. -1.
</event>
<event>
 5   0  0.1240725E-06  0.3122022E+04  0.7818609E-02  0.8209720E-01
       -1   -1    0    0    0  501  0.00000000000E+00  0.00000000000E+00  0.17688428501E+04  0.17688428501E+04  0.50400001928E-02 0.  1.
        1   -1    0    0  501    0  0.00000000000E+00  0.00000000000E+00 -0.13775987520E+04  0.13775987520E+04  0.50400001928E-02 0. -1.
    10030    2    1    2    0    0  0.00000000000E+00  0.00000000000E+00  0.39124409810E+03  0.31464416021E+04  0.31220222311E+04 0.  0.
        3    1    3    3  502    0  0.32638310635E+03  0.70736526198E+03 -0.11676832048E+04  0.14037006885E+04  0.10100000352E+00 0. -1.
       -3    1    3    3    0  502 -0.32638310635E+03 -0.70736526198E+03  0.15589273029E+04  0.17427409136E+04  0.10100000352E+00 0.  1.
</event>
<event>
 5   0  0.1268836E-06  0.3214214E+04  0.7818609E-02  0.8185073E-01
       -1   -1    0    0    0  501  0.00000000000E+00  0.00000000000E+00  0.15509673611E+04  0.15509673611E+04  0.50400001928E-02 0.  1.
        1   -1    0    0  501    0  0.00000000000E+00  0.00000000000E+00 -0.16652782543E+04  0.16652782544E+04  0.50400001928E-02 0. -1.
    10030    2    1    2    0    0  0.00000000000E+00  0.00000000000E+00 -0.11431089320E+03  0.32162456155E+04  0.32142135708E+04 0.  0.
        1    1    3    3  502    0 -0.91484977713E+03  0.48863216620E+03 -0.12855637191E+04  0.16517825476E+04  0.50400001928E-02 0. -1.
       -1    1    3    3    0  502  0.91484977713E+03 -0.48863216620E+03  0.11712528259E+04  0.15644630679E+04  0.50400001928E-02 0.  1.
</event>
<event>
 5   0  0.3758062E-06  0.3070608E+04  0.7818609E-02  0.8223851E-01
       -2   -1    0    0    0  501  0.00000000000E+00  0.00000000000E+00  0.99971284842E+03  0.99971284843E+03  0.25500000920E-02 0. -1.
        2   -1    0    0  501    0  0.00000000000E+00  0.00000000000E+00 -0.23578353495E+04  0.23578353495E+04  0.25500000920E-02 0.  1.
    10030    2    1    2    0    0  0.00000000000E+00  0.00000000000E+00 -0.13581225011E+04  0.33575481979E+04  0.30706079485E+04 0.  0.
        2    1    3    3  502    0  0.15192118152E+04  0.11627243077E+03 -0.47265013855E+03  0.15952811573E+04  0.25500000920E-02 0. -1.
       -2    1    3    3    0  502 -0.15192118152E+04 -0.11627243077E+03 -0.88547236251E+03  0.17622670406E+04  0.25500000920E-02 0.  1.
</event>
<event>
 5   0  0.1306843E-06  0.3027728E+04  0.7818609E-02  0.8235857E-01
        1   -1    0    0  501    0  0.00000000000E+00  0.00000000000E+00  0.20722717737E+04  0.20722717737E+04  0.50400001928E-02 0. -1.
       -1   -1    0    0    0  501  0.00000000000E+00  0.00000000000E+00 -0.11059282250E+04  0.11059282250E+04  0.50400001928E-02 0.  1.
    10030    2    1    2    0    0  0.00000000000E+00  0.00000000000E+00  0.96634354872E+03  0.31781999987E+04  0.30277277582E+04 0.  0.
        5    1    3    3  502    0 -0.40664930302E+03 -0.13263310494E+04  0.11192957763E+04  0.17825158718E+04  0.46999998093E+01 0. -1.
       -5    1    3    3    0  502  0.40664930302E+03  0.13263310494E+04 -0.15295222757E+03  0.13956841269E+04  0.46999998093E+01 0.  1.
</event>
<event>
 5   0  0.1240725E-06  0.3245690E+04  0.7818609E-02  0.8176854E-01
       -1   -1    0    0    0  501  0.00000000000E+00  0.00000000000E+00  0.15394732847E+04  0.15394732847E+04  0.50400001928E-02 0. -1.
        1   -1    0    0  501    0  0.00000000000E+00  0.00000000000E+00 -0.17107319441E+04  0.17107319441E+04  0.50400001928E-02 0.  1.
    10030    2    1    2    0    0  0.00000000000E+00  0.00000000000E+00 -0.17125865943E+03  0.32502052289E+04  0.32456901425E+04 0.  0.
        3    1    3    3  502    0 -0.32407815052E+03  0.19585545617E+03  0.14946153612E+04  0.15418369225E+04  0.10100000352E+00 0. -1.
       -3    1    3    3    0  502  0.32407815052E+03 -0.19585545617E+03 -0.16658740206E+04  0.17083683064E+04  0.10100000352E+00 0.  1.
</event>
<event>
 5   0  0.1273754E-06  0.3263372E+04  0.7818609E-02  0.8172278E-01
       -1   -1    0    0    0  501  0.00000000000E+00  0.00000000000E+00  0.11612191258E+04  0.11612191258E+04  0.50400001928E-02 0.  1.
        1   -1    0    0  501    0  0.00000000000E+00  0.00000000000E+00 -0.22927621970E+04  0.22927621970E+04  0.50400001928E-02 0. -1.
    10030    2    1    2    0    0  0.00000000000E+00  0.00000000000E+00 -0.11315430712E+04  0.34539813228E+04  0.32633720684E+04 0.  0.
        2    1    3    3  502    0 -0.27918385530E+02 -0.48146052995E+03  0.10840617223E+04  0.11864963110E+04  0.25500000920E-02 0.  1.
       -2    1    3    3    0  502  0.27918385530E+02  0.48146052995E+03 -0.22156047935E+04  0.22674850119E+04  0.25500000920E-02 0. -1.
</event>
<event>
 5   0  0.3758062E-06  0.3142688E+04  0.7818609E-02  0.8204119E-01
        2   -1    0    0  501    0  0.00000000000E+00  0.00000000000E+00  0.22201223136E+04  0.22201223136E+04  0.25500000920E-02 0.  1.
       -2   -1    0    0    0  501  0.00000000000E+00  0.00000000000E+00 -0.11121555036E+04  0.11121555036E+04  0.25500000920E-02 0. -1.
    10030    2    1    2    0    0  0.00000000000E+00  0.00000000000E+00  0.11079668100E+04  0.33322778173E+04  0.31426875440E+04 0.  0.
        2    1    3    3  502    0  0.15397155797E+04 -0.21674980927E+02  0.88579538515E+03  0.17764648422E+04  0.25500000920E-02 0.  1.
       -2    1    3    3    0  502 -0.15397155797E+04  0.21674980927E+02  0.22217142483E+03  0.15558129750E+04  0.25500000920E-02 0. -1.
</event>
<event>
 5   0  0.3656086E-06  0.3208973E+04  0.7818609E-02  0.8186451E-01
        2   -1    0    0  501    0  0.00000000000E+00  0.00000000000E+00  0.17869423619E+04  0.17869423619E+04  0.25500000920E-02 0. -1.
       -2   -1    0    0    0  501  0.00000000000E+00  0.00000000000E+00 -0.14406605785E+04  0.14406605785E+04  0.25500000920E-02 0.  1.
    10030    2    1    2    0    0  0.00000000000E+00  0.00000000000E+00  0.34628178345E+03  0.32276029404E+04  0.32089733043E+04 0.  0.
        3    1    3    3  502    0 -0.66580711906E+03 -0.38801225604E+03  0.15886221979E+04  0.17656650669E+04  0.10100000352E+00 0. -1.
       -3    1    3    3    0  502  0.66580711906E+03  0.38801225604E+03 -0.12423404144E+04  0.14619378736E+04  0.10100000352E+00 0.  1.
</event>
<event>
 5   0  0.1306843E-06  0.3180652E+04  0.7818609E-02  0.8193946E-01
        1   -1    0    0  501    0  0.00000000000E+00  0.00000000000E+00  0.12617554533E+04  0.12617554533E+04  0.50400001928E-02 0.  1.
       -1   -1    0    0    0  501  0.00000000000E+00  0.00000000000E+00 -0.20044588330E+04  0.20044588330E+04  0.50400001928E-02 0. -1.
    10030    2    1    2    0    0  0.00000000000E+00  0.00000000000E+00 -0.74270337964E+03  0.32662142863E+04  0.31806520485E+04 0.  0.
        5    1    3    3  502    0 -0.17575157795E+03 -0.12247684520E+04  0.65460828912E+03  0.13998144450E+04  0.46999998093E+01 0.  1.
       -5    1    3    3    0  502  0.17575157795E+03  0.12247684520E+04 -0.13973116688E+04  0.18663998413E+04  0.46999998093E+01 0. -1.
</event>
<event>
 5   0  0.1268836E-06  0.3227707E+04  0.7818609E-02  0.8181538E-01
        1   -1    0    0  501    0  0.00000000000E+00  0.00000000000E+00  0.11174176746E+04  0.11174176747E+04  0.50400001928E-02 0.  1.
       -1   -1    0    0    0  501  0.00000000000E+00  0.00000000000E+00 -0.23308409157E+04  0.23308409157E+04  0.50400001928E-02 0. -1.
    10030    2    1    2    0    0  0.00000000000E+00  0.00000000000E+00 -0.12134232411E+04  0.34482585904E+04  0.32277068244E+04 0.  0.
        1    1    3    3  502    0 -0.34953307430E+03  0.80212429141E+02 -0.22877345979E+04  0.23156720395E+04  0.50400001928E-02 0. -1.
       -1    1    3    3    0  502  0.34953307430E+03 -0.80212429141E+02  0.10743113568E+04  0.11325865509E+04  0.50400001928E-02 0.  1.
</event>
<event>
 5   0  0.1240725E-06  0.3225190E+04  0.7818609E-02  0.8182196E-01
       -1   -1    0    0    0  501  0.00000000000E+00  0.00000000000E+00  0.14024448963E+04  0.14024448963E+04  0.50400001928E-02 0.  1.
        1   -1    0    0  501    0  0.00000000000E+00  0.00000000000E+00 -0.18542355467E+04  0.18542355467E+04  0.50400001928E-02 0. -1.
    10030    2    1    2    0    0  0.00000000000E+00  0.00000000000E+00 -0.45179065042E+03  0.32566804430E+04  0.32251903380E+04 0.  0.
        3    1    3    3  502    0 -0.43933958877E+03 -0.52060792360E+02  0.13399659326E+04  0.14111124374E+04  0.10100000352E+00 0.  1.
       -3    1    3    3    0  502  0.43933958877E+03  0.52060792360E+02 -0.17917565830E+04  0.18455680056E+04  0.10100000352E+00 0. -1.
</event>
<event>
 5   0  0.3745943E-06  0.3174537E+04  0.7818609E-02  0.8195574E-01
        2   -1    0    0  501    0  0.00000000000E+00  0.00000000000E+00  0.18740114569E+04  0.18740114569E+04  0.25500000920E-02 0.  1.
       -2   -1    0    0    0  501  0.00000000000E+00  0.00000000000E+00 -0.13444002483E+04  0.13444002483E+04  0.25500000920E-02 0. -1.
    10030    2    1    2    0    0  0.00000000000E+00  0.00000000000E+00  0.52961120867E+03  0.32184117052E+04  0.31745371114E+04 0.  0.
        5    1    3    3  502    0  0.25219134886E+03  0.72198227192E+03 -0.11452950163E+04  0.13771643481E+04  0.46999998093E+01 0. -1.
       -5    1    3    3    0  502 -0.25219134886E+03 -0.72198227192E+03  0.16749062250E+04  0.18412473571E+04  0.46999998093E+01 0.  1.
</event>
<event>
 5   0  0.1185575E-06  0.3190450E+04  0.7818609E-02  0.8191344E-01
        3   -1    0    0  501    0  0.00000000000E+00  0.00000000000E+00  0.14077953967E+04  0.14077954004E+04  0.10100000352E+00 0. -1.
       -3   -1    0    0    0  501  0.00000000000E+00  0.00000000000E+00 -0.18076087579E+04  0.18076087607E+04  0.10100000352E+00 0.  1.
    10030    2    1    2    0    0  0.00000000000E+00  0.00000000000E+00 -0.39981336114E+03  0.32154041611E+04  0.31904503123E+04 0.  0.
        3    1    3    3  502    0 -0.58953390389E+03  0.67628872566E+03 -0.15292482031E+04  0.17729965430E+04  0.10100000352E+00 0.  1.
       -3    1    3    3    0  502  0.58953390389E+03 -0.67628872566E+03  0.11294348420E+04  0.14424076181E+04  0.10100000352E+00 0. -1.
</event>
<event>
 5   0  0.3758062E-06  0.3200621E+04  0.7818609E-02  0.8188653E-01
        2   -1    0    0  501    0  0.00000000000E+00  0.00000000000E+00  0.21998769981E+04  0.21998769981E+04  0.25500000920E-02 0. -1.
       -2   -1    0    0    0  501  0.00000000000E+00  0.00000000000E+00 -0.11641528922E+04  0.11641528922E+04  0.25500000920E-02 0.  1.
    10030    2    1    2    0    0  0.00000000000E+00  0.00000000000E+00  0.10357241059E+04  0.33640298903E+04  0.32006206710E+04 0.  0.
        2    1    3    3  502    0 -0.27506835282E+03  0.96102173511E+03  0.18313735299E+04  0.20864214292E+04  0.25500000920E-02 0. -1.
       -2    1    3    3    0  502  0.27506835282E+03 -0.96102173511E+03 -0.79564942401E+03  0.12776084612E+04  0.25500000920E-02 0.  1.
</event>
<event>
 5   0  0.3758062E-06  0.3285308E+04  0.7818609E-02  0.8166644E-01
        2   -1    0    0  501    0  0.00000000000E+00  0.00000000000E+00  0.14334779579E+04  0.14334779579E+04  0.25500000920E-02 0. -1.
       -2   -1    0    0    0  501  0.00000000000E+00  0.00000000000E+00 -0.18823540114E+04  0.18823540114E+04  0.25500000920E-02 0.  1.
    10030    2    1    2    0    0  0.00000000000E+00  0.00000000000E+00 -0.44887605353E+03  0.33158319693E+04  0.32853084995E+04 0.  0.
        2    1    3    3  502    0 -0.16375232816E+03 -0.31299035315E+03 -0.18435668850E+04  0.18771032591E+04  0.25500000920E-02 0.  1.
       -2    1    3    3    0  502  0.16375232816E+03  0.31299035315E+03  0.13946908314E+04  0.14387287102E+04  0.25500000920E-02 0. -1.
</event>
<event>
 5   0  0.3745943E-06  0.3041575E+04  0.7818609E-02  0.8231958E-01
        2   -1    0    0  501    0  0.00000000000E+00  0.00000000000E+00  0.19576739299E+04  0.19576739299E+04  0.25500000920E-02 0.  1.
       -2   -1    0    0    0  501  0.00000000000E+00  0.00000000000E+00 -0.11813991225E+04  0.11813991225E+04  0.25500000920E-02 0. -1.
    10030    2    1    2    0    0  0.00000000000E+00  0.00000000000E+00  0.77627480740E+03  0.31390730525E+04  0.30415747652E+04 0.  0.
        5    1    3    3  502    0 -0.13743854080E+04 -0.59410250015E+03  0.11337193354E+03  0.15015885974E+04  0.46999998093E+01 0.  1.
       -5    1    3    3    0  502  0.13743854080E+04  0.59410250015E+03  0.66290287387E+03  0.16374844551E+04  0.46999998093E+01 0. -1.
</event>
<event>
 5   0  0.3531437E-06  0.3169686E+04  0.7818609E-02  0.8196869E-01
        2   -1    0    0  501    0  0.00000000000E+00  0.00000000000E+00  0.10523647090E+04  0.10523647090E+04  0.25500000920E-02 0. -1.
       -2   -1    0    0    0  501  0.00000000000E+00  0.00000000000E+00 -0.23867466012E+04  0.23867466012E+04  0.25500000920E-02 0.  1.
    10030    2    1    2    0    0  0.00000000000E+00  0.00000000000E+00 -0.13343818923E+04  0.34391113102E+04  0.31696863519E+04 0.  0.
        1    1    3    3  502    0  0.41591946395E+03  0.83548980853E+02 -0.23239971919E+04  0.23623997081E+04  0.50400001928E-02 0.  1.
       -1    1    3    3    0  502 -0.41591946395E+03 -0.83548980853E+02  0.98961529968E+03  0.10767116021E+04  0.50400001928E-02 0. -1.
</event>
<event>
 5   0  0.3758062E-06  0.3429889E+04  0.7818609E-02  0.8130609E-01
       -2   -1    0    0    0  501  0.00000000000E+00  0.00000000000E+00  0.12201573405E+04  0.12201573405E+04  0.25500000920E-02 0. -1.
        2   -1    0    0  501    0  0.00000000000E+00  0.00000000000E+00 -0.24103734565E+04  0.24103734565E+04  0.25500000920E-02 0.  1.
    10030    2    1    2    0    0  0.00000000000E+00  0.00000000000E+00 -0.11902161160E+04  0.36305307971E+04  0.34298891331E+04 0.  0.
        2    1    3    3  502    0  0.36318983625E+03 -0.86765273742E+03  0.92275989605E+03  0.13176547179E+04  0.25500000920E-02 0. -1.
       -2    1    3    3    0  502 -0.36318983625E+03  0.86765273742E+03 -0.21129760121E+04  0.23128760791E+04  0.25500000920E-02 0.  1.
</event>
<event>
 5   0  0.3531437E-06  0.3186289E+04  0.7818609E-02  0.8192448E-01
       -2   -1    0    0    0  501  0.00000000000E+00  0.00000000000E+00  0.14907685040E+04  0.14907685040E+04  0.25500000920E-02 0.  1.
        2   -1    0    0  501    0  0.00000000000E+00  0.00000000000E+00 -0.17025510064E+04  0.17025510064E+04  0.25500000920E-02 0. -1.
    10030    2    1    2    0    0  0.00000000000E+00  0.00000000000E+00 -0.21178250240E+03  0.31933195104E+04  0.31862890118E+04 0.  0.
        1    1    3    3  502    0  0.53411741640E+03 -0.10936006537E+04  0.92441679683E+03  0.15283292245E+04  0.50400001928E-02 0.  1.
       -1    1    3    3    0  502 -0.53411741640E+03  0.10936006537E+04 -0.11361992992E+04  0.16649902858E+04  0.50400001928E-02 0. -1.
</event>
<event>
 5   0  0.1273980E-06  0.3222475E+04  0.7818609E-02  0.8182907E-01
        1   -1    0    0  501    0  0.00000000000E+00  0.00000000000E+00  0.24204922104E+04  0.24204922104E+04  0.50400001928E-02 0. -1.
       -1   -1    0    0    0  501  0.00000000000E+00  0.00000000000E+00 -0.10725445272E+04  0.10725445272E+04  0.50400001928E-02 0.  1.
    10030    2    1    2    0    0  0.00000000000E+00  0.00000000000E+00  0.13479476832E+04  0.34930367377E+04  0.32224746227E+04 0.  0.
        4    1    3    3  502    0 -0.12174503886E+04  0.38812879166E+03 -0.38988548460E+03  0.13359796824E+04  0.12699999809E+01 0.  1.
       -4    1    3    3    0  502  0.12174503886E+04 -0.38812879166E+03  0.17378331678E+04  0.21570570553E+04  0.12699999809E+01 0. -1.
</event>
<event>
 5   0  0.1273980E-06  0.3039020E+04  0.7818609E-02  0.8232676E-01
       -1   -1    0    0    0  501  0.00000000000E+00  0.00000000000E+00  0.10087760288E+04  0.10087760288E+04  0.50400001928E-02 0.  1.
        1   -1    0    0  501    0  0.00000000000E+00  0.00000000000E+00 -0.22888232152E+04  0.22888232152E+04  0.50400001928E-02 0. -1.
    10030    2    1    2    0    0  0.00000000000E+00  0.00000000000E+00 -0.12800471864E+04  0.32975992441E+04  0.30390195746E+04 0.  0.
        4    1    3    3  502    0 -0.86016014453E+03  0.99617335387E+03 -0.14640263082E+04  0.19686572757E+04  0.12699999809E+01 0. -1.
       -4    1    3    3    0  502  0.86016014453E+03 -0.99617335387E+03  0.18397912176E+03  0.13289419684E+04  0.12699999809E+01 0.  1.
</event>
<event>
 5   0  0.1273980E-06  0.3247924E+04  0.7818609E-02  0.8176274E-01
        1   -1    0    0  501    0  0.00000000000E+00  0.00000000000E+00  0.22448373736E+04  0.22448373736E+04  0.50400001928E-02 0.  1.
       -1   -1    0    0    0  501  0.00000000000E+00  0.00000000000E+00 -0.11748079445E+04  0.11748079445E+04  0.50400001928E-02 0. -1.
    10030    2    1    2    0    0  0.00000000000E+00  0.00000000000E+00  0.10700294292E+04  0.34196453181E+04  0.32479241251E+04 0.  0.
        4    1    3    3  502    0  0.15869406183E+04  0.33243967000E+03  0.63125028226E+03  0.17399353988E+04  0.12699999809E+01 0.  1.
       -4    1    3    3    0  502 -0.15869406183E+04 -0.33243967000E+03  0.43877914690E+03  0.16797099193E+04  0.12699999809E+01 0. -1.
</event>
<event>
 5   0  0.3497546E-06  0.3172244E+04  0.7818609E-02  0.8196186E-01
        2   -1    0    0  501    0  0.00000000000E+00  0.00000000000E+00  0.11229894491E+04  0.11229894491E+04  0.25500000920E-02 0. -1.
       -2   -1    0    0    0  501  0.00000000000E+00  0.00000000000E+00 -0.22402548451E+04  0.22402548451E+04  0.25500000920E-02 0.  1.
    10030    2    1    2    0    0  0.00000000000E+00  0.00000000000E+00 -0.11172653960E+04  0.33632442941E+04  0.31722437197E+04 0.  0.
        4    1    3    3  502    0  0.68244129710E+03 -0.54564183166E+03  0.84482650351E+03  0.12153948191E+04  0.12699999809E+01 0. -1.
       -4    1    3    3    0  502 -0.68244129710E+03  0.54564183166E+03 -0.19620918995E+04  0.21478494750E+04  0.12699999809E+01 0.  1.
</event>
<event>
 5   0  0.1306843E-06  0.3178341E+04  0.7818609E-02  0.8194561E-01
       -1   -1    0    0    0  501  0.00000000000E+00  0.00000000000E+00  0.17221520234E+04  0.17221520234E+04  0.50400001928E-02 0. -1.
        1   -1    0    0  501    0  0.00000000000E+00  0.00000000000E+00 -0.14664575748E+04  0.14664575748E+04  0.50400001928E-02 0.  1.
    10030    2    1    2    0    0  0.00000000000E+00  0.00000000000E+00  0.25569444860E+03  0.31886095983E+04  0.31783410011E+04 0.  0.
        5    1    3    3  502    0  0.91963228907E+03  0.42408208076E+02  0.14273772758E+04  0.16985140508E+04  0.46999998093E+01 0. -1.
       -5    1    3    3    0  502 -0.91963228907E+03 -0.42408208076E+02 -0.11716828272E+04  0.14900955475E+04  0.46999998093E+01 0.  1.
</event>
<event>
 5   0  0.1273754E-06  0.3073928E+04  0.7818609E-02  0.8222930E-01
        1   -1    0    0  501    0  0.00000000000E+00  0.00000000000E+00  0.17696963798E+04  0.17696963798E+04  0.50400001928E-02 0. -1.
       -1   -1    0    0    0  501  0.00000000000E+00  0.00000000000E+00 -0.13348380922E+04  0.13348380922E+04  0.50400001928E-02 0.  1.
    10030    2    1    2    0    0  0.00000000000E+00  0.00000000000E+00  0.43485828758E+03  0.31045344720E+04  0.30739278712E+04 0.  0.
        2    1    3    3  502    0 -0.10292259634E+04  0.13178847652E+03  0.13625544659E+04  0.17126672061E+04  0.25500000920E-02 0. -1.
       -2    1    3    3    0  502  0.10292259634E+04 -0.13178847652E+03 -0.92769617837E+03  0.13918672658E+04  0.25500000920E-02 0.  1.
</event>
<event>
 5   0  0.1273980E-06  0.3192417E+04  0.7818609E-02  0.8190823E-01
       -1   -1    0    0    0  501  0.00000000000E+00  0.00000000000E+00  0.14818865799E+04  0.14818865799E+04  0.50400001928E-02 0. -1.
        1   -1    0    0  501    0  0.00000000000E+00  0.00000000000E+00 -0.17193503065E+04  0.17193503065E+04  0.50400001928E-02 0.  1.
    10030    2    1    2    0    0  0.00000000000E+00  0.00000000000E+00 -0.23746372657E+03  0.32012368864E+04  0.31924173571E+04 0.  0.
        4    1    3    3  502    0  0.24142329525E+03 -0.44016828433E+03  0.14006594523E+04  0.14879119061E+04  0.12699999809E+01 0. -1.
       -4    1    3    3    0  502 -0.24142329525E+03  0.44016828433E+03 -0.16381231789E+04  0.17133249803E+04  0.12699999809E+01 0.  1.
</event>
<event>
 5   0  0.1273980E-06  0.3172887E+04  0.7818609E-02  0.8196015E-01
       -1   -1    0    0    0  501  0.00000000000E+00  0.00000000000E+00  0.20173386435E+04  0.20173386435E+04  0.50400001928E-02 0.  1.
        1   -1    0    0  501    0  0.00000000000E+00  0.00000000000E+00 -0.12475857069E+04  0.12475857069E+04  0.50400001928E-02 0. -1.
    10030    2    1    2    0    0  0.00000000000E+00  0.00000000000E+00  0.76975293657E+03  0.32649243504E+04  0.31728869237E+04 0.  0.
        4    1    3    3  502    0  0.14739077806E+04 -0.58612401825E+03  0.41497795956E+03  0.16395590353E+04  0.12699999809E+01 0. -1.
       -4    1    3    3    0  502 -0.14739077806E+04  0.58612401825E+03  0.35477497701E+03  0.16253653151E+04  0.12699999809E+01 0.  1.
</event>
<event>
 5   0  0.3656086E-06  0.2941241E+04  0.7818609E-02  0.8260712E-01
       -2   -1    0    0    0  501  0.00000000000E+00  0.00000000000E+00  0.21484882831E+04  0.21484882831E+04  0.25500000920E-02 0. -1.
        2   -1    0    0  501    0  0.00000000000E+00  0.00000000000E+00 -0.10066264386E+04  0.10066264386E+04  0.25500000920E-02 0.  1.
    10030    2    1    2    0    0  0.00000000000E+00  0.00000000000E+00  0.11418618445E+04  0.31551147216E+04  0.29412413085E+04 0.  0.
        3    1    3    3  502    0 -0.12347743664E+04  0.28717361467E+03 -0.22864773197E+03  0.12881833008E+04  0.10100000352E+00 0. -1.
       -3    1    3    3    0  502  0.12347743664E+04 -0.28717361467E+03  0.13705095765E+04  0.18669314209E+04  0.10100000352E+00 0.  1.
</event>
<event>
 5   0  0.1273754E-06  0.3138633E+04  0.7818609E-02  0.8205215E-01
        1   -1    0    0  501    0  0.00000000000E+00  0.00000000000E+00  0.22334362996E+04  0.22334362996E+04  0.50400001928E-02 0.  1.
       -1   -1    0    0    0  501  0.00000000000E+00  0.00000000000E+00 -0.11026751602E+04  0.11026751602E+04  0.50400001928E-02 0. -1.
    10030    2    1    2    0    0  0.00000000000E+00  0.00000000000E+00  0.11307611394E+04  0.33361114598E+04  0.31386332882E+04 0.  0.
        2    1    3    3  502    0  0.86427103410E+03  0.12797877371E+04  0.26864985428E+03  0.15674800849E+04  0.25500000920E-02 0. -1.
       -2    1    3    3    0  502 -0.86427103410E+03 -0.12797877371E+04  0.86211128509E+03  0.17686313749E+04  0.25500000920E-02 0.  1.
</event>
<event>
 5   0  0.3656086E-06  0.3170867E+04  0.7818609E-02  0.8196554E-01
        2   -1    0    0  501    0  0.00000000000E+00  0.00000000000E+00  0.17683003922E+04  0.17683003922E+04  0.25500000920E-02 0. -1.
       -2   -1    0    0    0  501  0.00000000000E+00  0.00000000000E+00 -0.14214779819E+04  0.14214779819E+04  0.25500000920E-02 0.  1.
    10030    2    1    2    0    0  0.00000000000E+00  0.00000000000E+00  0.34682241028E+03  0.31897783741E+04  0.31708674352E+04 0.  0.
        3    1    3    3  502    0  0.23285962135E+03 -0.95649575592E+03  0.14235991338E+04  0.17308212613E+04  0.10100000352E+00 0. -1.
       -3    1    3    3    0  502 -0.23285962135E+03  0.95649575592E+03 -0.10767767236E+04  0.14589571128E+04  0.10100000352E+00 0.  1.
</event>
<event>
 5   0  0.1306843E-06  0.2905610E+04  0.7818609E-02  0.8271210E-01
       -1   -1    0    0    0  501  0.00000000000E+00  0.00000000000E+00  0.13573075785E+04  0.13573075785E+04  0.50400001928E-02 0. -1.
        1   -1    0    0  501    0  0.00000000000E+00  0.00000000000E+00 -0.15550210706E+04  0.15550210706E+04  0.50400001928E-02 0.  1.
    10030    2    1    2    0    0  0.00000000000E+00  0.00000000000E+00 -0.19771349211E+03  0.29123286491E+04  0.29056096668E+04 0.  0.
        5    1    3    3  502    0  0.45869403115E+03 -0.99061691553E+03 -0.10596649319E+04  0.15213921077E+04  0.46999998093E+01 0.  1.
       -5    1    3    3    0  502 -0.45869403115E+03  0.99061691553E+03  0.86195143981E+03  0.13909365414E+04  0.46999998093E+01 0. -1.
</event>
<event>
 5   0  0.3656086E-06  0.3216258E+04  0.7818609E-02  0.8184537E-01
       -2   -1    0    0    0  501  0.00000000000E+00  0.00000000000E+00  0.15565129049E+04  0.15565129049E+04  0.25500000920E-02 0.  1.
        2   -1    0    0  501    0  0.00000000000E+00  0.00000000000E+00 -0.16614564600E+04  0.16614564600E+04  0.25500000920E-02 0. -1.
    10030    2    1    2    0    0  0.00000000000E+00  0.00000000000E+00 -0.10494355505E+03  0.32179693649E+04  0.32162577141E+04 0.  0.
        3    1    3    3  502    0  0.10956461533E+04 -0.10718277441E+04 -0.53937560776E+03  0.16248634597E+04  0.10100000352E+00 0. -1.
       -3    1    3    3    0  502 -0.10956461533E+04  0.10718277441E+04  0.43443205271E+03  0.15931059051E+04  0.10100000352E+00 0.  1.
</event>
<event>
 5   0  0.1240725E-06  0.3044748E+04  0.7818609E-02  0.8231067E-01
        1   -1    0    0  501    0  0.00000000000E+00  0.00000000000E+00  0.24722368458E+04  0.24722368458E+04  0.50400001928E-02 0. -1.
       -1   -1    0    0    0  501  0.00000000000E+00  0.00000000000E+00 -0.93746003824E+03  0.93746003825E+03  0.50400001928E-02 0.  1.
    10030    2    1    2    0    0  0.00000000000E+00  0.00000000000E+00  0.15347768076E+04  0.34096968841E+04  0.30447484284E+04 0.  0.
        3    1    3    3  502    0  0.23826946363E+03 -0.14870605907E+04  0.10165461620E+04  0.18169996278E+04  0.10100000352E+00 0. -1.
       -3    1    3    3    0  502 -0.23826946363E+03  0.14870605907E+04  0.51823064556E+03  0.15926972562E+04  0.10100000352E+00 0.  1.
</event>
<event>
 5   0  0.1306843E-06  0.3265174E+04  0.7818609E-02  0.8171814E-01
       -1   -1    0    0    0  501  0.00000000000E+00  0.00000000000E+00  0.11421681730E+04  0.11421681730E+04  0.50400001928E-02 0. -1.
        1   -1    0    0  501    0  0.00000000000E+00  0.00000000000E+00 -0.23335797735E+04  0.23335797735E+04  0.50400001928E-02 0.  1.
    10030    2    1    2    0    0  0.00000000000E+00  0.00000000000E+00 -0.11914116005E+04  0.34757479465E+04  0.32651741432E+04 0.  0.
        5    1    3    3  502    0  0.10371385868E+04  0.12430947492E+04 -0.37146062299E+03  0.16610075521E+04  0.46999998093E+01 0.  1.
       -5    1    3    3    0  502 -0.10371385868E+04 -0.12430947492E+04 -0.81995097751E+03  0.18147403944E+04  0.46999998093E+01 0. -1.
</event>
<event>
 5   0  0.3745943E-06  0.3295694E+04  0.7818609E-02  0.8163992E-01
        2   -1    0    0  501    0  0.00000000000E+00  0.00000000000E+00  0.15174637716E+04  0.15174637716E+04  0.25500000920E-02 0. -1.
       -2   -1    0    0    0  501  0.00000000000E+00  0.00000000000E+00 -0.17894325921E+04  0.17894325921E+04  0.25500000920E-02 0.  1.
    10030    2    1    2    0    0  0.00000000000E+00  0.00000000000E+00 -0.27196882054E+03  0.33068963637E+04  0.32956936328E+04 0.  0.
        5    1    3    3  502    0 -0.34784413957E+03 -0.47443807935E+03 -0.16804664510E+04  0.17804708983E+04  0.46999998093E+01 0.  1.
       -5    1    3    3    0  502  0.34784413957E+03  0.47443807935E+03  0.14084976305E+04  0.15264254655E+04  0.46999998093E+01 0. -1.
</event>
<event>
 5   0  0.1240725E-06  0.3192583E+04  0.7818609E-02  0.8190779E-01
       -1   -1    0    0    0  501  0.00000000000E+00  0.00000000000E+00  0.18301225389E+04  0.18301225389E+04  0.50400001928E-02 0. -1.
        1   -1    0    0  501    0  0.00000000000E+00  0.00000000000E+00 -0.13923362990E+04  0.13923362990E+04  0.50400001928E-02 0.  1.
    10030    2    1    2    0    0  0.00000000000E+00  0.00000000000E+00  0.43778623984E+03  0.32224588379E+04  0.31925826802E+04 0.  0.
        3    1    3    3  502    0 -0.14996755543E+04 -0.34965455253E+03  0.64337700922E+03  0.16688975584E+04  0.10100000352E+00 0. -1.
       -3    1    3    3    0  502  0.14996755543E+04  0.34965455253E+03 -0.20559076938E+03  0.15535612795E+04  0.10100000352E+00 0.  1.
</event>
<event>
 5   0  0.1273754E-06  0.3192145E+04  0.7818609E-02  0.8190895E-01
        1   -1    0    0  501    0  0.00000000000E+00  0.00000000000E+00  0.19726328104E+04  0.19726328104E+04  0.50400001928E-02 0. -1.
       -1   -1    0    0    0  501  0.00000000000E+00  0.00000000000E+00 -0.12913943847E+04  0.12913943847E+04  0.50400001928E-02 0.  1.
    10030    2    1    2    0    0  0.00000000000E+00  0.00000000000E+00  0.68123842578E+03  0.32640271951E+04  0.31921446925E+04 0.  0.
        2    1    3    3  502    0  0.12988284586E+04  0.89583666909E+03  0.58680684251E+03  0.16833956674E+04  0.25500000920E-02 0. -1.
       -2    1    3    3    0  502 -0.12988284586E+04 -0.89583666909E+03  0.94431583267E+02  0.15806315277E+04  0.25500000920E-02 0.  1.
</event>
<event>
 5   0  0.3758062E-06  0.3191307E+04  0.7818609E-02  0.8191117E-01
        2   -1    0    0  501    0  0.00000000000E+00  0.00000000000E+00  0.16076423951E+04  0.16076423951E+04  0.25500000920E-02 0. -1.
       -2   -1    0    0    0  501  0.00000000000E+00  0.00000000000E+00 -0.15837536426E+04  0.15837536426E+04  0.25500000920E-02 0.  1.
    10030    2    1    2    0    0  0.00000000000E+00  0.00000000000E+00  0.23888752488E+02  0.31913960377E+04  0.31913066285E+04 0.  0.
        2    1    3    3  502    0 -0.92442592085E+03 -0.12316592251E+04  0.42976198069E+03  0.15988255346E+04  0.25500000920E-02 0. -1.
       -2    1    3    3    0  502  0.92442592085E+03  0.12316592251E+04 -0.40587322820E+03  0.15925705031E+04  0.25500000920E-02 0.  1.
</event>
<event>
 5   0  0.3758062E-06  0.3186097E+04  0.7818609E-02  0.8192499E-01
       -2   -1    0    0    0  501  0.00000000000E+00  0.00000000000E+00  0.10944273088E+04  0.10944273088E+04  0.25500000920E-02 0. -1.
        2   -1    0    0  501    0  0.00000000000E+00  0.00000000000E+00 -0.23188418283E+04  0.23188418283E+04  0.25500000920E-02 0.  1.
    10030    2    1    2    0    0  0.00000000000E+00  0.00000000000E+00 -0.12244145195E+04  0.34132691371E+04  0.31860971873E+04 0.  0.
        2    1    3    3  502    0 -0.13011626212E+04 -0.73295897056E+03 -0.18093040392E+02  0.14935127644E+04  0.25500000920E-02 0. -1.
       -2    1    3    3    0  502  0.13011626212E+04  0.73295897056E+03 -0.12063214791E+04  0.19197563726E+04  0.25500000920E-02 0.  1.
</event>
<event>
 5   0  0.3497546E-06  0.3221148E+04  0.7818609E-02  0.8183254E-01
       -2   -1    0    0    0  501  0.00000000000E+00  0.00000000000E+00  0.11846645402E+04  0.11846645402E+04  0.25500000920E-02 0.  1.
        2   -1    0    0  501    0  0.00000000000E+00  0.00000000000E+00 -0.21896065097E+04  0.21896065097E+04  0.25500000920E-02 0. -1.
    10030    2    1    2    0    0  0.00000000000E+00  0.00000000000E+00 -0.10049419694E+04  0.33742710499E+04  0.32211483599E+04 0.  0.
        4    1    3    3  502    0  0.10801275741E+03  0.68811953908E+03 -0.20236631642E+04  0.21401844479E+04  0.12699999809E+01 0. -1.
       -4    1    3    3    0  502 -0.10801275741E+03 -0.68811953908E+03  0.10187211947E+04  0.12340866020E+04  0.12699999809E+01 0.  1.
</event>
<event>
 5   0  0.3531437E-06  0.3045644E+04  0.7818609E-02  0.8230816E-01
        2   -1    0    0  501    0  0.00000000000E+00  0.00000000000E+00  0.13277612293E+04  0.13277612293E+04  0.25500000920E-02 0. -1.
       -2   -1    0    0    0  501  0.00000000000E+00  0.00000000000E+00 -0.17465384999E+04  0.17465384999E+04  0.25500000920E-02 0.  1.
    10030    2    1    2    0    0  0.00000000000E+00  0.00000000000E+00 -0.41877727062E+03  0.30742997292E+04  0.30456435154E+04 0.  0.
        1    1    3    3  502    0  0.87722351425E+03  0.70766285111E+03 -0.12430737890E+04  0.16779571656E+04  0.50400001928E-02 0.  1.
       -1    1    3    3    0  502 -0.87722351425E+03 -0.70766285111E+03  0.82429651834E+03  0.13963425636E+04  0.50400001928E-02 0. -1.
</event>
<event>
 5   0  0.1185575E-06  0.3222015E+04  0.7818609E-02  0.8183027E-01
       -4   -1    0    0    0  501  0.00000000000E+00  0.00000000000E+00  0.23709871905E+04  0.23709875307E+04  0.12699999809E+01 0.  1.
        4   -1    0    0  501    0  0.00000000000E+00  0.00000000000E+00 -0.10946252963E+04  0.10946260331E+04  0.12699999809E+01 0. -1.
    10030    2    1    2    0    0  0.00000000000E+00  0.00000000000E+00  0.12763618942E+04  0.34656135637E+04  0.32220145388E+04 0.  0.
        5    1    3    3  502    0  0.88393300878E+03 -0.11758098652E+04  0.13446950895E+04  0.19930111331E+04  0.46999998093E+01 0.  1.
       -5    1    3    3    0  502 -0.88393300878E+03  0.11758098652E+04 -0.68333195325E+02  0.14726024306E+04  0.46999998093E+01 0. -1.
</event>
<event>
 5   0  0.3497546E-06  0.3221120E+04  0.7818609E-02  0.8183262E-01
       -2   -1    0    0    0  501  0.00000000000E+00  0.00000000000E+00  0.17972130948E+04  0.17972130948E+04  0.25500000920E-02 0.  1.
        2   -1    0    0  501    0  0.00000000000E+00  0.00000000000E+00 -0.14432917094E+04  0.14432917094E+04  0.25500000920E-02 0. -1.
    10030    2    1    2    0    0  0.00000000000E+00  0.00000000000E+00  0.35392138537E+03  0.32405048042E+04  0.32211195319E+04 0.  0.
        4    1    3    3  502    0 -0.83641810930E+03  0.31790768147E+02  0.15612121836E+04  0.17714375522E+04  0.12699999809E+01 0.  1.
       -4    1    3    3    0  502  0.83641810930E+03 -0.31790768147E+02 -0.12072907982E+04  0.14690672520E+04  0.12699999809E+01 0. -1.
</event>
<event>
 5   0  0.3531437E-06  0.3058753E+04  0.7818609E-02  0.8227150E-01
       -2   -1    0    0    0  501  0.00000000000E+00  0.00000000000E+00  0.10833101054E+04  0.10833101054E+04  0.25500000920E-02 0.  1.
        2   -1    0    0  501    0  0.00000000000E+00  0.00000000000E+00 -0.21591160217E+04  0.21591160217E+04  0.25500000920E-02 0. -1.
    10030    2    1    2    0    0  0.00000000000E+00  0.00000000000E+00 -0.10758059163E+04  0.32424261271E+04  0.30587528211E+04 0.  0.
        1    1    3    3  502    0  0.12818236595E+04 -0.69263347143E+03 -0.45032662102E+02  0.14576834226E+04  0.50400001928E-02 0.  1.
       -1    1    3    3    0  502 -0.12818236595E+04  0.69263347143E+03 -0.10307732542E+04  0.17847427045E+04  0.50400001928E-02 0. -1.
</event>
<event>
 5   0  0.1185575E-06  0.2578909E+04  0.7818609E-02  0.8375401E-01
        3   -1    0    0  501    0  0.00000000000E+00  0.00000000000E+00  0.17549506173E+04  0.17549506202E+04  0.10100000352E+00 0.  1.
       -3   -1    0    0    0  501  0.00000000000E+00  0.00000000000E+00 -0.94743009631E+03  0.94743010170E+03  0.10100000352E+00 0. -1.
    10030    2    1    2    0    0  0.00000000000E+00  0.00000000000E+00  0.80752052101E+03  0.27023807219E+04  0.25789091055E+04 0.  0.
        5    1    3    3  502    0  0.17495820181E+03 -0.10126215699E+04  0.12199338027E+04  0.15950778631E+04  0.46999998093E+01 0.  1.
       -5    1    3    3    0  502 -0.17495820181E+03  0.10126215699E+04 -0.41241328169E+03  0.11073028588E+04  0.46999998093E+01 0. -1.
</event>
<event>
 5   0  0.1240725E-06  0.3227110E+04  0.7818609E-02  0.8181694E-01
        1   -1    0    0  501    0  0.00000000000E+00  0.00000000000E+00  0.19677296992E+04  0.19677296992E+04  0.50400001928E-02 0.  1.
       -1   -1    0    0    0  501  0.00000000000E+00  0.00000000000E+00 -0.13231286111E+04  0.13231286111E+04  0.50400001928E-02 0. -1.
    10030    2    1    2    0    0  0.00000000000E+00  0.00000000000E+00  0.64460108811E+03  0.32908583104E+04  0.32271098302E+04 0.  0.
        3    1    3    3  502    0 -0.74857456497E+03  0.10940175870E+04  0.12604305356E+04  0.18291865693E+04  0.10100000352E+00 0.  1.
       -3    1    3    3    0  502  0.74857456497E+03 -0.10940175870E+04 -0.61582944746E+03  0.14616717411E+04  0.10100000352E+00 0. -1.
</event>
<event>
 5   0  0.3745943E-06  0.3208866E+04  0.7818609E-02  0.8186479E-01
       -2   -1    0    0    0  501  0.00000000000E+00  0.00000000000E+00  0.14506660121E+04  0.14506660121E+04  0.25500000920E-02 0.  1.
        2   -1    0    0  501    0  0.00000000000E+00  0.00000000000E+00 -0.17744994401E+04  0.17744994401E+04  0.25500000920E-02 0. -1.
    10030    2    1    2    0    0  0.00000000000E+00  0.00000000000E+00 -0.32383342795E+03  0.32251654522E+04  0.32088664829E+04 0.  0.
        5    1    3    3  502    0  0.63789470053E+03 -0.84470911968E+03  0.10499192590E+04  0.14909043182E+04  0.46999998093E+01 0.  1.
       -5    1    3    3    0  502 -0.63789470053E+03  0.84470911968E+03 -0.13737526869E+04  0.17342611339E+04  0.46999998093E+01 0. -1.
</event>
<event>
 5   0  0.1273980E-06  0.3192595E+04  0.7818609E-02  0.8190775E-01
        1   -1    0    0  501    0  0.00000000000E+00  0.00000000000E+00  0.24515801547E+04  0.24515801547E+04  0.50400001928E-02 0.  1.
       -1   -1    0    0    0  501  0.00000000000E+00  0.00000000000E+00 -0.10393974081E+04  0.10393974081E+04  0.50400001928E-02 0. -1.
    10030    2    1    2    0    0  0.00000000000E+00  0.00000000000E+00  0.14121827466E+04  0.34909775628E+04  0.31925952193E+04 0.  0.
        4    1    3    3  502    0  0.43061090420E+03 -0.95637926608E+03 -0.60973651104E+03  0.12132053731E+04  0.12699999809E+01 0. -1.
       -4    1    3    3    0  502 -0.43061090420E+03  0.95637926608E+03  0.20219192576E+04  0.22777721898E+04  0.12699999809E+01 0.  1.
</event>
<event>
 5   0  0.3531437E-06  0.3193009E+04  0.7818609E-02  0.8190666E-01
       -2   -1    0    0    0  501  0.00000000000E+00  0.00000000000E+00  0.96883680140E+03  0.96883680140E+03  0.25500000920E-02 0.  1.
        2   -1    0    0  501    0  0.00000000000E+00  0.00000000000E+00 -0.26308103055E+04  0.26308103055E+04  0.25500000920E-02 0. -1.
    10030    2    1    2    0    0  0.00000000000E+00  0.00000000000E+00 -0.16619735041E+04  0.35996471069E+04  0.31930085133E+04 0.  0.
        1    1    3    3  502    0  0.14135224021E+04 -0.30074949689E+03 -0.15958688383E+04  0.21529731049E+04  0.50400001928E-02 0. -1.
       -1    1    3    3    0  502 -0.14135224021E+04  0.30074949689E+03 -0.66104665773E+02  0.14466740020E+04  0.50400001928E-02 0.  1.
</event>
<event>
 5   0  0.3758062E-06  0.3195342E+04  0.7818609E-02  0.8190049E-01
       -2   -1    0    0    0  501  0.00000000000E+00  0.00000000000E+00  0.19103951318E+04  0.19103951318E+04  0.25500000920E-02 0. -1.
        2   -1    0    0  501    0  0.00000000000E+00  0.00000000000E+00 -0.13361382022E+04  0.13361382022E+04  0.25500000920E-02 0.  1.
    10030    2    1    2    0    0  0.00000000000E+00  0.00000000000E+00  0.57425692960E+03  0.32465333341E+04  0.31953415573E+04 0.  0.
        2    1    3    3  502    0 -0.15775322302E+04  0.84125647059E+02  0.52941662061E+03  0.16661233508E+04  0.25500000920E-02 0.  1.
       -2    1    3    3    0  502  0.15775322302E+04 -0.84125647059E+02  0.44840308986E+02  0.15804099833E+04  0.25500000920E-02 0. -1.
</event>
<event>
 5   0  0.1306843E-06  0.2659928E+04  0.7818609E-02  0.8348125E-01
       -1   -1    0    0    0  501  0.00000000000E+00  0.00000000000E+00  0.13781341825E+04  0.13781341825E+04  0.50400001928E-02 0. -1.
        1   -1    0    0  501    0  0.00000000000E+00  0.00000000000E+00 -0.12834771957E+04  0.12834771957E+04  0.50400001928E-02 0.  1.
    10030    2    1    2    0    0  0.00000000000E+00  0.00000000000E+00  0.94656986849E+02  0.26616113782E+04  0.26599276650E+04 0.  0.
        5    1    3    3  502    0 -0.58146277249E+03  0.78687339531E+03  0.94873888695E+03  0.13628632586E+04  0.46999998093E+01 0. -1.
       -5    1    3    3    0  502  0.58146277249E+03 -0.78687339531E+03 -0.85408190010E+03  0.12987481196E+04  0.46999998093E+01 0.  1.
</event>
<event>
 5   0  0.3497546E-06  0.3192777E+04  0.7818609E-02  0.8190727E-01
        2   -1    0    0  501    0  0.00000000000E+00  0.00000000000E+00  0.22821849226E+04  0.22821849226E+04  0.25500000920E-02 0.  1.
       -2   -1    0    0    0  501  0.00000000000E+00  0.00000000000E+00 -0.11166736033E+04  0.11166736033E+04  0.25500000920E-02 0. -1.
    10030    2    1    2    0    0  0.00000000000E+00  0.00000000000E+00  0.11655113193E+04  0.33988585260E+04  0.31927766355E+04 0.  0.
        4    1    3    3  502    0  0.35299153531E+03 -0.10513974418E+04  0.18050914475E+04  0.21185835719E+04  0.12699999809E+01 0.  1.
       -4    1    3    3    0  502 -0.35299153531E+03  0.10513974418E+04 -0.63958012820E+03  0.12802749540E+04  0.12699999809E+01 0. -1.
</event>
<event>
 5   0  0.3745943E-06  0.3206273E+04  0.7818609E-02  0.8187162E-01
        2   -1    0    0  501    0  0.00000000000E+00  0.00000000000E+00  0.20500430988E+04  0.20500430988E+04  0.25500000920E-02 0.  1.
       -2   -1    0    0    0  501  0.00000000000E+00  0.00000000000E+00 -0.12536551610E+04  0.12536551610E+04  0.25500000920E-02 0. -1.
    10030    2    1    2    0    0  0.00000000000E+00  0.00000000000E+00  0.79638793781E+03  0.33036982598E+04  0.32062732953E+04 0.  0.
        5    1    3    3  502    0 -0.33809953200E+03  0.15390593038E+04  0.70213188922E+03  0.17251162610E+04  0.46999998093E+01 0.  1.
       -5    1    3    3    0  502  0.33809953200E+03 -0.15390593038E+04  0.94256048593E+02  0.15785819988E+04  0.46999998093E+01 0. -1.
</event>
<event>
 5   0  0.1273980E-06  0.3196021E+04  0.7818609E-02  0.8189869E-01
       -1   -1    0    0    0  501  0.00000000000E+00  0.00000000000E+00  0.15652089800E+04  0.15652089800E+04  0.50400001928E-02 0.  1.
        1   -1    0    0  501    0  0.00000000000E+00  0.00000000000E+00 -0.16314996701E+04  0.16314996701E+04  0.50400001928E-02 0. -1.
    10030    2    1    2    0    0  0.00000000000E+00  0.00000000000E+00 -0.66290690057E+02  0.31967086502E+04  0.31960212356E+04 0.  0.
        4    1    3    3  502    0  0.26266205271E+03  0.32723753786E+03  0.15091203339E+04  0.15663720998E+04  0.12699999809E+01 0.  1.
       -4    1    3    3    0  502 -0.26266205271E+03 -0.32723753786E+03 -0.15754110239E+04  0.16303365503E+04  0.12699999809E+01 0. -1.
</event>
<event>
 5   0  0.3531437E-06  0.3174302E+04  0.7818609E-02  0.8195637E-01
        2   -1    0    0  501    0  0.00000000000E+00  0.00000000000E+00  0.19094020645E+04  0.19094020645E+04  0.25500000920E-02 0. -1.
       -2   -1    0    0    0  501  0.00000000000E+00  0.00000000000E+00 -0.13192864455E+04  0.13192864455E+04  0.25500000920E-02 0.  1.
    10030    2    1    2    0    0  0.00000000000E+00  0.00000000000E+00  0.59011561906E+03  0.32286885100E+04  0.31743019785E+04 0.  0.
        1    1    3    3  502    0  0.96630328785E+03  0.12398113821E+04  0.51830400232E+03  0.16551475300E+04  0.50400001928E-02 0. -1.
       -1    1    3    3    0  502 -0.96630328785E+03 -0.12398113821E+04  0.71811616735E+02  0.15735409800E+04  0.50400001928E-02 0.  1.
</event>
<event>
 5   0  0.1306843E-06  0.3236781E+04  0.7818609E-02  0.8179170E-01
       -1   -1    0    0    0  501  0.00000000000E+00  0.00000000000E+00  0.26263041160E+04  0.26263041160E+04  0.50400001928E-02 0.  1.
        1   -1    0    0  501    0  0.00000000000E+00  0.00000000000E+00 -0.99729022341E+03  0.99729022342E+03  0.50400001928E-02 0. -1.
    10030    2    1    2    0    0  0.00000000000E+00  0.00000000000E+00  0.16290138926E+04  0.36235943394E+04  0.32367807579E+04 0.  0.
        5    1    3    3  502    0 -0.34961219471E+03 -0.34149917364E+03 -0.91269652296E+03  0.10353199531E+04  0.46999998093E+01 0. -1.
       -5    1    3    3    0  502  0.34961219471E+03  0.34149917364E+03  0.25417104155E+04  0.25882743863E+04  0.46999998093E+01 0.  1.
</event>
<event>
 5   0  0.1240725E-06  0.3153782E+04  0.7818609E-02  0.8201131E-01
        1   -1    0    0  501    0  0.00000000000E+00  0.00000000000E+00  0.24274678365E+04  0.24274678365E+04  0.50400001928E-02 0.  1.
       -1   -1    0    0    0  501  0.00000000000E+00  0.00000000000E+00 -0.10243533800E+04  0.10243533800E+04  0.50400001928E-02 0. -1.
    10030    2    1    2    0    0  0.00000000000E+00  0.00000000000E+00  0.14031144565E+04  0.34518212165E+04  0.31537817826E+04 0.  0.
        3    1    3    3  502    0  0.81297724902E+03 -0.85226838599E+03 -0.44599664029E+03  0.12594468717E+04  0.10100000352E+00 0.  1.
       -3    1    3    3    0  502 -0.81297724902E+03  0.85226838599E+03  0.18491110968E+04  0.21923743448E+04  0.10100000352E+00 0. -1.
</event>
<event>
 5   0  0.1240725E-06  0.3216879E+04  0.7818609E-02  0.8184374E-01
       -1   -1    0    0    0  501  0.00000000000E+00  0.00000000000E+00  0.11358456055E+04  0.11358456055E+04  0.50400001928E-02 0. -1.
        1   -1    0    0  501    0  0.00000000000E+00  0.00000000000E+00 -0.22776669499E+04  0.22776669499E+04  0.50400001928E-02 0.  1.
    10030    2    1    2    0    0  0.00000000000E+00  0.00000000000E+00 -0.11418213445E+04  0.34135125554E+04  0.32168792305E+04 0.  0.
        3    1    3    3  502    0  0.49765305699E+03 -0.92555707138E+03  0.72120887152E+03  0.12745417624E+04  0.10100000352E+00 0. -1.
       -3    1    3    3    0  502 -0.49765305699E+03  0.92555707138E+03 -0.18630302160E+04  0.21389707930E+04  0.10100000352E+00 0.  1.
</event>
<event>
 5   0  0.1268836E-06  0.3126765E+04  0.7818609E-02  0.8208431E-01
        1   -1    0    0  501    0  0.00000000000E+00  0.00000000000E+00  0.16601574811E+04  0.16601574811E+04  0.50400001928E-02 0.  1.
       -1   -1    0    0    0  501  0.00000000000E+00  0.00000000000E+00 -0.14722489206E+04  0.14722489206E+04  0.50400001928E-02 0. -1.
    10030    2    1    2    0    0  0.00000000000E+00  0.00000000000E+00  0.18790856054E+03  0.31324064017E+04  0.31267651396E+04 0.  0.
        1    1    3    3  502    0 -0.46536120157E+03  0.16151284427E+03  0.15803824380E+04  0.16553718909E+04  0.50400001928E-02 0.  1.
       -1    1    3    3    0  502  0.46536120157E+03 -0.16151284427E+03 -0.13924738774E+04  0.14770345108E+04  0.50400001928E-02 0. -1.
</event>
<event>
 5   0  0.3656086E-06  0.2980624E+04  0.7818609E-02  0.8249285E-01
        2   -1    0    0  501    0  0.00000000000E+00  0.00000000000E+00  0.12652925709E+04  0.12652925709E+04  0.25500000920E-02 0.  1.
       -2   -1    0    0    0  501  0.00000000000E+00  0.00000000000E+00 -0.17553492060E+04  0.17553492060E+04  0.25500000920E-02 0. -1.
    10030    2    1    2    0    0  0.00000000000E+00  0.00000000000E+00 -0.49005663512E+03  0.30206417769E+04  0.29806243035E+04 0.  0.
        3    1    3    3  502    0 -0.16832683404E+03 -0.13756172429E+04  0.31039339068E+03  0.14202115298E+04  0.10100000352E+00 0.  1.
       -3    1    3    3    0  502  0.16832683404E+03  0.13756172429E+04 -0.80045002579E+03  0.16004302472E+04  0.10100000352E+00 0. -1.
</event>
<event>
 5   0  0.1185575E-06  0.2870387E+04  0.7818609E-02  0.8281743E-01
        3   -1    0    0  501    0  0.00000000000E+00  0.00000000000E+00  0.12879389024E+04  0.12879389063E+04  0.10100000352E+00 0.  1.
       -3   -1    0    0    0  501  0.00000000000E+00  0.00000000000E+00 -0.15992840498E+04  0.15992840530E+04  0.10100000352E+00 0. -1.
    10030    2    1    2    0    0  0.00000000000E+00  0.00000000000E+00 -0.31134514741E+03  0.28872229593E+04  0.28703868408E+04 0.  0.
        1    1    3    3  502    0 -0.57068157481E+03 -0.60952914001E+03  0.10184688404E+04  0.13169973467E+04  0.50400001928E-02 0.  1.
       -1    1    3    3    0  502  0.57068157481E+03  0.60952914001E+03 -0.13298139878E+04  0.15702256126E+04  0.50400001928E-02 0. -1.
</event>
<event>
 5   0  0.3656086E-06  0.3176133E+04  0.7818609E-02  0.8195149E-01
        2   -1    0    0  501    0  0.00000000000E+00  0.00000000000E+00  0.12853703491E+04  0.12853703491E+04  0.25500000920E-02 0. -1.
       -2   -1    0    0    0  501  0.00000000000E+00  0.00000000000E+00 -0.19620456768E+04  0.19620456768E+04  0.25500000920E-02 0.  1.
    10030    2    1    2    0    0  0.00000000000E+00  0.00000000000E+00 -0.67667532762E+03  0.32474160259E+04  0.31761330807E+04 0.  0.
        3    1    3    3  502    0 -0.20269757437E+03  0.88541891703E+03  0.99355021148E+03  0.13461779222E+04  0.10100000352E+00 0. -1.
       -3    1    3    3    0  502  0.20269757437E+03 -0.88541891703E+03 -0.16702255391E+04  0.19012381037E+04  0.10100000352E+00 0.  1.
</event>
<event>
 5   0  0.3745943E-06  0.3245413E+04  0.7818609E-02  0.8176926E-01
        2   -1    0    0  501    0  0.00000000000E+00  0.00000000000E+00  0.20089728389E+04  0.20089728389E+04  0.25500000920E-02 0.  1.
       -2   -1    0    0    0  501  0.00000000000E+00  0.00000000000E+00 -0.13107077372E+04  0.13107077372E+04  0.25500000920E-02 0. -1.
    10030    2    1    2    0    0  0.00000000000E+00  0.00000000000E+00  0.69826510177E+03  0.33196805761E+04  0.32454129129E+04 0.  0.
        5    1    3    3  502    0 -0.15027326061E+04  0.57603906610E+03  0.56155739363E+03  0.17045219528E+04  0.46999998093E+01 0.  1.
       -5    1    3    3    0  502  0.15027326061E+04 -0.57603906610E+03  0.13670770814E+03  0.16151586233E+04  0.46999998093E+01 0. -1.
</event>
<event>
 5   0  0.1273754E-06  0.3164834E+04  0.7818609E-02  0.8198167E-01
       -1   -1    0    0    0  501  0.00000000000E+00  0.00000000000E+00  0.10070535773E+04  0.10070535773E+04  0.50400001928E-02 0.  1.
        1   -1    0    0  501    0  0.00000000000E+00  0.00000000000E+00 -0.24865052376E+04  0.24865052376E+04  0.50400001928E-02 0. -1.
    10030    2    1    2    0    0  0.00000000000E+00  0.00000000000E+00 -0.14794516603E+04  0.34935588150E+04  0.31648342735E+04 0.  0.
        2    1    3    3  502    0  0.44331426469E+03 -0.12431025731E+03 -0.24109334256E+04  0.24545021002E+04  0.25500000920E-02 0. -1.
       -2    1    3    3    0  502 -0.44331426469E+03  0.12431025731E+03  0.93148176530E+03  0.10390567147E+04  0.25500000920E-02 0.  1.
</event>
<event>
 5   0  0.1273980E-06  0.3113592E+04  0.7818609E-02  0.8212018E-01
        1   -1    0    0  501    0  0.00000000000E+00  0.00000000000E+00  0.15431919128E+04  0.15431919128E+04  0.50400001928E-02 0.  1.
       -1   -1    0    0    0  501  0.00000000000E+00  0.00000000000E+00 -0.15705200564E+04  0.15705200564E+04  0.50400001928E-02 0. -1.
    10030    2    1    2    0    0  0.00000000000E+00  0.00000000000E+00 -0.27328143635E+02  0.31137119693E+04  0.31135920414E+04 0.  0.
        4    1    3    3  502    0  0.93893086368E+03 -0.11489005188E+04 -0.48490262519E+03  0.15609919082E+04  0.12699999809E+01 0. -1.
       -4    1    3    3    0  502 -0.93893086368E+03  0.11489005188E+04  0.45757448155E+03  0.15527200610E+04  0.12699999809E+01 0.  1.
</event>
<event>
 5   0  0.3758062E-06  0.3193109E+04  0.7818609E-02  0.8190640E-01
       -2   -1    0    0    0  501  0.00000000000E+00  0.00000000000E+00  0.10614659704E+04  0.10614659704E+04  0.25500000920E-02 0. -1.
        2   -1    0    0  501    0  0.00000000000E+00  0.00000000000E+00 -0.24013825425E+04  0.24013825425E+04  0.25500000920E-02 0.  1.
    10030    2    1    2    0    0  0.00000000000E+00  0.00000000000E+00 -0.13399165722E+04  0.34628485129E+04  0.31931087365E+04 0.  0.
        2    1    3    3  502    0 -0.42144184181E+03 -0.83844922873E+03  0.73081125261E+03  0.11894096948E+04  0.25500000920E-02 0. -1.
       -2    1    3    3    0  502  0.42144184181E+03  0.83844922873E+03 -0.20707278248E+04  0.22734388181E+04  0.25500000920E-02 0.  1.
</event>
<event>
 5   0  0.3656086E-06  0.3234600E+04  0.7818609E-02  0.8179739E-01
       -2   -1    0    0    0  501  0.00000000000E+00  0.00000000000E+00  0.12967411052E+04  0.12967411052E+04  0.25500000920E-02 0. -1.
        2   -1    0    0  501    0  0.00000000000E+00  0.00000000000E+00 -0.20171026624E+04  0.20171026624E+04  0.25500000920E-02 0.  1.
    10030    2    1    2    0    0  0.00000000000E+00  0.00000000000E+00 -0.72036155726E+03  0.33138437676E+04  0.32346003993E+04 0.  0.
        3    1    3    3  502    0 -0.48760860197E+03 -0.12195149701E+04  0.60669903083E+03  0.14467420763E+04  0.10100000352E+00 0. -1.
       -3    1    3    3    0  502  0.48760860197E+03  0.12195149701E+04 -0.13270605881E+04  0.18671016913E+04  0.10100000352E+00 0.  1.
</event>
<event>
 5   0  0.1268836E-06  0.3232028E+04  0.7818609E-02  0.8180410E-01
        1   -1    0    0  501    0  0.00000000000E+00  0.00000000000E+00  0.19369976770E+04  0.19369976770E+04  0.50400001928E-02 0. -1.
       -1   -1    0    0    0  501  0.00000000000E+00  0.00000000000E+00 -0.13482210445E+04  0.13482210445E+04  0.50400001928E-02 0.  1.
    10030    2    1    2    0    0  0.00000000000E+00  0.00000000000E+00  0.58877663255E+03  0.32852187215E+04  0.32320278658E+04 0.  0.
        1    1    3    3  502    0 -0.84346707711E+03 -0.12122782681E+04 -0.37249275480E+03  0.15230909893E+04  0.50400001928E-02 0.  1.
       -1    1    3    3    0  502  0.84346707711E+03  0.12122782681E+04  0.96126938735E+03  0.17621277322E+04  0.50400001928E-02 0. -1.
</event>
<event>
 5   0  0.3745943E-06  0.3150840E+04  0.7818609E-02  0.8201922E-01
       -2   -1    0    0    0  501  0.00000000000E+00  0.00000000000E+00  0.11966488944E+04  0.11966488944E+04  0.25500000920E-02 0. -1.
        2   -1    0    0  501    0  0.00000000000E+00  0.00000000000E+00 -0.20740828093E+04  0.20740828093E+04  0.25500000920E-02 0.  1.
    10030    2    1    2    0    0  0.00000000000E+00  0.00000000000E+00 -0.87743391499E+03  0.32707317037E+04  0.31508404597E+04 0.  0.
        5    1    3    3  502    0  0.10470415191E+04 -0.15629697063E+03  0.77238251859E+03  0.13104661502E+04  0.46999998093E+01 0. -1.
       -5    1    3    3    0  502 -0.10470415191E+04  0.15629697063E+03 -0.16498164336E+04  0.19602655535E+04  0.46999998093E+01 0.  1.
</event>
<event>
 5   0  0.1273980E-06  0.3020649E+04  0.7818609E-02  0.8237859E-01
       -1   -1    0    0    0  501  0.00000000000E+00  0.00000000000E+00  0.23073892167E+04  0.23073892167E+04  0.50400001928E-02 0. -1.
        1   -1    0    0  501    0  0.00000000000E+00  0.00000000000E+00 -0.98859799035E+03  0.98859799036E+03  0.50400001928E-02 0.  1.
    10030    2    1    2    0    0  0.00000000000E+00  0.00000000000E+00  0.13187912263E+04  0.32959872070E+04  0.30206491637E+04 0.  0.
        4    1    3    3  502    0  0.32891243225E+03  0.50595353890E+03 -0.85133030357E+03  0.10435215716E+04  0.12699999809E+01 0.  1.
       -4    1    3    3    0  502 -0.32891243225E+03 -0.50595353890E+03  0.21701215299E+04  0.22524656355E+04  0.12699999809E+01 0. -1.
</event>
<event>
 5   0  0.1306843E-06  0.3182747E+04  0.7818609E-02  0.8193389E-01
        1   -1    0    0  501    0  0.00000000000E+00  0.00000000000E+00  0.24238665275E+04  0.24238665275E+04  0.50400001928E-02 0.  1.
       -1   -1    0    0    0  501  0.00000000000E+00  0.00000000000E+00 -0.10448058062E+04  0.10448058063E+04  0.50400001928E-02 0. -1.
    10030    2    1    2    0    0  0.00000000000E+00  0.00000000000E+00  0.13790607212E+04  0.34686723338E+04  0.31827471288E+04 0.  0.
        5    1    3    3  502    0  0.11616604729E+04 -0.76253552455E+03  0.15347909102E+04  0.20703914384E+04  0.46999998093E+01 0.  1.
       -5    1    3    3    0  502 -0.11616604729E+04  0.76253552455E+03 -0.15573018891E+03  0.13982808953E+04  0.46999998093E+01 0. -1.
</event>
<event>
 5   0  0.3758062E-06  0.2859968E+04  0.7818609E-02  0.8284889E-01
       -2   -1    0    0    0  501  0.00000000000E+00  0.00000000000E+00  0.15886799321E+04  0.15886799321E+04  0.25500000920E-02 0.  1.
        2   -1    0    0  501    0  0.00000000000E+00  0.00000000000E+00 -0.12871402583E+04  0.12871402583E+04  0.25500000920E-02 0. -1.
    10030    2    1    2    0    0  0.00000000000E+00  0.00000000000E+00  0.30153967381E+03  0.28758201904E+04  0.28599677608E+04 0.  0.
        2    1    3    3  502    0 -0.93735601724E+03 -0.83848924126E+03  0.83509579371E+03  0.15096640340E+04  0.25500000920E-02 0.  1.
       -2    1    3    3    0  502  0.93735601724E+03  0.83848924126E+03 -0.53355611990E+03  0.13661561565E+04  0.25500000920E-02 0. -1.
</event>
<event>
 5   0  0.1268836E-06  0.2356465E+04  0.7818609E-02  0.8455985E-01
       -1   -1    0    0    0  501  0.00000000000E+00  0.00000000000E+00  0.10712814672E+04  0.10712814672E+04  0.50400001928E-02 0. -1.
        1   -1    0    0  501    0  0.00000000000E+00  0.00000000000E+00 -0.12958607084E+04  0.12958607084E+04  0.50400001928E-02 0.  1.
    10030    2    1    2    0    0  0.00000000000E+00  0.00000000000E+00 -0.22457924120E+03  0.23671421756E+04  0.23564647768E+04 0.  0.
        1    1    3    3  502    0  0.80104524007E+03  0.32424214072E+03 -0.91680874525E+03  0.12598986935E+04  0.50400001928E-02 0.  1.
       -1    1    3    3    0  502 -0.80104524007E+03 -0.32424214072E+03  0.69222950405E+03  0.11072434821E+04  0.50400001928E-02 0. -1.
</event>
<event>
 5   0  0.1273754E-06  0.3043925E+04  0.7818609E-02  0.8231298E-01
       -1   -1    0    0    0  501  0.00000000000E+00  0.00000000000E+00  0.12447165780E+04  0.12447165781E+04  0.50400001928E-02 0. -1.
        1   -1    0    0  501    0  0.00000000000E+00  0.00000000000E+00 -0.18609619420E+04  0.18609619420E+04  0.50400001928E-02 0.  1.
    10030    2    1    2    0    0  0.00000000000E+00  0.00000000000E+00 -0.61624536395E+03  0.31056785201E+04  0.30439252161E+04 0.  0.
        2    1    3    3  502    0  0.70604709141E+03 -0.28290408709E+02  0.10672108477E+04  0.12799382157E+04  0.25500000920E-02 0. -1.
       -2    1    3    3    0  502 -0.70604709141E+03  0.28290408709E+02 -0.16834562116E+04  0.18257403044E+04  0.25500000920E-02 0.  1.
</event>
<event>
 5   0  0.3745943E-06  0.3172271E+04  0.7818609E-02  0.8196179E-01
        2   -1    0    0  501    0  0.00000000000E+00  0.00000000000E+00  0.22037283990E+04  0.22037283990E+04  0.25500000920E-02 0. -1.
       -2   -1    0    0    0  501  0.00000000000E+00  0.00000000000E+00 -0.11416223814E+04  0.11416223814E+04  0.25500000920E-02 0.  1.
    10030    2    1    2    0    0  0.00000000000E+00  0.00000000000E+00  0.10621060176E+04  0.33453507804E+04  0.31722708981E+04 0.  0.
        5    1    3    3  502    0  0.10524042097E+04 -0.30731346951E+03 -0.67769910051E+03  0.12889120800E+04  0.46999998093E+01 0.  1.
       -5    1    3    3    0  502 -0.10524042097E+04  0.30731346951E+03  0.17398051181E+04  0.20564387003E+04  0.46999998093E+01 0. -1.
</event>
<event>
 5   0  0.3497546E-06  0.3197541E+04  0.7818609E-02  0.8189467E-01
       -2   -1    0    0    0  501  0.00000000000E+00  0.00000000000E+00  0.11597424362E+04  0.11597424362E+04  0.25500000920E-02 0.  1.
        2   -1    0    0  501    0  0.00000000000E+00  0.00000000000E+00 -0.22039950801E+04  0.22039950801E+04  0.25500000920E-02 0. -1.
    10030    2    1    2    0    0  0.00000000000E+00  0.00000000000E+00 -0.10442526439E+04  0.33637375163E+04  0.31975406947E+04 0.  0.
        4    1    3    3  502    0  0.70162609351E+03 -0.57779053913E+03 -0.19057628919E+04  0.21114106411E+04  0.12699999809E+01 0. -1.
       -4    1    3    3    0  502 -0.70162609351E+03  0.57779053913E+03  0.86151024794E+03  0.12523268752E+04  0.12699999809E+01 0.  1.
</event>
<event>
 5   0  0.1273754E-06  0.3206376E+04  0.7818609E-02  0.8187135E-01
        1   -1    0    0  501    0  0.00000000000E+00  0.00000000000E+00  0.20626726683E+04  0.20626726683E+04  0.50400001928E-02 0.  1.
       -1   -1    0    0    0  501  0.00000000000E+00  0.00000000000E+00 -0.12460592262E+04  0.12460592262E+04  0.50400001928E-02 0. -1.
    10030    2    1    2    0    0  0.00000000000E+00  0.00000000000E+00  0.81661344209E+03  0.33087318945E+04  0.32063763404E+04 0.  0.
        2    1    3    3  502    0  0.56279674039E+03 -0.59598826628E+03  0.18300660578E+04  0.20052640626E+04  0.25500000920E-02 0.  1.
       -2    1    3    3    0  502 -0.56279674039E+03  0.59598826628E+03 -0.10134526158E+04  0.13034678320E+04  0.25500000920E-02 0. -1.
</event>
<event>
 5   0  0.1240725E-06  0.3148926E+04  0.7818609E-02  0.8202437E-01
       -1   -1    0    0    0  501  0.00000000000E+00  0.00000000000E+00  0.24185770222E+04  0.24185770222E+04  0.50400001928E-02 0.  1.
        1   -1    0    0  501    0  0.00000000000E+00  0.00000000000E+00 -0.10249556508E+04  0.10249556509E+04  0.50400001928E-02 0. -1.
    10030    2    1    2    0    0  0.00000000000E+00  0.00000000000E+00  0.13936213714E+04  0.34435326731E+04  0.31489262843E+04 0.  0.
        3    1    3    3  502    0  0.11059161308E+03 -0.86290284302E+03 -0.73825306450E+03  0.11409861607E+04  0.10100000352E+00 0. -1.
       -3    1    3    3    0  502 -0.11059161308E+03  0.86290284302E+03  0.21318744359E+04  0.23025465124E+04  0.10100000352E+00 0.  1.
</event>
<event>
 5   0  0.1273754E-06  0.2749426E+04  0.7818609E-02  0.8319144E-01
       -1   -1    0    0    0  501  0.00000000000E+00  0.00000000000E+00  0.13045131792E+04  0.13045131792E+04  0.50400001928E-02 0.  1.
        1   -1    0    0  501    0  0.00000000000E+00  0.00000000000E+00 -0.14486908039E+04  0.14486908040E+04  0.50400001928E-02 0. -1.
    10030    2    1    2    0    0  0.00000000000E+00  0.00000000000E+00 -0.14417762476E+03  0.27532039832E+04  0.27494263011E+04 0.  0.
        2    1    3    3  502    0 -0.65411074728E+03  0.99980955938E+03  0.60881326527E+03  0.13409450461E+04  0.25500000920E-02 0.  1.
       -2    1    3    3    0  502  0.65411074728E+03 -0.99980955938E+03 -0.75299089004E+03  0.14122589370E+04  0.25500000920E-02 0. -1.
</event>
<event>
 5   0  0.3656086E-06  0.3157194E+04  0.7818609E-02  0.8200215E-01
        2   -1    0    0  501    0  0.00000000000E+00  0.00000000000E+00  0.13594526150E+04  0.13594526150E+04  0.25500000920E-02 0.  1.
       -2   -1    0    0    0  501  0.00000000000E+00  0.00000000000E+00 -0.18330670553E+04  0.18330670553E+04  0.25500000920E-02 0. -1.
    10030    2    1    2    0    0  0.00000000000E+00  0.00000000000E+00 -0.47361444033E+03  0.31925196703E+04  0.31571935650E+04 0.  0.
        3    1    3    3  502    0  0.99976088488E+03 -0.45355828321E+03 -0.13838410564E+04  0.17664237948E+04  0.10100000352E+00 0. -1.
       -3    1    3    3    0  502 -0.99976088488E+03  0.45355828321E+03  0.91022661611E+03  0.14260958755E+04  0.10100000352E+00 0.  1.
</event>
<event>
 5   0  0.1185575E-06  0.3045837E+04  0.7818609E-02  0.8230762E-01
        3   -1    0    0  501    0  0.00000000000E+00  0.00000000000E+00  0.11213675266E+04  0.11213675312E+04  0.10100000352E+00 0. -1.
       -3   -1    0    0    0  501  0.00000000000E+00  0.00000000000E+00 -0.20682604685E+04  0.20682604710E+04  0.10100000352E+00 0.  1.
    10030    2    1    2    0    0  0.00000000000E+00  0.00000000000E+00 -0.94689294190E+03  0.31896280022E+04  0.30458365926E+04 0.  0.
        2    1    3    3  502    0 -0.58767184884E+03 -0.31110185964E+02 -0.19443761991E+04  0.20314834110E+04  0.25500000920E-02 0.  1.
       -2    1    3    3    0  502  0.58767184884E+03  0.31110185964E+02  0.99748325722E+03  0.11581445912E+04  0.25500000920E-02 0. -1.
</event>
<event>
 5   0  0.1273980E-06  0.2972543E+04  0.7818609E-02  0.8251615E-01
       -1   -1    0    0    0  501  0.00000000000E+00  0.00000000000E+00  0.13926121807E+04  0.13926121807E+04  0.50400001928E-02 0.  1.
        1   -1    0    0  501    0  0.00000000000E+00  0.00000000000E+00 -0.15862295482E+04  0.15862295482E+04  0.50400001928E-02 0. -1.
    10030    2    1    2    0    0  0.00000000000E+00  0.00000000000E+00 -0.19361736748E+03  0.29788417288E+04  0.29725427433E+04 0.  0.
        4    1    3    3  502    0  0.87926951507E+03 -0.92355107793E+03  0.66831397602E+03  0.14396897781E+04  0.12699999809E+01 0. -1.
       -4    1    3    3    0  502 -0.87926951507E+03  0.92355107793E+03 -0.86193134351E+03  0.15391519508E+04  0.12699999809E+01 0.  1.
</event>
<event>
 5   0  0.1240725E-06  0.2608869E+04  0.7818609E-02  0.8365195E-01
        1   -1    0    0  501    0  0.00000000000E+00  0.00000000000E+00  0.91932429243E+03  0.91932429245E+03  0.50400001928E-02 0. -1.
       -1   -1    0    0    0  501  0.00000000000E+00  0.00000000000E+00 -0.18508697598E+04  0.18508697598E+04  0.50400001928E-02 0.  1.
    10030    2    1    2    0    0  0.00000000000E+00  0.00000000000E+00 -0.93154546736E+03  0.27701940522E+04  0.26088691284E+04 0.  0.
        3    1    3    3  502    0  0.82659800929E+03 -0.99856879613E+03 -0.62018010669E+03  0.14370202798E+04  0.10100000352E+00 0. -1.
       -3    1    3    3    0  502 -0.82659800929E+03  0.99856879613E+03 -0.31136536067E+03  0.13331737725E+04  0.10100000352E+00 0.  1.
</event>
<event>
 5   0  0.3531437E-06  0.3145357E+04  0.7818609E-02  0.8203399E-01
        2   -1    0    0  501    0  0.00000000000E+00  0.00000000000E+00  0.17408992914E+04  0.17408992914E+04  0.25500000920E-02 0. -1.
       -2   -1    0    0    0  501  0.00000000000E+00  0.00000000000E+00 -0.14207125383E+04  0.14207125383E+04  0.25500000920E-02 0.  1.
    10030    2    1    2    0    0  0.00000000000E+00  0.00000000000E+00  0.32018675318E+03  0.31616118297E+04  0.31453568644E+04 0.  0.
        1    1    3    3  502    0  0.13338895293E+04  0.50598666300E+03 -0.50516809068E+03  0.15134327139E+04  0.50400001928E-02 0.  1.
       -1    1    3    3    0  502 -0.13338895293E+04 -0.50598666300E+03  0.82535484386E+03  0.16481791158E+04  0.50400001928E-02 0. -1.
</event>
<event>
 5   0  0.1268836E-06  0.2956644E+04  0.7818609E-02  0.8256221E-01
        1   -1    0    0  501    0  0.00000000000E+00  0.00000000000E+00  0.14881562066E+04  0.14881562066E+04  0.50400001928E-02 0.  1.
       -1   -1    0    0    0  501  0.00000000000E+00  0.00000000000E+00 -0.14685524575E+04  0.14685524575E+04  0.50400001928E-02 0. -1.
    10030    2    1    2    0    0  0.00000000000E+00  0.00000000000E+00  0.19603749120E+02  0.29567086642E+04  0.29566436745E+04 0.  0.
        1    1    3    3  502    0 -0.10349858027E+04 -0.40611782584E+03 -0.96454400243E+03  0.14718941650E+04  0.50400001928E-02 0. -1.
       -1    1    3    3    0  502  0.10349858027E+04  0.40611782584E+03  0.98414775155E+03  0.14848144992E+04  0.50400001928E-02 0.  1.
</event>
<event>
 5   0  0.3656086E-06  0.3201288E+04  0.7818609E-02  0.8188477E-01
       -2   -1    0    0    0  501  0.00000000000E+00  0.00000000000E+00  0.14303467731E+04  0.14303467731E+04  0.25500000920E-02 0. -1.
        2   -1    0    0  501    0  0.00000000000E+00  0.00000000000E+00 -0.17912172778E+04  0.17912172778E+04  0.25500000920E-02 0.  1.
    10030    2    1    2    0    0  0.00000000000E+00  0.00000000000E+00 -0.36087050474E+03  0.32215640509E+04  0.32012883989E+04 0.  0.
        3    1    3    3  502    0 -0.62027242348E+03 -0.10084327332E+04 -0.12644706638E+04  0.17322126101E+04  0.10100000352E+00 0.  1.
       -3    1    3    3    0  502  0.62027242348E+03  0.10084327332E+04  0.90360015904E+03  0.14893514408E+04  0.10100000352E+00 0. -1.
</event>
<event>
 5   0  0.3656086E-06  0.3202022E+04  0.7818609E-02  0.8188283E-01
       -2   -1    0    0    0  501  0.00000000000E+00  0.00000000000E+00  0.11823789914E+04  0.11823789914E+04  0.25500000920E-02 0. -1.
        2   -1    0    0  501    0  0.00000000000E+00  0.00000000000E+00 -0.21678634187E+04  0.21678634187E+04  0.25500000920E-02 0.  1.
    10030    2    1    2    0    0  0.00000000000E+00  0.00000000000E+00 -0.98548442736E+03  0.33502424101E+04  0.32020219627E+04 0.  0.
        3    1    3    3  502    0 -0.19658846121E+02  0.14792713550E+04 -0.11331244192E+04  0.18634916612E+04  0.10100000352E+00 0.  1.
       -3    1    3    3    0  502  0.19658846121E+02 -0.14792713550E+04  0.14763999180E+03  0.14867507489E+04  0.10100000352E+00 0. -1.
</event>
<event>
 5   0  0.3497546E-06  0.3179762E+04  0.7818609E-02  0.8194183E-01
        2   -1    0    0  501    0  0.00000000000E+00  0.00000000000E+00  0.30225596553E+04  0.30225596553E+04  0.25500000920E-02 0.  1.
       -2   -1    0    0    0  501  0.00000000000E+00  0.00000000000E+00 -0.83628492426E+03  0.83628492427E+03  0.25500000920E-02 0. -1.
    10030    2    1    2    0    0  0.00000000000E+00  0.00000000000E+00  0.21862747310E+04  0.38588445796E+04  0.31797616718E+04 0.  0.
        4    1    3    3  502    0 -0.17867394613E+02  0.78360070115E+03 -0.58552059734E+03  0.97835846470E+03  0.12699999809E+01 0. -1.
       -4    1    3    3    0  502  0.17867394613E+02 -0.78360070115E+03  0.27717953284E+04  0.28804861149E+04  0.12699999809E+01 0.  1.
</event>
<event>
 5   0  0.1240725E-06  0.2821692E+04  0.7818609E-02  0.8296565E-01
        1   -1    0    0  501    0  0.00000000000E+00  0.00000000000E+00  0.10756842104E+04  0.10756842104E+04  0.50400001928E-02 0. -1.
       -1   -1    0    0    0  501  0.00000000000E+00  0.00000000000E+00 -0.18504381231E+04  0.18504381231E+04  0.50400001928E-02 0.  1.
    10030    2    1    2    0    0  0.00000000000E+00  0.00000000000E+00 -0.77475391269E+03  0.29261223335E+04  0.28216924505E+04 0.  0.
        3    1    3    3  502    0 -0.54110096412E+03  0.82745282790E+03 -0.14311150103E+04  0.17394132973E+04  0.10100000352E+00 0.  1.
       -3    1    3    3    0  502  0.54110096412E+03 -0.82745282790E+03  0.65636109766E+03  0.11867090362E+04  0.10100000352E+00 0. -1.
</event>
<event>
 5   0  0.3497546E-06  0.3227332E+04  0.7818609E-02  0.8181636E-01
        2   -1    0    0  501    0  0.00000000000E+00  0.00000000000E+00  0.25031819741E+04  0.25031819741E+04  0.25500000920E-02 0. -1.
       -2   -1    0    0    0  501  0.00000000000E+00  0.00000000000E+00 -0.10402434822E+04  0.10402434822E+04  0.25500000920E-02 0.  1.
    10030    2    1    2    0    0  0.00000000000E+00  0.00000000000E+00  0.14629384919E+04  0.35434254563E+04  0.32273324796E+04 0.  0.
        4    1    3    3  502    0  0.15684104693E+04 -0.33171805294E+03  0.93382708683E+03  0.18552581783E+04  0.12699999809E+01 0. -1.
       -4    1    3    3    0  502 -0.15684104693E+04  0.33171805294E+03  0.52911140505E+03  0.16881672781E+04  0.12699999809E+01 0.  1.
</event>
<event>
 5   0  0.1306843E-06  0.2465788E+04  0.7818609E-02  0.8415276E-01
        1   -1    0    0  501    0  0.00000000000E+00  0.00000000000E+00  0.16227632253E+04  0.16227632253E+04  0.50400001928E-02 0.  1.
       -1   -1    0    0    0  501  0.00000000000E+00  0.00000000000E+00 -0.93669064002E+03  0.93669064003E+03  0.50400001928E-02 0. -1.
    10030    2    1    2    0    0  0.00000000000E+00  0.00000000000E+00  0.68607258525E+03  0.25594538653E+04  0.24657876016E+04 0.  0.
        5    1    3    3  502    0 -0.84776325343E+03 -0.89116386592E+03  0.25539271621E+03  0.12562336961E+04  0.46999998093E+01 0. -1.
       -5    1    3    3    0  502  0.84776325343E+03  0.89116386592E+03  0.43067986904E+03  0.13032201692E+04  0.46999998093E+01 0.  1.
</event>
<event>
 5   0  0.3531437E-06  0.3129485E+04  0.7818609E-02  0.8207692E-01
       -2   -1    0    0    0  501  0.00000000000E+00  0.00000000000E+00  0.12303896290E+04  0.12303896290E+04  0.25500000920E-02 0.  1.
        2   -1    0    0  501    0  0.00000000000E+00  0.00000000000E+00 -0.19899545013E+04  0.19899545013E+04  0.25500000920E-02 0. -1.
    10030    2    1    2    0    0  0.00000000000E+00  0.00000000000E+00 -0.75956487229E+03  0.32203441303E+04  0.31294851849E+04 0.  0.
        1    1    3    3  502    0  0.72501969425E+02 -0.10384834120E+04  0.82234462505E+03  0.13266329616E+04  0.50400001928E-02 0.  1.
       -1    1    3    3    0  502 -0.72501969425E+02  0.10384834120E+04 -0.15819094973E+04  0.18937111687E+04  0.50400001928E-02 0. -1.
</event>
<event>
 5   0  0.1273754E-06  0.3234775E+04  0.7818609E-02  0.8179693E-01
        1   -1    0    0  501    0  0.00000000000E+00  0.00000000000E+00  0.20001654260E+04  0.20001654260E+04  0.50400001928E-02 0.  1.
       -1   -1    0    0    0  501  0.00000000000E+00  0.00000000000E+00 -0.13078627292E+04  0.13078627292E+04  0.50400001928E-02 0. -1.
    10030    2    1    2    0    0  0.00000000000E+00  0.00000000000E+00  0.69230269679E+03  0.33080281552E+04  0.32347746833E+04 0.  0.
        2    1    3    3  502    0  0.41421570427E+03 -0.87506210402E+03 -0.97880967216E+03  0.13767268102E+04  0.25500000920E-02 0. -1.
       -2    1    3    3    0  502 -0.41421570427E+03  0.87506210402E+03  0.16711123689E+04  0.19313013450E+04  0.25500000920E-02 0.  1.
</event>
<event>
 5   0  0.3745943E-06  0.3168011E+04  0.7818609E-02  0.8197317E-01
       -2   -1    0    0    0  501  0.00000000000E+00  0.00000000000E+00  0.13770160360E+04  0.13770160360E+04  0.25500000920E-02 0. -1.
        2   -1    0    0  501    0  0.00000000000E+00  0.00000000000E+00 -0.18221090845E+04  0.18221090845E+04  0.25500000920E-02 0.  1.
    10030    2    1    2    0    0  0.00000000000E+00  0.00000000000E+00 -0.44509304847E+03  0.31991251205E+04  0.31680110030E+04 0.  0.
        5    1    3    3  502    0 -0.96189631162E+03  0.11568996996E+04 -0.72278016520E+03  0.16691598745E+04  0.46999998093E+01 0. -1.
       -5    1    3    3    0  502  0.96189631162E+03 -0.11568996996E+04  0.27768711673E+03  0.15299652460E+04  0.46999998093E+01 0.  1.
</event>
<event>
 5   0  0.1240725E-06  0.2284565E+04  0.7818609E-02  0.8484032E-01
       -1   -1    0    0    0  501  0.00000000000E+00  0.00000000000E+00  0.77410500437E+03  0.77410500438E+03  0.50400001928E-02 0. -1.
        1   -1    0    0  501    0  0.00000000000E+00  0.00000000000E+00 -0.16855720942E+04  0.16855720942E+04  0.50400001928E-02 0.  1.
    10030    2    1    2    0    0  0.00000000000E+00  0.00000000000E+00 -0.91146708980E+03  0.24596770986E+04  0.22845654233E+04 0.  0.
        3    1    3    3  502    0  0.64347790932E+03 -0.90624636678E+03 -0.73949459684E+03  0.13349900996E+04  0.10100000352E+00 0.  1.
       -3    1    3    3    0  502 -0.64347790932E+03  0.90624636678E+03 -0.17197249297E+03  0.11246869990E+04  0.10100000352E+00 0. -1.
</event>
<event>
 5   0  0.1240725E-06  0.3199849E+04  0.7818609E-02  0.8188857E-01
        1   -1    0    0  501    0  0.00000000000E+00  0.00000000000E+00  0.23565363292E+04  0.23565363292E+04  0.50400001928E-02 0. -1.
       -1   -1    0    0    0  501  0.00000000000E+00  0.00000000000E+00 -0.10862376503E+04  0.10862376503E+04  0.50400001928E-02 0.  1.
    10030    2    1    2    0    0  0.00000000000E+00  0.00000000000E+00  0.12702986789E+04  0.34427739795E+04  0.31998490496E+04 0.  0.
        3    1    3    3  502    0  0.15233613788E+04  0.44706376924E+03  0.42195857521E+03  0.16427248563E+04  0.10100000352E+00 0. -1.
       -3    1    3    3    0  502 -0.15233613788E+04 -0.44706376924E+03  0.84834010364E+03  0.18000491232E+04  0.10100000352E+00 0.  1.
</event>
<event>
 5   0  0.1185575E-06  0.3079206E+04  0.7818609E-02  0.8221468E-01
       -3   -1    0    0    0  501  0.00000000000E+00  0.00000000000E+00  0.24470401081E+04  0.24470401102E+04  0.10100000352E+00 0.  1.
        3   -1    0    0  501    0  0.00000000000E+00  0.00000000000E+00 -0.96867155110E+03  0.96867155637E+03  0.10100000352E+00 0. -1.
    10030    2    1    2    0    0  0.00000000000E+00  0.00000000000E+00  0.14783685570E+04  0.34157116666E+04  0.30792064885E+04 0.  0.
        5    1    3    3  502    0  0.84211709247E+03 -0.88785040291E+03 -0.29721892625E+03  0.12592857958E+04  0.46999998093E+01 0. -1.
       -5    1    3    3    0  502 -0.84211709247E+03  0.88785040291E+03  0.17755874833E+04  0.21564258708E+04  0.46999998093E+01 0.  1.
</event>
<event>
 5   0  0.1240725E-06  0.3203219E+04  0.7818609E-02  0.8187968E-01
        1   -1    0    0  501    0  0.00000000000E+00  0.00000000000E+00  0.21626771935E+04  0.21626771936E+04  0.50400001928E-02 0. -1.
       -1   -1    0    0    0  501  0.00000000000E+00  0.00000000000E+00 -0.11861004937E+04  0.11861004937E+04  0.50400001928E-02 0.  1.
    10030    2    1    2    0    0  0.00000000000E+00  0.00000000000E+00  0.97657669982E+03  0.33487776873E+04  0.32032186857E+04 0.  0.
        3    1    3    3  502    0 -0.70451622473E+03 -0.12584602692E+03 -0.10096407451E+04  0.12375600097E+04  0.10100000352E+00 0.  1.
       -3    1    3    3    0  502  0.70451622473E+03  0.12584602692E+03  0.19862174449E+04  0.21112176775E+04  0.10100000352E+00 0. -1.
</event>
<event>
 5   0  0.1273754E-06  0.3195705E+04  0.7818609E-02  0.8189952E-01
       -1   -1    0    0    0  501  0.00000000000E+00  0.00000000000E+00  0.13694362132E+04  0.13694362132E+04  0.50400001928E-02 0. -1.
        1   -1    0    0  501    0  0.00000000000E+00  0.00000000000E+00 -0.18643676358E+04  0.18643676358E+04  0.50400001928E-02 0.  1.
    10030    2    1    2    0    0  0.00000000000E+00  0.00000000000E+00 -0.49493142258E+03  0.32338038490E+04  0.31957049646E+04 0.  0.
        2    1    3    3  502    0  0.43058082163E+03 -0.96768070068E+03 -0.14581095431E+04  0.18021901182E+04  0.25500000920E-02 0.  1.
       -2    1    3    3    0  502 -0.43058082163E+03  0.96768070068E+03  0.96317812053E+03  0.14316137308E+04  0.25500000920E-02 0. -1.
</event>
<event>
 5   0  0.1306843E-06  0.2629971E+04  0.7818609E-02  0.8358091E-01
        1   -1    0    0  501    0  0.00000000000E+00  0.00000000000E+00  0.10704880011E+04  0.10704880011E+04  0.50400001928E-02 0. -1.
       -1   -1    0    0    0  501  0.00000000000E+00  0.00000000000E+00 -0.16153256819E+04  0.16153256819E+04  0.50400001928E-02 0.  1.
    10030    2    1    2    0    0  0.00000000000E+00  0.00000000000E+00 -0.54483768079E+03  0.26858136830E+04  0.26299709203E+04 0.  0.
        5    1    3    3  502    0  0.14184789472E+03 -0.47548357148E+03  0.97120643357E+03  0.10906280203E+04  0.46999998093E+01 0. -1.
       -5    1    3    3    0  502 -0.14184789472E+03  0.47548357148E+03 -0.15160441144E+04  0.15951856628E+04  0.46999998093E+01 0.  1.
</event>
<event>
 5   0  0.3745943E-06  0.2558457E+04  0.7818609E-02  0.8382451E-01
        2   -1    0    0  501    0  0.00000000000E+00  0.00000000000E+00  0.11871667325E+04  0.11871667325E+04  0.25500000920E-02 0. -1.
       -2   -1    0    0    0  501  0.00000000000E+00  0.00000000000E+00 -0.13784299545E+04  0.13784299545E+04  0.25500000920E-02 0.  1.
    10030    2    1    2    0    0  0.00000000000E+00  0.00000000000E+00 -0.19126322202E+03  0.25655966870E+04  0.25584574924E+04 0.  0.
        5    1    3    3  502    0  0.80195606924E+02 -0.72530661761E+03 -0.11492313417E+04  0.13613433776E+04  0.46999998093E+01 0.  1.
       -5    1    3    3    0  502 -0.80195606924E+02  0.72530661761E+03  0.95796811968E+03  0.12042533094E+04  0.46999998093E+01 0. -1.
</event>
<event>
 5   0  0.1185575E-06  0.3171121E+04  0.7818609E-02  0.8196486E-01
       -3   -1    0    0    0  501  0.00000000000E+00  0.00000000000E+00  0.10972529196E+04  0.10972529242E+04  0.10100000352E+00 0.  1.
        3   -1    0    0  501    0  0.00000000000E+00  0.00000000000E+00 -0.22911788885E+04  0.22911788907E+04  0.10100000352E+00 0. -1.
    10030    2    1    2    0    0  0.00000000000E+00  0.00000000000E+00 -0.11939259689E+04  0.33884318149E+04  0.31711214019E+04 0.  0.
        2    1    3    3  502    0 -0.10365678276E+04 -0.18455190063E+03  0.66980402618E+03  0.12478660580E+04  0.25500000920E-02 0.  1.
       -2    1    3    3    0  502  0.10365678276E+04  0.18455190063E+03 -0.18637299951E+04  0.21405657569E+04  0.25500000920E-02 0. -1.
</event>
<event>
 5   0  0.3531437E-06  0.3133672E+04  0.7818609E-02  0.8206557E-01
        2   -1    0    0  501    0  0.00000000000E+00  0.00000000000E+00  0.24712548094E+04  0.24712548094E+04  0.25500000920E-02 0.  1.
       -2   -1    0    0    0  501  0.00000000000E+00  0.00000000000E+00 -0.99341208634E+03  0.99341208634E+03  0.25500000920E-02 0. -1.
    10030    2    1    2    0    0  0.00000000000E+00  0.00000000000E+00  0.14778427230E+04  0.34646668957E+04  0.31336715821E+04 0.  0.
        1    1    3    3  502    0  0.17371747490E+03  0.46768975609E+03 -0.90324425797E+03  0.10318728888E+04  0.50400001928E-02 0. -1.
       -1    1    3    3    0  502 -0.17371747490E+03 -0.46768975609E+03  0.23810869810E+04  0.24327940069E+04  0.50400001928E-02 0.  1.
</event>
<event>
 5   0  0.1268836E-06  0.3083877E+04  0.7818609E-02  0.8220177E-01
        1   -1    0    0  501    0  0.00000000000E+00  0.00000000000E+00  0.10363385314E+04  0.10363385314E+04  0.50400001928E-02 0. -1.
       -1   -1    0    0    0  501  0.00000000000E+00  0.00000000000E+00 -0.22942058806E+04  0.22942058807E+04  0.50400001928E-02 0.  1.
    10030    2    1    2    0    0  0.00000000000E+00  0.00000000000E+00 -0.12578673493E+04  0.33305444121E+04  0.30838767505E+04 0.  0.
        1    1    3    3  502    0  0.98865083762E+03  0.36003202510E+03  0.58839833071E+03  0.12055148831E+04  0.50400001928E-02 0. -1.
       -1    1    3    3    0  502 -0.98865083762E+03 -0.36003202510E+03 -0.18462656800E+04  0.21250295289E+04  0.50400001928E-02 0.  1.
</event>
<event>
 5   0  0.3497546E-06  0.3154247E+04  0.7818609E-02  0.8201006E-01
       -2   -1    0    0    0  501  0.00000000000E+00  0.00000000000E+00  0.78914418576E+03  0.78914418577E+03  0.25500000920E-02 0.  1.
        2   -1    0    0  501    0  0.00000000000E+00  0.00000000000E+00 -0.31519188718E+04  0.31519188718E+04  0.25500000920E-02 0. -1.
    10030    2    1    2    0    0  0.00000000000E+00  0.00000000000E+00 -0.23627746861E+04  0.39410630576E+04  0.31542469477E+04 0.  0.
        4    1    3    3  502    0 -0.10936769843E+04 -0.65086079651E+02 -0.25988079678E+04  0.28203138141E+04  0.12699999809E+01 0. -1.
       -4    1    3    3    0  502  0.10936769843E+04  0.65086079651E+02  0.23603328172E+03  0.11207492435E+04  0.12699999809E+01 0.  1.
</event>
<event>
 5   0  0.3656086E-06  0.3236897E+04  0.7818609E-02  0.8179140E-01
        2   -1    0    0  501    0  0.00000000000E+00  0.00000000000E+00  0.29746853979E+04  0.29746853979E+04  0.25500000920E-02 0. -1.
       -2   -1    0    0    0  501  0.00000000000E+00  0.00000000000E+00 -0.88055569696E+03  0.88055569697E+03  0.25500000920E-02 0.  1.
    10030    2    1    2    0    0  0.00000000000E+00  0.00000000000E+00  0.20941297009E+04  0.38552410948E+04  0.32368973872E+04 0.  0.
        3    1    3    3  502    0 -0.89842238461E+03 -0.11375247610E+04  0.18964684085E+03  0.14618793717E+04  0.10100000352E+00 0.  1.
       -3    1    3    3    0  502  0.89842238461E+03  0.11375247610E+04  0.19044828601E+04  0.23933617231E+04  0.10100000352E+00 0. -1.
</event>
<event>
 5   0  0.1240725E-06  0.3272161E+04  0.7818609E-02  0.8170015E-01
       -1   -1    0    0    0  501  0.00000000000E+00  0.00000000000E+00  0.15566820504E+04  0.15566820504E+04  0.50400001928E-02 0.  1.
        1   -1    0    0  501    0  0.00000000000E+00  0.00000000000E+00 -0.17195289769E+04  0.17195289769E+04  0.50400001928E-02 0. -1.
    10030    2    1    2    0    0  0.00000000000E+00  0.00000000000E+00 -0.16284692651E+03  0.32762110273E+04  0.32721613001E+04 0.  0.
        3    1    3    3  502    0  0.48929599060E+03 -0.29286881143E+02  0.14814349055E+04  0.15604222753E+04  0.10100000352E+00 0.  1.
       -3    1    3    3    0  502 -0.48929599060E+03  0.29286881143E+02 -0.16442818321E+04  0.17157887519E+04  0.10100000352E+00 0. -1.
</event>
<event>
 5   0  0.1306843E-06  0.3122076E+04  0.7818609E-02  0.8209705E-01
       -1   -1    0    0    0  501  0.00000000000E+00  0.00000000000E+00  0.91846805355E+03  0.91846805357E+03  0.50400001928E-02 0.  1.
        1   -1    0    0  501    0  0.00000000000E+00  0.00000000000E+00 -0.26531564820E+04  0.26531564820E+04  0.50400001928E-02 0. -1.
    10030    2    1    2    0    0  0.00000000000E+00  0.00000000000E+00 -0.17346884285E+04  0.35716245356E+04  0.31220758926E+04 0.  0.
        5    1    3    3  502    0  0.15286414228E+04  0.17833674977E+03 -0.11662493835E+04  0.19309863569E+04  0.46999998093E+01 0. -1.
       -5    1    3    3    0  502 -0.15286414228E+04 -0.17833674977E+03 -0.56843904493E+03  0.16406381787E+04  0.46999998093E+01 0.  1.
</event>
<event>
 5   0  0.1273980E-06  0.3412328E+04  0.7818609E-02  0.8134887E-01
        1   -1    0    0  501    0  0.00000000000E+00  0.00000000000E+00  0.20842435591E+04  0.20842435591E+04  0.50400001928E-02 0. -1.
       -1   -1    0    0    0  501  0.00000000000E+00  0.00000000000E+00 -0.13966676208E+04  0.13966676208E+04  0.50400001928E-02 0.  1.
    10030    2    1    2    0    0  0.00000000000E+00  0.00000000000E+00  0.68757593831E+03  0.34809111799E+04  0.34123279402E+04 0.  0.
        4    1    3    3  502    0  0.41157557764E+03 -0.67426227481E+03  0.18864557006E+04  0.20451750034E+04  0.12699999809E+01 0. -1.
       -4    1    3    3    0  502 -0.41157557764E+03  0.67426227481E+03 -0.11988797622E+04  0.14357361765E+04  0.12699999809E+01 0.  1.
</event>
<event>
 5   0  0.3656086E-06  0.3203351E+04  0.7818609E-02  0.8187933E-01
       -2   -1    0    0    0  501  0.00000000000E+00  0.00000000000E+00  0.23003410087E+04  0.23003410087E+04  0.25500000920E-02 0. -1.
        2   -1    0    0  501    0  0.00000000000E+00  0.00000000000E+00 -0.11152105405E+04  0.11152105405E+04  0.25500000920E-02 0.  1.
    10030    2    1    2    0    0  0.00000000000E+00  0.00000000000E+00  0.11851304681E+04  0.34155515492E+04  0.32033510826E+04 0.  0.
        3    1    3    3  502    0  0.79659341570E+03  0.12470365611E+04  0.12461151984E+04  0.19345449988E+04  0.10100000352E+00 0.  1.
       -3    1    3    3    0  502 -0.79659341570E+03 -0.12470365611E+04 -0.60984730264E+02  0.14810065503E+04  0.10100000352E+00 0. -1.
</event>
<event>
 5   0  0.3758062E-06  0.3163735E+04  0.7818609E-02  0.8198461E-01
        2   -1    0    0  501    0  0.00000000000E+00  0.00000000000E+00  0.16813220667E+04  0.16813220667E+04  0.25500000920E-02 0.  1.
       -2   -1    0    0    0  501  0.00000000000E+00  0.00000000000E+00 -0.14882958713E+04  0.14882958713E+04  0.25500000920E-02 0. -1.
    10030    2    1    2    0    0  0.00000000000E+00  0.00000000000E+00  0.19302619539E+03  0.31696179380E+04  0.31637349385E+04 0.  0.
        2    1    3    3  502    0  0.63356948807E+03  0.57975963808E+03  0.14274310095E+04  0.16658603846E+04  0.25500000920E-02 0.  1.
       -2    1    3    3    0  502 -0.63356948807E+03 -0.57975963808E+03 -0.12344048141E+04  0.15037575534E+04  0.25500000920E-02 0. -1.
</event>
<event>
 5   0  0.3656086E-06  0.3224948E+04  0.7818609E-02  0.8182259E-01
       -2   -1    0    0    0  501  0.00000000000E+00  0.00000000000E+00  0.10165556541E+04  0.10165556541E+04  0.25500000920E-02 0.  1.
        2   -1    0    0  501    0  0.00000000000E+00  0.00000000000E+00 -0.25577268279E+04  0.25577268279E+04  0.25500000920E-02 0. -1.
    10030    2    1    2    0    0  0.00000000000E+00  0.00000000000E+00 -0.15411711738E+04  0.35742824819E+04  0.32249475459E+04 0.  0.
        3    1    3    3  502    0 -0.13425827660E+04  0.15606859568E+03  0.20397342783E+03  0.13669275986E+04  0.10100000352E+00 0.  1.
       -3    1    3    3    0  502  0.13425827660E+04 -0.15606859568E+03 -0.17451446016E+04  0.22073548834E+04  0.10100000352E+00 0. -1.
</event>
<event>
 5   0  0.3758062E-06  0.3237290E+04  0.7818609E-02  0.8179038E-01
        2   -1    0    0  501    0  0.00000000000E+00  0.00000000000E+00  0.20467164996E+04  0.20467164996E+04  0.25500000920E-02 0.  1.
       -2   -1    0    0    0  501  0.00000000000E+00  0.00000000000E+00 -0.12801048880E+04  0.12801048880E+04  0.25500000920E-02 0. -1.
    10030    2    1    2    0    0  0.00000000000E+00  0.00000000000E+00  0.76661161161E+03  0.33268213875E+04  0.32372900985E+04 0.  0.
        2    1    3    3  502    0  0.17571865777E+02 -0.13251745130E+04  0.13383161790E+04  0.18834772246E+04  0.25500000920E-02 0.  1.
       -2    1    3    3    0  502 -0.17571865777E+02  0.13251745130E+04 -0.57170456742E+03  0.14433441630E+04  0.25500000920E-02 0. -1.
</event>
<event>
 5   0  0.3656086E-06  0.3206576E+04  0.7818609E-02  0.8187083E-01
        2   -1    0    0  501    0  0.00000000000E+00  0.00000000000E+00  0.28304945908E+04  0.28304945908E+04  0.25500000920E-02 0. -1.
       -2   -1    0    0    0  501  0.00000000000E+00  0.00000000000E+00 -0.90815690254E+03  0.90815690254E+03  0.25500000920E-02 0.  1.
    10030    2    1    2    0    0  0.00000000000E+00  0.00000000000E+00  0.19223376882E+04  0.37386514933E+04  0.32065764923E+04 0.  0.
        3    1    3    3  502    0 -0.88516699057E+01 -0.65070858665E+03  0.26695814066E+04  0.27477563417E+04  0.10100000352E+00 0. -1.
       -3    1    3    3    0  502  0.88516699057E+01  0.65070858665E+03 -0.74724371831E+03  0.99089515165E+03  0.10100000352E+00 0.  1.
</event>
<event>
 5   0  0.3745943E-06  0.3143959E+04  0.7818609E-02  0.8203776E-01
       -2   -1    0    0    0  501  0.00000000000E+00  0.00000000000E+00  0.12240614584E+04  0.12240614584E+04  0.25500000920E-02 0.  1.
        2   -1    0    0  501    0  0.00000000000E+00  0.00000000000E+00 -0.20187866814E+04  0.20187866814E+04  0.25500000920E-02 0. -1.
    10030    2    1    2    0    0  0.00000000000E+00  0.00000000000E+00 -0.79472522302E+03  0.32428481398E+04  0.31439586317E+04 0.  0.
        5    1    3    3  502    0 -0.13414516825E+04  0.44890141736E+03 -0.11045607638E+04  0.17947372147E+04  0.46999998093E+01 0. -1.
       -5    1    3    3    0  502  0.13414516825E+04 -0.44890141736E+03  0.30983554075E+03  0.14481109251E+04  0.46999998093E+01 0.  1.
</event>
<event>
 5   0  0.3497546E-06  0.3291279E+04  0.7818609E-02  0.8165118E-01
        2   -1    0    0  501    0  0.00000000000E+00  0.00000000000E+00  0.10347940114E+04  0.10347940114E+04  0.25500000920E-02 0. -1.
       -2   -1    0    0    0  501  0.00000000000E+00  0.00000000000E+00 -0.26170703087E+04  0.26170703087E+04  0.25500000920E-02 0.  1.
    10030    2    1    2    0    0  0.00000000000E+00  0.00000000000E+00 -0.15822762972E+04  0.36518643201E+04  0.32912785862E+04 0.  0.
        4    1    3    3  502    0 -0.10332055210E+04 -0.11793082732E+04 -0.13457455794E+04  0.20662319399E+04  0.12699999809E+01 0.  1.
       -4    1    3    3    0  502  0.10332055210E+04  0.11793082732E+04 -0.23653071784E+03  0.15856323803E+04  0.12699999809E+01 0. -1.
</event>
<event>
 5   0  0.3497546E-06  0.2839418E+04  0.7818609E-02  0.8291134E-01
        2   -1    0    0  501    0  0.00000000000E+00  0.00000000000E+00  0.18369782821E+04  0.18369782821E+04  0.25500000920E-02 0.  1.
       -2   -1    0    0    0  501  0.00000000000E+00  0.00000000000E+00 -0.10972223061E+04  0.10972223061E+04  0.25500000920E-02 0. -1.
    10030    2    1    2    0    0  0.00000000000E+00  0.00000000000E+00  0.73975597593E+03  0.29342005882E+04  0.28394179312E+04 0.  0.
        4    1    3    3  502    0 -0.10819190165E+04 -0.91341796402E+03  0.47672578124E+03  0.14940382253E+04  0.12699999809E+01 0.  1.
       -4    1    3    3    0  502  0.10819190165E+04  0.91341796402E+03  0.26303019469E+03  0.14401623629E+04  0.12699999809E+01 0. -1.
</event>
<event>
 5   0  0.1268836E-06  0.3209380E+04  0.7818609E-02  0.8186344E-01
        1   -1    0    0  501    0  0.00000000000E+00  0.00000000000E+00  0.16811043391E+04  0.16811043391E+04  0.50400001928E-02 0.  1.
       -1   -1    0    0    0  501  0.00000000000E+00  0.00000000000E+00 -0.15317490337E+04  0.15317490337E+04  0.50400001928E-02 0. -1.
    10030    2    1    2    0    0  0.00000000000E+00  0.00000000000E+00  0.14935530537E+03  0.32128533729E+04  0.32093799694E+04 0.  0.
        1    1    3    3  502    0  0.19539388391E+03 -0.47374851464E+03 -0.14476303071E+04  0.15356594450E+04  0.50400001928E-02 0. -1.
       -1    1    3    3    0  502 -0.19539388391E+03  0.47374851464E+03  0.15969856125E+04  0.16771939278E+04  0.50400001928E-02 0.  1.
</event>
<event>
 5   0  0.3758062E-06  0.3303710E+04  0.7818609E-02  0.8161952E-01
       -2   -1    0    0    0  501  0.00000000000E+00  0.00000000000E+00  0.17330480878E+04  0.17330480878E+04  0.25500000920E-02 0.  1.
        2   -1    0    0  501    0  0.00000000000E+00  0.00000000000E+00 -0.15744657706E+04  0.15744657706E+04  0.25500000920E-02 0. -1.
    10030    2    1    2    0    0  0.00000000000E+00  0.00000000000E+00  0.15858231712E+03  0.33075138584E+04  0.33037099710E+04 0.  0.
        2    1    3    3  502    0 -0.59879850642E+03  0.10424903747E+04  0.12134145616E+04  0.17081336982E+04  0.25500000920E-02 0.  1.
       -2    1    3    3    0  502  0.59879850642E+03 -0.10424903747E+04 -0.10548322445E+04  0.15993801602E+04  0.25500000920E-02 0. -1.
</event>
<event>
 5   0  0.1306843E-06  0.3256064E+04  0.7818609E-02  0.8174166E-01
        1   -1    0    0  501    0  0.00000000000E+00  0.00000000000E+00  0.20934806111E+04  0.20934806111E+04  0.50400001928E-02 0.  1.
       -1   -1    0    0    0  501  0.00000000000E+00  0.00000000000E+00 -0.12660675407E+04  0.12660675408E+04  0.50400001928E-02 0. -1.
    10030    2    1    2    0    0  0.00000000000E+00  0.00000000000E+00  0.82741307034E+03  0.33595481518E+04  0.32560637886E+04 0.  0.
        5    1    3    3  502    0 -0.10395891855E+04 -0.62293592723E+03  0.15353019851E+04  0.19560084661E+04  0.46999998093E+01 0.  1.
       -5    1    3    3    0  502  0.10395891855E+04  0.62293592723E+03 -0.70788891473E+03  0.14035396858E+04  0.46999998093E+01 0. -1.
</event>
<event>
 5   0  0.1268836E-06  0.3246541E+04  0.7818609E-02  0.8176633E-01
        1   -1    0    0  501    0  0.00000000000E+00  0.00000000000E+00  0.20607254858E+04  0.20607254858E+04  0.50400001928E-02 0.  1.
       -1   -1    0    0    0  501  0.00000000000E+00  0.00000000000E+00 -0.12786795194E+04  0.12786795194E+04  0.50400001928E-02 0. -1.
    10030    2    1    2    0    0  0.00000000000E+00  0.00000000000E+00  0.78204596641E+03  0.33394050053E+04  0.32465412204E+04 0.  0.
        1    1    3    3  502    0  0.12421112320E+04 -0.88713577835E+03 -0.17718853676E+03  0.15366346278E+04  0.50400001928E-02 0. -1.
       -1    1    3    3    0  502 -0.12421112320E+04  0.88713577835E+03  0.95923450317E+03  0.18027703775E+04  0.50400001928E-02 0.  1.
</event>
<event>
 5   0  0.1306843E-06  0.2826538E+04  0.7818609E-02  0.8295076E-01
        1   -1    0    0  501    0  0.00000000000E+00  0.00000000000E+00  0.13230377934E+04  0.13230377934E+04  0.50400001928E-02 0. -1.
       -1   -1    0    0    0  501  0.00000000000E+00  0.00000000000E+00 -0.15096544922E+04  0.15096544922E+04  0.50400001928E-02 0.  1.
    10030    2    1    2    0    0  0.00000000000E+00  0.00000000000E+00 -0.18661669872E+03  0.28326922856E+04  0.28265384824E+04 0.  0.
        5    1    3    3  502    0  0.25984250190E+02 -0.12997426043E+04 -0.64886337055E+03  0.14529458979E+04  0.46999998093E+01 0.  1.
       -5    1    3    3    0  502 -0.25984250190E+02  0.12997426043E+04  0.46224667182E+03  0.13797463877E+04  0.46999998093E+01 0. -1.
</event>
<event>
 5   0  0.3531437E-06  0.3194981E+04  0.7818609E-02  0.8190144E-01
       -2   -1    0    0    0  501  0.00000000000E+00  0.00000000000E+00  0.10691105436E+04  0.10691105437E+04  0.25500000920E-02 0.  1.
        2   -1    0    0  501    0  0.00000000000E+00  0.00000000000E+00 -0.23870089191E+04  0.23870089191E+04  0.25500000920E-02 0. -1.
    10030    2    1    2    0    0  0.00000000000E+00  0.00000000000E+00 -0.13178983754E+04  0.34561194627E+04  0.31949813165E+04 0.  0.
        1    1    3    3  502    0  0.68856075889E+03 -0.13882433770E+04 -0.23910152007E+03  0.15679620944E+04  0.50400001928E-02 0.  1.
       -1    1    3    3    0  502 -0.68856075889E+03  0.13882433770E+04 -0.10787968554E+04  0.18881573683E+04  0.50400001928E-02 0. -1.
</event>
<event>
 5   0  0.3656086E-06  0.3172229E+04  0.7818609E-02  0.8196190E-01
        2   -1    0    0  501    0  0.00000000000E+00  0.00000000000E+00  0.84602666946E+03  0.84602666947E+03  0.25500000920E-02 0.  1.
       -2   -1    0    0    0  501  0.00000000000E+00  0.00000000000E+00 -0.29736169870E+04  0.29736169870E+04  0.25500000920E-02 0. -1.
    10030    2    1    2    0    0  0.00000000000E+00  0.00000000000E+00 -0.21275903175E+04  0.38196436564E+04  0.31722290433E+04 0.  0.
        3    1    3    3  502    0 -0.86054901567E+03  0.12022401028E+04 -0.17553165553E+04  0.22950080812E+04  0.10100000352E+00 0. -1.
       -3    1    3    3    0  502  0.86054901567E+03 -0.12022401028E+04 -0.37227376215E+03  0.15246355752E+04  0.10100000352E+00 0.  1.
</event>
<event>
 5   0  0.3745943E-06  0.3553483E+04  0.7818609E-02  0.8101231E-01
        2   -1    0    0  501    0  0.00000000000E+00  0.00000000000E+00  0.15208574042E+04  0.15208574042E+04  0.25500000920E-02 0. -1.
       -2   -1    0    0    0  501  0.00000000000E+00  0.00000000000E+00 -0.20756777971E+04  0.20756777971E+04  0.25500000920E-02 0.  1.
    10030    2    1    2    0    0  0.00000000000E+00  0.00000000000E+00 -0.55482039292E+03  0.35965352013E+04  0.35534827685E+04 0.  0.
        5    1    3    3  502    0  0.86357733193E+03 -0.28157812417E+03  0.12680925196E+04  0.15598502417E+04  0.46999998093E+01 0. -1.
       -5    1    3    3    0  502 -0.86357733193E+03  0.28157812417E+03 -0.18229129125E+04  0.20366849596E+04  0.46999998093E+01 0.  1.
</event>
<event>
 5   0  0.1306843E-06  0.3161998E+04  0.7818609E-02  0.8198926E-01
        1   -1    0    0  501    0  0.00000000000E+00  0.00000000000E+00  0.92207403556E+03  0.92207403557E+03  0.50400001928E-02 0. -1.
       -1   -1    0    0    0  501  0.00000000000E+00  0.00000000000E+00 -0.27107998859E+04  0.27107998859E+04  0.50400001928E-02 0.  1.
    10030    2    1    2    0    0  0.00000000000E+00  0.00000000000E+00 -0.17887258503E+04  0.36328739215E+04  0.31619982229E+04 0.  0.
        5    1    3    3  502    0  0.27593256535E+03  0.14785927245E+04 -0.14538759828E+04  0.20919255935E+04  0.46999998093E+01 0.  1.
       -5    1    3    3    0  502 -0.27593256535E+03 -0.14785927245E+04 -0.33484986754E+03  0.15409483279E+04  0.46999998093E+01 0. -1.
</event>
<event>
 5   0  0.3656086E-06  0.3216380E+04  0.7818609E-02  0.8184505E-01
        2   -1    0    0  501    0  0.00000000000E+00  0.00000000000E+00  0.22375775361E+04  0.22375775361E+04  0.25500000920E-02 0. -1.
       -2   -1    0    0    0  501  0.00000000000E+00  0.00000000000E+00 -0.11558370500E+04  0.11558370500E+04  0.25500000920E-02 0.  1.
    10030    2    1    2    0    0  0.00000000000E+00  0.00000000000E+00  0.10817404862E+04  0.33934145861E+04  0.32163799641E+04 0.  0.
        3    1    3    3  502    0  0.68428048261E+03 -0.13062636780E+04 -0.13609365735E+03  0.14809071778E+04  0.10100000352E+00 0.  1.
       -3    1    3    3    0  502 -0.68428048261E+03  0.13062636780E+04  0.12178341435E+04  0.19125074083E+04  0.10100000352E+00 0. -1.
</event>
<event>
 5   0  0.3497546E-06  0.3173301E+04  0.7818609E-02  0.8195904E-01
        2   -1    0    0  501    0  0.00000000000E+00  0.00000000000E+00  0.22781761949E+04  0.22781761949E+04  0.25500000920E-02 0.  1.
       -2   -1    0    0    0  501  0.00000000000E+00  0.00000000000E+00 -0.11050329597E+04  0.11050329597E+04  0.25500000920E-02 0. -1.
    10030    2    1    2    0    0  0.00000000000E+00  0.00000000000E+00  0.11731432352E+04  0.33832091547E+04  0.31733009838E+04 0.  0.
        4    1    3    3  502    0  0.33396450388E+03  0.14801994229E+04  0.10808501022E+04  0.18629979006E+04  0.12699999809E+01 0. -1.
       -4    1    3    3    0  502 -0.33396450388E+03 -0.14801994229E+04  0.92293133032E+02  0.15202112540E+04  0.12699999809E+01 0.  1.
</event>
<event>
 5   0  0.3745943E-06  0.2404901E+04  0.7818609E-02  0.8437671E-01
        2   -1    0    0  501    0  0.00000000000E+00  0.00000000000E+00  0.83887405664E+03  0.83887405665E+03  0.25500000920E-02 0. -1.
       -2   -1    0    0    0  501  0.00000000000E+00  0.00000000000E+00 -0.17236039128E+04  0.17236039128E+04  0.25500000920E-02 0.  1.
    10030    2    1    2    0    0  0.00000000000E+00  0.00000000000E+00 -0.88472985615E+03  0.25624779694E+04  0.24049005022E+04 0.  0.
        5    1    3    3  502    0 -0.40052848960E+03  0.91865727277E+03 -0.11503652053E+04  0.15256855676E+04  0.46999998093E+01 0.  1.
       -5    1    3    3    0  502  0.40052848960E+03 -0.91865727277E+03  0.26563534910E+03  0.10367924018E+04  0.46999998093E+01 0. -1.
</event>
<event>
 5   0  0.1306843E-06  0.3008672E+04  0.7818609E-02  0.8241259E-01
        1   -1    0    0  501    0  0.00000000000E+00  0.00000000000E+00  0.17751291405E+04  0.17751291405E+04  0.50400001928E-02 0.  1.
       -1   -1    0    0    0  501  0.00000000000E+00  0.00000000000E+00 -0.12748517414E+04  0.12748517414E+04  0.50400001928E-02 0. -1.
    10030    2    1    2    0    0  0.00000000000E+00  0.00000000000E+00  0.50027739909E+03  0.30499808819E+04  0.30086717840E+04 0.  0.
        5    1    3    3  502    0  0.22835508455E+03 -0.42656703329E+03 -0.11938124741E+04  0.12881443211E+04  0.46999998093E+01 0. -1.
       -5    1    3    3    0  502 -0.22835508455E+03  0.42656703329E+03  0.16940898732E+04  0.17618365608E+04  0.46999998093E+01 0.  1.
</event>
<event>
 5   0  0.3656086E-06  0.3096912E+04  0.7818609E-02  0.8216586E-01
        2   -1    0    0  501    0  0.00000000000E+00  0.00000000000E+00  0.23160157435E+04  0.23160157435E+04  0.25500000920E-02 0.  1.
       -2   -1    0    0    0  501  0.00000000000E+00  0.00000000000E+00 -0.10352761414E+04  0.10352761414E+04  0.25500000920E-02 0. -1.
    10030    2    1    2    0    0  0.00000000000E+00  0.00000000000E+00  0.12807396022E+04  0.33512918849E+04  0.30969119085E+04 0.  0.
        3    1    3    3  502    0  0.26221409134E+02 -0.14979467960E+04  0.10639051202E+04  0.18375054506E+04  0.10100000352E+00 0.  1.
       -3    1    3    3    0  502 -0.26221409134E+02  0.14979467960E+04  0.21683448193E+03  0.15137864343E+04  0.10100000352E+00 0. -1.
</event>
<event>
 5   0  0.3531437E-06  0.2869432E+04  0.7818609E-02  0.8282031E-01
        2   -1    0    0  501    0  0.00000000000E+00  0.00000000000E+00  0.13558320099E+04  0.13558320099E+04  0.25500000920E-02 0. -1.
       -2   -1    0    0    0  501  0.00000000000E+00  0.00000000000E+00 -0.15181893845E+04  0.15181893845E+04  0.25500000920E-02 0.  1.
    10030    2    1    2    0    0  0.00000000000E+00  0.00000000000E+00 -0.16235737457E+03  0.28740213944E+04  0.28694318355E+04 0.  0.
        1    1    3    3  502    0 -0.13856948997E+02 -0.11950222012E+04  0.71390437397E+03  0.13920953745E+04  0.50400001928E-02 0. -1.
       -1    1    3    3    0  502  0.13856948997E+02  0.11950222012E+04 -0.87626174854E+03  0.14819260199E+04  0.50400001928E-02 0.  1.
</event>
<event>
 5   0  0.3497546E-06  0.3046577E+04  0.7818609E-02  0.8230554E-01
       -2   -1    0    0    0  501  0.00000000000E+00  0.00000000000E+00  0.14632322493E+04  0.14632322493E+04  0.25500000920E-02 0. -1.
        2   -1    0    0  501    0  0.00000000000E+00  0.00000000000E+00 -0.15858097827E+04  0.15858097827E+04  0.25500000920E-02 0.  1.
    10030    2    1    2    0    0  0.00000000000E+00  0.00000000000E+00 -0.12257753339E+03  0.30490420321E+04  0.30465771058E+04 0.  0.
        4    1    3    3  502    0  0.12184677549E+03  0.14963283683E+04  0.19691450663E+03  0.15141407326E+04  0.12699999809E+01 0.  1.
       -4    1    3    3    0  502 -0.12184677549E+03 -0.14963283683E+04 -0.31949204002E+03  0.15349012994E+04  0.12699999809E+01 0. -1.
</event>
<event>
 5   0  0.3531437E-06  0.3010035E+04  0.7818609E-02  0.8240871E-01
        2   -1    0    0  501    0  0.00000000000E+00  0.00000000000E+00  0.19716641962E+04  0.19716641962E+04  0.25500000920E-02 0.  1.
       -2   -1    0    0    0  501  0.00000000000E+00  0.00000000000E+00 -0.11488149191E+04  0.11488149191E+04  0.25500000920E-02 0. -1.
    10030    2    1    2    0    0  0.00000000000E+00  0.00000000000E+00  0.82284927708E+03  0.31204791153E+04  0.30100347135E+04 0.  0.
        1    1    3    3  502    0 -0.12347620546E+04 -0.35020899953E+03 -0.40341372481E+03  0.13453721820E+04  0.50400001928E-02 0. -1.
       -1    1    3    3    0  502  0.12347620546E+04  0.35020899953E+03  0.12262630019E+04  0.17751069333E+04  0.50400001928E-02 0.  1.
</event>
<event>
 5   0  0.3656086E-06  0.3201291E+04  0.7818609E-02  0.8188476E-01
       -2   -1    0    0    0  501  0.00000000000E+00  0.00000000000E+00  0.12284039297E+04  0.12284039297E+04  0.25500000920E-02 0. -1.
        2   -1    0    0  501    0  0.00000000000E+00  0.00000000000E+00 -0.20856869216E+04  0.20856869216E+04  0.25500000920E-02 0.  1.
    10030    2    1    2    0    0  0.00000000000E+00  0.00000000000E+00 -0.85728299195E+03  0.33140908513E+04  0.32012909962E+04 0.  0.
        3    1    3    3  502    0 -0.74729219931E+03  0.13032569233E+04 -0.10005019713E+04  0.18049732530E+04  0.10100000352E+00 0.  1.
       -3    1    3    3    0  502  0.74729219931E+03 -0.13032569233E+04  0.14321897939E+03  0.15091175983E+04  0.10100000352E+00 0. -1.
</event>
<event>
 5   0  0.3758062E-06  0.2655728E+04  0.7818609E-02  0.8349514E-01
       -2   -1    0    0    0  501  0.00000000000E+00  0.00000000000E+00  0.59372958643E+03  0.59372958644E+03  0.25500000920E-02 0. -1.
        2   -1    0    0  501    0  0.00000000000E+00  0.00000000000E+00 -0.29697396267E+04  0.29697396267E+04  0.25500000920E-02 0.  1.
    10030    2    1    2    0    0  0.00000000000E+00  0.00000000000E+00 -0.23760100403E+04  0.35634692132E+04  0.26557276068E+04 0.  0.
        2    1    3    3  502    0  0.55245901925E+03 -0.11779504429E+04 -0.83187245157E+03  0.15442765263E+04  0.25500000920E-02 0.  1.
       -2    1    3    3    0  502 -0.55245901925E+03  0.11779504429E+04 -0.15441375887E+04  0.20191926869E+04  0.25500000920E-02 0. -1.
</event>
<event>
 5   0  0.3531437E-06  0.2921947E+04  0.7818609E-02  0.8266377E-01
       -2   -1    0    0    0  501  0.00000000000E+00  0.00000000000E+00  0.12951300087E+04  0.12951300087E+04  0.25500000920E-02 0. -1.
        2   -1    0    0  501    0  0.00000000000E+00  0.00000000000E+00 -0.16480532834E+04  0.16480532834E+04  0.25500000920E-02 0.  1.
    10030    2    1    2    0    0  0.00000000000E+00  0.00000000000E+00 -0.35292327470E+03  0.29431832921E+04  0.29219467916E+04 0.  0.
        1    1    3    3  502    0 -0.12679398028E+04  0.28444836324E+03  0.49611963826E+03  0.13909410162E+04  0.50400001928E-02 0. -1.
       -1    1    3    3    0  502  0.12679398028E+04 -0.28444836324E+03 -0.84904291296E+03  0.15522422759E+04  0.50400001928E-02 0.  1.
</event>
<event>
 5   0  0.3758062E-06  0.3114492E+04  0.7818609E-02  0.8211772E-01
        2   -1    0    0  501    0  0.00000000000E+00  0.00000000000E+00  0.16356517891E+04  0.16356517891E+04  0.25500000920E-02 0.  1.
       -2   -1    0    0    0  501  0.00000000000E+00  0.00000000000E+00 -0.14825984839E+04  0.14825984839E+04  0.25500000920E-02 0. -1.
    10030    2    1    2    0    0  0.00000000000E+00  0.00000000000E+00  0.15305330523E+03  0.31182502731E+04  0.31144918448E+04 0.  0.
        2    1    3    3  502    0  0.44154553848E+03 -0.26832464755E+03  0.15473311643E+04  0.16313167415E+04  0.25500000920E-02 0.  1.
       -2    1    3    3    0  502 -0.44154553848E+03  0.26832464755E+03 -0.13942778591E+04  0.14869335316E+04  0.25500000920E-02 0. -1.
</event>
<event>
 5   0  0.1268836E-06  0.3192606E+04  0.7818609E-02  0.8190773E-01
       -1   -1    0    0    0  501  0.00000000000E+00  0.00000000000E+00  0.13061654611E+04  0.13061654611E+04  0.50400001928E-02 0. -1.
        1   -1    0    0  501    0  0.00000000000E+00  0.00000000000E+00 -0.19508890375E+04  0.19508890375E+04  0.50400001928E-02 0.  1.
    10030    2    1    2    0    0  0.00000000000E+00  0.00000000000E+00 -0.64472357639E+03  0.32570544987E+04  0.31926063831E+04 0.  0.
        1    1    3    3  502    0  0.13089273864E+04 -0.79665554558E+03 -0.77886873040E+03  0.17188913463E+04  0.50400001928E-02 0.  1.
       -1    1    3    3    0  502 -0.13089273864E+04  0.79665554558E+03  0.13414515401E+03  0.15381631524E+04  0.50400001928E-02 0. -1.
</event>
<event>
 5   0  0.1273754E-06  0.3101973E+04  0.7818609E-02  0.8215197E-01
        1   -1    0    0  501    0  0.00000000000E+00  0.00000000000E+00  0.19676534072E+04  0.19676534072E+04  0.50400001928E-02 0.  1.
       -1   -1    0    0    0  501  0.00000000000E+00  0.00000000000E+00 -0.12225526045E+04  0.12225526045E+04  0.50400001928E-02 0. -1.
    10030    2    1    2    0    0  0.00000000000E+00  0.00000000000E+00  0.74510080269E+03  0.31902060117E+04  0.31019734349E+04 0.  0.
        2    1    3    3  502    0 -0.36592736298E+03 -0.10381872134E+04 -0.75115083109E+03  0.13326526540E+04  0.25500000920E-02 0. -1.
       -2    1    3    3    0  502  0.36592736298E+03  0.10381872134E+04  0.14962516338E+04  0.18575533577E+04  0.25500000920E-02 0.  1.
</event>
<event>
 5   0  0.1273980E-06  0.3037515E+04  0.7818609E-02  0.8233099E-01
       -1   -1    0    0    0  501  0.00000000000E+00  0.00000000000E+00  0.20226376197E+04  0.20226376197E+04  0.50400001928E-02 0.  1.
        1   -1    0    0  501    0  0.00000000000E+00  0.00000000000E+00 -0.11404042540E+04  0.11404042541E+04  0.50400001928E-02 0. -1.
    10030    2    1    2    0    0  0.00000000000E+00  0.00000000000E+00  0.88223336562E+03  0.31630418737E+04  0.30375151330E+04 0.  0.
        4    1    3    3  502    0 -0.44980725968E+03 -0.13483719449E+04 -0.11595785545E+03  0.14261421071E+04  0.12699999809E+01 0.  1.
       -4    1    3    3    0  502  0.44980725968E+03  0.13483719449E+04  0.99819122107E+03  0.17368997666E+04  0.12699999809E+01 0. -1.
</event>
<event>
 5   0  0.1306843E-06  0.3100134E+04  0.7818609E-02  0.8215701E-01
        1   -1    0    0  501    0  0.00000000000E+00  0.00000000000E+00  0.23697657330E+04  0.23697657330E+04  0.50400001928E-02 0.  1.
       -1   -1    0    0    0  501  0.00000000000E+00  0.00000000000E+00 -0.10139011417E+04  0.10139011417E+04  0.50400001928E-02 0. -1.
    10030    2    1    2    0    0  0.00000000000E+00  0.00000000000E+00  0.13558645913E+04  0.33836668747E+04  0.31001343082E+04 0.  0.
        5    1    3    3  502    0  0.15216136800E+04 -0.16836321014E+03  0.94311784135E+03  0.17980955798E+04  0.46999998093E+01 0.  1.
       -5    1    3    3    0  502 -0.15216136800E+04  0.16836321014E+03  0.41274674993E+03  0.15855712949E+04  0.46999998093E+01 0. -1.
</event>
<event>
 5   0  0.3656086E-06  0.3196040E+04  0.7818609E-02  0.8189864E-01
       -2   -1    0    0    0  501  0.00000000000E+00  0.00000000000E+00  0.11918282151E+04  0.11918282151E+04  0.25500000920E-02 0.  1.
        2   -1    0    0  501    0  0.00000000000E+00  0.00000000000E+00 -0.21426471008E+04  0.21426471008E+04  0.25500000920E-02 0. -1.
    10030    2    1    2    0    0  0.00000000000E+00  0.00000000000E+00 -0.95081888566E+03  0.33344753159E+04  0.31960395929E+04 0.  0.
        3    1    3    3  502    0 -0.78884343335E+03 -0.80660611377E+03  0.70532600950E+03  0.13305533341E+04  0.10100000352E+00 0. -1.
       -3    1    3    3    0  502  0.78884343335E+03  0.80660611377E+03 -0.16561448952E+04  0.20039219818E+04  0.10100000352E+00 0.  1.
</event>
<event>
 5   0  0.3656086E-06  0.3148481E+04  0.7818609E-02  0.8202557E-01
       -2   -1    0    0    0  501  0.00000000000E+00  0.00000000000E+00  0.15286056475E+04  0.15286056475E+04  0.25500000920E-02 0.  1.
        2   -1    0    0  501    0  0.00000000000E+00  0.00000000000E+00 -0.16212380978E+04  0.16212380978E+04  0.25500000920E-02 0. -1.
    10030    2    1    2    0    0  0.00000000000E+00  0.00000000000E+00 -0.92632450379E+02  0.31498437453E+04  0.31484813560E+04 0.  0.
        3    1    3    3  502    0 -0.59423290857E+03  0.68918408932E+03 -0.13314522617E+04  0.16127159062E+04  0.10100000352E+00 0. -1.
       -3    1    3    3    0  502  0.59423290857E+03 -0.68918408932E+03  0.12388198113E+04  0.15371278391E+04  0.10100000352E+00 0.  1.
</event>
<event>
 5   0  0.1240725E-06  0.3217444E+04  0.7818609E-02  0.8184225E-01
       -1   -1    0    0    0  501  0.00000000000E+00  0.00000000000E+00  0.18486913157E+04  0.18486913157E+04  0.50400001928E-02 0.  1.
        1   -1    0    0  501    0  0.00000000000E+00  0.00000000000E+00 -0.13999022824E+04  0.13999022824E+04  0.50400001928E-02 0. -1.
    10030    2    1    2    0    0  0.00000000000E+00  0.00000000000E+00  0.44878903334E+03  0.32485935981E+04  0.32174444469E+04 0.  0.
        3    1    3    3  502    0 -0.99400981583E+03 -0.95761032580E+02  0.14978590727E+04  0.18002242919E+04  0.10100000352E+00 0.  1.
       -3    1    3    3    0  502  0.99400981583E+03  0.95761032580E+02 -0.10490700394E+04  0.14483693062E+04  0.10100000352E+00 0. -1.
</event>
<event>
 5   0  0.1273980E-06  0.3177434E+04  0.7818609E-02  0.8194802E-01
        1   -1    0    0  501    0  0.00000000000E+00  0.00000000000E+00  0.20352273411E+04  0.20352273411E+04  0.50400001928E-02 0. -1.
       -1   -1    0    0    0  501  0.00000000000E+00  0.00000000000E+00 -0.12401672329E+04  0.12401672329E+04  0.50400001928E-02 0.  1.
    10030    2    1    2    0    0  0.00000000000E+00  0.00000000000E+00  0.79506010822E+03  0.32753945741E+04  0.31774343487E+04 0.  0.
        4    1    3    3  502    0 -0.70328400478E+03 -0.11922688335E+04 -0.40619168066E+03  0.14426041234E+04  0.12699999809E+01 0.  1.
       -4    1    3    3    0  502  0.70328400478E+03  0.11922688335E+04  0.12012517889E+04  0.18327904506E+04  0.12699999809E+01 0. -1.
</event>
<event>
 5   0  0.1306843E-06  0.3206362E+04  0.7818609E-02  0.8187139E-01
       -1   -1    0    0    0  501  0.00000000000E+00  0.00000000000E+00  0.17879788310E+04  0.17879788310E+04  0.50400001928E-02 0.  1.
        1   -1    0    0  501    0  0.00000000000E+00  0.00000000000E+00 -0.14374834389E+04  0.14374834389E+04  0.50400001928E-02 0. -1.
    10030    2    1    2    0    0  0.00000000000E+00  0.00000000000E+00  0.35049539216E+03  0.32254622699E+04  0.32063623992E+04 0.  0.
        5    1    3    3  502    0  0.44133374644E+03  0.15239262763E+04 -0.56430738184E+02  0.15875557595E+04  0.46999998093E+01 0. -1.
       -5    1    3    3    0  502 -0.44133374644E+03 -0.15239262763E+04  0.40692613034E+03  0.16379065104E+04  0.46999998093E+01 0.  1.
</event>
<event>
 5   0  0.3497546E-06  0.3206447E+04  0.7818609E-02  0.8187117E-01
       -2   -1    0    0    0  501  0.00000000000E+00  0.00000000000E+00  0.10563103871E+04  0.10563103871E+04  0.25500000920E-02 0. -1.
        2   -1    0    0  501    0  0.00000000000E+00  0.00000000000E+00 -0.24333054103E+04  0.24333054103E+04  0.25500000920E-02 0.  1.
    10030    2    1    2    0    0  0.00000000000E+00  0.00000000000E+00 -0.13769950232E+04  0.34896157973E+04  0.32064471178E+04 0.  0.
        4    1    3    3  502    0 -0.66651108154E+03  0.12514252379E+04  0.12593684152E+03  0.14234338231E+04  0.12699999809E+01 0. -1.
       -4    1    3    3    0  502  0.66651108154E+03 -0.12514252379E+04 -0.15029318647E+04  0.20661819742E+04  0.12699999809E+01 0.  1.
</event>
<event>
 5   0  0.3497546E-06  0.2959865E+04  0.7818609E-02  0.8255285E-01
        2   -1    0    0  501    0  0.00000000000E+00  0.00000000000E+00  0.17439789470E+04  0.17439789470E+04  0.25500000920E-02 0.  1.
       -2   -1    0    0    0  501  0.00000000000E+00  0.00000000000E+00 -0.12558639109E+04  0.12558639109E+04  0.25500000920E-02 0. -1.
    10030    2    1    2    0    0  0.00000000000E+00  0.00000000000E+00  0.48811503608E+03  0.29998428579E+04  0.29598650111E+04 0.  0.
        4    1    3    3  502    0 -0.15084184444E+02 -0.80498822094E+03 -0.10144733275E+04  0.12951414261E+04  0.12699999809E+01 0. -1.
       -4    1    3    3    0  502  0.15084184444E+02  0.80498822094E+03  0.15025883636E+04  0.17047014318E+04  0.12699999809E+01 0.  1.
</event>
<event>
 5   0  0.3656086E-06  0.3034579E+04  0.7818609E-02  0.8233925E-01
        2   -1    0    0  501    0  0.00000000000E+00  0.00000000000E+00  0.20153556247E+04  0.20153556247E+04  0.25500000920E-02 0. -1.
       -2   -1    0    0    0  501  0.00000000000E+00  0.00000000000E+00 -0.11423134110E+04  0.11423134110E+04  0.25500000920E-02 0.  1.
    10030    2    1    2    0    0  0.00000000000E+00  0.00000000000E+00  0.87304221370E+03  0.31576690358E+04  0.30345792184E+04 0.  0.
        3    1    3    3  502    0 -0.67521969281E+03 -0.76784263578E+03  0.16030021402E+04  0.19013468433E+04  0.10100000352E+00 0. -1.
       -3    1    3    3    0  502  0.67521969281E+03  0.76784263578E+03 -0.72995992647E+03  0.12563221925E+04  0.10100000352E+00 0.  1.
</event>
<event>
 5   0  0.1268836E-06  0.3229878E+04  0.7818609E-02  0.8180971E-01
       -1   -1    0    0    0  501  0.00000000000E+00  0.00000000000E+00  0.13137678306E+04  0.13137678307E+04  0.50400001928E-02 0. -1.
        1   -1    0    0  501    0  0.00000000000E+00  0.00000000000E+00 -0.19851516478E+04  0.19851516478E+04  0.50400001928E-02 0.  1.
    10030    2    1    2    0    0  0.00000000000E+00  0.00000000000E+00 -0.67138381714E+03  0.32989194785E+04  0.32298782478E+04 0.  0.
        1    1    3    3  502    0  0.16695757823E+03  0.14291533625E+04  0.41324488219E+03  0.14970389103E+04  0.50400001928E-02 0. -1.
       -1    1    3    3    0  502 -0.16695757823E+03 -0.14291533625E+04 -0.10846286993E+04  0.18018805681E+04  0.50400001928E-02 0.  1.
</event>
<event>
 5   0  0.3497546E-06  0.3023659E+04  0.7818609E-02  0.8237007E-01
       -2   -1    0    0    0  501  0.00000000000E+00  0.00000000000E+00  0.13303169205E+04  0.13303169205E+04  0.25500000920E-02 0.  1.
        2   -1    0    0  501    0  0.00000000000E+00  0.00000000000E+00 -0.17181083063E+04  0.17181083063E+04  0.25500000920E-02 0. -1.
    10030    2    1    2    0    0  0.00000000000E+00  0.00000000000E+00 -0.38779138577E+03  0.30484252269E+04  0.30236590755E+04 0.  0.
        4    1    3    3  502    0 -0.99325984537E+03 -0.91804571205E+02 -0.13392615477E+04  0.16699150594E+04  0.12699999809E+01 0. -1.
       -4    1    3    3    0  502  0.99325984537E+03  0.91804571205E+02  0.95147016193E+03  0.13785101674E+04  0.12699999809E+01 0.  1.
</event>
<event>
 5   0  0.1273980E-06  0.3090338E+04  0.7818609E-02  0.8218395E-01
        1   -1    0    0  501    0  0.00000000000E+00  0.00000000000E+00  0.16803041224E+04  0.16803041224E+04  0.50400001928E-02 0. -1.
       -1   -1    0    0    0  501  0.00000000000E+00  0.00000000000E+00 -0.14209020021E+04  0.14209020021E+04  0.50400001928E-02 0.  1.
    10030    2    1    2    0    0  0.00000000000E+00  0.00000000000E+00  0.25940212028E+03  0.31012061245E+04  0.30903381638E+04 0.  0.
        4    1    3    3  502    0  0.32288474324E+03  0.22154400245E+03  0.16296849072E+04  0.16760700498E+04  0.12699999809E+01 0. -1.
       -4    1    3    3    0  502 -0.32288474324E+03 -0.22154400245E+03 -0.13702827869E+04  0.14251360747E+04  0.12699999809E+01 0.  1.
</event>
<event>
 5   0  0.3531437E-06  0.3402752E+04  0.7818609E-02  0.8137231E-01
       -2   -1    0    0    0  501  0.00000000000E+00  0.00000000000E+00  0.15938056859E+04  0.15938056859E+04  0.25500000920E-02 0. -1.
        2   -1    0    0  501    0  0.00000000000E+00  0.00000000000E+00 -0.18162062751E+04  0.18162062751E+04  0.25500000920E-02 0.  1.
    10030    2    1    2    0    0  0.00000000000E+00  0.00000000000E+00 -0.22240058920E+03  0.34100119609E+04  0.34027517617E+04 0.  0.
        1    1    3    3  502    0  0.48005702373E+03  0.13140628799E+04 -0.10814933181E+04  0.17682883802E+04  0.50400001928E-02 0.  1.
       -1    1    3    3    0  502 -0.48005702373E+03 -0.13140628799E+04  0.85909272895E+03  0.16417235807E+04  0.50400001928E-02 0. -1.
</event>
<event>
 5   0  0.3745943E-06  0.3172440E+04  0.7818609E-02  0.8196134E-01
       -2   -1    0    0    0  501  0.00000000000E+00  0.00000000000E+00  0.13019604508E+04  0.13019604508E+04  0.25500000920E-02 0.  1.
        2   -1    0    0  501    0  0.00000000000E+00  0.00000000000E+00 -0.19325422357E+04  0.19325422357E+04  0.25500000920E-02 0. -1.
    10030    2    1    2    0    0  0.00000000000E+00  0.00000000000E+00 -0.63058178490E+03  0.32345026865E+04  0.31724397932E+04 0.  0.
        5    1    3    3  502    0 -0.78295874944E+03 -0.10555448296E+04  0.59026955986E+03  0.14407079974E+04  0.46999998093E+01 0.  1.
       -5    1    3    3    0  502  0.78295874944E+03  0.10555448296E+04 -0.12208513448E+04  0.17937946891E+04  0.46999998093E+01 0. -1.
</event>
<event>
 5   0  0.1268836E-06  0.3193232E+04  0.7818609E-02  0.8190607E-01
       -1   -1    0    0    0  501  0.00000000000E+00  0.00000000000E+00  0.10594305851E+04  0.10594305851E+04  0.50400001928E-02 0.  1.
        1   -1    0    0  501    0  0.00000000000E+00  0.00000000000E+00 -0.24061817875E+04  0.24061817875E+04  0.50400001928E-02 0. -1.
    10030    2    1    2    0    0  0.00000000000E+00  0.00000000000E+00 -0.13467512023E+04  0.34656123726E+04  0.31932319547E+04 0.  0.
        1    1    3    3  502    0 -0.10355689651E+04  0.11400103099E+04 -0.21657418603E+03  0.15552912802E+04  0.50400001928E-02 0. -1.
       -1    1    3    3    0  502  0.10355689651E+04 -0.11400103099E+04 -0.11301770163E+04  0.19103210925E+04  0.50400001928E-02 0.  1.
</event>
<event>
 5   0  0.1268836E-06  0.3223800E+04  0.7818609E-02  0.8182560E-01
       -1   -1    0    0    0  501  0.00000000000E+00  0.00000000000E+00  0.14263451828E+04  0.14263451828E+04  0.50400001928E-02 0.  1.
        1   -1    0    0  501    0  0.00000000000E+00  0.00000000000E+00 -0.18215937003E+04  0.18215937003E+04  0.50400001928E-02 0. -1.
    10030    2    1    2    0    0  0.00000000000E+00  0.00000000000E+00 -0.39524851750E+03  0.32479388831E+04  0.32237998694E+04 0.  0.
        1    1    3    3  502    0  0.35941668384E+03 -0.53144679760E+03 -0.16874139957E+04  0.18052650897E+04  0.50400001928E-02 0. -1.
       -1    1    3    3    0  502 -0.35941668384E+03  0.53144679760E+03  0.12921654782E+04  0.14426737934E+04  0.50400001928E-02 0.  1.
</event>
<event>
 5   0  0.1273980E-06  0.3060829E+04  0.7818609E-02  0.8226571E-01
       -1   -1    0    0    0  501  0.00000000000E+00  0.00000000000E+00  0.85418041788E+03  0.85418041789E+03  0.50400001928E-02 0. -1.
        1   -1    0    0  501    0  0.00000000000E+00  0.00000000000E+00 -0.27420059439E+04  0.27420059439E+04  0.50400001928E-02 0.  1.
    10030    2    1    2    0    0  0.00000000000E+00  0.00000000000E+00 -0.18878255260E+04  0.35961863618E+04  0.30608285042E+04 0.  0.
        4    1    3    3  502    0  0.25974845582E+03 -0.95680159299E+03 -0.23136879293E+04  0.25171595094E+04  0.12699999809E+01 0.  1.
       -4    1    3    3    0  502 -0.25974845582E+03  0.95680159299E+03  0.42586240332E+03  0.10790268524E+04  0.12699999809E+01 0. -1.
</event>
<event>
 5   0  0.3497546E-06  0.3132886E+04  0.7818609E-02  0.8206770E-01
        2   -1    0    0  501    0  0.00000000000E+00  0.00000000000E+00  0.24470806856E+04  0.24470806856E+04  0.25500000920E-02 0. -1.
       -2   -1    0    0    0  501  0.00000000000E+00  0.00000000000E+00 -0.10027231352E+04  0.10027231352E+04  0.25500000920E-02 0.  1.
    10030    2    1    2    0    0  0.00000000000E+00  0.00000000000E+00  0.14443575503E+04  0.34498038208E+04  0.31328864756E+04 0.  0.
        4    1    3    3  502    0  0.63958773361E+03 -0.64796183412E+03 -0.68144852748E+03  0.11372338000E+04  0.12699999809E+01 0.  1.
       -4    1    3    3    0  502 -0.63958773361E+03  0.64796183412E+03  0.21258060778E+04  0.23125700207E+04  0.12699999809E+01 0. -1.
</event>
<event>
 5   0  0.1268836E-06  0.3204032E+04  0.7818609E-02  0.8187753E-01
        1   -1    0    0  501    0  0.00000000000E+00  0.00000000000E+00  0.25444454201E+04  0.25444454201E+04  0.50400001928E-02 0. -1.
       -1   -1    0    0    0  501  0.00000000000E+00  0.00000000000E+00 -0.10086500129E+04  0.10086500130E+04  0.50400001928E-02 0.  1.
    10030    2    1    2    0    0  0.00000000000E+00  0.00000000000E+00  0.15357954071E+04  0.35530954330E+04  0.32040317763E+04 0.  0.
        1    1    3    3  502    0  0.46070479997E+02  0.11017237305E+04  0.20566318613E+04  0.23335921410E+04  0.50400001928E-02 0. -1.
       -1    1    3    3    0  502 -0.46070479997E+02 -0.11017237305E+04 -0.52083645414E+03  0.12195032921E+04  0.50400001928E-02 0.  1.
</event>
<event>
 5   0  0.3531437E-06  0.3178830E+04  0.7818609E-02  0.8194431E-01
       -2   -1    0    0    0  501  0.00000000000E+00  0.00000000000E+00  0.11571330301E+04  0.11571330301E+04  0.25500000920E-02 0. -1.
        2   -1    0    0  501    0  0.00000000000E+00  0.00000000000E+00 -0.21831882856E+04  0.21831882856E+04  0.25500000920E-02 0.  1.
    10030    2    1    2    0    0  0.00000000000E+00  0.00000000000E+00 -0.10260552556E+04  0.33403213157E+04  0.31788295180E+04 0.  0.
        1    1    3    3  502    0  0.32687492005E+03 -0.15280931914E+04 -0.20789074523E+03  0.15764309617E+04  0.50400001928E-02 0. -1.
       -1    1    3    3    0  502 -0.32687492005E+03  0.15280931914E+04 -0.81816451032E+03  0.17638903540E+04  0.50400001928E-02 0.  1.
</event>
<event>
 5   0  0.1306843E-06  0.3205726E+04  0.7818609E-02  0.8187306E-01
       -1   -1    0    0    0  501  0.00000000000E+00  0.00000000000E+00  0.17263714855E+04  0.17263714855E+04  0.50400001928E-02 0.  1.
        1   -1    0    0  501    0  0.00000000000E+00  0.00000000000E+00 -0.14881910108E+04  0.14881910108E+04  0.50400001928E-02 0. -1.
    10030    2    1    2    0    0  0.00000000000E+00  0.00000000000E+00  0.23818047468E+03  0.32145624964E+04  0.32057264550E+04 0.  0.
        5    1    3    3  502    0 -0.79126262787E+02 -0.10995738139E+04  0.12858371514E+04  0.16937304412E+04  0.46999998093E+01 0.  1.
       -5    1    3    3    0  502  0.79126262787E+02  0.10995738139E+04 -0.10476566768E+04  0.15208320551E+04  0.46999998093E+01 0. -1.
</event>
<event>
 5   0  0.3656086E-06  0.3178342E+04  0.7818609E-02  0.8194560E-01
        2   -1    0    0  501    0  0.00000000000E+00  0.00000000000E+00  0.18868460686E+04  0.18868460686E+04  0.25500000920E-02 0. -1.
       -2   -1    0    0    0  501  0.00000000000E+00  0.00000000000E+00 -0.13384582490E+04  0.13384582490E+04  0.25500000920E-02 0.  1.
    10030    2    1    2    0    0  0.00000000000E+00  0.00000000000E+00  0.54838781957E+03  0.32253043175E+04  0.31783421370E+04 0.  0.
        3    1    3    3  502    0 -0.22319959803E+03  0.15317258600E+03  0.18632771528E+04  0.18828387238E+04  0.10100000352E+00 0. -1.
       -3    1    3    3    0  502  0.22319959803E+03 -0.15317258600E+03 -0.13148893332E+04  0.13424655937E+04  0.10100000352E+00 0.  1.
</event>
<event>
 5   0  0.1268836E-06  0.3270804E+04  0.7818609E-02  0.8170364E-01
        1   -1    0    0  501    0  0.00000000000E+00  0.00000000000E+00  0.17475554359E+04  0.17475554359E+04  0.50400001928E-02 0.  1.
       -1   -1    0    0    0  501  0.00000000000E+00  0.00000000000E+00 -0.15304463050E+04  0.15304463050E+04  0.50400001928E-02 0. -1.
    10030    2    1    2    0    0  0.00000000000E+00  0.00000000000E+00  0.21710913089E+03  0.32780017408E+04  0.32708040354E+04 0.  0.
        1    1    3    3  502    0 -0.52268376274E+03  0.14300550842E+04  0.70676330522E+03  0.16786215265E+04  0.50400001928E-02 0.  1.
       -1    1    3    3    0  502  0.52268376274E+03 -0.14300550842E+04 -0.48965417433E+03  0.15993802143E+04  0.50400001928E-02 0. -1.
</event>
<event>
 5   0  0.1306843E-06  0.3012551E+04  0.7818609E-02  0.8240156E-01
        1   -1    0    0  501    0  0.00000000000E+00  0.00000000000E+00  0.10106235036E+04  0.10106235036E+04  0.50400001928E-02 0.  1.
       -1   -1    0    0    0  501  0.00000000000E+00  0.00000000000E+00 -0.22450153489E+04  0.22450153490E+04  0.50400001928E-02 0. -1.
    10030    2    1    2    0    0  0.00000000000E+00  0.00000000000E+00 -0.12343918454E+04  0.32556388525E+04  0.30125505988E+04 0.  0.
        5    1    3    3  502    0  0.63229609399E+02 -0.58846875748E+03 -0.21140808059E+04  0.21953708584E+04  0.46999998093E+01 0. -1.
       -5    1    3    3    0  502 -0.63229609399E+02  0.58846875748E+03  0.87968896053E+03  0.10602679941E+04  0.46999998093E+01 0.  1.
</event>
<event>
 5   0  0.3745943E-06  0.3234794E+04  0.7818609E-02  0.8179688E-01
        2   -1    0    0  501    0  0.00000000000E+00  0.00000000000E+00  0.15337659265E+04  0.15337659265E+04  0.25500000920E-02 0.  1.
       -2   -1    0    0    0  501  0.00000000000E+00  0.00000000000E+00 -0.17055878110E+04  0.17055878110E+04  0.25500000920E-02 0. -1.
    10030    2    1    2    0    0  0.00000000000E+00  0.00000000000E+00 -0.17182188455E+03  0.32393537375E+04  0.32347936374E+04 0.  0.
        5    1    3    3  502    0  0.82943438077E+03  0.46039143686E+03 -0.13977304061E+04  0.16892584306E+04  0.46999998093E+01 0. -1.
       -5    1    3    3    0  502 -0.82943438077E+03 -0.46039143686E+03  0.12259085216E+04  0.15500953069E+04  0.46999998093E+01 0.  1.
</event>
<event>
 5   0  0.1268836E-06  0.3203330E+04  0.7818609E-02  0.8187938E-01
       -1   -1    0    0    0  501  0.00000000000E+00  0.00000000000E+00  0.15870556101E+04  0.15870556101E+04  0.50400001928E-02 0. -1.
        1   -1    0    0  501    0  0.00000000000E+00  0.00000000000E+00 -0.16164086935E+04  0.16164086935E+04  0.50400001928E-02 0.  1.
    10030    2    1    2    0    0  0.00000000000E+00  0.00000000000E+00 -0.29353083434E+02  0.32034643036E+04  0.32033298208E+04 0.  0.
        1    1    3    3  502    0  0.56211386725E+03  0.25911911400E+03 -0.14919710291E+04  0.16152684813E+04  0.50400001928E-02 0.  1.
       -1    1    3    3    0  502 -0.56211386725E+03 -0.25911911400E+03  0.14626179457E+04  0.15881958223E+04  0.50400001928E-02 0. -1.
</event>
<event>
 5   0  0.1306843E-06  0.2635073E+04  0.7818609E-02  0.8356384E-01
        1   -1    0    0  501    0  0.00000000000E+00  0.00000000000E+00  0.15899206910E+04  0.15899206910E+04  0.50400001928E-02 0.  1.
       -1   -1    0    0    0  501  0.00000000000E+00  0.00000000000E+00 -0.10918171974E+04  0.10918171975E+04  0.50400001928E-02 0. -1.
    10030    2    1    2    0    0  0.00000000000E+00  0.00000000000E+00  0.49810349356E+03  0.26817378885E+04  0.26350732461E+04 0.  0.
        5    1    3    3  502    0 -0.21057755610E+03  0.11751166991E+04  0.81627140800E+03  0.14462237949E+04  0.46999998093E+01 0.  1.
       -5    1    3    3    0  502  0.21057755610E+03 -0.11751166991E+04 -0.31816791445E+03  0.12355140935E+04  0.46999998093E+01 0. -1.
</event>
<event>
 5   0  0.1240725E-06  0.3161736E+04  0.7818609E-02  0.8198996E-01
       -1   -1    0    0    0  501  0.00000000000E+00  0.00000000000E+00  0.14455426583E+04  0.14455426584E+04  0.50400001928E-02 0. -1.
        1   -1    0    0  501    0  0.00000000000E+00  0.00000000000E+00 -0.17288614242E+04  0.17288614242E+04  0.50400001928E-02 0.  1.
    10030    2    1    2    0    0  0.00000000000E+00  0.00000000000E+00 -0.28331876583E+03  0.31744040825E+04  0.31617355608E+04 0.  0.
        3    1    3    3  502    0  0.14538487762E+04 -0.61315762387E+03 -0.23954048783E+03  0.15959380286E+04  0.10100000352E+00 0. -1.
       -3    1    3    3    0  502 -0.14538487762E+04  0.61315762387E+03 -0.43778278003E+02  0.15784660539E+04  0.10100000352E+00 0.  1.
</event>
<event>
 5   0  0.3497546E-06  0.3227956E+04  0.7818609E-02  0.8181473E-01
       -2   -1    0    0    0  501  0.00000000000E+00  0.00000000000E+00  0.13332367943E+04  0.13332367943E+04  0.25500000920E-02 0. -1.
        2   -1    0    0  501    0  0.00000000000E+00  0.00000000000E+00 -0.19538348460E+04  0.19538348460E+04  0.25500000920E-02 0.  1.
    10030    2    1    2    0    0  0.00000000000E+00  0.00000000000E+00 -0.62059805170E+03  0.32870716402E+04  0.32279557039E+04 0.  0.
        4    1    3    3  502    0 -0.74180954252E+03  0.54037656680E+03  0.10416575925E+04  0.13882868523E+04  0.12699999809E+01 0. -1.
       -4    1    3    3    0  502  0.74180954252E+03 -0.54037656680E+03 -0.16622556442E+04  0.18987847879E+04  0.12699999809E+01 0.  1.
</event>
<event>
 5   0  0.1273754E-06  0.3109754E+04  0.7818609E-02  0.8213066E-01
       -1   -1    0    0    0  501  0.00000000000E+00  0.00000000000E+00  0.10869039556E+04  0.10869039556E+04  0.50400001928E-02 0.  1.
        1   -1    0    0  501    0  0.00000000000E+00  0.00000000000E+00 -0.22243383411E+04  0.22243383411E+04  0.50400001928E-02 0. -1.
    10030    2    1    2    0    0  0.00000000000E+00  0.00000000000E+00 -0.11374343855E+04  0.33112422967E+04  0.31097537791E+04 0.  0.
        2    1    3    3  502    0 -0.10003845854E+04  0.11577410427E+04 -0.86324059156E+03  0.17567919511E+04  0.25500000920E-02 0. -1.
       -2    1    3    3    0  502  0.10003845854E+04 -0.11577410427E+04 -0.27419379396E+03  0.15544503457E+04  0.25500000920E-02 0.  1.
</event>
<event>
 5   0  0.1185575E-06  0.2597482E+04  0.7818609E-02  0.8369057E-01
       -3   -1    0    0    0  501  0.00000000000E+00  0.00000000000E+00  0.20415431726E+04  0.20415431751E+04  0.10100000352E+00 0. -1.
        3   -1    0    0  501    0  0.00000000000E+00  0.00000000000E+00 -0.82620257176E+03  0.82620257793E+03  0.10100000352E+00 0.  1.
    10030    2    1    2    0    0  0.00000000000E+00  0.00000000000E+00  0.12153406008E+04  0.28677457530E+04  0.25974820361E+04 0.  0.
        3    1    3    3  502    0  0.11990651272E+04  0.29499865572E+03  0.16337233359E+03  0.12455809551E+04  0.10100000352E+00 0.  1.
       -3    1    3    3    0  502 -0.11990651272E+04 -0.29499865572E+03  0.10519682672E+04  0.16221647979E+04  0.10100000352E+00 0. -1.
</event>
<event>
 5   0  0.3531437E-06  0.3333816E+04  0.7818609E-02  0.8154344E-01
       -2   -1    0    0    0  501  0.00000000000E+00  0.00000000000E+00  0.15318254063E+04  0.15318254063E+04  0.25500000920E-02 0.  1.
        2   -1    0    0  501    0  0.00000000000E+00  0.00000000000E+00 -0.18139024692E+04  0.18139024692E+04  0.25500000920E-02 0. -1.
    10030    2    1    2    0    0  0.00000000000E+00  0.00000000000E+00 -0.28207706288E+03  0.33457278756E+04  0.33338157640E+04 0.  0.
        1    1    3    3  502    0  0.25068160948E+03 -0.91952644158E+03  0.12314047594E+04  0.15571537585E+04  0.50400001928E-02 0.  1.
       -1    1    3    3    0  502 -0.25068160948E+03  0.91952644158E+03 -0.15134818222E+04  0.17885741171E+04  0.50400001928E-02 0. -1.
</event>
<event>
 5   0  0.3497546E-06  0.3000448E+04  0.7818609E-02  0.8243603E-01
       -2   -1    0    0    0  501  0.00000000000E+00  0.00000000000E+00  0.10182327754E+04  0.10182327754E+04  0.25500000920E-02 0. -1.
        2   -1    0    0  501    0  0.00000000000E+00  0.00000000000E+00 -0.22103715083E+04  0.22103715083E+04  0.25500000920E-02 0.  1.
    10030    2    1    2    0    0  0.00000000000E+00  0.00000000000E+00 -0.11921387328E+04  0.32286042837E+04  0.30004484436E+04 0.  0.
        4    1    3    3  502    0  0.14752124706E+04 -0.13436249466E+03 -0.85153778362E+03  0.17086320034E+04  0.12699999809E+01 0.  1.
       -4    1    3    3    0  502 -0.14752124706E+04  0.13436249466E+03 -0.34060094922E+03  0.15199722803E+04  0.12699999809E+01 0. -1.
</event>
<event>
 5   0  0.3497546E-06  0.2564159E+04  0.7818609E-02  0.8380479E-01
       -2   -1    0    0    0  501  0.00000000000E+00  0.00000000000E+00  0.67049218037E+03  0.67049218037E+03  0.25500000920E-02 0. -1.
        2   -1    0    0  501    0  0.00000000000E+00  0.00000000000E+00 -0.24515236505E+04  0.24515236505E+04  0.25500000920E-02 0.  1.
    10030    2    1    2    0    0  0.00000000000E+00  0.00000000000E+00 -0.17810314702E+04  0.31220158309E+04  0.25641586828E+04 0.  0.
        4    1    3    3  502    0  0.23933846554E+03  0.11910633011E+04 -0.13892860435E+04  0.18455438255E+04  0.12699999809E+01 0.  1.
       -4    1    3    3    0  502 -0.23933846554E+03 -0.11910633011E+04 -0.39174542667E+03  0.12764720054E+04  0.12699999809E+01 0. -1.
</event>
<event>
 5   0  0.3497546E-06  0.2922101E+04  0.7818609E-02  0.8266332E-01
       -2   -1    0    0    0  501  0.00000000000E+00  0.00000000000E+00  0.12362892258E+04  0.12362892258E+04  0.25500000920E-02 0.  1.
        2   -1    0    0  501    0  0.00000000000E+00  0.00000000000E+00 -0.17266738556E+04  0.17266738556E+04  0.25500000920E-02 0. -1.
    10030    2    1    2    0    0  0.00000000000E+00  0.00000000000E+00 -0.49038462977E+03  0.29629630814E+04  0.29221008088E+04 0.  0.
        4    1    3    3  502    0 -0.57876579216E+03 -0.49221461662E+03 -0.15106107076E+04  0.16909143662E+04  0.12699999809E+01 0. -1.
       -4    1    3    3    0  502  0.57876579216E+03  0.49221461662E+03  0.10202260778E+04  0.12720487152E+04  0.12699999809E+01 0.  1.
</event>
<event>
 5   0  0.3656086E-06  0.3549670E+04  0.7818609E-02  0.8102119E-01
       -2   -1    0    0    0  501  0.00000000000E+00  0.00000000000E+00  0.15800164243E+04  0.15800164243E+04  0.25500000920E-02 0. -1.
        2   -1    0    0  501    0  0.00000000000E+00  0.00000000000E+00 -0.19936749045E+04  0.19936749045E+04  0.25500000920E-02 0.  1.
    10030    2    1    2    0    0  0.00000000000E+00  0.00000000000E+00 -0.41365848019E+03  0.35736913289E+04  0.35496698968E+04 0.  0.
        3    1    3    3  502    0 -0.13966760323E+04  0.69343724353E+03 -0.10601973169E+04  0.18856239050E+04  0.10100000352E+00 0.  1.
       -3    1    3    3    0  502  0.13966760323E+04 -0.69343724353E+03  0.64653883673E+03  0.16880674239E+04  0.10100000352E+00 0. -1.
</event>
<event>
 5   0  0.1240725E-06  0.3146739E+04  0.7818609E-02  0.8203027E-01
        1   -1    0    0  501    0  0.00000000000E+00  0.00000000000E+00  0.73237223024E+03  0.73237223025E+03  0.50400001928E-02 0.  1.
       -1   -1    0    0    0  501  0.00000000000E+00  0.00000000000E+00 -0.33800994785E+04  0.33800994785E+04  0.50400001928E-02 0. -1.
    10030    2    1    2    0    0  0.00000000000E+00  0.00000000000E+00 -0.26477272483E+04  0.41124717088E+04  0.31467386250E+04 0.  0.
        3    1    3    3  502    0 -0.35519538998E+03 -0.13074671698E+02  0.67921596824E+03  0.76659575646E+03  0.10100000352E+00 0.  1.
       -3    1    3    3    0  502  0.35519538998E+03  0.13074671698E+02 -0.33269432165E+04  0.33458759523E+04  0.10100000352E+00 0. -1.
</event>
<event>
 5   0  0.1273980E-06  0.3176415E+04  0.7818609E-02  0.8195074E-01
       -1   -1    0    0    0  501  0.00000000000E+00  0.00000000000E+00  0.19431115582E+04  0.19431115582E+04  0.50400001928E-02 0.  1.
        1   -1    0    0  501    0  0.00000000000E+00  0.00000000000E+00 -0.12981261127E+04  0.12981261127E+04  0.50400001928E-02 0. -1.
    10030    2    1    2    0    0  0.00000000000E+00  0.00000000000E+00  0.64498544547E+03  0.32412376709E+04  0.31764154978E+04 0.  0.
        4    1    3    3  502    0  0.52134646962E+03  0.69354983728E+03 -0.10349132083E+04  0.13505037874E+04  0.12699999809E+01 0. -1.
       -4    1    3    3    0  502 -0.52134646962E+03 -0.69354983728E+03  0.16798986538E+04  0.18907338835E+04  0.12699999809E+01 0.  1.
</event>
<event>
 5   0  0.3656086E-06  0.3184809E+04  0.7818609E-02  0.8192841E-01
       -2   -1    0    0    0  501  0.00000000000E+00  0.00000000000E+00  0.11723847320E+04  0.11723847320E+04  0.25500000920E-02 0. -1.
        2   -1    0    0  501    0  0.00000000000E+00  0.00000000000E+00 -0.21629006725E+04  0.21629006725E+04  0.25500000920E-02 0.  1.
    10030    2    1    2    0    0  0.00000000000E+00  0.00000000000E+00 -0.99051594051E+03  0.33352854045E+04  0.31848087699E+04 0.  0.
        3    1    3    3  502    0 -0.20214266193E+03 -0.12762313354E+04 -0.14698875504E+04  0.19570890369E+04  0.10100000352E+00 0.  1.
       -3    1    3    3    0  502  0.20214266193E+03  0.12762313354E+04  0.47937160990E+03  0.13781963676E+04  0.10100000352E+00 0. -1.
</event>
<event>
 5   0  0.3758062E-06  0.2986131E+04  0.7818609E-02  0.8247702E-01
        2   -1    0    0  501    0  0.00000000000E+00  0.00000000000E+00  0.18237204543E+04  0.18237204543E+04  0.25500000920E-02 0.  1.
       -2   -1    0    0    0  501  0.00000000000E+00  0.00000000000E+00 -0.12223611965E+04  0.12223611965E+04  0.25500000920E-02 0. -1.
    10030    2    1    2    0    0  0.00000000000E+00  0.00000000000E+00  0.60135925775E+03  0.30460816508E+04  0.29861313545E+04 0.  0.
        2    1    3    3  502    0  0.14172015766E+04  0.18880532938E+03  0.73959385850E+03  0.16096915346E+04  0.25500000920E-02 0.  1.
       -2    1    3    3    0  502 -0.14172015766E+04 -0.18880532938E+03 -0.13823460076E+03  0.14363901162E+04  0.25500000920E-02 0. -1.
</event>
<event>
 5   0  0.1268836E-06  0.3183995E+04  0.7818609E-02  0.8193057E-01
       -1   -1    0    0    0  501  0.00000000000E+00  0.00000000000E+00  0.18598130281E+04  0.18598130281E+04  0.50400001928E-02 0. -1.
        1   -1    0    0  501    0  0.00000000000E+00  0.00000000000E+00 -0.13627480745E+04  0.13627480745E+04  0.50400001928E-02 0.  1.
    10030    2    1    2    0    0  0.00000000000E+00  0.00000000000E+00  0.49706495358E+03  0.32225611026E+04  0.31839953662E+04 0.  0.
        1    1    3    3  502    0 -0.98488641125E+03  0.99875628724E+02  0.15104220051E+04  0.18059210996E+04  0.50400001928E-02 0. -1.
       -1    1    3    3    0  502  0.98488641125E+03 -0.99875628724E+02 -0.10133570516E+04  0.14166400031E+04  0.50400001928E-02 0.  1.
</event>
<event>
 5   0  0.3531437E-06  0.3157030E+04  0.7818609E-02  0.8200259E-01
       -2   -1    0    0    0  501  0.00000000000E+00  0.00000000000E+00  0.12413784492E+04  0.12413784492E+04  0.25500000920E-02 0. -1.
        2   -1    0    0  501    0  0.00000000000E+00  0.00000000000E+00 -0.20072113731E+04  0.20072113731E+04  0.25500000920E-02 0.  1.
    10030    2    1    2    0    0  0.00000000000E+00  0.00000000000E+00 -0.76583292387E+03  0.32485898223E+04  0.31570295795E+04 0.  0.
        1    1    3    3  502    0 -0.43648358771E+03  0.18040867978E+02  0.11779359822E+04  0.12563345787E+04  0.50400001928E-02 0. -1.
       -1    1    3    3    0  502  0.43648358771E+03 -0.18040867978E+02 -0.19437689061E+04  0.19922552436E+04  0.50400001928E-02 0.  1.
</event>
<event>
 5   0  0.1273754E-06  0.3169620E+04  0.7818609E-02  0.8196887E-01
       -1   -1    0    0    0  501  0.00000000000E+00  0.00000000000E+00  0.92714371581E+03  0.92714371583E+03  0.50400001928E-02 0. -1.
        1   -1    0    0  501    0  0.00000000000E+00  0.00000000000E+00 -0.27089895325E+04  0.27089895325E+04  0.50400001928E-02 0.  1.
    10030    2    1    2    0    0  0.00000000000E+00  0.00000000000E+00 -0.17818458167E+04  0.36361332483E+04  0.31696199276E+04 0.  0.
        2    1    3    3  502    0 -0.47461804752E+03  0.13586756440E+04 -0.16521897950E+04  0.21911168192E+04  0.25500000920E-02 0. -1.
       -2    1    3    3    0  502  0.47461804752E+03 -0.13586756440E+04 -0.12965602172E+03  0.14450164292E+04  0.25500000920E-02 0.  1.
</event>
<event>
 5   0  0.3745943E-06  0.3205657E+04  0.7818609E-02  0.8187325E-01
        2   -1    0    0  501    0  0.00000000000E+00  0.00000000000E+00  0.27356272391E+04  0.27356272391E+04  0.25500000920E-02 0. -1.
       -2   -1    0    0    0  501  0.00000000000E+00  0.00000000000E+00 -0.93911158283E+03  0.93911158283E+03  0.25500000920E-02 0.  1.
    10030    2    1    2    0    0  0.00000000000E+00  0.00000000000E+00  0.17965156562E+04  0.36747388219E+04  0.32056570163E+04 0.  0.
        5    1    3    3  502    0  0.12031147917E+04 -0.49716358466E+03 -0.17365534189E+03  0.13133297757E+04  0.46999998093E+01 0.  1.
       -5    1    3    3    0  502 -0.12031147917E+04  0.49716358466E+03  0.19701709981E+04  0.23614090462E+04  0.46999998093E+01 0. -1.
</event>
<event>
 5   0  0.1273754E-06  0.3202821E+04  0.7818609E-02  0.8188073E-01
       -1   -1    0    0    0  501  0.00000000000E+00  0.00000000000E+00  0.24323773961E+04  0.24323773961E+04  0.50400001928E-02 0. -1.
        1   -1    0    0  501    0  0.00000000000E+00  0.00000000000E+00 -0.10543246890E+04  0.10543246890E+04  0.50400001928E-02 0.  1.
    10030    2    1    2    0    0  0.00000000000E+00  0.00000000000E+00  0.13780527071E+04  0.34867020851E+04  0.32028209701E+04 0.  0.
        2    1    3    3  502    0 -0.14837240905E+04 -0.17614506260E+03  0.61712673191E+02  0.14954172374E+04  0.25500000920E-02 0.  1.
       -2    1    3    3    0  502  0.14837240905E+04  0.17614506260E+03  0.13163400339E+04  0.19912848477E+04  0.25500000920E-02 0. -1.
</event>
<event>
 5   0  0.1240725E-06  0.3196676E+04  0.7818609E-02  0.8189695E-01
        1   -1    0    0  501    0  0.00000000000E+00  0.00000000000E+00  0.17022206950E+04  0.17022206950E+04  0.50400001928E-02 0. -1.
       -1   -1    0    0    0  501  0.00000000000E+00  0.00000000000E+00 -0.15007954918E+04  0.15007954918E+04  0.50400001928E-02 0.  1.
    10030    2    1    2    0    0  0.00000000000E+00  0.00000000000E+00  0.20142520313E+03  0.32030161868E+04  0.31966764898E+04 0.  0.
        3    1    3    3  502    0 -0.13743853285E+03  0.15608040006E+04  0.41707070329E+03  0.16214026213E+04  0.10100000352E+00 0. -1.
       -3    1    3    3    0  502  0.13743853285E+03 -0.15608040006E+04 -0.21564550015E+03  0.15816135655E+04  0.10100000352E+00 0.  1.
</event>
<event>
 5   0  0.1306843E-06  0.3087253E+04  0.7818609E-02  0.8219245E-01
       -1   -1    0    0    0  501  0.00000000000E+00  0.00000000000E+00  0.93059782501E+03  0.93059782502E+03  0.50400001928E-02 0.  1.
        1   -1    0    0  501    0  0.00000000000E+00  0.00000000000E+00 -0.25604859030E+04  0.25604859030E+04  0.50400001928E-02 0. -1.
    10030    2    1    2    0    0  0.00000000000E+00  0.00000000000E+00 -0.16298880780E+04  0.34910837280E+04  0.30872528969E+04 0.  0.
        5    1    3    3  502    0  0.68951651423E+03  0.53224391527E+03  0.62613214914E+03  0.10727442225E+04  0.46999998093E+01 0.  1.
       -5    1    3    3    0  502 -0.68951651423E+03 -0.53224391527E+03 -0.22560202271E+04  0.24183395055E+04  0.46999998093E+01 0. -1.
</event>
<event>
 5   0  0.3531437E-06  0.3182833E+04  0.7818609E-02  0.8193366E-01
        2   -1    0    0  501    0  0.00000000000E+00  0.00000000000E+00  0.14534296354E+04  0.14534296354E+04  0.25500000920E-02 0.  1.
       -2   -1    0    0    0  501  0.00000000000E+00  0.00000000000E+00 -0.17425038989E+04  0.17425038989E+04  0.25500000920E-02 0. -1.
    10030    2    1    2    0    0  0.00000000000E+00  0.00000000000E+00 -0.28907426351E+03  0.31959335344E+04  0.31828332074E+04 0.  0.
        1    1    3    3  502    0  0.12735028723E+04 -0.40229101571E+03 -0.10135234370E+04  0.16765671428E+04  0.50400001928E-02 0. -1.
       -1    1    3    3    0  502 -0.12735028723E+04  0.40229101571E+03  0.72444917344E+03  0.15193663916E+04  0.50400001928E-02 0.  1.
</event>
<event>
 5   0  0.1240725E-06  0.3286158E+04  0.7818609E-02  0.8166426E-01
        1   -1    0    0  501    0  0.00000000000E+00  0.00000000000E+00  0.15546148853E+04  0.15546148853E+04  0.50400001928E-02 0.  1.
       -1   -1    0    0    0  501  0.00000000000E+00  0.00000000000E+00 -0.17365772313E+04  0.17365772313E+04  0.50400001928E-02 0. -1.
    10030    2    1    2    0    0  0.00000000000E+00  0.00000000000E+00 -0.18196234600E+03  0.32911921166E+04  0.32861581296E+04 0.  0.
        3    1    3    3  502    0 -0.22851863156E+03 -0.15862029156E+04 -0.45409462956E+03  0.16656717555E+04  0.10100000352E+00 0.  1.
       -3    1    3    3    0  502  0.22851863156E+03  0.15862029156E+04  0.27213228356E+03  0.16255203611E+04  0.10100000352E+00 0. -1.
</event>
<event>
 5   0  0.3758062E-06  0.3278216E+04  0.7818609E-02  0.8168460E-01
        2   -1    0    0  501    0  0.00000000000E+00  0.00000000000E+00  0.18338395191E+04  0.18338395191E+04  0.25500000920E-02 0.  1.
       -2   -1    0    0    0  501  0.00000000000E+00  0.00000000000E+00 -0.14650548631E+04  0.14650548631E+04  0.25500000920E-02 0. -1.
    10030    2    1    2    0    0  0.00000000000E+00  0.00000000000E+00  0.36878465596E+03  0.32988943822E+04  0.32782162867E+04 0.  0.
        2    1    3    3  502    0 -0.81546553019E+03  0.96785849366E+03  0.12325676987E+04  0.17666231139E+04  0.25500000920E-02 0.  1.
       -2    1    3    3    0  502  0.81546553019E+03 -0.96785849366E+03 -0.86378304272E+03  0.15322712683E+04  0.25500000920E-02 0. -1.
</event>
<event>
 5   0  0.1273980E-06  0.3168871E+04  0.7818609E-02  0.8197087E-01
       -1   -1    0    0    0  501  0.00000000000E+00  0.00000000000E+00  0.95835465078E+03  0.95835465079E+03  0.50400001928E-02 0. -1.
        1   -1    0    0  501    0  0.00000000000E+00  0.00000000000E+00 -0.26195268091E+04  0.26195268091E+04  0.50400001928E-02 0.  1.
    10030    2    1    2    0    0  0.00000000000E+00  0.00000000000E+00 -0.16611721583E+04  0.35778814599E+04  0.31688709033E+04 0.  0.
        4    1    3    3  502    0  0.58407025546E+03 -0.57819332244E+03 -0.23600459090E+04  0.24990525978E+04  0.12699999809E+01 0.  1.
       -4    1    3    3    0  502 -0.58407025546E+03  0.57819332244E+03  0.69887375063E+03  0.10788288621E+04  0.12699999809E+01 0. -1.
</event>
<event>
 5   0  0.1306843E-06  0.3395176E+04  0.7818609E-02  0.8139091E-01
        1   -1    0    0  501    0  0.00000000000E+00  0.00000000000E+00  0.23286157422E+04  0.23286157422E+04  0.50400001928E-02 0. -1.
       -1   -1    0    0    0  501  0.00000000000E+00  0.00000000000E+00 -0.12375611551E+04  0.12375611551E+04  0.50400001928E-02 0.  1.
    10030    2    1    2    0    0  0.00000000000E+00  0.00000000000E+00  0.10910545871E+04  0.35661768973E+04  0.33951756289E+04 0.  0.
        5    1    3    3  502    0 -0.35443132249E+03  0.11129744424E+04 -0.74836353879E+03  0.13872288016E+04  0.46999998093E+01 0.  1.
       -5    1    3    3    0  502  0.35443132249E+03 -0.11129744424E+04  0.18394181259E+04  0.21789480957E+04  0.46999998093E+01 0. -1.
</event>
<event>
 5   0  0.3745943E-06  0.2982247E+04  0.7818609E-02  0.8248819E-01
       -2   -1    0    0    0  501  0.00000000000E+00  0.00000000000E+00  0.11277209342E+04  0.11277209342E+04  0.25500000920E-02 0. -1.
        2   -1    0    0  501    0  0.00000000000E+00  0.00000000000E+00 -0.19716306418E+04  0.19716306418E+04  0.25500000920E-02 0.  1.
    10030    2    1    2    0    0  0.00000000000E+00  0.00000000000E+00 -0.84390970763E+03  0.30993515760E+04  0.29822469041E+04 0.  0.
        5    1    3    3  502    0 -0.89304018102E+03 -0.45832073619E+03  0.72399855353E+03  0.12376488426E+04  0.46999998093E+01 0. -1.
       -5    1    3    3    0  502  0.89304018102E+03  0.45832073619E+03 -0.15679082612E+04  0.18617027334E+04  0.46999998093E+01 0.  1.
</event>
<event>
 5   0  0.1306843E-06  0.3217411E+04  0.7818609E-02  0.8184234E-01
       -1   -1    0    0    0  501  0.00000000000E+00  0.00000000000E+00  0.95044928714E+03  0.95044928716E+03  0.50400001928E-02 0. -1.
        1   -1    0    0  501    0  0.00000000000E+00  0.00000000000E+00 -0.27228523224E+04  0.27228523224E+04  0.50400001928E-02 0.  1.
    10030    2    1    2    0    0  0.00000000000E+00  0.00000000000E+00 -0.17724030352E+04  0.36733016096E+04  0.32174107906E+04 0.  0.
        5    1    3    3  502    0  0.45947943554E+03  0.15376547228E+04 -0.10133740379E+04  0.18980127578E+04  0.46999998093E+01 0.  1.
       -5    1    3    3    0  502 -0.45947943554E+03 -0.15376547228E+04 -0.75902899732E+03  0.17752888517E+04  0.46999998093E+01 0. -1.
</event>
<event>
 5   0  0.1273754E-06  0.2994331E+04  0.7818609E-02  0.8245352E-01
        1   -1    0    0  501    0  0.00000000000E+00  0.00000000000E+00  0.22599614755E+04  0.22599614755E+04  0.50400001928E-02 0. -1.
       -1   -1    0    0    0  501  0.00000000000E+00  0.00000000000E+00 -0.99183315013E+03  0.99183315014E+03  0.50400001928E-02 0.  1.
    10030    2    1    2    0    0  0.00000000000E+00  0.00000000000E+00  0.12681283254E+04  0.32517946256E+04  0.29943311169E+04 0.  0.
        2    1    3    3  502    0 -0.90432096342E+03 -0.59479611881E+03  0.17573754740E+04  0.20639639979E+04  0.25500000920E-02 0. -1.
       -2    1    3    3    0  502  0.90432096342E+03  0.59479611881E+03 -0.48924714864E+03  0.11878306278E+04  0.25500000920E-02 0.  1.
</event>
<event>
 5   0  0.3531437E-06  0.3274324E+04  0.7818609E-02  0.8169460E-01
        2   -1    0    0  501    0  0.00000000000E+00  0.00000000000E+00  0.23773410875E+04  0.23773410875E+04  0.25500000920E-02 0.  1.
       -2   -1    0    0    0  501  0.00000000000E+00  0.00000000000E+00 -0.11274355828E+04  0.11274355828E+04  0.25500000920E-02 0. -1.
    10030    2    1    2    0    0  0.00000000000E+00  0.00000000000E+00  0.12499055047E+04  0.35047766703E+04  0.32743237070E+04 0.  0.
        1    1    3    3  502    0  0.10578222079E+04  0.76349757904E+03  0.16837019338E+04  0.21299691497E+04  0.50400001928E-02 0.  1.
       -1    1    3    3    0  502 -0.10578222079E+04 -0.76349757904E+03 -0.43379642908E+03  0.13748075206E+04  0.50400001928E-02 0. -1.
</event>
<event>
 5   0  0.1273980E-06  0.3233301E+04  0.7818609E-02  0.8180077E-01
       -1   -1    0    0    0  501  0.00000000000E+00  0.00000000000E+00  0.19457820269E+04  0.19457820269E+04  0.50400001928E-02 0. -1.
        1   -1    0    0  501    0  0.00000000000E+00  0.00000000000E+00 -0.13431919762E+04  0.13431919762E+04  0.50400001928E-02 0.  1.
    10030    2    1    2    0    0  0.00000000000E+00  0.00000000000E+00  0.60259005076E+03  0.32889740031E+04  0.32333009795E+04 0.  0.
        4    1    3    3  502    0  0.76714862625E+02 -0.78914868274E+03  0.17344244558E+04  0.19070581059E+04  0.12699999809E+01 0. -1.
       -4    1    3    3    0  502 -0.76714862625E+02  0.78914868274E+03 -0.11318344050E+04  0.13819158972E+04  0.12699999809E+01 0.  1.
</event>
<event>
 5   0  0.3531437E-06  0.3210062E+04  0.7818609E-02  0.8186165E-01
        2   -1    0    0  501    0  0.00000000000E+00  0.00000000000E+00  0.14897079882E+04  0.14897079882E+04  0.25500000920E-02 0. -1.
       -2   -1    0    0    0  501  0.00000000000E+00  0.00000000000E+00 -0.17292820586E+04  0.17292820586E+04  0.25500000920E-02 0.  1.
    10030    2    1    2    0    0  0.00000000000E+00  0.00000000000E+00 -0.23957407045E+03  0.32189900468E+04  0.32100624894E+04 0.  0.
        1    1    3    3  502    0  0.47360428647E+03  0.54727870885E+02 -0.16566383742E+04  0.17238755358E+04  0.50400001928E-02 0.  1.
       -1    1    3    3    0  502 -0.47360428647E+03 -0.54727870885E+02  0.14170643037E+04  0.14951145110E+04  0.50400001928E-02 0. -1.
</event>
<event>
 5   0  0.3531437E-06  0.3182443E+04  0.7818609E-02  0.8193469E-01
       -2   -1    0    0    0  501  0.00000000000E+00  0.00000000000E+00  0.14651298628E+04  0.14651298628E+04  0.25500000920E-02 0.  1.
        2   -1    0    0  501    0  0.00000000000E+00  0.00000000000E+00 -0.17281652029E+04  0.17281652029E+04  0.25500000920E-02 0. -1.
    10030    2    1    2    0    0  0.00000000000E+00  0.00000000000E+00 -0.26303534016E+03  0.31932950657E+04  0.31824433674E+04 0.  0.
        1    1    3    3  502    0  0.66304673256E+03  0.10832150206E+04 -0.10934317598E+04  0.16758814886E+04  0.50400001928E-02 0. -1.
       -1    1    3    3    0  502 -0.66304673256E+03 -0.10832150206E+04  0.83039641963E+03  0.15174135772E+04  0.50400001928E-02 0.  1.
</event>
<event>
 5   0  0.1273980E-06  0.3172224E+04  0.7818609E-02  0.8196191E-01
        1   -1    0    0  501    0  0.00000000000E+00  0.00000000000E+00  0.84598223452E+03  0.84598223453E+03  0.50400001928E-02 0.  1.
       -1   -1    0    0    0  501  0.00000000000E+00  0.00000000000E+00 -0.29737642939E+04  0.29737642939E+04  0.50400001928E-02 0. -1.
    10030    2    1    2    0    0  0.00000000000E+00  0.00000000000E+00 -0.21277820594E+04  0.38197465284E+04  0.31722243063E+04 0.  0.
        4    1    3    3  502    0  0.31461970547E+03  0.76030853387E+03 -0.26966631110E+04  0.28194056418E+04  0.12699999809E+01 0. -1.
       -4    1    3    3    0  502 -0.31461970547E+03 -0.76030853387E+03  0.56888105161E+03  0.10003408867E+04  0.12699999809E+01 0.  1.
</event>
<event>
 5   0  0.1240725E-06  0.3205974E+04  0.7818609E-02  0.8187241E-01
        1   -1    0    0  501    0  0.00000000000E+00  0.00000000000E+00  0.28129403013E+04  0.28129403013E+04  0.50400001928E-02 0.  1.
       -1   -1    0    0    0  501  0.00000000000E+00  0.00000000000E+00 -0.91348114853E+03  0.91348114854E+03  0.50400001928E-02 0. -1.
    10030    2    1    2    0    0  0.00000000000E+00  0.00000000000E+00  0.18994591527E+04  0.37264214498E+04  0.32059743837E+04 0.  0.
        3    1    3    3  502    0 -0.14426102374E+04 -0.54649558666E+03  0.14560952327E+04  0.21213191792E+04  0.10100000352E+00 0.  1.
       -3    1    3    3    0  502  0.14426102374E+04  0.54649558666E+03  0.44336392006E+03  0.16051022706E+04  0.10100000352E+00 0. -1.
</event>
<event>
 5   0  0.3497546E-06  0.3176628E+04  0.7818609E-02  0.8195017E-01
       -2   -1    0    0    0  501  0.00000000000E+00  0.00000000000E+00  0.10690692279E+04  0.10690692279E+04  0.25500000920E-02 0.  1.
        2   -1    0    0  501    0  0.00000000000E+00  0.00000000000E+00 -0.23597547637E+04  0.23597547637E+04  0.25500000920E-02 0. -1.
    10030    2    1    2    0    0  0.00000000000E+00  0.00000000000E+00 -0.12906855358E+04  0.34288239916E+04  0.31766278997E+04 0.  0.
        4    1    3    3  502    0 -0.62403491784E+03 -0.10478921390E+04  0.45290367222E+03  0.13010076337E+04  0.12699999809E+01 0.  1.
       -4    1    3    3    0  502  0.62403491784E+03  0.10478921390E+04 -0.17435892080E+04  0.21278163579E+04  0.12699999809E+01 0. -1.
</event>
<event>
 5   0  0.1273980E-06  0.2474388E+04  0.7818609E-02  0.8412167E-01
        1   -1    0    0  501    0  0.00000000000E+00  0.00000000000E+00  0.20188206048E+04  0.20188206048E+04  0.50400001928E-02 0.  1.
       -1   -1    0    0    0  501  0.00000000000E+00  0.00000000000E+00 -0.75818984754E+03  0.75818984755E+03  0.50400001928E-02 0. -1.
    10030    2    1    2    0    0  0.00000000000E+00  0.00000000000E+00  0.12606307572E+04  0.27770104523E+04  0.24743882368E+04 0.  0.
        4    1    3    3  502    0  0.30348909636E+03 -0.75262847836E+03  0.16783869156E+04  0.18642798903E+04  0.12699999809E+01 0.  1.
       -4    1    3    3    0  502 -0.30348909636E+03  0.75262847836E+03 -0.41775615839E+03  0.91273056200E+03  0.12699999809E+01 0. -1.
</event>
<event>
 5   0  0.1268836E-06  0.3177976E+04  0.7818609E-02  0.8194658E-01
       -1   -1    0    0    0  501  0.00000000000E+00  0.00000000000E+00  0.16239736923E+04  0.16239736923E+04  0.50400001928E-02 0. -1.
        1   -1    0    0  501    0  0.00000000000E+00  0.00000000000E+00 -0.15547559057E+04  0.15547559057E+04  0.50400001928E-02 0.  1.
    10030    2    1    2    0    0  0.00000000000E+00  0.00000000000E+00  0.69217786574E+02  0.31787295980E+04  0.31779758896E+04 0.  0.
        1    1    3    3  502    0  0.91431379628E+03  0.10209149405E+04  0.83894241635E+03  0.16068794017E+04  0.50400001928E-02 0. -1.
       -1    1    3    3    0  502 -0.91431379628E+03 -0.10209149405E+04 -0.76972462978E+03  0.15718501962E+04  0.50400001928E-02 0.  1.
</event>
<event>
 5   0  0.1306843E-06  0.2943910E+04  0.7818609E-02  0.8259932E-01
        1   -1    0    0  501    0  0.00000000000E+00  0.00000000000E+00  0.16570830905E+04  0.16570830905E+04  0.50400001928E-02 0.  1.
       -1   -1    0    0    0  501  0.00000000000E+00  0.00000000000E+00 -0.13075091923E+04  0.13075091923E+04  0.50400001928E-02 0. -1.
    10030    2    1    2    0    0  0.00000000000E+00  0.00000000000E+00  0.34957389825E+03  0.29645922828E+04  0.29439098989E+04 0.  0.
        5    1    3    3  502    0  0.92099789274E+03 -0.76782759802E+01 -0.98146653906E+03  0.13459549516E+04  0.46999998093E+01 0. -1.
       -5    1    3    3    0  502 -0.92099789274E+03  0.76782759802E+01  0.13310404373E+04  0.16186373312E+04  0.46999998093E+01 0.  1.
</event>
<event>
 5   0  0.3497546E-06  0.3175338E+04  0.7818609E-02  0.8195361E-01
       -2   -1    0    0    0  501  0.00000000000E+00  0.00000000000E+00  0.10211373608E+04  0.10211373608E+04  0.25500000920E-02 0. -1.
        2   -1    0    0  501    0  0.00000000000E+00  0.00000000000E+00 -0.24685153655E+04  0.24685153655E+04  0.25500000920E-02 0.  1.
    10030    2    1    2    0    0  0.00000000000E+00  0.00000000000E+00 -0.14473780047E+04  0.34896527263E+04  0.31753382594E+04 0.  0.
        4    1    3    3  502    0 -0.12119299329E+04 -0.58196104780E+03  0.20444290512E+03  0.13598718093E+04  0.12699999809E+01 0. -1.
       -4    1    3    3    0  502  0.12119299329E+04  0.58196104780E+03 -0.16518209098E+04  0.21297809170E+04  0.12699999809E+01 0.  1.
</event>
<event>
 5   0  0.3758062E-06  0.3229903E+04  0.7818609E-02  0.8180964E-01
        2   -1    0    0  501    0  0.00000000000E+00  0.00000000000E+00  0.12358521660E+04  0.12358521660E+04  0.25500000920E-02 0.  1.
       -2   -1    0    0    0  501  0.00000000000E+00  0.00000000000E+00 -0.21103402693E+04  0.21103402693E+04  0.25500000920E-02 0. -1.
    10030    2    1    2    0    0  0.00000000000E+00  0.00000000000E+00 -0.87448810334E+03  0.33461924354E+04  0.32299031520E+04 0.  0.
        2    1    3    3  502    0 -0.93194652877E+03 -0.10990973112E+04  0.31806561402E+03  0.14757049051E+04  0.25500000920E-02 0. -1.
       -2    1    3    3    0  502  0.93194652877E+03  0.10990973112E+04 -0.11925537174E+04  0.18704875303E+04  0.25500000920E-02 0.  1.
</event>
<event>
 5   0  0.1306843E-06  0.3147718E+04  0.7818609E-02  0.8202763E-01
       -1   -1    0    0    0  501  0.00000000000E+00  0.00000000000E+00  0.17033801910E+04  0.17033801910E+04  0.50400001928E-02 0. -1.
        1   -1    0    0  501    0  0.00000000000E+00  0.00000000000E+00 -0.14541866325E+04  0.14541866325E+04  0.50400001928E-02 0.  1.
    10030    2    1    2    0    0  0.00000000000E+00  0.00000000000E+00  0.24919355855E+03  0.31575668235E+04  0.31477183507E+04 0.  0.
        5    1    3    3  502    0 -0.14250599060E+03 -0.82435512791E+03 -0.12126687864E+04  0.14732470973E+04  0.46999998093E+01 0.  1.
       -5    1    3    3    0  502  0.14250599060E+03  0.82435512791E+03  0.14618623450E+04  0.16843197262E+04  0.46999998093E+01 0. -1.
</event>
<event>
 5   0  0.1268836E-06  0.3199292E+04  0.7818609E-02  0.8189004E-01
       -1   -1    0    0    0  501  0.00000000000E+00  0.00000000000E+00  0.23200770558E+04  0.23200770558E+04  0.50400001928E-02 0. -1.
        1   -1    0    0  501    0  0.00000000000E+00  0.00000000000E+00 -0.11029230890E+04  0.11029230890E+04  0.50400001928E-02 0.  1.
    10030    2    1    2    0    0  0.00000000000E+00  0.00000000000E+00  0.12171539668E+04  0.34230001448E+04  0.31992915173E+04 0.  0.
        1    1    3    3  502    0 -0.11629280574E+03 -0.13124452783E+04  0.15791051472E+04  0.20566014906E+04  0.50400001928E-02 0. -1.
       -1    1    3    3    0  502  0.11629280574E+03  0.13124452783E+04 -0.36195118047E+03  0.13663986542E+04  0.50400001928E-02 0.  1.
</event>
<event>
 5   0  0.3656086E-06  0.3251191E+04  0.7818609E-02  0.8175427E-01
       -2   -1    0    0    0  501  0.00000000000E+00  0.00000000000E+00  0.15854107789E+04  0.15854107789E+04  0.25500000920E-02 0.  1.
        2   -1    0    0  501    0  0.00000000000E+00  0.00000000000E+00 -0.16667990069E+04  0.16667990069E+04  0.25500000920E-02 0. -1.
    10030    2    1    2    0    0  0.00000000000E+00  0.00000000000E+00 -0.81388227951E+02  0.32522097858E+04  0.32511912351E+04 0.  0.
        3    1    3    3  502    0  0.14072335727E+04  0.13397331118E+03  0.76224404784E+03  0.16060109511E+04  0.10100000352E+00 0.  1.
       -3    1    3    3    0  502 -0.14072335727E+04 -0.13397331118E+03 -0.84363227579E+03  0.16461988347E+04  0.10100000352E+00 0. -1.
</event>
<event>
 5   0  0.3497546E-06  0.3212898E+04  0.7818609E-02  0.8185419E-01
       -2   -1    0    0    0  501  0.00000000000E+00  0.00000000000E+00  0.16996860072E+04  0.16996860072E+04  0.25500000920E-02 0.  1.
        2   -1    0    0  501    0  0.00000000000E+00  0.00000000000E+00 -0.15183262069E+04  0.15183262069E+04  0.25500000920E-02 0. -1.
    10030    2    1    2    0    0  0.00000000000E+00  0.00000000000E+00  0.18135980031E+03  0.32180122140E+04  0.32128976380E+04 0.  0.
        4    1    3    3  502    0 -0.25143495956E+03  0.67094777341E+03 -0.13494148046E+04  0.15278456667E+04  0.12699999809E+01 0. -1.
       -4    1    3    3    0  502  0.25143495956E+03 -0.67094777341E+03  0.15307746049E+04  0.16901665473E+04  0.12699999809E+01 0.  1.
</event>
<event>
 5   0  0.3497546E-06  0.3256834E+04  0.7818609E-02  0.8173967E-01
        2   -1    0    0  501    0  0.00000000000E+00  0.00000000000E+00  0.20060997441E+04  0.20060997442E+04  0.25500000920E-02 0. -1.
       -2   -1    0    0    0  501  0.00000000000E+00  0.00000000000E+00 -0.13218395480E+04  0.13218395480E+04  0.25500000920E-02 0.  1.
    10030    2    1    2    0    0  0.00000000000E+00  0.00000000000E+00  0.68426019617E+03  0.33279392921E+04  0.32568340326E+04 0.  0.
        4    1    3    3  502    0 -0.29125018290E+03  0.99049612865E+03  0.16289217516E+04  0.19285478826E+04  0.12699999809E+01 0. -1.
       -4    1    3    3    0  502  0.29125018290E+03 -0.99049612865E+03 -0.94466155538E+03  0.13993914095E+04  0.12699999809E+01 0.  1.
</event>
<event>
 5   0  0.1240725E-06  0.3233923E+04  0.7818609E-02  0.8179915E-01
        1   -1    0    0  501    0  0.00000000000E+00  0.00000000000E+00  0.21462334309E+04  0.21462334309E+04  0.50400001928E-02 0. -1.
       -1   -1    0    0    0  501  0.00000000000E+00  0.00000000000E+00 -0.12182103630E+04  0.12182103630E+04  0.50400001928E-02 0.  1.
    10030    2    1    2    0    0  0.00000000000E+00  0.00000000000E+00  0.92802306786E+03  0.33644437939E+04  0.32339225761E+04 0.  0.
        3    1    3    3  502    0 -0.65259876815E+03  0.35772800208E+02  0.20026892319E+04  0.21066392703E+04  0.10100000352E+00 0. -1.
       -3    1    3    3    0  502  0.65259876815E+03 -0.35772800208E+02 -0.10746661640E+04  0.12578045236E+04  0.10100000352E+00 0.  1.
</event>
<event>
 5   0  0.1240725E-06  0.3216074E+04  0.7818609E-02  0.8184585E-01
        1   -1    0    0  501    0  0.00000000000E+00  0.00000000000E+00  0.17497340076E+04  0.17497340076E+04  0.50400001928E-02 0.  1.
       -1   -1    0    0    0  501  0.00000000000E+00  0.00000000000E+00 -0.14778145053E+04  0.14778145053E+04  0.50400001928E-02 0. -1.
    10030    2    1    2    0    0  0.00000000000E+00  0.00000000000E+00  0.27191950229E+03  0.32275485129E+04  0.32160735669E+04 0.  0.
        3    1    3    3  502    0  0.24457911021E+03  0.14474948544E+04  0.79459554295E+03  0.16692640240E+04  0.10100000352E+00 0.  1.
       -3    1    3    3    0  502 -0.24457911021E+03 -0.14474948544E+04 -0.52267604066E+03  0.15582844889E+04  0.10100000352E+00 0. -1.
</event>
<event>
 5   0  0.1268836E-06  0.3170782E+04  0.7818609E-02  0.8196577E-01
        1   -1    0    0  501    0  0.00000000000E+00  0.00000000000E+00  0.23851926773E+04  0.23851926773E+04  0.50400001928E-02 0.  1.
       -1   -1    0    0    0  501  0.00000000000E+00  0.00000000000E+00 -0.10537781312E+04  0.10537781312E+04  0.50400001928E-02 0. -1.
    10030    2    1    2    0    0  0.00000000000E+00  0.00000000000E+00  0.13314145461E+04  0.34389708085E+04  0.31707815327E+04 0.  0.
        1    1    3    3  502    0  0.87874025120E+03 -0.77317130378E+03  0.18254923514E+04  0.21685019297E+04  0.50400001928E-02 0.  1.
       -1    1    3    3    0  502 -0.87874025120E+03  0.77317130378E+03 -0.49407780534E+03  0.12704688787E+04  0.50400001928E-02 0. -1.
</event>
<event>
 5   0  0.1273754E-06  0.3215775E+04  0.7818609E-02  0.8184663E-01
        1   -1    0    0  501    0  0.00000000000E+00  0.00000000000E+00  0.14470074034E+04  0.14470074034E+04  0.50400001928E-02 0.  1.
       -1   -1    0    0    0  501  0.00000000000E+00  0.00000000000E+00 -0.17866544549E+04  0.17866544549E+04  0.50400001928E-02 0. -1.
    10030    2    1    2    0    0  0.00000000000E+00  0.00000000000E+00 -0.33964705155E+03  0.32336618583E+04  0.32157750067E+04 0.  0.
        2    1    3    3  502    0  0.14323537784E+04  0.71676355036E+03 -0.31172859261E+03  0.16317359005E+04  0.25500000920E-02 0.  1.
       -2    1    3    3    0  502 -0.14323537784E+04 -0.71676355036E+03 -0.27918458942E+02  0.16019259577E+04  0.25500000920E-02 0. -1.
</event>
<event>
 5   0  0.3656086E-06  0.2563480E+04  0.7818609E-02  0.8380713E-01
       -2   -1    0    0    0  501  0.00000000000E+00  0.00000000000E+00  0.15929781733E+04  0.15929781733E+04  0.25500000920E-02 0.  1.
        2   -1    0    0  501    0  0.00000000000E+00  0.00000000000E+00 -0.10313117976E+04  0.10313117976E+04  0.25500000920E-02 0. -1.
    10030    2    1    2    0    0  0.00000000000E+00  0.00000000000E+00  0.56166637571E+03  0.26242899709E+04  0.25634798095E+04 0.  0.
        3    1    3    3  502    0  0.26492866636E+03  0.57454989900E+02 -0.10016286196E+04  0.10376647705E+04  0.10100000352E+00 0. -1.
       -3    1    3    3    0  502 -0.26492866636E+03 -0.57454989900E+02  0.15632949953E+04  0.15866252004E+04  0.10100000352E+00 0.  1.
</event>
<event>
 5   0  0.3656086E-06  0.3205146E+04  0.7818609E-02  0.8187460E-01
       -2   -1    0    0    0  501  0.00000000000E+00  0.00000000000E+00  0.12784083815E+04  0.12784083815E+04  0.25500000920E-02 0.  1.
        2   -1    0    0  501    0  0.00000000000E+00  0.00000000000E+00 -0.20089351729E+04  0.20089351729E+04  0.25500000920E-02 0. -1.
    10030    2    1    2    0    0  0.00000000000E+00  0.00000000000E+00 -0.73052679148E+03  0.32873435544E+04  0.32051455898E+04 0.  0.
        3    1    3    3  502    0 -0.37409868241E+03  0.11855281050E+04  0.67201520420E+03  0.14131635279E+04  0.10100000352E+00 0.  1.
       -3    1    3    3    0  502  0.37409868241E+03 -0.11855281050E+04 -0.14025419957E+04  0.18741800265E+04  0.10100000352E+00 0. -1.
</event>
<event>
 5   0  0.1240725E-06  0.3354890E+04  0.7818609E-02  0.8149067E-01
        1   -1    0    0  501    0  0.00000000000E+00  0.00000000000E+00  0.16743631547E+04  0.16743631547E+04  0.50400001928E-02 0.  1.
       -1   -1    0    0    0  501  0.00000000000E+00  0.00000000000E+00 -0.16805322213E+04  0.16805322213E+04  0.50400001928E-02 0. -1.
    10030    2    1    2    0    0  0.00000000000E+00  0.00000000000E+00 -0.61690665723E+01  0.33548953760E+04  0.33548897040E+04 0.  0.
        3    1    3    3  502    0  0.12070300286E+04  0.82787188571E+03 -0.82255396100E+03  0.16789545491E+04  0.10100000352E+00 0. -1.
       -3    1    3    3    0  502 -0.12070300286E+04 -0.82787188571E+03  0.81638489443E+03  0.16759408268E+04  0.10100000352E+00 0.  1.
</event>
<event>
 5   0  0.3758062E-06  0.3263026E+04  0.7818609E-02  0.8172368E-01
       -2   -1    0    0    0  501  0.00000000000E+00  0.00000000000E+00  0.11914037054E+04  0.11914037054E+04  0.25500000920E-02 0.  1.
        2   -1    0    0  501    0  0.00000000000E+00  0.00000000000E+00 -0.22342009917E+04  0.22342009917E+04  0.25500000920E-02 0. -1.
    10030    2    1    2    0    0  0.00000000000E+00  0.00000000000E+00 -0.10427972863E+04  0.34256046972E+04  0.32630264113E+04 0.  0.
        2    1    3    3  502    0  0.14769354965E+04 -0.48765789163E+03 -0.42211591912E+01  0.15553669979E+04  0.25500000920E-02 0.  1.
       -2    1    3    3    0  502 -0.14769354965E+04  0.48765789163E+03 -0.10385761271E+04  0.18702376993E+04  0.25500000920E-02 0. -1.
</event>
<event>
 5   0  0.3531437E-06  0.3205793E+04  0.7818609E-02  0.8187289E-01
        2   -1    0    0  501    0  0.00000000000E+00  0.00000000000E+00  0.24604710555E+04  0.24604710555E+04  0.25500000920E-02 0.  1.
       -2   -1    0    0    0  501  0.00000000000E+00  0.00000000000E+00 -0.10442215307E+04  0.10442215307E+04  0.25500000920E-02 0. -1.
    10030    2    1    2    0    0  0.00000000000E+00  0.00000000000E+00  0.14162495248E+04  0.35046925863E+04  0.32057927893E+04 0.  0.
        1    1    3    3  502    0  0.15716647869E+02 -0.70561800238E+03 -0.86520038431E+03  0.11165641421E+04  0.50400001928E-02 0. -1.
       -1    1    3    3    0  502 -0.15716647869E+02  0.70561800238E+03  0.22814499091E+04  0.23881284442E+04  0.50400001928E-02 0.  1.
</event>
<event>
 5   0  0.3497546E-06  0.3230053E+04  0.7818609E-02  0.8180925E-01
       -2   -1    0    0    0  501  0.00000000000E+00  0.00000000000E+00  0.17145214864E+04  0.17145214864E+04  0.25500000920E-02 0. -1.
        2   -1    0    0  501    0  0.00000000000E+00  0.00000000000E+00 -0.15213049268E+04  0.15213049268E+04  0.25500000920E-02 0.  1.
    10030    2    1    2    0    0  0.00000000000E+00  0.00000000000E+00  0.19321655958E+03  0.32358264132E+04  0.32300526214E+04 0.  0.
        4    1    3    3  502    0  0.12064091848E+04  0.13185047857E+03  0.11641118142E+04  0.16816556124E+04  0.12699999809E+01 0. -1.
       -4    1    3    3    0  502 -0.12064091848E+04 -0.13185047857E+03 -0.97089525458E+03  0.15541708008E+04  0.12699999809E+01 0.  1.
</event>
<event>
 5   0  0.1306843E-06  0.3253970E+04  0.7818609E-02  0.8174708E-01
       -1   -1    0    0    0  501  0.00000000000E+00  0.00000000000E+00  0.17399357125E+04  0.17399357125E+04  0.50400001928E-02 0. -1.
        1   -1    0    0  501    0  0.00000000000E+00  0.00000000000E+00 -0.15213664345E+04  0.15213664345E+04  0.50400001928E-02 0.  1.
    10030    2    1    2    0    0  0.00000000000E+00  0.00000000000E+00  0.21856927800E+03  0.32613021470E+04  0.32539697547E+04 0.  0.
        5    1    3    3  502    0 -0.41456400428E+03 -0.41096945450E+03 -0.14127876607E+04  0.15286432776E+04  0.46999998093E+01 0.  1.
       -5    1    3    3    0  502  0.41456400428E+03  0.41096945450E+03  0.16313569387E+04  0.17326588693E+04  0.46999998093E+01 0. -1.
</event>
<event>
 5   0  0.3531437E-06  0.3123341E+04  0.7818609E-02  0.8209361E-01
        2   -1    0    0  501    0  0.00000000000E+00  0.00000000000E+00  0.19946064740E+04  0.19946064740E+04  0.25500000920E-02 0. -1.
       -2   -1    0    0    0  501  0.00000000000E+00  0.00000000000E+00 -0.12227047792E+04  0.12227047792E+04  0.25500000920E-02 0.  1.
    10030    2    1    2    0    0  0.00000000000E+00  0.00000000000E+00  0.77190169480E+03  0.32173112532E+04  0.31233410754E+04 0.  0.
        1    1    3    3  502    0 -0.61482277777E+03 -0.11823912251E+04  0.12245442095E+04  0.18098520874E+04  0.50400001928E-02 0. -1.
       -1    1    3    3    0  502  0.61482277777E+03  0.11823912251E+04 -0.45264251474E+03  0.14074591658E+04  0.50400001928E-02 0.  1.
</event>
<event>
 5   0  0.3656086E-06  0.3139469E+04  0.7818609E-02  0.8204989E-01
       -2   -1    0    0    0  501  0.00000000000E+00  0.00000000000E+00  0.11747946363E+04  0.11747946363E+04  0.25500000920E-02 0.  1.
        2   -1    0    0  501    0  0.00000000000E+00  0.00000000000E+00 -0.20974448019E+04  0.20974448019E+04  0.25500000920E-02 0. -1.
    10030    2    1    2    0    0  0.00000000000E+00  0.00000000000E+00 -0.92265016558E+03  0.32722394382E+04  0.31394693203E+04 0.  0.
        3    1    3    3  502    0 -0.12282618033E+04  0.10620221885E+03  0.55144728222E+03  0.13505554724E+04  0.10100000352E+00 0.  1.
       -3    1    3    3    0  502  0.12282618033E+04 -0.10620221885E+03 -0.14740974478E+04  0.19216839658E+04  0.10100000352E+00 0. -1.
</event>
<event>
 5   0  0.1273980E-06  0.2765562E+04  0.7818609E-02  0.8314040E-01
        1   -1    0    0  501    0  0.00000000000E+00  0.00000000000E+00  0.14263504978E+04  0.14263504978E+04  0.50400001928E-02 0.  1.
       -1   -1    0    0    0  501  0.00000000000E+00  0.00000000000E+00 -0.13405427608E+04  0.13405427608E+04  0.50400001928E-02 0. -1.
    10030    2    1    2    0    0  0.00000000000E+00  0.00000000000E+00  0.85807737015E+02  0.27668932586E+04  0.27655623907E+04 0.  0.
        4    1    3    3  502    0  0.63739655816E+03  0.18579595987E+03  0.12564540746E+04  0.14210816182E+04  0.12699999809E+01 0.  1.
       -4    1    3    3    0  502 -0.63739655816E+03 -0.18579595987E+03 -0.11706463376E+04  0.13458116405E+04  0.12699999809E+01 0. -1.
</event>
<event>
 5   0  0.3745943E-06  0.3181757E+04  0.7818609E-02  0.8193652E-01
       -2   -1    0    0    0  501  0.00000000000E+00  0.00000000000E+00  0.17652343377E+04  0.17652343377E+04  0.25500000920E-02 0.  1.
        2   -1    0    0  501    0  0.00000000000E+00  0.00000000000E+00 -0.14337440907E+04  0.14337440907E+04  0.25500000920E-02 0. -1.
    10030    2    1    2    0    0  0.00000000000E+00  0.00000000000E+00  0.33149024699E+03  0.31989784284E+04  0.31817569362E+04 0.  0.
        5    1    3    3  502    0 -0.85682803708E+03  0.12598760878E+04  0.62585751884E+03  0.16471678013E+04  0.46999998093E+01 0. -1.
       -5    1    3    3    0  502  0.85682803708E+03 -0.12598760878E+04 -0.29436727185E+03  0.15518106271E+04  0.46999998093E+01 0.  1.
</event>
<event>
 5   0  0.3758062E-06  0.3156447E+04  0.7818609E-02  0.8200415E-01
       -2   -1    0    0    0  501  0.00000000000E+00  0.00000000000E+00  0.13109310135E+04  0.13109310135E+04  0.25500000920E-02 0. -1.
        2   -1    0    0  501    0  0.00000000000E+00  0.00000000000E+00 -0.19000156925E+04  0.19000156925E+04  0.25500000920E-02 0.  1.
    10030    2    1    2    0    0  0.00000000000E+00  0.00000000000E+00 -0.58908467894E+03  0.32109467060E+04  0.31564470516E+04 0.  0.
        2    1    3    3  502    0 -0.69638712077E+03 -0.13632750311E+04 -0.68498660979E+03  0.16771047934E+04  0.25500000920E-02 0. -1.
       -2    1    3    3    0  502  0.69638712077E+03  0.13632750311E+04  0.95901930851E+02  0.15338419126E+04  0.25500000920E-02 0.  1.
</event>
<event>
 5   0  0.3758062E-06  0.3221701E+04  0.7818609E-02  0.8183109E-01
       -2   -1    0    0    0  501  0.00000000000E+00  0.00000000000E+00  0.20873411018E+04  0.20873411018E+04  0.25500000920E-02 0.  1.
        2   -1    0    0  501    0  0.00000000000E+00  0.00000000000E+00 -0.12431313705E+04  0.12431313705E+04  0.25500000920E-02 0. -1.
    10030    2    1    2    0    0  0.00000000000E+00  0.00000000000E+00  0.84420973133E+03  0.33304724723E+04  0.32217009201E+04 0.  0.
        2    1    3    3  502    0 -0.39195026942E+03  0.14173826577E+04  0.11017518624E+04  0.18375134771E+04  0.25500000920E-02 0.  1.
       -2    1    3    3    0  502  0.39195026942E+03 -0.14173826577E+04 -0.25754213106E+03  0.14929589952E+04  0.25500000920E-02 0. -1.
</event>
<event>
 5   0  0.1240725E-06  0.3073751E+04  0.7818609E-02  0.8222979E-01
       -1   -1    0    0    0  501  0.00000000000E+00  0.00000000000E+00  0.16282419820E+04  0.16282419820E+04  0.50400001928E-02 0.  1.
        1   -1    0    0  501    0  0.00000000000E+00  0.00000000000E+00 -0.14506355634E+04  0.14506355634E+04  0.50400001928E-02 0. -1.
    10030    2    1    2    0    0  0.00000000000E+00  0.00000000000E+00  0.17760641860E+03  0.30788775453E+04  0.30737506241E+04 0.  0.
        3    1    3    3  502    0  0.14345068599E+04 -0.52999106464E+03 -0.64046382665E+02  0.15306215761E+04  0.10100000352E+00 0.  1.
       -3    1    3    3    0  502 -0.14345068599E+04  0.52999106464E+03  0.24165280127E+03  0.15482559693E+04  0.10100000352E+00 0. -1.
</event>
<event>
 5   0  0.1273754E-06  0.3173472E+04  0.7818609E-02  0.8195859E-01
       -1   -1    0    0    0  501  0.00000000000E+00  0.00000000000E+00  0.10967290288E+04  0.10967290288E+04  0.50400001928E-02 0. -1.
        1   -1    0    0  501    0  0.00000000000E+00  0.00000000000E+00 -0.22956725309E+04  0.22956725309E+04  0.50400001928E-02 0.  1.
    10030    2    1    2    0    0  0.00000000000E+00  0.00000000000E+00 -0.11989435022E+04  0.33924015597E+04  0.31734717300E+04 0.  0.
        2    1    3    3  502    0  0.43107458168E+03 -0.26247542150E+03  0.10086393681E+04  0.11278617011E+04  0.25500000920E-02 0. -1.
       -2    1    3    3    0  502 -0.43107458168E+03  0.26247542150E+03 -0.22075828703E+04  0.22645398586E+04  0.25500000920E-02 0.  1.
</event>
<event>
 5   0  0.3531437E-06  0.3181255E+04  0.7818609E-02  0.8193785E-01
       -2   -1    0    0    0  501  0.00000000000E+00  0.00000000000E+00  0.92377072045E+03  0.92377072045E+03  0.25500000920E-02 0. -1.
        2   -1    0    0  501    0  0.00000000000E+00  0.00000000000E+00 -0.27388791397E+04  0.27388791397E+04  0.25500000920E-02 0.  1.
    10030    2    1    2    0    0  0.00000000000E+00  0.00000000000E+00 -0.18151084193E+04  0.36626498602E+04  0.31812553221E+04 0.  0.
        1    1    3    3  502    0 -0.23449084907E+03  0.14012980293E+04 -0.84158203875E+02  0.14232725419E+04  0.50400001928E-02 0. -1.
       -1    1    3    3    0  502  0.23449084907E+03 -0.14012980293E+04 -0.17309502154E+04  0.22393773183E+04  0.50400001928E-02 0.  1.
</event>
<event>
 5   0  0.1273754E-06  0.3289848E+04  0.7818609E-02  0.8165483E-01
        1   -1    0    0  501    0  0.00000000000E+00  0.00000000000E+00  0.21109112023E+04  0.21109112023E+04  0.50400001928E-02 0. -1.
       -1   -1    0    0    0  501  0.00000000000E+00  0.00000000000E+00 -0.12818045013E+04  0.12818045013E+04  0.50400001928E-02 0.  1.
    10030    2    1    2    0    0  0.00000000000E+00  0.00000000000E+00  0.82910670101E+03  0.33927157037E+04  0.32898483133E+04 0.  0.
        2    1    3    3  502    0  0.12664722088E+04 -0.33128950222E+03  0.14417248207E+04  0.19473764527E+04  0.25500000920E-02 0. -1.
       -2    1    3    3    0  502 -0.12664722088E+04  0.33128950222E+03 -0.61261811965E+03  0.14453392510E+04  0.25500000920E-02 0.  1.
</event>
<event>
 5   0  0.1306843E-06  0.3159547E+04  0.7818609E-02  0.8199583E-01
       -1   -1    0    0    0  501  0.00000000000E+00  0.00000000000E+00  0.11532404084E+04  0.11532404084E+04  0.50400001928E-02 0. -1.
        1   -1    0    0  501    0  0.00000000000E+00  0.00000000000E+00 -0.21640624219E+04  0.21640624219E+04  0.50400001928E-02 0.  1.
    10030    2    1    2    0    0  0.00000000000E+00  0.00000000000E+00 -0.10108220136E+04  0.33173028303E+04  0.31595469493E+04 0.  0.
        5    1    3    3  502    0 -0.65356748482E+03 -0.38391142476E+03 -0.19606622239E+04  0.21020839387E+04  0.46999998093E+01 0.  1.
       -5    1    3    3    0  502  0.65356748482E+03  0.38391142476E+03  0.94984021033E+03  0.12152188916E+04  0.46999998093E+01 0. -1.
</event>
<event>
 5   0  0.3745943E-06  0.3197947E+04  0.7818609E-02  0.8189360E-01
        2   -1    0    0  501    0  0.00000000000E+00  0.00000000000E+00  0.22185266684E+04  0.22185266684E+04  0.25500000920E-02 0.  1.
       -2   -1    0    0    0  501  0.00000000000E+00  0.00000000000E+00 -0.11524385162E+04  0.11524385162E+04  0.25500000920E-02 0. -1.
    10030    2    1    2    0    0  0.00000000000E+00  0.00000000000E+00  0.10660881522E+04  0.33709651845E+04  0.31979465798E+04 0.  0.
        5    1    3    3  502    0  0.12205077145E+03  0.88230943530E+03  0.19327909652E+04  0.21281610220E+04  0.46999998093E+01 0.  1.
       -5    1    3    3    0  502 -0.12205077145E+03 -0.88230943530E+03 -0.86670281300E+03  0.12428041626E+04  0.46999998093E+01 0. -1.
</event>
<event>
 5   0  0.1273754E-06  0.3193083E+04  0.7818609E-02  0.8190646E-01
        1   -1    0    0  501    0  0.00000000000E+00  0.00000000000E+00  0.25395119964E+04  0.25395119964E+04  0.50400001928E-02 0.  1.
       -1   -1    0    0    0  501  0.00000000000E+00  0.00000000000E+00 -0.10037140953E+04  0.10037140953E+04  0.50400001928E-02 0. -1.
    10030    2    1    2    0    0  0.00000000000E+00  0.00000000000E+00  0.15357979011E+04  0.35432260918E+04  0.31930825145E+04 0.  0.
        2    1    3    3  502    0 -0.55647008050E+03 -0.14962388162E+04  0.79402755356E+03  0.17829383897E+04  0.25500000920E-02 0.  1.
       -2    1    3    3    0  502  0.55647008050E+03  0.14962388162E+04  0.74177034753E+03  0.17602877021E+04  0.25500000920E-02 0. -1.
</event>
<event>
 5   0  0.1240725E-06  0.3185764E+04  0.7818609E-02  0.8192587E-01
       -1   -1    0    0    0  501  0.00000000000E+00  0.00000000000E+00  0.19209309365E+04  0.19209309365E+04  0.50400001928E-02 0. -1.
        1   -1    0    0  501    0  0.00000000000E+00  0.00000000000E+00 -0.13208558505E+04  0.13208558505E+04  0.50400001928E-02 0.  1.
    10030    2    1    2    0    0  0.00000000000E+00  0.00000000000E+00  0.60007508600E+03  0.32417867870E+04  0.31857638744E+04 0.  0.
        3    1    3    3  502    0 -0.15165390863E+04  0.43964388519E+03  0.86355974148E+02  0.15813395936E+04  0.10100000352E+00 0. -1.
       -3    1    3    3    0  502  0.15165390863E+04 -0.43964388519E+03  0.51371911185E+03  0.16604471934E+04  0.10100000352E+00 0.  1.
</event>
<event>
 5   0  0.1306843E-06  0.3224154E+04  0.7818609E-02  0.8182467E-01
       -1   -1    0    0    0  501  0.00000000000E+00  0.00000000000E+00  0.11095321229E+04  0.11095321229E+04  0.50400001928E-02 0.  1.
        1   -1    0    0  501    0  0.00000000000E+00  0.00000000000E+00 -0.23422415688E+04  0.23422415688E+04  0.50400001928E-02 0. -1.
    10030    2    1    2    0    0  0.00000000000E+00  0.00000000000E+00 -0.12327094459E+04  0.34517736917E+04  0.32241540039E+04 0.  0.
        5    1    3    3  502    0  0.15908057226E+04 -0.25532400433E+03 -0.55853274138E+03  0.17052372584E+04  0.46999998093E+01 0.  1.
       -5    1    3    3    0  502 -0.15908057226E+04  0.25532400433E+03 -0.67417670451E+03  0.17465364334E+04  0.46999998093E+01 0. -1.
</event>
<event>
 5   0  0.3758062E-06  0.3186474E+04  0.7818609E-02  0.8192398E-01
       -2   -1    0    0    0  501  0.00000000000E+00  0.00000000000E+00  0.29940625813E+04  0.29940625813E+04  0.25500000920E-02 0. -1.
        2   -1    0    0  501    0  0.00000000000E+00  0.00000000000E+00 -0.84781289830E+03  0.84781289830E+03  0.25500000920E-02 0.  1.
    10030    2    1    2    0    0  0.00000000000E+00  0.00000000000E+00  0.21462496830E+04  0.38418754796E+04  0.31864744623E+04 0.  0.
        2    1    3    3  502    0  0.61828230377E+03  0.12921733543E+04  0.19140135196E+04  0.23906971238E+04  0.25500000920E-02 0.  1.
       -2    1    3    3    0  502 -0.61828230377E+03 -0.12921733543E+04  0.23223616347E+03  0.14511783558E+04  0.25500000920E-02 0. -1.
</event>
<event>
 5   0  0.3531437E-06  0.3168896E+04  0.7818609E-02  0.8197080E-01
        2   -1    0    0  501    0  0.00000000000E+00  0.00000000000E+00  0.91911771322E+03  0.91911771322E+03  0.25500000920E-02 0. -1.
       -2   -1    0    0    0  501  0.00000000000E+00  0.00000000000E+00 -0.27313966223E+04  0.27313966223E+04  0.25500000920E-02 0.  1.
    10030    2    1    2    0    0  0.00000000000E+00  0.00000000000E+00 -0.18122789091E+04  0.36505143356E+04  0.31688957177E+04 0.  0.
        1    1    3    3  502    0  0.12114640836E+04 -0.54623703578E+03  0.87812300200E+02  0.13318149741E+04  0.50400001928E-02 0. -1.
       -1    1    3    3    0  502 -0.12114640836E+04  0.54623703578E+03 -0.19000912093E+04  0.23186993615E+04  0.50400001928E-02 0.  1.
</event>
<event>
 5   0  0.1240725E-06  0.3224376E+04  0.7818609E-02  0.8182409E-01
       -1   -1    0    0    0  501  0.00000000000E+00  0.00000000000E+00  0.22965653490E+04  0.22965653490E+04  0.50400001928E-02 0. -1.
        1   -1    0    0  501    0  0.00000000000E+00  0.00000000000E+00 -0.11317554003E+04  0.11317554003E+04  0.50400001928E-02 0.  1.
    10030    2    1    2    0    0  0.00000000000E+00  0.00000000000E+00  0.11648099487E+04  0.34283207493E+04  0.32243760549E+04 0.  0.
        3    1    3    3  502    0 -0.12418300317E+04  0.99005651096E+03  0.87705499956E+03  0.18142709844E+04  0.10100000352E+00 0. -1.
       -3    1    3    3    0  502  0.12418300317E+04 -0.99005651096E+03  0.28775494910E+03  0.16140497648E+04  0.10100000352E+00 0.  1.
</event>
<event>
 5   0  0.3531437E-06  0.3207037E+04  0.7818609E-02  0.8186961E-01
        2   -1    0    0  501    0  0.00000000000E+00  0.00000000000E+00  0.14826569294E+04  0.14826569294E+04  0.25500000920E-02 0.  1.
       -2   -1    0    0    0  501  0.00000000000E+00  0.00000000000E+00 -0.17342325882E+04  0.17342325882E+04  0.25500000920E-02 0. -1.
    10030    2    1    2    0    0  0.00000000000E+00  0.00000000000E+00 -0.25157565887E+03  0.32168895176E+04  0.32070372396E+04 0.  0.
        1    1    3    3  502    0  0.81301003639E+03  0.75048355579E+03 -0.12899829813E+04  0.16994902115E+04  0.50400001928E-02 0. -1.
       -1    1    3    3    0  502 -0.81301003639E+03 -0.75048355579E+03  0.10384073225E+04  0.15173993061E+04  0.50400001928E-02 0.  1.
</event>
<event>
 5   0  0.3531437E-06  0.3204923E+04  0.7818609E-02  0.8187518E-01
        2   -1    0    0  501    0  0.00000000000E+00  0.00000000000E+00  0.23274857612E+04  0.23274857612E+04  0.25500000920E-02 0. -1.
       -2   -1    0    0    0  501  0.00000000000E+00  0.00000000000E+00 -0.11032860380E+04  0.11032860380E+04  0.25500000920E-02 0.  1.
    10030    2    1    2    0    0  0.00000000000E+00  0.00000000000E+00  0.12241997231E+04  0.34307717992E+04  0.32049228034E+04 0.  0.
        1    1    3    3  502    0  0.88064403037E+02  0.92113059180E+03 -0.78839392750E+03  0.12156487532E+04  0.50400001928E-02 0.  1.
       -1    1    3    3    0  502 -0.88064403037E+02 -0.92113059180E+03  0.20125936506E+04  0.22151230460E+04  0.50400001928E-02 0. -1.
</event>
<event>
 5   0  0.3745943E-06  0.3196862E+04  0.7818609E-02  0.8189646E-01
        2   -1    0    0  501    0  0.00000000000E+00  0.00000000000E+00  0.12420311735E+04  0.12420311735E+04  0.25500000920E-02 0.  1.
       -2   -1    0    0    0  501  0.00000000000E+00  0.00000000000E+00 -0.20570995146E+04  0.20570995147E+04  0.25500000920E-02 0. -1.
    10030    2    1    2    0    0  0.00000000000E+00  0.00000000000E+00 -0.81506834112E+03  0.32991306882E+04  0.31968620391E+04 0.  0.
        5    1    3    3  502    0 -0.14381541405E+04 -0.26227229789E+03 -0.10746546898E+04  0.18143811293E+04  0.46999998093E+01 0. -1.
       -5    1    3    3    0  502  0.14381541405E+04  0.26227229789E+03  0.25958634864E+03  0.14847495589E+04  0.46999998093E+01 0.  1.
</event>
<event>
 5   0  0.3656086E-06  0.3190045E+04  0.7818609E-02  0.8191451E-01
       -2   -1    0    0    0  501  0.00000000000E+00  0.00000000000E+00  0.16716687934E+04  0.16716687934E+04  0.25500000920E-02 0.  1.
        2   -1    0    0  501    0  0.00000000000E+00  0.00000000000E+00 -0.15218906231E+04  0.15218906231E+04  0.25500000920E-02 0. -1.
    10030    2    1    2    0    0  0.00000000000E+00  0.00000000000E+00  0.14977817030E+03  0.31935594164E+04  0.31900451793E+04 0.  0.
        3    1    3    3  502    0 -0.12336449904E+04 -0.34326235444E+03 -0.87715174249E+03  0.15521289237E+04  0.10100000352E+00 0.  1.
       -3    1    3    3    0  502  0.12336449904E+04  0.34326235444E+03  0.10269299128E+04  0.16414304927E+04  0.10100000352E+00 0. -1.
</event>
<event>
 5   0  0.1268836E-06  0.2334286E+04  0.7818609E-02  0.8464524E-01
       -1   -1    0    0    0  501  0.00000000000E+00  0.00000000000E+00  0.70039322770E+03  0.70039322772E+03  0.50400001928E-02 0.  1.
        1   -1    0    0  501    0  0.00000000000E+00  0.00000000000E+00 -0.19449393691E+04  0.19449393691E+04  0.50400001928E-02 0. -1.
    10030    2    1    2    0    0  0.00000000000E+00  0.00000000000E+00 -0.12445461414E+04  0.26453325968E+04  0.23342856401E+04 0.  0.
        1    1    3    3  502    0  0.17971869970E+03 -0.33937890698E+03 -0.18712917580E+04  0.19102904745E+04  0.50400001928E-02 0. -1.
       -1    1    3    3    0  502 -0.17971869970E+03  0.33937890698E+03  0.62674561662E+03  0.73504212226E+03  0.50400001928E-02 0.  1.
</event>
<event>
 5   0  0.1268836E-06  0.3202431E+04  0.7818609E-02  0.8188175E-01
       -1   -1    0    0    0  501  0.00000000000E+00  0.00000000000E+00  0.10205920546E+04  0.10205920546E+04  0.50400001928E-02 0. -1.
        1   -1    0    0  501    0  0.00000000000E+00  0.00000000000E+00 -0.25121608595E+04  0.25121608595E+04  0.50400001928E-02 0.  1.
    10030    2    1    2    0    0  0.00000000000E+00  0.00000000000E+00 -0.14915688050E+04  0.35327529141E+04  0.32024312096E+04 0.  0.
        1    1    3    3  502    0 -0.24977758023E+03 -0.78151224150E+03  0.77108955935E+03  0.11259348701E+04  0.50400001928E-02 0. -1.
       -1    1    3    3    0  502  0.24977758023E+03  0.78151224150E+03 -0.22626583643E+04  0.24068180440E+04  0.50400001928E-02 0.  1.
</event>
<event>
 5   0  0.1268836E-06  0.3261854E+04  0.7818609E-02  0.8172670E-01
       -1   -1    0    0    0  501  0.00000000000E+00  0.00000000000E+00  0.13454634206E+04  0.13454634206E+04  0.50400001928E-02 0. -1.
        1   -1    0    0  501    0  0.00000000000E+00  0.00000000000E+00 -0.19769569881E+04  0.19769569881E+04  0.50400001928E-02 0.  1.
    10030    2    1    2    0    0  0.00000000000E+00  0.00000000000E+00 -0.63149356755E+03  0.33224204087E+04  0.32618542651E+04 0.  0.
        1    1    3    3  502    0 -0.11880140308E+04  0.12620943891E+03 -0.14465945271E+04  0.18761508163E+04  0.50400001928E-02 0.  1.
       -1    1    3    3    0  502  0.11880140308E+04 -0.12620943891E+03  0.81510095951E+03  0.14462695924E+04  0.50400001928E-02 0. -1.
</event>
<event>
 5   0  0.3745943E-06  0.3168371E+04  0.7818609E-02  0.8197221E-01
       -2   -1    0    0    0  501  0.00000000000E+00  0.00000000000E+00  0.13234294129E+04  0.13234294129E+04  0.25500000920E-02 0.  1.
        2   -1    0    0  501    0  0.00000000000E+00  0.00000000000E+00 -0.18963181119E+04  0.18963181119E+04  0.25500000920E-02 0. -1.
    10030    2    1    2    0    0  0.00000000000E+00  0.00000000000E+00 -0.57288869900E+03  0.32197475247E+04  0.31683706636E+04 0.  0.
        5    1    3    3  502    0 -0.35613584753E+03 -0.25802609317E+03  0.12601445266E+04  0.13346896735E+04  0.46999998093E+01 0.  1.
       -5    1    3    3    0  502  0.35613584753E+03  0.25802609317E+03 -0.18330332256E+04  0.18850578513E+04  0.46999998093E+01 0. -1.
</event>
<event>
 5   0  0.3531437E-06  0.3198571E+04  0.7818609E-02  0.8189195E-01
        2   -1    0    0  501    0  0.00000000000E+00  0.00000000000E+00  0.16892744885E+04  0.16892744885E+04  0.25500000920E-02 0. -1.
       -2   -1    0    0    0  501  0.00000000000E+00  0.00000000000E+00 -0.15140901687E+04  0.15140901687E+04  0.25500000920E-02 0.  1.
    10030    2    1    2    0    0  0.00000000000E+00  0.00000000000E+00  0.17518431983E+03  0.32033646572E+04  0.31985708654E+04 0.  0.
        1    1    3    3  502    0  0.14000819660E+04 -0.69314893270E+03 -0.25501547736E+03  0.15829459397E+04  0.50400001928E-02 0.  1.
       -1    1    3    3    0  502 -0.14000819660E+04  0.69314893270E+03  0.43019979719E+03  0.16204187175E+04  0.50400001928E-02 0. -1.
</event>
<event>
 5   0  0.1306843E-06  0.3197078E+04  0.7818609E-02  0.8189589E-01
        1   -1    0    0  501    0  0.00000000000E+00  0.00000000000E+00  0.11191361174E+04  0.11191361174E+04  0.50400001928E-02 0.  1.
       -1   -1    0    0    0  501  0.00000000000E+00  0.00000000000E+00 -0.22833037418E+04  0.22833037418E+04  0.50400001928E-02 0. -1.
    10030    2    1    2    0    0  0.00000000000E+00  0.00000000000E+00 -0.11641676244E+04  0.34024398593E+04  0.31970784692E+04 0.  0.
        5    1    3    3  502    0 -0.59426939403E+03 -0.86212227321E+02  0.99453396437E+03  0.11617695800E+04  0.46999998093E+01 0.  1.
       -5    1    3    3    0  502  0.59426939403E+03  0.86212227321E+02 -0.21587015888E+04  0.22406702792E+04  0.46999998093E+01 0. -1.
</event>
<event>
 5   0  0.1306843E-06  0.3019604E+04  0.7818609E-02  0.8238155E-01
        1   -1    0    0  501    0  0.00000000000E+00  0.00000000000E+00  0.13537847529E+04  0.13537847529E+04  0.50400001928E-02 0. -1.
       -1   -1    0    0    0  501  0.00000000000E+00  0.00000000000E+00 -0.16837991739E+04  0.16837991739E+04  0.50400001928E-02 0.  1.
    10030    2    1    2    0    0  0.00000000000E+00  0.00000000000E+00 -0.33001442098E+03  0.30375839268E+04  0.30196037148E+04 0.  0.
        5    1    3    3  502    0 -0.51209047638E+03 -0.70349828024E+03  0.10761682381E+04  0.13839460441E+04  0.46999998093E+01 0. -1.
       -5    1    3    3    0  502  0.51209047638E+03  0.70349828024E+03 -0.14061826591E+04  0.16536378827E+04  0.46999998093E+01 0.  1.
</event>
<event>
 5   0  0.3531437E-06  0.3196982E+04  0.7818609E-02  0.8189615E-01
        2   -1    0    0  501    0  0.00000000000E+00  0.00000000000E+00  0.15212197051E+04  0.15212197051E+04  0.25500000920E-02 0. -1.
       -2   -1    0    0    0  501  0.00000000000E+00  0.00000000000E+00 -0.16796877226E+04  0.16796877226E+04  0.25500000920E-02 0.  1.
    10030    2    1    2    0    0  0.00000000000E+00  0.00000000000E+00 -0.15846801744E+03  0.32009074277E+04  0.31969823660E+04 0.  0.
        1    1    3    3  502    0 -0.22041026904E+03 -0.13849273990E+04 -0.84735872643E+03  0.16384814307E+04  0.50400001928E-02 0.  1.
       -1    1    3    3    0  502  0.22041026904E+03  0.13849273990E+04  0.68889070899E+03  0.15624259971E+04  0.50400001928E-02 0. -1.
</event>
<event>
 5   0  0.1240725E-06  0.3167246E+04  0.7818609E-02  0.8197521E-01
        1   -1    0    0  501    0  0.00000000000E+00  0.00000000000E+00  0.17385263792E+04  0.17385263792E+04  0.50400001928E-02 0.  1.
       -1   -1    0    0    0  501  0.00000000000E+00  0.00000000000E+00 -0.14425212047E+04  0.14425212047E+04  0.50400001928E-02 0. -1.
    10030    2    1    2    0    0  0.00000000000E+00  0.00000000000E+00  0.29600517451E+03  0.31810475839E+04  0.31672455963E+04 0.  0.
        3    1    3    3  502    0  0.86944252359E+03  0.13207964087E+03  0.14707405007E+04  0.17136081711E+04  0.10100000352E+00 0.  1.
       -3    1    3    3    0  502 -0.86944252359E+03 -0.13207964087E+03 -0.11747353262E+04  0.14674394128E+04  0.10100000352E+00 0. -1.
</event>
<event>
 5   0  0.1273754E-06  0.2973506E+04  0.7818609E-02  0.8251337E-01
       -1   -1    0    0    0  501  0.00000000000E+00  0.00000000000E+00  0.14442344320E+04  0.14442344320E+04  0.50400001928E-02 0. -1.
        1   -1    0    0  501    0  0.00000000000E+00  0.00000000000E+00 -0.15305230939E+04  0.15305230939E+04  0.50400001928E-02 0.  1.
    10030    2    1    2    0    0  0.00000000000E+00  0.00000000000E+00 -0.86288661893E+02  0.29747575259E+04  0.29735057768E+04 0.  0.
        2    1    3    3  502    0 -0.92381943636E+02  0.12076913202E+04 -0.90570297432E+03  0.15123989639E+04  0.25500000920E-02 0.  1.
       -2    1    3    3    0  502  0.92381943636E+02 -0.12076913202E+04  0.81941431242E+03  0.14623585620E+04  0.25500000920E-02 0. -1.
</event>
<event>
 5   0  0.1273980E-06  0.3238312E+04  0.7818609E-02  0.8178772E-01
        1   -1    0    0  501    0  0.00000000000E+00  0.00000000000E+00  0.25169188469E+04  0.25169188469E+04  0.50400001928E-02 0.  1.
       -1   -1    0    0    0  501  0.00000000000E+00  0.00000000000E+00 -0.10416174732E+04  0.10416174732E+04  0.50400001928E-02 0. -1.
    10030    2    1    2    0    0  0.00000000000E+00  0.00000000000E+00  0.14753013737E+04  0.35585363201E+04  0.32383123070E+04 0.  0.
        4    1    3    3  502    0 -0.83435587604E+03  0.13791276027E+04  0.56911450253E+03  0.17093962684E+04  0.12699999809E+01 0. -1.
       -4    1    3    3    0  502  0.83435587604E+03 -0.13791276027E+04  0.90618687118E+03  0.18491400517E+04  0.12699999809E+01 0.  1.
</event>
<event>
 5   0  0.1273980E-06  0.3213773E+04  0.7818609E-02  0.8185189E-01
       -1   -1    0    0    0  501  0.00000000000E+00  0.00000000000E+00  0.14795768161E+04  0.14795768161E+04  0.50400001928E-02 0. -1.
        1   -1    0    0  501    0  0.00000000000E+00  0.00000000000E+00 -0.17451503441E+04  0.17451503441E+04  0.50400001928E-02 0.  1.
    10030    2    1    2    0    0  0.00000000000E+00  0.00000000000E+00 -0.26557352803E+03  0.32247271603E+04  0.32137728543E+04 0.  0.
        4    1    3    3  502    0  0.73231862534E+03  0.37466991473E+03 -0.15178592533E+04  0.17264317072E+04  0.12699999809E+01 0.  1.
       -4    1    3    3    0  502 -0.73231862534E+03 -0.37466991473E+03  0.12522857253E+04  0.14982954530E+04  0.12699999809E+01 0. -1.
</event>
<event>
 5   0  0.1268836E-06  0.3235228E+04  0.7818609E-02  0.8179575E-01
        1   -1    0    0  501    0  0.00000000000E+00  0.00000000000E+00  0.18376435545E+04  0.18376435545E+04  0.50400001928E-02 0.  1.
       -1   -1    0    0    0  501  0.00000000000E+00  0.00000000000E+00 -0.14239294190E+04  0.14239294190E+04  0.50400001928E-02 0. -1.
    10030    2    1    2    0    0  0.00000000000E+00  0.00000000000E+00  0.41371413550E+03  0.32615729734E+04  0.32352277934E+04 0.  0.
        1    1    3    3  502    0 -0.12003561064E+04  0.30413080777E+02 -0.88589530748E+03  0.14921763413E+04  0.50400001928E-02 0. -1.
       -1    1    3    3    0  502  0.12003561064E+04 -0.30413080777E+02  0.12996094430E+04  0.17693966322E+04  0.50400001928E-02 0.  1.
</event>
<event>
 5   0  0.1240725E-06  0.3188020E+04  0.7818609E-02  0.8191988E-01
       -1   -1    0    0    0  501  0.00000000000E+00  0.00000000000E+00  0.12335462889E+04  0.12335462889E+04  0.50400001928E-02 0. -1.
        1   -1    0    0  501    0  0.00000000000E+00  0.00000000000E+00 -0.20598075427E+04  0.20598075427E+04  0.50400001928E-02 0.  1.
    10030    2    1    2    0    0  0.00000000000E+00  0.00000000000E+00 -0.82626125380E+03  0.32933538315E+04  0.31880200439E+04 0.  0.
        3    1    3    3  502    0  0.51538545738E+03  0.42519138644E+03  0.10819106501E+04  0.12715897726E+04  0.10100000352E+00 0. -1.
       -3    1    3    3    0  502 -0.51538545738E+03 -0.42519138644E+03 -0.19081719039E+04  0.20217640589E+04  0.10100000352E+00 0.  1.
</event>
<event>
 5   0  0.1273980E-06  0.3209115E+04  0.7818609E-02  0.8186414E-01
        1   -1    0    0  501    0  0.00000000000E+00  0.00000000000E+00  0.10054409274E+04  0.10054409274E+04  0.50400001928E-02 0.  1.
       -1   -1    0    0    0  501  0.00000000000E+00  0.00000000000E+00 -0.25606717844E+04  0.25606717844E+04  0.50400001928E-02 0. -1.
    10030    2    1    2    0    0  0.00000000000E+00  0.00000000000E+00 -0.15552308570E+04  0.35661127118E+04  0.32091146528E+04 0.  0.
        4    1    3    3  502    0  0.13548930916E+04 -0.78726443972E+03 -0.11610867730E+04  0.19502934894E+04  0.12699999809E+01 0. -1.
       -4    1    3    3    0  502 -0.13548930916E+04  0.78726443972E+03 -0.39414408401E+03  0.16158192224E+04  0.12699999809E+01 0.  1.
</event>
<event>
 5   0  0.3656086E-06  0.3187205E+04  0.7818609E-02  0.8192204E-01
        2   -1    0    0  501    0  0.00000000000E+00  0.00000000000E+00  0.10657024862E+04  0.10657024862E+04  0.25500000920E-02 0.  1.
       -2   -1    0    0    0  501  0.00000000000E+00  0.00000000000E+00 -0.23830003375E+04  0.23830003375E+04  0.25500000920E-02 0. -1.
    10030    2    1    2    0    0  0.00000000000E+00  0.00000000000E+00 -0.13172978513E+04  0.34487028237E+04  0.31872052864E+04 0.  0.
        3    1    3    3  502    0 -0.15026464842E+04 -0.41208846269E+02 -0.86160930711E+02  0.15056786980E+04  0.10100000352E+00 0.  1.
       -3    1    3    3    0  502  0.15026464842E+04  0.41208846269E+02 -0.12311369206E+04  0.19430241257E+04  0.10100000352E+00 0. -1.
</event>
<event>
 5   0  0.1273754E-06  0.3037465E+04  0.7818609E-02  0.8233113E-01
        1   -1    0    0  501    0  0.00000000000E+00  0.00000000000E+00  0.17756636680E+04  0.17756636680E+04  0.50400001928E-02 0.  1.
       -1   -1    0    0    0  501  0.00000000000E+00  0.00000000000E+00 -0.12989782627E+04  0.12989782628E+04  0.50400001928E-02 0. -1.
    10030    2    1    2    0    0  0.00000000000E+00  0.00000000000E+00  0.47668540529E+03  0.30746419308E+04  0.30374650660E+04 0.  0.
        2    1    3    3  502    0  0.77663973196E+03  0.93083495449E+03 -0.68769071543E+03  0.13937508765E+04  0.25500000920E-02 0. -1.
       -2    1    3    3    0  502 -0.77663973196E+03 -0.93083495449E+03  0.11643761207E+04  0.16808910542E+04  0.25500000920E-02 0.  1.
</event>
<event>
 5   0  0.1240725E-06  0.3218537E+04  0.7818609E-02  0.8183939E-01
        1   -1    0    0  501    0  0.00000000000E+00  0.00000000000E+00  0.16337375137E+04  0.16337375137E+04  0.50400001928E-02 0.  1.
       -1   -1    0    0    0  501  0.00000000000E+00  0.00000000000E+00 -0.15851657931E+04  0.15851657931E+04  0.50400001928E-02 0. -1.
    10030    2    1    2    0    0  0.00000000000E+00  0.00000000000E+00  0.48571720621E+02  0.32189033068E+04  0.32185368239E+04 0.  0.
        3    1    3    3  502    0 -0.15074430493E+04  0.50557660173E+03  0.27281478888E+03  0.16132018368E+04  0.10100000352E+00 0.  1.
       -3    1    3    3    0  502  0.15074430493E+04 -0.50557660173E+03 -0.22424306826E+03  0.16057014700E+04  0.10100000352E+00 0. -1.
</event>
<event>
 5   0  0.1273754E-06  0.3220013E+04  0.7818609E-02  0.8183552E-01
       -1   -1    0    0    0  501  0.00000000000E+00  0.00000000000E+00  0.12881756807E+04  0.12881756807E+04  0.50400001928E-02 0.  1.
        1   -1    0    0  501    0  0.00000000000E+00  0.00000000000E+00 -0.20122422721E+04  0.20122422721E+04  0.50400001928E-02 0. -1.
    10030    2    1    2    0    0  0.00000000000E+00  0.00000000000E+00 -0.72406659136E+03  0.33004179528E+04  0.32200133904E+04 0.  0.
        2    1    3    3  502    0 -0.77423999307E+03  0.45837745722E+03 -0.17304987572E+04  0.19504315956E+04  0.25500000920E-02 0. -1.
       -2    1    3    3    0  502  0.77423999307E+03 -0.45837745722E+03  0.10064321659E+04  0.13499863572E+04  0.25500000920E-02 0.  1.
</event>
<event>
 5   0  0.3531437E-06  0.3224396E+04  0.7818609E-02  0.8182404E-01
       -2   -1    0    0    0  501  0.00000000000E+00  0.00000000000E+00  0.18993402514E+04  0.18993402514E+04  0.25500000920E-02 0. -1.
        2   -1    0    0  501    0  0.00000000000E+00  0.00000000000E+00 -0.13684655128E+04  0.13684655128E+04  0.25500000920E-02 0.  1.
    10030    2    1    2    0    0  0.00000000000E+00  0.00000000000E+00  0.53087473856E+03  0.32678057642E+04  0.32243955285E+04 0.  0.
        1    1    3    3  502    0  0.12591471716E+04 -0.25672533223E+02  0.12855023911E+04  0.17996185919E+04  0.50400001928E-02 0. -1.
       -1    1    3    3    0  502 -0.12591471716E+04  0.25672533223E+02 -0.75462765258E+03  0.14681871722E+04  0.50400001928E-02 0.  1.
</event>
<event>
 5   0  0.1268836E-06  0.2967404E+04  0.7818609E-02  0.8253101E-01
        1   -1    0    0  501    0  0.00000000000E+00  0.00000000000E+00  0.22135255508E+04  0.22135255508E+04  0.50400001928E-02 0. -1.
       -1   -1    0    0    0  501  0.00000000000E+00  0.00000000000E+00 -0.99450897223E+03  0.99450897224E+03  0.50400001928E-02 0.  1.
    10030    2    1    2    0    0  0.00000000000E+00  0.00000000000E+00  0.12190165786E+04  0.32080345230E+04  0.29674035927E+04 0.  0.
        1    1    3    3  502    0 -0.56908941121E+03  0.52964964009E+03  0.19757013925E+04  0.21231550795E+04  0.50400001928E-02 0. -1.
       -1    1    3    3    0  502  0.56908941121E+03 -0.52964964009E+03 -0.75668481399E+03  0.10848794435E+04  0.50400001928E-02 0.  1.
</event>
<event>
 5   0  0.3758062E-06  0.3141577E+04  0.7818609E-02  0.8204419E-01
        2   -1    0    0  501    0  0.00000000000E+00  0.00000000000E+00  0.18759725842E+04  0.18759725842E+04  0.25500000920E-02 0. -1.
       -2   -1    0    0    0  501  0.00000000000E+00  0.00000000000E+00 -0.13152522840E+04  0.13152522840E+04  0.25500000920E-02 0.  1.
    10030    2    1    2    0    0  0.00000000000E+00  0.00000000000E+00  0.56072030020E+03  0.31912248681E+04  0.31415774547E+04 0.  0.
        2    1    3    3  502    0  0.14442550534E+04 -0.12391222337E+03  0.89502637444E+03  0.17036135446E+04  0.25500000920E-02 0.  1.
       -2    1    3    3    0  502 -0.14442550534E+04  0.12391222337E+03 -0.33430607425E+03  0.14876113235E+04  0.25500000920E-02 0. -1.
</event>
<event>
 5   0  0.1185575E-06  0.3208568E+04  0.7818609E-02  0.8186558E-01
        3   -1    0    0  501    0  0.00000000000E+00  0.00000000000E+00  0.19523845126E+04  0.19523845152E+04  0.10100000352E+00 0.  1.
       -3   -1    0    0    0  501  0.00000000000E+00  0.00000000000E+00 -0.13182477275E+04  0.13182477314E+04  0.10100000352E+00 0. -1.
    10030    2    1    2    0    0  0.00000000000E+00  0.00000000000E+00  0.63413678507E+03  0.32706322466E+04  0.32085675667E+04 0.  0.
        2    1    3    3  502    0  0.82547648893E+02  0.42328815716E+03 -0.12580528741E+04  0.13299187992E+04  0.25500000920E-02 0. -1.
       -2    1    3    3    0  502 -0.82547648893E+02 -0.42328815716E+03  0.18921896592E+04  0.19407134474E+04  0.25500000920E-02 0.  1.
</event>
<event>
 5   0  0.1268836E-06  0.3212886E+04  0.7818609E-02  0.8185422E-01
        1   -1    0    0  501    0  0.00000000000E+00  0.00000000000E+00  0.15024807587E+04  0.15024807587E+04  0.50400001928E-02 0.  1.
       -1   -1    0    0    0  501  0.00000000000E+00  0.00000000000E+00 -0.17175982634E+04  0.17175982634E+04  0.50400001928E-02 0. -1.
    10030    2    1    2    0    0  0.00000000000E+00  0.00000000000E+00 -0.21511750466E+03  0.32200790221E+04  0.32128855205E+04 0.  0.
        1    1    3    3  502    0 -0.22677588761E+03 -0.14634579262E+04 -0.73146512900E+03  0.16517196009E+04  0.50400001928E-02 0. -1.
       -1    1    3    3    0  502  0.22677588761E+03  0.14634579262E+04  0.51634762434E+03  0.15683594212E+04  0.50400001928E-02 0.  1.
</event>
<event>
 5   0  0.1240725E-06  0.3094069E+04  0.7818609E-02  0.8217368E-01
        1   -1    0    0  501    0  0.00000000000E+00  0.00000000000E+00  0.23107391882E+04  0.23107391882E+04  0.50400001928E-02 0. -1.
       -1   -1    0    0    0  501  0.00000000000E+00  0.00000000000E+00 -0.10357358209E+04  0.10357358209E+04  0.50400001928E-02 0.  1.
    10030    2    1    2    0    0  0.00000000000E+00  0.00000000000E+00  0.12750033674E+04  0.33464750091E+04  0.30940687451E+04 0.  0.
        3    1    3    3  502    0 -0.39503422434E+03 -0.13365331373E+04 -0.88801920078E+02  0.13965166152E+04  0.10100000352E+00 0.  1.
       -3    1    3    3    0  502  0.39503422434E+03  0.13365331373E+04  0.13638052874E+04  0.19499583938E+04  0.10100000352E+00 0. -1.
</event>
<event>
 5   0  0.3656086E-06  0.3261181E+04  0.7818609E-02  0.8172844E-01
        2   -1    0    0  501    0  0.00000000000E+00  0.00000000000E+00  0.26023074874E+04  0.26023074874E+04  0.25500000920E-02 0.  1.
       -2   -1    0    0    0  501  0.00000000000E+00  0.00000000000E+00 -0.10217181391E+04  0.10217181391E+04  0.25500000920E-02 0. -1.
    10030    2    1    2    0    0  0.00000000000E+00  0.00000000000E+00  0.15805893482E+04  0.36240256265E+04  0.32611806227E+04 0.  0.
        3    1    3    3  502    0 -0.13842544940E+04 -0.82087013580E+03  0.49873617873E+03  0.16848519431E+04  0.10100000352E+00 0. -1.
       -3    1    3    3    0  502  0.13842544940E+04  0.82087013580E+03  0.10818531695E+04  0.19391736834E+04  0.10100000352E+00 0.  1.
</event>
<event>
 5   0  0.3497546E-06  0.2555688E+04  0.7818609E-02  0.8383411E-01
       -2   -1    0    0    0  501  0.00000000000E+00  0.00000000000E+00  0.72006508402E+03  0.72006508402E+03  0.25500000920E-02 0. -1.
        2   -1    0    0  501    0  0.00000000000E+00  0.00000000000E+00 -0.22676907910E+04  0.22676907910E+04  0.25500000920E-02 0.  1.
    10030    2    1    2    0    0  0.00000000000E+00  0.00000000000E+00 -0.15476257070E+04  0.29877558751E+04  0.25556877430E+04 0.  0.
        4    1    3    3  502    0 -0.99984134232E+03  0.14933309665E+03 -0.16875525129E+04  0.19671853447E+04  0.12699999809E+01 0.  1.
       -4    1    3    3    0  502  0.99984134232E+03 -0.14933309665E+03  0.13992680591E+03  0.10205705304E+04  0.12699999809E+01 0. -1.
</event>
<event>
 5   0  0.1268836E-06  0.2816447E+04  0.7818609E-02  0.8298180E-01
       -1   -1    0    0    0  501  0.00000000000E+00  0.00000000000E+00  0.11739585037E+04  0.11739585037E+04  0.50400001928E-02 0.  1.
        1   -1    0    0  501    0  0.00000000000E+00  0.00000000000E+00 -0.16892359895E+04  0.16892359895E+04  0.50400001928E-02 0. -1.
    10030    2    1    2    0    0  0.00000000000E+00  0.00000000000E+00 -0.51527748580E+03  0.28631944932E+04  0.28164466653E+04 0.  0.
        1    1    3    3  502    0 -0.57099766134E+03 -0.78493573286E+03  0.77955572060E+03  0.12449375709E+04  0.50400001928E-02 0.  1.
       -1    1    3    3    0  502  0.57099766134E+03  0.78493573286E+03 -0.12948332064E+04  0.16182569222E+04  0.50400001928E-02 0. -1.
</event>
<event>
 5   0  0.1306843E-06  0.3278030E+04  0.7818609E-02  0.8168508E-01
       -1   -1    0    0    0  501  0.00000000000E+00  0.00000000000E+00  0.17554033013E+04  0.17554033013E+04  0.50400001928E-02 0. -1.
        1   -1    0    0  501    0  0.00000000000E+00  0.00000000000E+00 -0.15303431237E+04  0.15303431237E+04  0.50400001928E-02 0.  1.
    10030    2    1    2    0    0  0.00000000000E+00  0.00000000000E+00  0.22506017761E+03  0.32857464250E+04  0.32780295127E+04 0.  0.
        5    1    3    3  502    0  0.83448852621E+03  0.11154624630E+03 -0.12970284675E+04  0.15463242224E+04  0.46999998093E+01 0.  1.
       -5    1    3    3    0  502 -0.83448852621E+03 -0.11154624630E+03  0.15220886451E+04  0.17394222026E+04  0.46999998093E+01 0. -1.
</event>
<event>
 5   0  0.3656086E-06  0.3191855E+04  0.7818609E-02  0.8190972E-01
       -2   -1    0    0    0  501  0.00000000000E+00  0.00000000000E+00  0.27414935180E+04  0.27414935180E+04  0.25500000920E-02 0.  1.
        2   -1    0    0  501    0  0.00000000000E+00  0.00000000000E+00 -0.92904996776E+03  0.92904996777E+03  0.25500000920E-02 0. -1.
    10030    2    1    2    0    0  0.00000000000E+00  0.00000000000E+00  0.18124435503E+04  0.36705434858E+04  0.31918549244E+04 0.  0.
        3    1    3    3  502    0  0.20390971515E+03 -0.14174819587E+04  0.17162381646E+04  0.22352422068E+04  0.10100000352E+00 0.  1.
       -3    1    3    3    0  502 -0.20390971515E+03  0.14174819587E+04  0.96205385639E+02  0.14353012790E+04  0.10100000352E+00 0. -1.
</event>
<event>
 5   0  0.1273980E-06  0.3213009E+04  0.7818609E-02  0.8185390E-01
        1   -1    0    0  501    0  0.00000000000E+00  0.00000000000E+00  0.23079455964E+04  0.23079455964E+04  0.50400001928E-02 0. -1.
       -1   -1    0    0    0  501  0.00000000000E+00  0.00000000000E+00 -0.11182483909E+04  0.11182483909E+04  0.50400001928E-02 0.  1.
    10030    2    1    2    0    0  0.00000000000E+00  0.00000000000E+00  0.11896972055E+04  0.34261939873E+04  0.32130088388E+04 0.  0.
        4    1    3    3  502    0  0.27614677534E+03  0.11726047666E+04 -0.53849493756E+03  0.13195595443E+04  0.12699999809E+01 0.  1.
       -4    1    3    3    0  502 -0.27614677534E+03 -0.11726047666E+04  0.17281921431E+04  0.21066344430E+04  0.12699999809E+01 0. -1.
</event>
<event>
 5   0  0.3656086E-06  0.3242907E+04  0.7818609E-02  0.8177577E-01
       -2   -1    0    0    0  501  0.00000000000E+00  0.00000000000E+00  0.13960726171E+04  0.13960726171E+04  0.25500000920E-02 0. -1.
        2   -1    0    0  501    0  0.00000000000E+00  0.00000000000E+00 -0.18832200170E+04  0.18832200170E+04  0.25500000920E-02 0.  1.
    10030    2    1    2    0    0  0.00000000000E+00  0.00000000000E+00 -0.48714739986E+03  0.32792926341E+04  0.32429072745E+04 0.  0.
        3    1    3    3  502    0  0.10247657310E+04 -0.96376282151E+03 -0.10589257751E+04  0.17607689760E+04  0.10100000352E+00 0.  1.
       -3    1    3    3    0  502 -0.10247657310E+04  0.96376282151E+03  0.57177837528E+03  0.15185236581E+04  0.10100000352E+00 0. -1.
</event>
<event>
 5   0  0.1306843E-06  0.3171534E+04  0.7818609E-02  0.8196376E-01
        1   -1    0    0  501    0  0.00000000000E+00  0.00000000000E+00  0.19516923841E+04  0.19516923841E+04  0.50400001928E-02 0.  1.
       -1   -1    0    0    0  501  0.00000000000E+00  0.00000000000E+00 -0.12884494685E+04  0.12884494686E+04  0.50400001928E-02 0. -1.
    10030    2    1    2    0    0  0.00000000000E+00  0.00000000000E+00  0.66324291551E+03  0.32401418526E+04  0.31715340232E+04 0.  0.
        5    1    3    3  502    0 -0.39912409155E+03  0.89967315446E+03 -0.93862675493E+03  0.13600566534E+04  0.46999998093E+01 0. -1.
       -5    1    3    3    0  502  0.39912409155E+03 -0.89967315446E+03  0.16018696704E+04  0.18800851992E+04  0.46999998093E+01 0.  1.
</event>
<event>
 5   0  0.1273754E-06  0.2623694E+04  0.7818609E-02  0.8360197E-01
       -1   -1    0    0    0  501  0.00000000000E+00  0.00000000000E+00  0.19286338305E+04  0.19286338305E+04  0.50400001928E-02 0. -1.
        1   -1    0    0  501    0  0.00000000000E+00  0.00000000000E+00 -0.89231186566E+03  0.89231186568E+03  0.50400001928E-02 0.  1.
    10030    2    1    2    0    0  0.00000000000E+00  0.00000000000E+00  0.10363219649E+04  0.28209456962E+04  0.26236942288E+04 0.  0.
        2    1    3    3  502    0  0.29909841415E+02  0.13114910055E+04  0.51139541742E+03  0.14079874037E+04  0.25500000920E-02 0.  1.
       -2    1    3    3    0  502 -0.29909841415E+02 -0.13114910055E+04  0.52492654744E+03  0.14129582925E+04  0.25500000920E-02 0. -1.
</event>
<event>
 5   0  0.3745943E-06  0.3292247E+04  0.7818609E-02  0.8164871E-01
       -2   -1    0    0    0  501  0.00000000000E+00  0.00000000000E+00  0.12266812037E+04  0.12266812037E+04  0.25500000920E-02 0.  1.
        2   -1    0    0  501    0  0.00000000000E+00  0.00000000000E+00 -0.22089867640E+04  0.22089867640E+04  0.25500000920E-02 0. -1.
    10030    2    1    2    0    0  0.00000000000E+00  0.00000000000E+00 -0.98230556037E+03  0.34356679677E+04  0.32922469790E+04 0.  0.
        5    1    3    3  502    0 -0.87530041825E+03  0.16651247891E+03  0.95327720298E+03  0.13048512343E+04  0.46999998093E+01 0.  1.
       -5    1    3    3    0  502  0.87530041825E+03 -0.16651247891E+03 -0.19355827634E+04  0.21308167335E+04  0.46999998093E+01 0. -1.
</event>
<event>
 5   0  0.1268836E-06  0.3192284E+04  0.7818609E-02  0.8190858E-01
       -1   -1    0    0    0  501  0.00000000000E+00  0.00000000000E+00  0.12450656718E+04  0.12450656718E+04  0.50400001928E-02 0.  1.
        1   -1    0    0  501    0  0.00000000000E+00  0.00000000000E+00 -0.20462122737E+04  0.20462122737E+04  0.50400001928E-02 0. -1.
    10030    2    1    2    0    0  0.00000000000E+00  0.00000000000E+00 -0.80114660193E+03  0.32912779455E+04  0.31922836084E+04 0.  0.
        1    1    3    3  502    0  0.14780545897E+04  0.35463557485E+03  0.10162185081E+03  0.15233971123E+04  0.50400001928E-02 0.  1.
       -1    1    3    3    0  502 -0.14780545897E+04 -0.35463557485E+03 -0.90276845274E+03  0.17678808332E+04  0.50400001928E-02 0. -1.
</event>
<event>
 5   0  0.1268836E-06  0.3161828E+04  0.7818609E-02  0.8198972E-01
       -1   -1    0    0    0  501  0.00000000000E+00  0.00000000000E+00  0.13235218731E+04  0.13235218731E+04  0.50400001928E-02 0.  1.
        1   -1    0    0  501    0  0.00000000000E+00  0.00000000000E+00 -0.18883626079E+04  0.18883626079E+04  0.50400001928E-02 0. -1.
    10030    2    1    2    0    0  0.00000000000E+00  0.00000000000E+00 -0.56484073479E+03  0.32118844810E+04  0.31618280889E+04 0.  0.
        1    1    3    3  502    0  0.12975560710E+04  0.64491199672E+03  0.35982776341E+03  0.14929967382E+04  0.50400001928E-02 0.  1.
       -1    1    3    3    0  502 -0.12975560710E+04 -0.64491199672E+03 -0.92466849820E+03  0.17188877428E+04  0.50400001928E-02 0. -1.
</event>
<event>
 5   0  0.3656086E-06  0.3204282E+04  0.7818609E-02  0.8187687E-01
        2   -1    0    0  501    0  0.00000000000E+00  0.00000000000E+00  0.11768797872E+04  0.11768797873E+04  0.25500000920E-02 0.  1.
       -2   -1    0    0    0  501  0.00000000000E+00  0.00000000000E+00 -0.21810688418E+04  0.21810688418E+04  0.25500000920E-02 0. -1.
    10030    2    1    2    0    0  0.00000000000E+00  0.00000000000E+00 -0.10041890546E+04  0.33579486291E+04  0.32042820316E+04 0.  0.
        3    1    3    3  502    0 -0.63251983913E+03 -0.53423350564E+03 -0.19395033619E+04  0.21088290795E+04  0.10100000352E+00 0. -1.
       -3    1    3    3    0  502  0.63251983913E+03  0.53423350564E+03  0.93531430734E+03  0.12491195496E+04  0.10100000352E+00 0.  1.
</event>
<event>
 5   0  0.1273980E-06  0.3184683E+04  0.7818609E-02  0.8192874E-01
        1   -1    0    0  501    0  0.00000000000E+00  0.00000000000E+00  0.18941141720E+04  0.18941141720E+04  0.50400001928E-02 0.  1.
       -1   -1    0    0    0  501  0.00000000000E+00  0.00000000000E+00 -0.13386479554E+04  0.13386479554E+04  0.50400001928E-02 0. -1.
    10030    2    1    2    0    0  0.00000000000E+00  0.00000000000E+00  0.55546621664E+03  0.32327621275E+04  0.31846833838E+04 0.  0.
        4    1    3    3  502    0  0.14689893557E+04 -0.87727974564E+02  0.89512944852E+03  0.17224645910E+04  0.12699999809E+01 0.  1.
       -4    1    3    3    0  502 -0.14689893557E+04  0.87727974564E+02 -0.33966323188E+03  0.15102975365E+04  0.12699999809E+01 0. -1.
</event>
<event>
 5   0  0.1268836E-06  0.2915306E+04  0.7818609E-02  0.8268338E-01
        1   -1    0    0  501    0  0.00000000000E+00  0.00000000000E+00  0.17490187004E+04  0.17490187004E+04  0.50400001928E-02 0. -1.
       -1   -1    0    0    0  501  0.00000000000E+00  0.00000000000E+00 -0.12148256923E+04  0.12148256923E+04  0.50400001928E-02 0.  1.
    10030    2    1    2    0    0  0.00000000000E+00  0.00000000000E+00  0.53419300813E+03  0.29638443927E+04  0.29153064014E+04 0.  0.
        1    1    3    3  502    0  0.81318781523E+03 -0.10156875655E+04  0.93519620092E+03  0.16023381628E+04  0.50400001928E-02 0. -1.
       -1    1    3    3    0  502 -0.81318781523E+03  0.10156875655E+04 -0.40100319279E+03  0.13615062300E+04  0.50400001928E-02 0.  1.
</event>
<event>
 5   0  0.3745943E-06  0.3176559E+04  0.7818609E-02  0.8195035E-01
        2   -1    0    0  501    0  0.00000000000E+00  0.00000000000E+00  0.20289773079E+04  0.20289773079E+04  0.25500000920E-02 0. -1.
       -2   -1    0    0    0  501  0.00000000000E+00  0.00000000000E+00 -0.12433024482E+04  0.12433024482E+04  0.25500000920E-02 0.  1.
    10030    2    1    2    0    0  0.00000000000E+00  0.00000000000E+00  0.78567485971E+03  0.32722797562E+04  0.31765594308E+04 0.  0.
        5    1    3    3  502    0  0.47464393768E+03 -0.88138637334E+03 -0.87739740604E+03  0.13311563037E+04  0.46999998093E+01 0.  1.
       -5    1    3    3    0  502 -0.47464393768E+03  0.88138637334E+03  0.16630722657E+04  0.19411234525E+04  0.46999998093E+01 0. -1.
</event>
<event>
 5   0  0.1306843E-06  0.3190201E+04  0.7818609E-02  0.8191410E-01
       -1   -1    0    0    0  501  0.00000000000E+00  0.00000000000E+00  0.21969618279E+04  0.21969618279E+04  0.50400001928E-02 0. -1.
        1   -1    0    0  501    0  0.00000000000E+00  0.00000000000E+00 -0.11581200968E+04  0.11581200969E+04  0.50400001928E-02 0.  1.
    10030    2    1    2    0    0  0.00000000000E+00  0.00000000000E+00  0.10388417310E+04  0.33550819247E+04  0.31902010249E+04 0.  0.
        5    1    3    3  502    0  0.15072510707E+04  0.50006013088E+03  0.36181693548E+03  0.16287416951E+04  0.46999998093E+01 0.  1.
       -5    1    3    3    0  502 -0.15072510707E+04 -0.50006013088E+03  0.67702479554E+03  0.17263402296E+04  0.46999998093E+01 0. -1.
</event>
<event>
 5   0  0.3656086E-06  0.3214627E+04  0.7818609E-02  0.8184965E-01
       -2   -1    0    0    0  501  0.00000000000E+00  0.00000000000E+00  0.20576116125E+04  0.20576116125E+04  0.25500000920E-02 0. -1.
        2   -1    0    0  501    0  0.00000000000E+00  0.00000000000E+00 -0.12555611183E+04  0.12555611183E+04  0.25500000920E-02 0.  1.
    10030    2    1    2    0    0  0.00000000000E+00  0.00000000000E+00  0.80205049417E+03  0.33131727308E+04  0.32146272799E+04 0.  0.
        3    1    3    3  502    0 -0.36960578041E+03  0.69725314541E+03  0.18441954678E+04  0.20059479842E+04  0.10100000352E+00 0. -1.
       -3    1    3    3    0  502  0.36960578041E+03 -0.69725314541E+03 -0.10421449737E+04  0.13072247466E+04  0.10100000352E+00 0.  1.
</event>
<event>
 5   0  0.1273754E-06  0.3271068E+04  0.7818609E-02  0.8170296E-01
        1   -1    0    0  501    0  0.00000000000E+00  0.00000000000E+00  0.20498112855E+04  0.20498112855E+04  0.50400001928E-02 0. -1.
       -1   -1    0    0    0  501  0.00000000000E+00  0.00000000000E+00 -0.13049845267E+04  0.13049845267E+04  0.50400001928E-02 0.  1.
    10030    2    1    2    0    0  0.00000000000E+00  0.00000000000E+00  0.74482675884E+03  0.33547958123E+04  0.32710683333E+04 0.  0.
        2    1    3    3  502    0 -0.10572245741E+04  0.16894587192E+03 -0.89564249385E+03  0.13958660339E+04  0.25500000920E-02 0.  1.
       -2    1    3    3    0  502  0.10572245741E+04 -0.16894587192E+03  0.16404692527E+04  0.19589297784E+04  0.25500000920E-02 0. -1.
</event>
<event>
 5   0  0.1273980E-06  0.3190441E+04  0.7818609E-02  0.8191346E-01
       -1   -1    0    0    0  501  0.00000000000E+00  0.00000000000E+00  0.22434991600E+04  0.22434991600E+04  0.50400001928E-02 0.  1.
        1   -1    0    0  501    0  0.00000000000E+00  0.00000000000E+00 -0.11342677981E+04  0.11342677981E+04  0.50400001928E-02 0. -1.
    10030    2    1    2    0    0  0.00000000000E+00  0.00000000000E+00  0.11092313619E+04  0.33777669581E+04  0.31904412561E+04 0.  0.
        4    1    3    3  502    0  0.65189465073E+03 -0.11859377130E+04  0.14487830157E+04  0.19825208030E+04  0.12699999809E+01 0. -1.
       -4    1    3    3    0  502 -0.65189465073E+03  0.11859377130E+04 -0.33955165383E+03  0.13952461551E+04  0.12699999809E+01 0.  1.
</event>
<event>
 5   0  0.1268836E-06  0.3220050E+04  0.7818609E-02  0.8183542E-01
        1   -1    0    0  501    0  0.00000000000E+00  0.00000000000E+00  0.14584404724E+04  0.14584404724E+04  0.50400001928E-02 0.  1.
       -1   -1    0    0    0  501  0.00000000000E+00  0.00000000000E+00 -0.17773645843E+04  0.17773645843E+04  0.50400001928E-02 0. -1.
    10030    2    1    2    0    0  0.00000000000E+00  0.00000000000E+00 -0.31892411194E+03  0.32358050567E+04  0.32200499648E+04 0.  0.
        1    1    3    3  502    0 -0.11016855630E+04 -0.11722273736E+04 -0.22575718139E+03  0.16244366408E+04  0.50400001928E-02 0. -1.
       -1    1    3    3    0  502  0.11016855630E+04  0.11722273736E+04 -0.93166930543E+02  0.16113684160E+04  0.50400001928E-02 0.  1.
</event>
<event>
 5   0  0.1273980E-06  0.2730045E+04  0.7818609E-02  0.8325322E-01
       -1   -1    0    0    0  501  0.00000000000E+00  0.00000000000E+00  0.11610069195E+04  0.11610069195E+04  0.50400001928E-02 0.  1.
        1   -1    0    0  501    0  0.00000000000E+00  0.00000000000E+00 -0.16048880200E+04  0.16048880200E+04  0.50400001928E-02 0. -1.
    10030    2    1    2    0    0  0.00000000000E+00  0.00000000000E+00 -0.44388110054E+03  0.27658949395E+04  0.27300447588E+04 0.  0.
        4    1    3    3  502    0  0.50728565026E+03 -0.28447551424E+03  0.10291928020E+04  0.11821609390E+04  0.12699999809E+01 0.  1.
       -4    1    3    3    0  502 -0.50728565026E+03  0.28447551424E+03 -0.14730739025E+04  0.15837340005E+04  0.12699999809E+01 0. -1.
</event>
<event>
 5   0  0.3758062E-06  0.3136642E+04  0.7818609E-02  0.8205753E-01
       -2   -1    0    0    0  501  0.00000000000E+00  0.00000000000E+00  0.12697310437E+04  0.12697310437E+04  0.25500000920E-02 0.  1.
        2   -1    0    0  501    0  0.00000000000E+00  0.00000000000E+00 -0.19371273306E+04  0.19371273306E+04  0.25500000920E-02 0. -1.
    10030    2    1    2    0    0  0.00000000000E+00  0.00000000000E+00 -0.66739628691E+03  0.32068583743E+04  0.31366419669E+04 0.  0.
        2    1    3    3  502    0  0.74259573453E+02  0.32374835855E+03 -0.19007536104E+04  0.19295574030E+04  0.25500000920E-02 0. -1.
       -2    1    3    3    0  502 -0.74259573453E+02 -0.32374835855E+03  0.12333573235E+04  0.12773009713E+04  0.25500000920E-02 0.  1.
</event>
<event>
 5   0  0.3531437E-06  0.3235533E+04  0.7818609E-02  0.8179495E-01
       -2   -1    0    0    0  501  0.00000000000E+00  0.00000000000E+00  0.20994246753E+04  0.20994246753E+04  0.25500000920E-02 0.  1.
        2   -1    0    0  501    0  0.00000000000E+00  0.00000000000E+00 -0.12466123965E+04  0.12466123965E+04  0.25500000920E-02 0. -1.
    10030    2    1    2    0    0  0.00000000000E+00  0.00000000000E+00  0.85281227874E+03  0.33460370718E+04  0.32355332332E+04 0.  0.
        1    1    3    3  502    0 -0.35772959641E+03 -0.14065311394E+04 -0.31275555538E+03  0.14846266694E+04  0.50400001928E-02 0. -1.
       -1    1    3    3    0  502  0.35772959641E+03  0.14065311394E+04  0.11655678341E+04  0.18614104024E+04  0.50400001928E-02 0.  1.
</event>
<event>
 5   0  0.3656086E-06  0.3187934E+04  0.7818609E-02  0.8192011E-01
       -2   -1    0    0    0  501  0.00000000000E+00  0.00000000000E+00  0.12039678280E+04  0.12039678280E+04  0.25500000920E-02 0. -1.
        2   -1    0    0  501    0  0.00000000000E+00  0.00000000000E+00 -0.21102972718E+04  0.21102972718E+04  0.25500000920E-02 0.  1.
    10030    2    1    2    0    0  0.00000000000E+00  0.00000000000E+00 -0.90632944375E+03  0.33142650998E+04  0.31879335143E+04 0.  0.
        3    1    3    3  502    0 -0.11065226682E+04  0.87828829211E+03 -0.12206238045E+04  0.18670043443E+04  0.10100000352E+00 0.  1.
       -3    1    3    3    0  502  0.11065226682E+04 -0.87828829211E+03  0.31429436077E+03  0.14472607556E+04  0.10100000352E+00 0. -1.
</event>
<event>
 5   0  0.3531437E-06  0.3217780E+04  0.7818609E-02  0.8184137E-01
       -2   -1    0    0    0  501  0.00000000000E+00  0.00000000000E+00  0.21153831314E+04  0.21153831314E+04  0.25500000920E-02 0.  1.
        2   -1    0    0  501    0  0.00000000000E+00  0.00000000000E+00 -0.12236685186E+04  0.12236685186E+04  0.25500000920E-02 0. -1.
    10030    2    1    2    0    0  0.00000000000E+00  0.00000000000E+00  0.89171461279E+03  0.33390516500E+04  0.32177804416E+04 0.  0.
        1    1    3    3  502    0  0.85380129954E+03 -0.90292836466E+03 -0.61455175960E+03  0.13863369562E+04  0.50400001928E-02 0. -1.
       -1    1    3    3    0  502 -0.85380129954E+03  0.90292836466E+03  0.15062663724E+04  0.19527146938E+04  0.50400001928E-02 0.  1.
</event>
<event>
 5   0  0.3497546E-06  0.3020068E+04  0.7818609E-02  0.8238023E-01
       -2   -1    0    0    0  501  0.00000000000E+00  0.00000000000E+00  0.17500036173E+04  0.17500036173E+04  0.25500000920E-02 0. -1.
        2   -1    0    0  501    0  0.00000000000E+00  0.00000000000E+00 -0.13029702725E+04  0.13029702725E+04  0.25500000920E-02 0.  1.
    10030    2    1    2    0    0  0.00000000000E+00  0.00000000000E+00  0.44703334481E+03  0.30529738899E+04  0.30200680060E+04 0.  0.
        4    1    3    3  502    0 -0.12949160812E+04 -0.13059917729E+03 -0.55055311982E+03  0.14131433590E+04  0.12699999809E+01 0.  1.
       -4    1    3    3    0  502  0.12949160812E+04  0.13059917729E+03  0.99758646463E+03  0.16398305308E+04  0.12699999809E+01 0. -1.
</event>
<event>
 5   0  0.1240725E-06  0.3199152E+04  0.7818609E-02  0.8189041E-01
        1   -1    0    0  501    0  0.00000000000E+00  0.00000000000E+00  0.15080082041E+04  0.15080082041E+04  0.50400001928E-02 0. -1.
       -1   -1    0    0    0  501  0.00000000000E+00  0.00000000000E+00 -0.16967039925E+04  0.16967039925E+04  0.50400001928E-02 0.  1.
    10030    2    1    2    0    0  0.00000000000E+00  0.00000000000E+00 -0.18869578839E+03  0.32047121966E+04  0.31991521005E+04 0.  0.
        3    1    3    3  502    0 -0.21993238635E+03 -0.11622214209E+04  0.98433120450E+03  0.15388426873E+04  0.10100000352E+00 0. -1.
       -3    1    3    3    0  502  0.21993238635E+03  0.11622214209E+04 -0.11730269929E+04  0.16658695093E+04  0.10100000352E+00 0.  1.
</event>
<event>
 5   0  0.1268836E-06  0.3166992E+04  0.7818609E-02  0.8197589E-01
       -1   -1    0    0    0  501  0.00000000000E+00  0.00000000000E+00  0.71525873712E+03  0.71525873714E+03  0.50400001928E-02 0.  1.
        1   -1    0    0  501    0  0.00000000000E+00  0.00000000000E+00 -0.35056683405E+04  0.35056683405E+04  0.50400001928E-02 0. -1.
    10030    2    1    2    0    0  0.00000000000E+00  0.00000000000E+00 -0.27904096034E+04  0.42209270776E+04  0.31669922071E+04 0.  0.
        1    1    3    3  502    0 -0.11760770695E+04 -0.47890931887E+03 -0.26560445072E+04  0.29439911402E+04  0.50400001928E-02 0. -1.
       -1    1    3    3    0  502  0.11760770695E+04  0.47890931887E+03 -0.13436509613E+03  0.12769359374E+04  0.50400001928E-02 0.  1.
</event>
<event>
 5   0  0.1185575E-06  0.3174764E+04  0.7818609E-02  0.8195514E-01
        3   -1    0    0  501    0  0.00000000000E+00  0.00000000000E+00  0.16344810263E+04  0.16344810294E+04  0.10100000352E+00 0. -1.
       -3   -1    0    0    0  501  0.00000000000E+00  0.00000000000E+00 -0.15416401508E+04  0.15416401541E+04  0.10100000352E+00 0.  1.
    10030    2    1    2    0    0  0.00000000000E+00  0.00000000000E+00  0.92840875494E+02  0.31761211835E+04  0.31747639824E+04 0.  0.
        4    1    3    3  502    0 -0.20284842269E+03  0.14515053175E+04 -0.56356540479E+03  0.15702301576E+04  0.12699999809E+01 0.  1.
       -4    1    3    3    0  502  0.20284842269E+03 -0.14515053175E+04  0.65640628029E+03  0.16058910259E+04  0.12699999809E+01 0. -1.
</event>
<event>
 5   0  0.1268836E-06  0.3206158E+04  0.7818609E-02  0.8187193E-01
       -1   -1    0    0    0  501  0.00000000000E+00  0.00000000000E+00  0.13944882825E+04  0.13944882825E+04  0.50400001928E-02 0.  1.
        1   -1    0    0  501    0  0.00000000000E+00  0.00000000000E+00 -0.18428715036E+04  0.18428715036E+04  0.50400001928E-02 0. -1.
    10030    2    1    2    0    0  0.00000000000E+00  0.00000000000E+00 -0.44838322109E+03  0.32373597860E+04  0.32061582730E+04 0.  0.
        1    1    3    3  502    0 -0.49222008692E+03 -0.95913536730E+03 -0.14221784127E+04  0.17846043551E+04  0.50400001928E-02 0. -1.
       -1    1    3    3    0  502  0.49222008692E+03  0.95913536730E+03  0.97379519161E+03  0.14527554309E+04  0.50400001928E-02 0.  1.
</event>
<event>
 5   0  0.1273980E-06  0.3146566E+04  0.7818609E-02  0.8203073E-01
       -1   -1    0    0    0  501  0.00000000000E+00  0.00000000000E+00  0.17971247726E+04  0.17971247726E+04  0.50400001928E-02 0. -1.
        1   -1    0    0  501    0  0.00000000000E+00  0.00000000000E+00 -0.13773216266E+04  0.13773216266E+04  0.50400001928E-02 0.  1.
    10030    2    1    2    0    0  0.00000000000E+00  0.00000000000E+00  0.41980314597E+03  0.31744463992E+04  0.31465656294E+04 0.  0.
        4    1    3    3  502    0  0.38781297771E+03 -0.20197257658E+03 -0.13147888281E+04  0.13855912467E+04  0.12699999809E+01 0.  1.
       -4    1    3    3    0  502 -0.38781297771E+03  0.20197257658E+03  0.17345919741E+04  0.17888551526E+04  0.12699999809E+01 0. -1.
</event>
<event>
 5   0  0.1240725E-06  0.3187305E+04  0.7818609E-02  0.8192178E-01
        1   -1    0    0  501    0  0.00000000000E+00  0.00000000000E+00  0.15082765873E+04  0.15082765873E+04  0.50400001928E-02 0. -1.
       -1   -1    0    0    0  501  0.00000000000E+00  0.00000000000E+00 -0.16838608784E+04  0.16838608784E+04  0.50400001928E-02 0.  1.
    10030    2    1    2    0    0  0.00000000000E+00  0.00000000000E+00 -0.17558429118E+03  0.31921374657E+04  0.31873047794E+04 0.  0.
        3    1    3    3  502    0  0.15753474416E+03 -0.12188622079E+04  0.92828328703E+03  0.15401792586E+04  0.10100000352E+00 0. -1.
       -3    1    3    3    0  502 -0.15753474416E+03  0.12188622079E+04 -0.11038675782E+04  0.16519582071E+04  0.10100000352E+00 0.  1.
</event>
<event>
 5   0  0.3497546E-06  0.3059901E+04  0.7818609E-02  0.8226830E-01
       -2   -1    0    0    0  501  0.00000000000E+00  0.00000000000E+00  0.97146887209E+03  0.97146887209E+03  0.25500000920E-02 0. -1.
        2   -1    0    0  501    0  0.00000000000E+00  0.00000000000E+00 -0.24094934648E+04  0.24094934648E+04  0.25500000920E-02 0.  1.
    10030    2    1    2    0    0  0.00000000000E+00  0.00000000000E+00 -0.14380245927E+04  0.33809623369E+04  0.30599005857E+04 0.  0.
        4    1    3    3  502    0 -0.46236139828E+03 -0.12590969613E+04 -0.15321977656E+04  0.20363533157E+04  0.12699999809E+01 0.  1.
       -4    1    3    3    0  502  0.46236139828E+03  0.12590969613E+04  0.94173172881E+02  0.13446090212E+04  0.12699999809E+01 0. -1.
</event>
<event>
 5   0  0.1273754E-06  0.3168834E+04  0.7818609E-02  0.8197097E-01
       -1   -1    0    0    0  501  0.00000000000E+00  0.00000000000E+00  0.12048714421E+04  0.12048714421E+04  0.50400001928E-02 0.  1.
        1   -1    0    0  501    0  0.00000000000E+00  0.00000000000E+00 -0.20835233921E+04  0.20835233921E+04  0.50400001928E-02 0. -1.
    10030    2    1    2    0    0  0.00000000000E+00  0.00000000000E+00 -0.87865195004E+03  0.32883948342E+04  0.31688343813E+04 0.  0.
        2    1    3    3  502    0 -0.12735191677E+04 -0.84488095045E+03 -0.87307101995E+03  0.17600931501E+04  0.25500000920E-02 0. -1.
       -2    1    3    3    0  502  0.12735191677E+04  0.84488095045E+03 -0.55809300936E+01  0.15283016842E+04  0.25500000920E-02 0.  1.
</event>
<event>
 5   0  0.1240725E-06  0.2345260E+04  0.7818609E-02  0.8460286E-01
        1   -1    0    0  501    0  0.00000000000E+00  0.00000000000E+00  0.23894906524E+04  0.23894906524E+04  0.50400001928E-02 0.  1.
       -1   -1    0    0    0  501  0.00000000000E+00  0.00000000000E+00 -0.57546206106E+03  0.57546206108E+03  0.50400001928E-02 0. -1.
    10030    2    1    2    0    0  0.00000000000E+00  0.00000000000E+00  0.18140285913E+04  0.29649527135E+04  0.23452600843E+04 0.  0.
        3    1    3    3  502    0 -0.58393720213E+01 -0.23979700968E+03 -0.54411499909E+03  0.59464093918E+03  0.10100000352E+00 0. -1.
       -3    1    3    3    0  502  0.58393720213E+01  0.23979700968E+03  0.23581435904E+04  0.23703117743E+04  0.10100000352E+00 0.  1.
</event>
<event>
 5   0  0.3745943E-06  0.3250789E+04  0.7818609E-02  0.8175531E-01
        2   -1    0    0  501    0  0.00000000000E+00  0.00000000000E+00  0.19067423251E+04  0.19067423251E+04  0.25500000920E-02 0.  1.
       -2   -1    0    0    0  501  0.00000000000E+00  0.00000000000E+00 -0.13855606726E+04  0.13855606726E+04  0.25500000920E-02 0. -1.
    10030    2    1    2    0    0  0.00000000000E+00  0.00000000000E+00  0.52118165256E+03  0.32923029977E+04  0.32507889371E+04 0.  0.
        5    1    3    3  502    0  0.10816437647E+04 -0.10353643611E+03 -0.96365222723E+03  0.14523500722E+04  0.46999998093E+01 0. -1.
       -5    1    3    3    0  502 -0.10816437647E+04  0.10353643611E+03  0.14848338798E+04  0.18399529255E+04  0.46999998093E+01 0.  1.
</event>
<event>
 5   0  0.1273754E-06  0.3181602E+04  0.7818609E-02  0.8193693E-01
       -1   -1    0    0    0  501  0.00000000000E+00  0.00000000000E+00  0.17706471109E+04  0.17706471109E+04  0.50400001928E-02 0.  1.
        1   -1    0    0  501    0  0.00000000000E+00  0.00000000000E+00 -0.14292219101E+04  0.14292219101E+04  0.50400001928E-02 0. -1.
    10030    2    1    2    0    0  0.00000000000E+00  0.00000000000E+00  0.34142520078E+03  0.31998690210E+04  0.31816018896E+04 0.  0.
        2    1    3    3  502    0 -0.50057408376E+03  0.13008527904E+04  0.94183188908E+03  0.16822127401E+04  0.25500000920E-02 0.  1.
       -2    1    3    3    0  502  0.50057408376E+03 -0.13008527904E+04 -0.60040668830E+03  0.15176562809E+04  0.25500000920E-02 0. -1.
</event>
<event>
 5   0  0.1306843E-06  0.3159141E+04  0.7818609E-02  0.8199692E-01
        1   -1    0    0  501    0  0.00000000000E+00  0.00000000000E+00  0.26267024009E+04  0.26267024009E+04  0.50400001928E-02 0.  1.
       -1   -1    0    0    0  501  0.00000000000E+00  0.00000000000E+00 -0.94987660683E+03  0.94987660684E+03  0.50400001928E-02 0. -1.
    10030    2    1    2    0    0  0.00000000000E+00  0.00000000000E+00  0.16768257941E+04  0.35765790078E+04  0.31591411262E+04 0.  0.
        5    1    3    3  502    0  0.12130955461E+04  0.23782984002E+03  0.19516302615E+04  0.23102048837E+04  0.46999998093E+01 0.  1.
       -5    1    3    3    0  502 -0.12130955461E+04 -0.23782984002E+03 -0.27480446744E+03  0.12663741241E+04  0.46999998093E+01 0. -1.
</event>
<event>
 5   0  0.1306843E-06  0.3088766E+04  0.7818609E-02  0.8218828E-01
        1   -1    0    0  501    0  0.00000000000E+00  0.00000000000E+00  0.21345053533E+04  0.21345053533E+04  0.50400001928E-02 0. -1.
       -1   -1    0    0    0  501  0.00000000000E+00  0.00000000000E+00 -0.11174104581E+04  0.11174104581E+04  0.50400001928E-02 0.  1.
    10030    2    1    2    0    0  0.00000000000E+00  0.00000000000E+00  0.10170948952E+04  0.32519158114E+04  0.30887658407E+04 0.  0.
        5    1    3    3  502    0 -0.82050038046E+03  0.72967004127E+03  0.16519401446E+04  0.19835744440E+04  0.46999998093E+01 0. -1.
       -5    1    3    3    0  502  0.82050038046E+03 -0.72967004127E+03 -0.63484524945E+03  0.12683413674E+04  0.46999998093E+01 0.  1.
</event>
<event>
 5   0  0.3758062E-06  0.3126674E+04  0.7818609E-02  0.8208455E-01
       -2   -1    0    0    0  501  0.00000000000E+00  0.00000000000E+00  0.12370130590E+04  0.12370130590E+04  0.25500000920E-02 0.  1.
        2   -1    0    0  501    0  0.00000000000E+00  0.00000000000E+00 -0.19757447976E+04  0.19757447976E+04  0.25500000920E-02 0. -1.
    10030    2    1    2    0    0  0.00000000000E+00  0.00000000000E+00 -0.73873173855E+03  0.32127578566E+04  0.31266737059E+04 0.  0.
        2    1    3    3  502    0 -0.57703910586E+02 -0.77849581037E+03  0.10224137262E+04  0.12863573748E+04  0.25500000920E-02 0.  1.
       -2    1    3    3    0  502  0.57703910586E+02  0.77849581037E+03 -0.17611454648E+04  0.19264004818E+04  0.25500000920E-02 0. -1.
</event>
<event>
 5   0  0.3758062E-06  0.3254409E+04  0.7818609E-02  0.8174594E-01
       -2   -1    0    0    0  501  0.00000000000E+00  0.00000000000E+00  0.16408661187E+04  0.16408661187E+04  0.25500000920E-02 0.  1.
        2   -1    0    0  501    0  0.00000000000E+00  0.00000000000E+00 -0.16136562444E+04  0.16136562444E+04  0.25500000920E-02 0. -1.
    10030    2    1    2    0    0  0.00000000000E+00  0.00000000000E+00  0.27209874241E+02  0.32545223631E+04  0.32544086152E+04 0.  0.
        2    1    3    3  502    0 -0.15052529962E+04  0.50256951178E+03 -0.34617306362E+03  0.16242532089E+04  0.25500000920E-02 0.  1.
       -2    1    3    3    0  502  0.15052529962E+04 -0.50256951178E+03  0.37338293786E+03  0.16302691542E+04  0.25500000920E-02 0. -1.
</event>
<event>
 5   0  0.3656086E-06  0.2934453E+04  0.7818609E-02  0.8262700E-01
        2   -1    0    0  501    0  0.00000000000E+00  0.00000000000E+00  0.25397863739E+04  0.25397863739E+04  0.25500000920E-02 0.  1.
       -2   -1    0    0    0  501  0.00000000000E+00  0.00000000000E+00 -0.84761194741E+03  0.84761194741E+03  0.25500000920E-02 0. -1.
    10030    2    1    2    0    0  0.00000000000E+00  0.00000000000E+00  0.16921744264E+04  0.33873983213E+04  0.29344527765E+04 0.  0.
        3    1    3    3  502    0  0.27561397971E+03 -0.83977879142E+03  0.21979942554E+04  0.23690441619E+04  0.10100000352E+00 0.  1.
       -3    1    3    3    0  502 -0.27561397971E+03  0.83977879142E+03 -0.50581982891E+03  0.10183541593E+04  0.10100000352E+00 0. -1.
</event>
<event>
 5   0  0.3497546E-06  0.3172074E+04  0.7818609E-02  0.8196231E-01
       -2   -1    0    0    0  501  0.00000000000E+00  0.00000000000E+00  0.17923902519E+04  0.17923902519E+04  0.25500000920E-02 0. -1.
        2   -1    0    0  501    0  0.00000000000E+00  0.00000000000E+00 -0.14034409024E+04  0.14034409024E+04  0.25500000920E-02 0.  1.
    10030    2    1    2    0    0  0.00000000000E+00  0.00000000000E+00  0.38894934947E+03  0.31958311543E+04  0.31720742694E+04 0.  0.
        4    1    3    3  502    0  0.13045614671E+04 -0.89007932383E+03  0.47124898255E+02  0.15799823395E+04  0.12699999809E+01 0.  1.
       -4    1    3    3    0  502 -0.13045614671E+04  0.89007932383E+03  0.34182445121E+03  0.16158488149E+04  0.12699999809E+01 0. -1.
</event>
<event>
 5   0  0.1268836E-06  0.3225497E+04  0.7818609E-02  0.8182116E-01
       -1   -1    0    0    0  501  0.00000000000E+00  0.00000000000E+00  0.98867841818E+03  0.98867841819E+03  0.50400001928E-02 0. -1.
        1   -1    0    0  501    0  0.00000000000E+00  0.00000000000E+00 -0.26307414221E+04  0.26307414221E+04  0.50400001928E-02 0.  1.
    10030    2    1    2    0    0  0.00000000000E+00  0.00000000000E+00 -0.16420630039E+04  0.36194198403E+04  0.32254967170E+04 0.  0.
        1    1    3    3  502    0  0.15915305389E+04 -0.12542754000E+03 -0.56451850498E+03  0.16933347769E+04  0.50400001928E-02 0.  1.
       -1    1    3    3    0  502 -0.15915305389E+04  0.12542754000E+03 -0.10775444989E+04  0.19260850634E+04  0.50400001928E-02 0. -1.
</event>
<event>
 5   0  0.3497546E-06  0.3306696E+04  0.7818609E-02  0.8161194E-01
        2   -1    0    0  501    0  0.00000000000E+00  0.00000000000E+00  0.19186742154E+04  0.19186742154E+04  0.25500000920E-02 0. -1.
       -2   -1    0    0    0  501  0.00000000000E+00  0.00000000000E+00 -0.14247128469E+04  0.14247128469E+04  0.25500000920E-02 0.  1.
    10030    2    1    2    0    0  0.00000000000E+00  0.00000000000E+00  0.49396136847E+03  0.33433870623E+04  0.33066961177E+04 0.  0.
        4    1    3    3  502    0  0.83558572544E+03 -0.44596713590E+03  0.16171809730E+04  0.18741307594E+04  0.12699999809E+01 0. -1.
       -4    1    3    3    0  502 -0.83558572544E+03  0.44596713590E+03 -0.11232196045E+04  0.14692563030E+04  0.12699999809E+01 0.  1.
</event>
<event>
 5   0  0.1273980E-06  0.3138958E+04  0.7818609E-02  0.8205127E-01
        1   -1    0    0  501    0  0.00000000000E+00  0.00000000000E+00  0.24330360394E+04  0.24330360394E+04  0.50400001928E-02 0.  1.
       -1   -1    0    0    0  501  0.00000000000E+00  0.00000000000E+00 -0.10124241774E+04  0.10124241774E+04  0.50400001928E-02 0. -1.
    10030    2    1    2    0    0  0.00000000000E+00  0.00000000000E+00  0.14206118620E+04  0.34454602168E+04  0.31389581143E+04 0.  0.
        4    1    3    3  502    0 -0.14253814162E+04 -0.53197834638E+03  0.11333617660E+04  0.18971619984E+04  0.12699999809E+01 0.  1.
       -4    1    3    3    0  502  0.14253814162E+04  0.53197834638E+03  0.28725009601E+03  0.15482982184E+04  0.12699999809E+01 0. -1.
</event>
<event>
 5   0  0.3531437E-06  0.3207681E+04  0.7818609E-02  0.8186791E-01
       -2   -1    0    0    0  501  0.00000000000E+00  0.00000000000E+00  0.12569637632E+04  0.12569637632E+04  0.25500000920E-02 0.  1.
        2   -1    0    0  501    0  0.00000000000E+00  0.00000000000E+00 -0.20464431671E+04  0.20464431671E+04  0.25500000920E-02 0. -1.
    10030    2    1    2    0    0  0.00000000000E+00  0.00000000000E+00 -0.78947940394E+03  0.33034069303E+04  0.32076813460E+04 0.  0.
        1    1    3    3  502    0  0.93473651318E+03  0.89367745277E+03  0.58220764942E+03  0.14182233554E+04  0.50400001928E-02 0.  1.
       -1    1    3    3    0  502 -0.93473651318E+03 -0.89367745277E+03 -0.13716870534E+04  0.18851835749E+04  0.50400001928E-02 0. -1.
</event>
<event>
 5   0  0.1240725E-06  0.3178082E+04  0.7818609E-02  0.8194630E-01
        1   -1    0    0  501    0  0.00000000000E+00  0.00000000000E+00  0.18151409927E+04  0.18151409927E+04  0.50400001928E-02 0.  1.
       -1   -1    0    0    0  501  0.00000000000E+00  0.00000000000E+00 -0.13911049429E+04  0.13911049429E+04  0.50400001928E-02 0. -1.
    10030    2    1    2    0    0  0.00000000000E+00  0.00000000000E+00  0.42403604973E+03  0.32062459356E+04  0.31780821934E+04 0.  0.
        3    1    3    3  502    0 -0.13631289684E+04  0.59610286991E+03  0.77516936476E+03  0.16776014933E+04  0.10100000352E+00 0.  1.
       -3    1    3    3    0  502  0.13631289684E+04 -0.59610286991E+03 -0.35113331503E+03  0.15286444423E+04  0.10100000352E+00 0. -1.
</event>
<event>
 5   0  0.3656086E-06  0.3231887E+04  0.7818609E-02  0.8180446E-01
        2   -1    0    0  501    0  0.00000000000E+00  0.00000000000E+00  0.11855076001E+04  0.11855076001E+04  0.25500000920E-02 0.  1.
       -2   -1    0    0    0  501  0.00000000000E+00  0.00000000000E+00 -0.22026626808E+04  0.22026626808E+04  0.25500000920E-02 0. -1.
    10030    2    1    2    0    0  0.00000000000E+00  0.00000000000E+00 -0.10171550807E+04  0.33881702809E+04  0.32318869712E+04 0.  0.
        3    1    3    3  502    0  0.86704505100E+01 -0.56061737854E+03  0.10802644393E+04  0.12171024159E+04  0.10100000352E+00 0.  1.
       -3    1    3    3    0  502 -0.86704505100E+01  0.56061737854E+03 -0.20974195199E+04  0.21710678650E+04  0.10100000352E+00 0. -1.
</event>
<event>
 5   0  0.1306843E-06  0.3160487E+04  0.7818609E-02  0.8199331E-01
        1   -1    0    0  501    0  0.00000000000E+00  0.00000000000E+00  0.24423581966E+04  0.24423581966E+04  0.50400001928E-02 0. -1.
       -1   -1    0    0    0  501  0.00000000000E+00  0.00000000000E+00 -0.10224421221E+04  0.10224421221E+04  0.50400001928E-02 0.  1.
    10030    2    1    2    0    0  0.00000000000E+00  0.00000000000E+00  0.14199160745E+04  0.34648003188E+04  0.31604872394E+04 0.  0.
        5    1    3    3  502    0 -0.96977976033E+03  0.59660179726E+03  0.19112509015E+04  0.22247041571E+04  0.46999998093E+01 0. -1.
       -5    1    3    3    0  502  0.96977976033E+03 -0.59660179726E+03 -0.49133482697E+03  0.12400961617E+04  0.46999998093E+01 0.  1.
</event>
<event>
 5   0  0.3531437E-06  0.3205540E+04  0.7818609E-02  0.8187356E-01
       -2   -1    0    0    0  501  0.00000000000E+00  0.00000000000E+00  0.12480639776E+04  0.12480639776E+04  0.25500000920E-02 0. -1.
        2   -1    0    0  501    0  0.00000000000E+00  0.00000000000E+00 -0.20582848585E+04  0.20582848585E+04  0.25500000920E-02 0.  1.
    10030    2    1    2    0    0  0.00000000000E+00  0.00000000000E+00 -0.81022088088E+03  0.33063488361E+04  0.32055396972E+04 0.  0.
        1    1    3    3  502    0  0.15547891286E+04 -0.20059514738E+03 -0.74916233126E+03  0.17374843442E+04  0.50400001928E-02 0. -1.
       -1    1    3    3    0  502 -0.15547891286E+04  0.20059514738E+03 -0.61058549615E+02  0.15688644920E+04  0.50400001928E-02 0.  1.
</event>
<event>
 5   0  0.3656086E-06  0.3310192E+04  0.7818609E-02  0.8160307E-01
        2   -1    0    0  501    0  0.00000000000E+00  0.00000000000E+00  0.24648970105E+04  0.24648970105E+04  0.25500000920E-02 0. -1.
       -2   -1    0    0    0  501  0.00000000000E+00  0.00000000000E+00 -0.11113417107E+04  0.11113417107E+04  0.25500000920E-02 0.  1.
    10030    2    1    2    0    0  0.00000000000E+00  0.00000000000E+00  0.13535552998E+04  0.35762387212E+04  0.33101920551E+04 0.  0.
        3    1    3    3  502    0 -0.33061637381E+03  0.80897268958E+03 -0.84174995630E+03  0.12133783409E+04  0.10100000352E+00 0.  1.
       -3    1    3    3    0  502  0.33061637381E+03 -0.80897268958E+03  0.21953052561E+04  0.23628603803E+04  0.10100000352E+00 0. -1.
</event>
<event>
 5   0  0.1185575E-06  0.3266350E+04  0.7818609E-02  0.8171511E-01
       -3   -1    0    0    0  501  0.00000000000E+00  0.00000000000E+00  0.16379685723E+04  0.16379685754E+04  0.10100000352E+00 0.  1.
        3   -1    0    0  501    0  0.00000000000E+00  0.00000000000E+00 -0.16283951131E+04  0.16283951162E+04  0.10100000352E+00 0. -1.
    10030    2    1    2    0    0  0.00000000000E+00  0.00000000000E+00  0.95734591944E+01  0.32663636916E+04  0.32663496620E+04 0.  0.
        4    1    3    3  502    0 -0.14210783916E+04 -0.73311423963E+03  0.33695999781E+03  0.16341554199E+04  0.12699999809E+01 0. -1.
       -4    1    3    3    0  502  0.14210783916E+04  0.73311423963E+03 -0.32738653861E+03  0.16322082717E+04  0.12699999809E+01 0.  1.
</event>
<event>
 5   0  0.1273980E-06  0.3163562E+04  0.7818609E-02  0.8198507E-01
       -1   -1    0    0    0  501  0.00000000000E+00  0.00000000000E+00  0.15236215742E+04  0.15236215743E+04  0.50400001928E-02 0.  1.
        1   -1    0    0  501    0  0.00000000000E+00  0.00000000000E+00 -0.16421606164E+04  0.16421606164E+04  0.50400001928E-02 0. -1.
    10030    2    1    2    0    0  0.00000000000E+00  0.00000000000E+00 -0.11853904218E+03  0.31657821907E+04  0.31635621338E+04 0.  0.
        4    1    3    3  502    0 -0.12384823201E+04 -0.74280014722E+03  0.58650435523E+03  0.15587108416E+04  0.12699999809E+01 0.  1.
       -4    1    3    3    0  502  0.12384823201E+04  0.74280014722E+03 -0.70504339741E+03  0.16070713491E+04  0.12699999809E+01 0. -1.
</event>
<event>
 5   0  0.1273754E-06  0.3236668E+04  0.7818609E-02  0.8179200E-01
       -1   -1    0    0    0  501  0.00000000000E+00  0.00000000000E+00  0.14803835228E+04  0.14803835228E+04  0.50400001928E-02 0.  1.
        1   -1    0    0  501    0  0.00000000000E+00  0.00000000000E+00 -0.17691393229E+04  0.17691393229E+04  0.50400001928E-02 0. -1.
    10030    2    1    2    0    0  0.00000000000E+00  0.00000000000E+00 -0.28875580003E+03  0.32495228457E+04  0.32366678564E+04 0.  0.
        2    1    3    3  502    0 -0.16726934195E+02 -0.37609860468E+03  0.14358093308E+04  0.14843444294E+04  0.25500000920E-02 0.  1.
       -2    1    3    3    0  502  0.16726934195E+02  0.37609860468E+03 -0.17245651308E+04  0.17651784163E+04  0.25500000920E-02 0. -1.
</event>
<event>
 5   0  0.3497546E-06  0.3201060E+04  0.7818609E-02  0.8188537E-01
        2   -1    0    0  501    0  0.00000000000E+00  0.00000000000E+00  0.19036802640E+04  0.19036802640E+04  0.25500000920E-02 0.  1.
       -2   -1    0    0    0  501  0.00000000000E+00  0.00000000000E+00 -0.13456550000E+04  0.13456550000E+04  0.25500000920E-02 0. -1.
    10030    2    1    2    0    0  0.00000000000E+00  0.00000000000E+00  0.55802526394E+03  0.32493352640E+04  0.32010603653E+04 0.  0.
        4    1    3    3  502    0 -0.62377502113E+03 -0.11053088660E+04  0.12688556451E+04  0.17946585267E+04  0.12699999809E+01 0.  1.
       -4    1    3    3    0  502  0.62377502113E+03  0.11053088660E+04 -0.71083038119E+03  0.14546767373E+04  0.12699999809E+01 0. -1.
</event>
<event>
 5   0  0.3531437E-06  0.3120612E+04  0.7818609E-02  0.8210104E-01
        2   -1    0    0  501    0  0.00000000000E+00  0.00000000000E+00  0.72488604535E+03  0.72488604535E+03  0.25500000920E-02 0.  1.
       -2   -1    0    0    0  501  0.00000000000E+00  0.00000000000E+00 -0.33585345696E+04  0.33585345697E+04  0.25500000920E-02 0. -1.
    10030    2    1    2    0    0  0.00000000000E+00  0.00000000000E+00 -0.26336485243E+04  0.40834206150E+04  0.31206120184E+04 0.  0.
        1    1    3    3  502    0  0.15280782238E+04 -0.23824411644E+02 -0.90517877434E+03  0.17762148727E+04  0.50400001928E-02 0. -1.
       -1    1    3    3    0  502 -0.15280782238E+04  0.23824411644E+02 -0.17284697500E+04  0.23072057423E+04  0.50400001928E-02 0.  1.
</event>
<event>
 5   0  0.1268836E-06  0.2982905E+04  0.7818609E-02  0.8248629E-01
       -1   -1    0    0    0  501  0.00000000000E+00  0.00000000000E+00  0.22426791782E+04  0.22426791782E+04  0.50400001928E-02 0. -1.
        1   -1    0    0  501    0  0.00000000000E+00  0.00000000000E+00 -0.99186335400E+03  0.99186335401E+03  0.50400001928E-02 0.  1.
    10030    2    1    2    0    0  0.00000000000E+00  0.00000000000E+00  0.12508158242E+04  0.32345425322E+04  0.29829054907E+04 0.  0.
        1    1    3    3  502    0 -0.14599310582E+03 -0.85406496495E+03 -0.69095758646E+03  0.11082253100E+04  0.50400001928E-02 0.  1.
       -1    1    3    3    0  502  0.14599310582E+03  0.85406496495E+03  0.19417734106E+04  0.21263172222E+04  0.50400001928E-02 0. -1.
</event>
<event>
 5   0  0.3745943E-06  0.2822582E+04  0.7818609E-02  0.8296292E-01
        2   -1    0    0  501    0  0.00000000000E+00  0.00000000000E+00  0.16631352344E+04  0.16631352344E+04  0.25500000920E-02 0. -1.
       -2   -1    0    0    0  501  0.00000000000E+00  0.00000000000E+00 -0.11975830487E+04  0.11975830487E+04  0.25500000920E-02 0.  1.
    10030    2    1    2    0    0  0.00000000000E+00  0.00000000000E+00  0.46555218577E+03  0.28607182831E+04  0.28225821968E+04 0.  0.
        5    1    3    3  502    0  0.10129643547E+04  0.30864981585E+03  0.11783112931E+04  0.15842351739E+04  0.46999998093E+01 0. -1.
       -5    1    3    3    0  502 -0.10129643547E+04 -0.30864981585E+03 -0.71275910738E+03  0.12764831092E+04  0.46999998093E+01 0.  1.
</event>
<event>
 5   0  0.1273980E-06  0.3182854E+04  0.7818609E-02  0.8193360E-01
        1   -1    0    0  501    0  0.00000000000E+00  0.00000000000E+00  0.23086111023E+04  0.23086111023E+04  0.50400001928E-02 0.  1.
       -1   -1    0    0    0  501  0.00000000000E+00  0.00000000000E+00 -0.10970408421E+04  0.10970408421E+04  0.50400001928E-02 0. -1.
    10030    2    1    2    0    0  0.00000000000E+00  0.00000000000E+00  0.12115702602E+04  0.34056519444E+04  0.31828544848E+04 0.  0.
        4    1    3    3  502    0 -0.13273494606E+04 -0.94450270722E+02 -0.32816034600E+03  0.13705722417E+04  0.12699999809E+01 0. -1.
       -4    1    3    3    0  502  0.13273494606E+04  0.94450270722E+02  0.15397306062E+04  0.20350797028E+04  0.12699999809E+01 0.  1.
</event>
<event>
 5   0  0.1240725E-06  0.3200567E+04  0.7818609E-02  0.8188668E-01
        1   -1    0    0  501    0  0.00000000000E+00  0.00000000000E+00  0.16270331972E+04  0.16270331972E+04  0.50400001928E-02 0.  1.
       -1   -1    0    0    0  501  0.00000000000E+00  0.00000000000E+00 -0.15739731028E+04  0.15739731028E+04  0.50400001928E-02 0. -1.
    10030    2    1    2    0    0  0.00000000000E+00  0.00000000000E+00  0.53060094384E+02  0.32010063001E+04  0.32005665060E+04 0.  0.
        3    1    3    3  502    0  0.73372721210E+02 -0.14606524427E+04  0.67624794975E+03  0.16112729174E+04  0.10100000352E+00 0.  1.
       -3    1    3    3    0  502 -0.73372721210E+02  0.14606524427E+04 -0.62318785536E+03  0.15897333826E+04  0.10100000352E+00 0. -1.
</event>
<event>
 5   0  0.1273754E-06  0.3141840E+04  0.7818609E-02  0.8204348E-01
       -1   -1    0    0    0  501  0.00000000000E+00  0.00000000000E+00  0.26110963998E+04  0.26110963998E+04  0.50400001928E-02 0.  1.
        1   -1    0    0  501    0  0.00000000000E+00  0.00000000000E+00 -0.94511616030E+03  0.94511616032E+03  0.50400001928E-02 0. -1.
    10030    2    1    2    0    0  0.00000000000E+00  0.00000000000E+00  0.16659802395E+04  0.35562125601E+04  0.31418398454E+04 0.  0.
        2    1    3    3  502    0  0.11919866122E+04  0.70573421688E+03  0.16715786400E+04  0.21709601605E+04  0.25500000920E-02 0.  1.
       -2    1    3    3    0  502 -0.11919866122E+04 -0.70573421688E+03 -0.55984005270E+01  0.13852523996E+04  0.25500000920E-02 0. -1.
</event>
<event>
 5   0  0.3497546E-06  0.3294391E+04  0.7818609E-02  0.8164324E-01
       -2   -1    0    0    0  501  0.00000000000E+00  0.00000000000E+00  0.11716986134E+04  0.11716986134E+04  0.25500000920E-02 0.  1.
        2   -1    0    0  501    0  0.00000000000E+00  0.00000000000E+00 -0.23156581217E+04  0.23156581217E+04  0.25500000920E-02 0. -1.
    10030    2    1    2    0    0  0.00000000000E+00  0.00000000000E+00 -0.11439595083E+04  0.34873567351E+04  0.32943912398E+04 0.  0.
        4    1    3    3  502    0 -0.83506581907E+03 -0.12002558302E+04  0.23093502360E+03  0.14802978005E+04  0.12699999809E+01 0.  1.
       -4    1    3    3    0  502  0.83506581907E+03  0.12002558302E+04 -0.13748945319E+04  0.20070589346E+04  0.12699999809E+01 0. -1.
</event>
<event>
 5   0  0.1268836E-06  0.3216549E+04  0.7818609E-02  0.8184460E-01
        1   -1    0    0  501    0  0.00000000000E+00  0.00000000000E+00  0.21414381440E+04  0.21414381440E+04  0.50400001928E-02 0. -1.
       -1   -1    0    0    0  501  0.00000000000E+00  0.00000000000E+00 -0.12078550660E+04  0.12078550660E+04  0.50400001928E-02 0.  1.
    10030    2    1    2    0    0  0.00000000000E+00  0.00000000000E+00  0.93358307803E+03  0.33492932101E+04  0.32165490271E+04 0.  0.
        1    1    3    3  502    0 -0.41883579994E+03  0.12004790768E+04  0.14923086748E+04  0.19604995848E+04  0.50400001928E-02 0. -1.
       -1    1    3    3    0  502  0.41883579994E+03 -0.12004790768E+04 -0.55872559675E+03  0.13887936253E+04  0.50400001928E-02 0.  1.
</event>
<event>
 5   0  0.1240725E-06  0.3211812E+04  0.7818609E-02  0.8185705E-01
       -1   -1    0    0    0  501  0.00000000000E+00  0.00000000000E+00  0.11242987756E+04  0.11242987756E+04  0.50400001928E-02 0.  1.
        1   -1    0    0  501    0  0.00000000000E+00  0.00000000000E+00 -0.22938154920E+04  0.22938154920E+04  0.50400001928E-02 0. -1.
    10030    2    1    2    0    0  0.00000000000E+00  0.00000000000E+00 -0.11695167164E+04  0.34181142677E+04  0.32118119180E+04 0.  0.
        3    1    3    3  502    0  0.60784450572E+02 -0.10585275250E+04 -0.18683649794E+04  0.21482464889E+04  0.10100000352E+00 0. -1.
       -3    1    3    3    0  502 -0.60784450572E+02  0.10585275250E+04  0.69884826300E+03  0.12698677787E+04  0.10100000352E+00 0.  1.
</event>
<event>
 5   0  0.3758062E-06  0.3181358E+04  0.7818609E-02  0.8193758E-01
       -2   -1    0    0    0  501  0.00000000000E+00  0.00000000000E+00  0.22133139411E+04  0.22133139411E+04  0.25500000920E-02 0. -1.
        2   -1    0    0  501    0  0.00000000000E+00  0.00000000000E+00 -0.11431998496E+04  0.11431998496E+04  0.25500000920E-02 0.  1.
    10030    2    1    2    0    0  0.00000000000E+00  0.00000000000E+00  0.10701140915E+04  0.33565137908E+04  0.31813583040E+04 0.  0.
        2    1    3    3  502    0 -0.28071586985E+03 -0.15604284585E+04  0.67067101026E+03  0.17214929502E+04  0.25500000920E-02 0. -1.
       -2    1    3    3    0  502  0.28071586985E+03  0.15604284585E+04  0.39944308127E+03  0.16350208405E+04  0.25500000920E-02 0.  1.
</event>
<event>
 5   0  0.3497546E-06  0.3199408E+04  0.7818609E-02  0.8188974E-01
        2   -1    0    0  501    0  0.00000000000E+00  0.00000000000E+00  0.97845094156E+03  0.97845094157E+03  0.25500000920E-02 0. -1.
       -2   -1    0    0    0  501  0.00000000000E+00  0.00000000000E+00 -0.26154120520E+04  0.26154120520E+04  0.25500000920E-02 0.  1.
    10030    2    1    2    0    0  0.00000000000E+00  0.00000000000E+00 -0.16369611105E+04  0.35938629936E+04  0.31994076858E+04 0.  0.
        4    1    3    3  502    0 -0.84595435658E+03  0.10368868096E+04  0.16609955639E+03  0.13484671687E+04  0.12699999809E+01 0. -1.
       -4    1    3    3    0  502  0.84595435658E+03 -0.10368868096E+04 -0.18030606669E+04  0.22453958250E+04  0.12699999809E+01 0.  1.
</event>
<event>
 5   0  0.1306843E-06  0.3276095E+04  0.7818609E-02  0.8169005E-01
       -1   -1    0    0    0  501  0.00000000000E+00  0.00000000000E+00  0.29126008929E+04  0.29126008929E+04  0.50400001928E-02 0.  1.
        1   -1    0    0  501    0  0.00000000000E+00  0.00000000000E+00 -0.92123839276E+03  0.92123839277E+03  0.50400001928E-02 0. -1.
    10030    2    1    2    0    0  0.00000000000E+00  0.00000000000E+00  0.19913625002E+04  0.38338392857E+04  0.32760950935E+04 0.  0.
        5    1    3    3  502    0 -0.14916634833E+04  0.27342094582E+03  0.17202507919E+04  0.22932736073E+04  0.46999998093E+01 0. -1.
       -5    1    3    3    0  502  0.14916634833E+04 -0.27342094582E+03  0.27111170826E+03  0.15405656784E+04  0.46999998093E+01 0.  1.
</event>
<event>
 5   0  0.3497546E-06  0.3107248E+04  0.7818609E-02  0.8213751E-01
       -2   -1    0    0    0  501  0.00000000000E+00  0.00000000000E+00  0.14341150298E+04  0.14341150298E+04  0.25500000920E-02 0.  1.
        2   -1    0    0  501    0  0.00000000000E+00  0.00000000000E+00 -0.16830924395E+04  0.16830924395E+04  0.25500000920E-02 0. -1.
    10030    2    1    2    0    0  0.00000000000E+00  0.00000000000E+00 -0.24897740972E+03  0.31172074693E+04  0.31072484059E+04 0.  0.
        4    1    3    3  502    0  0.94759248072E+03  0.67208802739E+03  0.91037594642E+03  0.14759470867E+04  0.12699999809E+01 0.  1.
       -4    1    3    3    0  502 -0.94759248072E+03 -0.67208802739E+03 -0.11593533561E+04  0.16412603826E+04  0.12699999809E+01 0. -1.
</event>
<event>
 5   0  0.1273754E-06  0.3147621E+04  0.7818609E-02  0.8202789E-01
        1   -1    0    0  501    0  0.00000000000E+00  0.00000000000E+00  0.28008156385E+04  0.28008156385E+04  0.50400001928E-02 0. -1.
       -1   -1    0    0    0  501  0.00000000000E+00  0.00000000000E+00 -0.88434246305E+03  0.88434246306E+03  0.50400001928E-02 0.  1.
    10030    2    1    2    0    0  0.00000000000E+00  0.00000000000E+00  0.19164731754E+04  0.36851581015E+04  0.31476214514E+04 0.  0.
        2    1    3    3  502    0 -0.87036983198E+03  0.73182389777E+02 -0.57453208864E+03  0.10454599119E+04  0.25500000920E-02 0.  1.
       -2    1    3    3    0  502  0.87036983198E+03 -0.73182389777E+02  0.24910052641E+04  0.26396981896E+04  0.25500000920E-02 0. -1.
</event>
<event>
 5   0  0.3745943E-06  0.3232863E+04  0.7818609E-02  0.8180192E-01
        2   -1    0    0  501    0  0.00000000000E+00  0.00000000000E+00  0.21675410291E+04  0.21675410291E+04  0.25500000920E-02 0.  1.
       -2   -1    0    0    0  501  0.00000000000E+00  0.00000000000E+00 -0.12054446484E+04  0.12054446484E+04  0.25500000920E-02 0. -1.
    10030    2    1    2    0    0  0.00000000000E+00  0.00000000000E+00  0.96209638070E+03  0.33729856774E+04  0.32328629625E+04 0.  0.
        5    1    3    3  502    0 -0.15915546050E+04 -0.24367596089E+03  0.63008424362E+03  0.17290032616E+04  0.46999998093E+01 0. -1.
       -5    1    3    3    0  502  0.15915546050E+04  0.24367596089E+03  0.33201213708E+03  0.16439824159E+04  0.46999998093E+01 0.  1.
</event>
<event>
 5   0  0.1273980E-06  0.3109736E+04  0.7818609E-02  0.8213071E-01
        1   -1    0    0  501    0  0.00000000000E+00  0.00000000000E+00  0.78578974251E+03  0.78578974253E+03  0.50400001928E-02 0. -1.
       -1   -1    0    0    0  501  0.00000000000E+00  0.00000000000E+00 -0.30766687920E+04  0.30766687920E+04  0.50400001928E-02 0.  1.
    10030    2    1    2    0    0  0.00000000000E+00  0.00000000000E+00 -0.22908790495E+04  0.38624585345E+04  0.31097361804E+04 0.  0.
        4    1    3    3  502    0 -0.46393489259E+03 -0.30277569310E+03 -0.29499275214E+04  0.30014967432E+04  0.12699999809E+01 0.  1.
       -4    1    3    3    0  502  0.46393489259E+03  0.30277569310E+03  0.65904847193E+03  0.86096179134E+03  0.12699999809E+01 0. -1.
</event>
<event>
 5   0  0.3656086E-06  0.3222314E+04  0.7818609E-02  0.8182949E-01
       -2   -1    0    0    0  501  0.00000000000E+00  0.00000000000E+00  0.10502894988E+04  0.10502894988E+04  0.25500000920E-02 0.  1.
        2   -1    0    0  501    0  0.00000000000E+00  0.00000000000E+00 -0.24715339770E+04  0.24715339770E+04  0.25500000920E-02 0. -1.
    10030    2    1    2    0    0  0.00000000000E+00  0.00000000000E+00 -0.14212444782E+04  0.35218234759E+04  0.32223135677E+04 0.  0.
        3    1    3    3  502    0 -0.88839279562E+03  0.13273934481E+04 -0.94146751407E+03  0.18540701755E+04  0.10100000352E+00 0. -1.
       -3    1    3    3    0  502  0.88839279562E+03 -0.13273934481E+04 -0.47977696413E+03  0.16677533004E+04  0.10100000352E+00 0.  1.
</event>
<event>
 5   0  0.1273754E-06  0.3165200E+04  0.7818609E-02  0.8198069E-01
        1   -1    0    0  501    0  0.00000000000E+00  0.00000000000E+00  0.24546384040E+04  0.24546384040E+04  0.50400001928E-02 0.  1.
       -1   -1    0    0    0  501  0.00000000000E+00  0.00000000000E+00 -0.10203633000E+04  0.10203633000E+04  0.50400001928E-02 0. -1.
    10030    2    1    2    0    0  0.00000000000E+00  0.00000000000E+00  0.14342751040E+04  0.34750017040E+04  0.31652001151E+04 0.  0.
        2    1    3    3  502    0  0.78950679895E+03  0.92849290403E+03 -0.39123093872E+03  0.12800319159E+04  0.25500000920E-02 0. -1.
       -2    1    3    3    0  502 -0.78950679895E+03 -0.92849290403E+03  0.18255060427E+04  0.21949697880E+04  0.25500000920E-02 0.  1.
</event>
<event>
 5   0  0.3758062E-06  0.3209927E+04  0.7818609E-02  0.8186200E-01
        2   -1    0    0  501    0  0.00000000000E+00  0.00000000000E+00  0.14384451020E+04  0.14384451020E+04  0.25500000920E-02 0.  1.
       -2   -1    0    0    0  501  0.00000000000E+00  0.00000000000E+00 -0.17907584101E+04  0.17907584101E+04  0.25500000920E-02 0. -1.
    10030    2    1    2    0    0  0.00000000000E+00  0.00000000000E+00 -0.35231330804E+03  0.32292035121E+04  0.32099268925E+04 0.  0.
        2    1    3    3  502    0  0.49026609175E+03  0.67265242742E+03  0.12043398099E+04  0.14639865117E+04  0.25500000920E-02 0.  1.
       -2    1    3    3    0  502 -0.49026609175E+03 -0.67265242742E+03 -0.15566531179E+04  0.17652170004E+04  0.25500000920E-02 0. -1.
</event>
<event>
 5   0  0.1185575E-06  0.3163180E+04  0.7818609E-02  0.8198610E-01
       -3   -1    0    0    0  501  0.00000000000E+00  0.00000000000E+00  0.18309456772E+04  0.18309456800E+04  0.10100000352E+00 0. -1.
        3   -1    0    0  501    0  0.00000000000E+00  0.00000000000E+00 -0.13661936984E+04  0.13661937022E+04  0.10100000352E+00 0.  1.
    10030    2    1    2    0    0  0.00000000000E+00  0.00000000000E+00  0.46475197880E+03  0.31971393822E+04  0.31631797021E+04 0.  0.
        3    1    3    3  502    0  0.70892850283E+03 -0.14018482130E+04  0.46916515435E+02  0.15716103855E+04  0.10100000352E+00 0.  1.
       -3    1    3    3    0  502 -0.70892850283E+03  0.14018482130E+04  0.41783546336E+03  0.16255289967E+04  0.10100000352E+00 0. -1.
</event>
<event>
 5   0  0.3497546E-06  0.3237964E+04  0.7818609E-02  0.8178862E-01
       -2   -1    0    0    0  501  0.00000000000E+00  0.00000000000E+00  0.15842760856E+04  0.15842760856E+04  0.25500000920E-02 0.  1.
        2   -1    0    0  501    0  0.00000000000E+00  0.00000000000E+00 -0.16544483472E+04  0.16544483472E+04  0.25500000920E-02 0. -1.
    10030    2    1    2    0    0  0.00000000000E+00  0.00000000000E+00 -0.70172261591E+02  0.32387244327E+04  0.32379641451E+04 0.  0.
        4    1    3    3  502    0 -0.22460870781E+03 -0.14456631933E+04 -0.72858160320E+03  0.16343879300E+04  0.12699999809E+01 0. -1.
       -4    1    3    3    0  502  0.22460870781E+03  0.14456631933E+04  0.65840934160E+03  0.16043365028E+04  0.12699999809E+01 0.  1.
</event>
<event>
 5   0  0.3745943E-06  0.2960248E+04  0.7818609E-02  0.8255174E-01
        2   -1    0    0  501    0  0.00000000000E+00  0.00000000000E+00  0.15822025995E+04  0.15822025995E+04  0.25500000920E-02 0.  1.
       -2   -1    0    0    0  501  0.00000000000E+00  0.00000000000E+00 -0.13846310712E+04  0.13846310712E+04  0.25500000920E-02 0. -1.
    10030    2    1    2    0    0  0.00000000000E+00  0.00000000000E+00  0.19757152833E+03  0.29668336708E+04  0.29602478817E+04 0.  0.
        5    1    3    3  502    0 -0.11010725942E+04 -0.98173785394E+03 -0.22208619388E+02  0.14753594085E+04  0.46999998093E+01 0. -1.
       -5    1    3    3    0  502  0.11010725942E+04  0.98173785394E+03  0.21978014772E+03  0.14914742622E+04  0.46999998093E+01 0.  1.
</event>
<event>
 5   0  0.1273980E-06  0.3230122E+04  0.7818609E-02  0.8180907E-01
       -1   -1    0    0    0  501  0.00000000000E+00  0.00000000000E+00  0.10029540396E+04  0.10029540396E+04  0.50400001928E-02 0.  1.
        1   -1    0    0  501    0  0.00000000000E+00  0.00000000000E+00 -0.26007400377E+04  0.26007400377E+04  0.50400001928E-02 0. -1.
    10030    2    1    2    0    0  0.00000000000E+00  0.00000000000E+00 -0.15977859981E+04  0.36036940773E+04  0.32301224291E+04 0.  0.
        4    1    3    3  502    0  0.13236080019E+04  0.90717062971E+03 -0.10031653404E+04  0.18924161823E+04  0.12699999809E+01 0.  1.
       -4    1    3    3    0  502 -0.13236080019E+04 -0.90717062971E+03 -0.59462065776E+03  0.17112778949E+04  0.12699999809E+01 0. -1.
</event>
<event>
 5   0  0.1273754E-06  0.3210697E+04  0.7818609E-02  0.8185998E-01
        1   -1    0    0  501    0  0.00000000000E+00  0.00000000000E+00  0.14742228353E+04  0.14742228353E+04  0.50400001928E-02 0.  1.
       -1   -1    0    0    0  501  0.00000000000E+00  0.00000000000E+00 -0.17481374355E+04  0.17481374355E+04  0.50400001928E-02 0. -1.
    10030    2    1    2    0    0  0.00000000000E+00  0.00000000000E+00 -0.27391460020E+03  0.32223602708E+04  0.32106971994E+04 0.  0.
        2    1    3    3  502    0  0.12517246752E+04  0.79099455213E+03  0.48550293414E+03  0.15582683155E+04  0.25500000920E-02 0.  1.
       -2    1    3    3    0  502 -0.12517246752E+04 -0.79099455213E+03 -0.75941753433E+03  0.16640919553E+04  0.25500000920E-02 0. -1.
</event>
<event>
 5   0  0.3745943E-06  0.3188932E+04  0.7818609E-02  0.8191746E-01
       -2   -1    0    0    0  501  0.00000000000E+00  0.00000000000E+00  0.10251070279E+04  0.10251070279E+04  0.25500000920E-02 0. -1.
        2   -1    0    0  501    0  0.00000000000E+00  0.00000000000E+00 -0.24800552769E+04  0.24800552769E+04  0.25500000920E-02 0.  1.
    10030    2    1    2    0    0  0.00000000000E+00  0.00000000000E+00 -0.14549482490E+04  0.35051623049E+04  0.31889321686E+04 0.  0.
        5    1    3    3  502    0 -0.32152851882E+02 -0.15757635450E+04 -0.46222340946E+03  0.16424789575E+04  0.46999998093E+01 0. -1.
       -5    1    3    3    0  502  0.32152851882E+02  0.15757635450E+04 -0.99272483954E+03  0.18626833474E+04  0.46999998093E+01 0.  1.
</event>
<event>
 5   0  0.1240725E-06  0.3210355E+04  0.7818609E-02  0.8186088E-01
       -1   -1    0    0    0  501  0.00000000000E+00  0.00000000000E+00  0.24953576757E+04  0.24953576757E+04  0.50400001928E-02 0.  1.
        1   -1    0    0  501    0  0.00000000000E+00  0.00000000000E+00 -0.10325551408E+04  0.10325551408E+04  0.50400001928E-02 0. -1.
    10030    2    1    2    0    0  0.00000000000E+00  0.00000000000E+00  0.14628025348E+04  0.35279128165E+04  0.32103547444E+04 0.  0.
        3    1    3    3  502    0  0.66150324716E+03  0.83001250725E+03  0.20547120788E+04  0.23126497887E+04  0.10100000352E+00 0.  1.
       -3    1    3    3    0  502 -0.66150324716E+03 -0.83001250725E+03 -0.59190954400E+03  0.12152630278E+04  0.10100000352E+00 0. -1.
</event>
<event>
 5   0  0.3531437E-06  0.3232541E+04  0.7818609E-02  0.8180276E-01
        2   -1    0    0  501    0  0.00000000000E+00  0.00000000000E+00  0.17190438484E+04  0.17190438484E+04  0.25500000920E-02 0.  1.
       -2   -1    0    0    0  501  0.00000000000E+00  0.00000000000E+00 -0.15196415966E+04  0.15196415966E+04  0.25500000920E-02 0. -1.
    10030    2    1    2    0    0  0.00000000000E+00  0.00000000000E+00  0.19940225183E+03  0.32386854451E+04  0.32325411295E+04 0.  0.
        1    1    3    3  502    0 -0.59630558611E+03  0.18321600523E+03  0.15935691346E+04  0.17113185102E+04  0.50400001928E-02 0.  1.
       -1    1    3    3    0  502  0.59630558611E+03 -0.18321600523E+03 -0.13941668828E+04  0.15273669348E+04  0.50400001928E-02 0. -1.
</event>
<event>
 5   0  0.1268836E-06  0.3209633E+04  0.7818609E-02  0.8186278E-01
       -1   -1    0    0    0  501  0.00000000000E+00  0.00000000000E+00  0.21327019635E+04  0.21327019635E+04  0.50400001928E-02 0.  1.
        1   -1    0    0  501    0  0.00000000000E+00  0.00000000000E+00 -0.12075927780E+04  0.12075927780E+04  0.50400001928E-02 0. -1.
    10030    2    1    2    0    0  0.00000000000E+00  0.00000000000E+00  0.92510918555E+03  0.33402947415E+04  0.32096326823E+04 0.  0.
        1    1    3    3  502    0  0.89576942775E+03 -0.46078950339E+03  0.17626941085E+04  0.20302266756E+04  0.50400001928E-02 0.  1.
       -1    1    3    3    0  502 -0.89576942775E+03  0.46078950339E+03 -0.83758492298E+03  0.13100680659E+04  0.50400001928E-02 0. -1.
</event>
<event>
 5   0  0.3531437E-06  0.2408554E+04  0.7818609E-02  0.8436308E-01
        2   -1    0    0  501    0  0.00000000000E+00  0.00000000000E+00  0.95713285597E+03  0.95713285598E+03  0.25500000920E-02 0. -1.
       -2   -1    0    0    0  501  0.00000000000E+00  0.00000000000E+00 -0.15152367700E+04  0.15152367700E+04  0.25500000920E-02 0.  1.
    10030    2    1    2    0    0  0.00000000000E+00  0.00000000000E+00 -0.55810391399E+03  0.24723696259E+04  0.24085538376E+04 0.  0.
        1    1    3    3  502    0  0.19456079613E+03 -0.12462658197E+03  0.93416721832E+03  0.96231703723E+03  0.50400001928E-02 0. -1.
       -1    1    3    3    0  502 -0.19456079613E+03  0.12462658197E+03 -0.14922711323E+04  0.15100525887E+04  0.50400001928E-02 0.  1.
</event>
<event>
 5   0  0.3531437E-06  0.3200858E+04  0.7818609E-02  0.8188591E-01
        2   -1    0    0  501    0  0.00000000000E+00  0.00000000000E+00  0.12519416432E+04  0.12519416432E+04  0.25500000920E-02 0. -1.
       -2   -1    0    0    0  501  0.00000000000E+00  0.00000000000E+00 -0.20459202480E+04  0.20459202480E+04  0.25500000920E-02 0.  1.
    10030    2    1    2    0    0  0.00000000000E+00  0.00000000000E+00 -0.79397860481E+03  0.32978618913E+04  0.32008578583E+04 0.  0.
        1    1    3    3  502    0  0.87840107233E+03 -0.37840364670E+03 -0.17190745853E+04  0.19672303357E+04  0.50400001928E-02 0.  1.
       -1    1    3    3    0  502 -0.87840107233E+03  0.37840364670E+03  0.92509598048E+03  0.13306315556E+04  0.50400001928E-02 0. -1.
</event>
<event>
 5   0  0.3745943E-06  0.3207633E+04  0.7818609E-02  0.8186804E-01
       -2   -1    0    0    0  501  0.00000000000E+00  0.00000000000E+00  0.94764581847E+03  0.94764581847E+03  0.25500000920E-02 0.  1.
        2   -1    0    0  501    0  0.00000000000E+00  0.00000000000E+00 -0.27143348357E+04  0.27143348357E+04  0.25500000920E-02 0. -1.
    10030    2    1    2    0    0  0.00000000000E+00  0.00000000000E+00 -0.17666890173E+04  0.36619806542E+04  0.32076334311E+04 0.  0.
        5    1    3    3  502    0  0.65582210259E+03  0.43332093597E+03  0.71264842508E+03  0.10610181580E+04  0.46999998093E+01 0.  1.
       -5    1    3    3    0  502 -0.65582210259E+03 -0.43332093597E+03 -0.24793374423E+04  0.26009624962E+04  0.46999998093E+01 0. -1.
</event>
<event>
 5   0  0.3656086E-06  0.3217242E+04  0.7818609E-02  0.8184278E-01
       -2   -1    0    0    0  501  0.00000000000E+00  0.00000000000E+00  0.14821419238E+04  0.14821419238E+04  0.25500000920E-02 0. -1.
        2   -1    0    0  501    0  0.00000000000E+00  0.00000000000E+00 -0.17458934652E+04  0.17458934652E+04  0.25500000920E-02 0.  1.
    10030    2    1    2    0    0  0.00000000000E+00  0.00000000000E+00 -0.26375154142E+03  0.32280353890E+04  0.32172422348E+04 0.  0.
        3    1    3    3  502    0  0.11132588243E+04  0.10826971477E+04  0.28915509754E+03  0.15796167270E+04  0.10100000352E+00 0. -1.
       -3    1    3    3    0  502 -0.11132588243E+04 -0.10826971477E+04 -0.55290663895E+03  0.16484186620E+04  0.10100000352E+00 0.  1.
</event>
<event>
 5   0  0.1273754E-06  0.2630030E+04  0.7818609E-02  0.8358072E-01
        1   -1    0    0  501    0  0.00000000000E+00  0.00000000000E+00  0.12438157319E+04  0.12438157319E+04  0.50400001928E-02 0.  1.
       -1   -1    0    0    0  501  0.00000000000E+00  0.00000000000E+00 -0.13902896504E+04  0.13902896505E+04  0.50400001928E-02 0. -1.
    10030    2    1    2    0    0  0.00000000000E+00  0.00000000000E+00 -0.14647391856E+03  0.26341053823E+04  0.26300297634E+04 0.  0.
        2    1    3    3  502    0  0.10046362221E+04  0.84048574001E+03 -0.18983868000E+03  0.13235365286E+04  0.25500000920E-02 0. -1.
       -2    1    3    3    0  502 -0.10046362221E+04 -0.84048574001E+03  0.43364761431E+02  0.13105688538E+04  0.25500000920E-02 0.  1.
</event>
<event>
 5   0  0.1240725E-06  0.3134031E+04  0.7818609E-02  0.8206460E-01
       -1   -1    0    0    0  501  0.00000000000E+00  0.00000000000E+00  0.15747711255E+04  0.15747711255E+04  0.50400001928E-02 0. -1.
        1   -1    0    0  501    0  0.00000000000E+00  0.00000000000E+00 -0.15592975930E+04  0.15592975930E+04  0.50400001928E-02 0.  1.
    10030    2    1    2    0    0  0.00000000000E+00  0.00000000000E+00  0.15473532456E+02  0.31340687185E+04  0.31340305203E+04 0.  0.
        3    1    3    3  502    0 -0.10655800435E+04 -0.66596978773E+03  0.94399612973E+03  0.15716568615E+04  0.10100000352E+00 0. -1.
       -3    1    3    3    0  502  0.10655800435E+04  0.66596978773E+03 -0.92852259727E+03  0.15624118570E+04  0.10100000352E+00 0.  1.
</event>
<event>
 5   0  0.1273754E-06  0.3182205E+04  0.7818609E-02  0.8193533E-01
        1   -1    0    0  501    0  0.00000000000E+00  0.00000000000E+00  0.20115985975E+04  0.20115985975E+04  0.50400001928E-02 0. -1.
       -1   -1    0    0    0  501  0.00000000000E+00  0.00000000000E+00 -0.12585051925E+04  0.12585051925E+04  0.50400001928E-02 0.  1.
    10030    2    1    2    0    0  0.00000000000E+00  0.00000000000E+00  0.75309340501E+03  0.32701037901E+04  0.31822050722E+04 0.  0.
        2    1    3    3  502    0 -0.18310954847E+03 -0.79214109473E+03 -0.10289270972E+04  0.13113762207E+04  0.25500000920E-02 0.  1.
       -2    1    3    3    0  502  0.18310954847E+03  0.79214109473E+03  0.17820205023E+04  0.19587275694E+04  0.25500000920E-02 0. -1.
</event>
<event>
 5   0  0.1268836E-06  0.3194552E+04  0.7818609E-02  0.8190257E-01
       -1   -1    0    0    0  501  0.00000000000E+00  0.00000000000E+00  0.13313428042E+04  0.13313428042E+04  0.50400001928E-02 0. -1.
        1   -1    0    0  501    0  0.00000000000E+00  0.00000000000E+00 -0.19163291574E+04  0.19163291574E+04  0.50400001928E-02 0.  1.
    10030    2    1    2    0    0  0.00000000000E+00  0.00000000000E+00 -0.58498635325E+03  0.32476719616E+04  0.31945522592E+04 0.  0.
        1    1    3    3  502    0 -0.13090404712E+04 -0.88810153623E+03 -0.67499456032E+02  0.15833090256E+04  0.50400001928E-02 0.  1.
       -1    1    3    3    0  502  0.13090404712E+04  0.88810153623E+03 -0.51748689721E+03  0.16643629360E+04  0.50400001928E-02 0. -1.
</event>
<event>
 5   0  0.3531437E-06  0.3973848E+04  0.7818609E-02  0.8009843E-01
       -2   -1    0    0    0  501  0.00000000000E+00  0.00000000000E+00  0.14567362222E+04  0.14567362222E+04  0.25500000920E-02 0. -1.
        2   -1    0    0  501    0  0.00000000000E+00  0.00000000000E+00 -0.27100768940E+04  0.27100768940E+04  0.25500000920E-02 0.  1.
    10030    2    1    2    0    0  0.00000000000E+00  0.00000000000E+00 -0.12533406717E+04  0.41668131162E+04  0.39738480980E+04 0.  0.
        1    1    3    3  502    0  0.65376405592E+03 -0.12268103473E+04  0.86191236709E+03  0.16356539969E+04  0.50400001928E-02 0. -1.
       -1    1    3    3    0  502 -0.65376405592E+03  0.12268103473E+04 -0.21152530388E+04  0.25311591193E+04  0.50400001928E-02 0.  1.
</event>
<event>
 5   0  0.1240725E-06  0.3185259E+04  0.7818609E-02  0.8192721E-01
       -1   -1    0    0    0  501  0.00000000000E+00  0.00000000000E+00  0.13197417944E+04  0.13197417944E+04  0.50400001928E-02 0. -1.
        1   -1    0    0  501    0  0.00000000000E+00  0.00000000000E+00 -0.19219428962E+04  0.19219428962E+04  0.50400001928E-02 0.  1.
    10030    2    1    2    0    0  0.00000000000E+00  0.00000000000E+00 -0.60220110176E+03  0.32416846906E+04  0.31852587754E+04 0.  0.
        3    1    3    3  502    0  0.38674578028E+03  0.91963962444E+03  0.96232534790E+03  0.13861383130E+04  0.10100000352E+00 0. -1.
       -3    1    3    3    0  502 -0.38674578028E+03 -0.91963962444E+03 -0.15645264497E+04  0.18555463776E+04  0.10100000352E+00 0.  1.
</event>
<event>
 5   0  0.3758062E-06  0.3227979E+04  0.7818609E-02  0.8181467E-01
        2   -1    0    0  501    0  0.00000000000E+00  0.00000000000E+00  0.13063763767E+04  0.13063763767E+04  0.25500000920E-02 0. -1.
       -2   -1    0    0    0  501  0.00000000000E+00  0.00000000000E+00 -0.19940368187E+04  0.19940368187E+04  0.25500000920E-02 0.  1.
    10030    2    1    2    0    0  0.00000000000E+00  0.00000000000E+00 -0.68766044209E+03  0.33004131954E+04  0.32279793024E+04 0.  0.
        2    1    3    3  502    0 -0.15457415510E+04  0.55984735336E+02  0.12750364977E+03  0.15520014219E+04  0.25500000920E-02 0. -1.
       -2    1    3    3    0  502  0.15457415510E+04 -0.55984735336E+02 -0.81516409186E+03  0.17484117735E+04  0.25500000920E-02 0.  1.
</event>
<event>
 5   0  0.1306843E-06  0.3166726E+04  0.7818609E-02  0.8197660E-01
       -1   -1    0    0    0  501  0.00000000000E+00  0.00000000000E+00  0.14313649366E+04  0.14313649366E+04  0.50400001928E-02 0.  1.
        1   -1    0    0  501    0  0.00000000000E+00  0.00000000000E+00 -0.17515022422E+04  0.17515022422E+04  0.50400001928E-02 0. -1.
    10030    2    1    2    0    0  0.00000000000E+00  0.00000000000E+00 -0.32013730564E+03  0.31828671788E+04  0.31667263196E+04 0.  0.
        5    1    3    3  502    0  0.62383900451E+03 -0.61333105400E+03  0.11663802077E+04  0.14580174773E+04  0.46999998093E+01 0.  1.
       -5    1    3    3    0  502 -0.62383900451E+03  0.61333105400E+03 -0.14865175133E+04  0.17248497015E+04  0.46999998093E+01 0. -1.
</event>
<event>
 5   0  0.3497546E-06  0.3212226E+04  0.7818609E-02  0.8185596E-01
       -2   -1    0    0    0  501  0.00000000000E+00  0.00000000000E+00  0.12603788804E+04  0.12603788804E+04  0.25500000920E-02 0. -1.
        2   -1    0    0  501    0  0.00000000000E+00  0.00000000000E+00 -0.20466854084E+04  0.20466854084E+04  0.25500000920E-02 0.  1.
    10030    2    1    2    0    0  0.00000000000E+00  0.00000000000E+00 -0.78630652802E+03  0.33070642888E+04  0.32122260590E+04 0.  0.
        4    1    3    3  502    0  0.77908080300E+03 -0.32454512202E+03 -0.17999900104E+04  0.19880296990E+04  0.12699999809E+01 0.  1.
       -4    1    3    3    0  502 -0.77908080300E+03  0.32454512202E+03  0.10136834823E+04  0.13190345898E+04  0.12699999809E+01 0. -1.
</event>
<event>
 5   0  0.3531437E-06  0.2402613E+04  0.7818609E-02  0.8438526E-01
        2   -1    0    0  501    0  0.00000000000E+00  0.00000000000E+00  0.16649283129E+04  0.16649283129E+04  0.25500000920E-02 0.  1.
       -2   -1    0    0    0  501  0.00000000000E+00  0.00000000000E+00 -0.86678644164E+03  0.86678644164E+03  0.25500000920E-02 0. -1.
    10030    2    1    2    0    0  0.00000000000E+00  0.00000000000E+00  0.79814187125E+03  0.25317147545E+04  0.24026129842E+04 0.  0.
        1    1    3    3  502    0 -0.46548012417E+03 -0.97415608781E+03 -0.15600329724E+03  0.10908661046E+04  0.50400001928E-02 0. -1.
       -1    1    3    3    0  502  0.46548012417E+03  0.97415608781E+03  0.95414516849E+03  0.14408486499E+04  0.50400001928E-02 0.  1.
</event>
<event>
 5   0  0.3531437E-06  0.3077713E+04  0.7818609E-02  0.8221881E-01
       -2   -1    0    0    0  501  0.00000000000E+00  0.00000000000E+00  0.80431051585E+03  0.80431051586E+03  0.25500000920E-02 0. -1.
        2   -1    0    0  501    0  0.00000000000E+00  0.00000000000E+00 -0.29442357559E+04  0.29442357559E+04  0.25500000920E-02 0.  1.
    10030    2    1    2    0    0  0.00000000000E+00  0.00000000000E+00 -0.21399252401E+04  0.37485462718E+04  0.30777132938E+04 0.  0.
        1    1    3    3  502    0 -0.10185976113E+04  0.17979108693E+03  0.31777651205E+03  0.10820572260E+04  0.50400001928E-02 0. -1.
       -1    1    3    3    0  502  0.10185976113E+04 -0.17979108693E+03 -0.24577017521E+04  0.26664890457E+04  0.50400001928E-02 0.  1.
</event>
<event>
 5   0  0.1273980E-06  0.3148707E+04  0.7818609E-02  0.8202496E-01
       -1   -1    0    0    0  501  0.00000000000E+00  0.00000000000E+00  0.15484227671E+04  0.15484227671E+04  0.50400001928E-02 0.  1.
        1   -1    0    0  501    0  0.00000000000E+00  0.00000000000E+00 -0.16007188170E+04  0.16007188170E+04  0.50400001928E-02 0. -1.
    10030    2    1    2    0    0  0.00000000000E+00  0.00000000000E+00 -0.52296049825E+02  0.31491415841E+04  0.31487073284E+04 0.  0.
        4    1    3    3  502    0  0.28666889337E+03  0.12284941740E+04 -0.96819664054E+03  0.15902148716E+04  0.12699999809E+01 0. -1.
       -4    1    3    3    0  502 -0.28666889337E+03 -0.12284941740E+04  0.91590059071E+03  0.15589267125E+04  0.12699999809E+01 0.  1.
</event>
<event>
 5   0  0.3497546E-06  0.3166745E+04  0.7818609E-02  0.8197655E-01
       -2   -1    0    0    0  501  0.00000000000E+00  0.00000000000E+00  0.99401971205E+03  0.99401971205E+03  0.25500000920E-02 0.  1.
        2   -1    0    0  501    0  0.00000000000E+00  0.00000000000E+00 -0.25221509723E+04  0.25221509723E+04  0.25500000920E-02 0. -1.
    10030    2    1    2    0    0  0.00000000000E+00  0.00000000000E+00 -0.15281312602E+04  0.35161706843E+04  0.31667445639E+04 0.  0.
        4    1    3    3  502    0 -0.55691071830E+03 -0.11517176520E+04  0.27186837886E+03  0.13078673963E+04  0.12699999809E+01 0.  1.
       -4    1    3    3    0  502  0.55691071830E+03  0.11517176520E+04 -0.17999996391E+04  0.22083032880E+04  0.12699999809E+01 0. -1.
</event>
<event>
 5   0  0.3497546E-06  0.3113452E+04  0.7818609E-02  0.8212056E-01
       -2   -1    0    0    0  501  0.00000000000E+00  0.00000000000E+00  0.12115757449E+04  0.12115757449E+04  0.25500000920E-02 0.  1.
        2   -1    0    0  501    0  0.00000000000E+00  0.00000000000E+00 -0.20002012745E+04  0.20002012745E+04  0.25500000920E-02 0. -1.
    10030    2    1    2    0    0  0.00000000000E+00  0.00000000000E+00 -0.78862552963E+03  0.32117770194E+04  0.31134516853E+04 0.  0.
        4    1    3    3  502    0  0.87670072874E+03  0.11704168048E+03  0.92719452403E+03  0.12814032234E+04  0.12699999809E+01 0.  1.
       -4    1    3    3    0  502 -0.87670072874E+03 -0.11704168048E+03 -0.17158200537E+04  0.19303737960E+04  0.12699999809E+01 0. -1.
</event>
<event>
 5   0  0.1273754E-06  0.3338607E+04  0.7818609E-02  0.8153141E-01
        1   -1    0    0  501    0  0.00000000000E+00  0.00000000000E+00  0.25496578147E+04  0.25496578147E+04  0.50400001928E-02 0.  1.
       -1   -1    0    0    0  501  0.00000000000E+00  0.00000000000E+00 -0.10929206023E+04  0.10929206023E+04  0.50400001928E-02 0. -1.
    10030    2    1    2    0    0  0.00000000000E+00  0.00000000000E+00  0.14567372124E+04  0.36425784171E+04  0.33386066283E+04 0.  0.
        2    1    3    3  502    0 -0.25426875287E+03 -0.15843761336E+04  0.12303372860E+04  0.20220361442E+04  0.25500000920E-02 0.  1.
       -2    1    3    3    0  502  0.25426875287E+03  0.15843761336E+04  0.22639992646E+03  0.16205422728E+04  0.25500000920E-02 0. -1.
</event>
<event>
 5   0  0.3531437E-06  0.2480504E+04  0.7818609E-02  0.8409964E-01
       -2   -1    0    0    0  501  0.00000000000E+00  0.00000000000E+00  0.14439699766E+04  0.14439699766E+04  0.25500000920E-02 0. -1.
        2   -1    0    0  501    0  0.00000000000E+00  0.00000000000E+00 -0.10652745994E+04  0.10652745994E+04  0.25500000920E-02 0.  1.
    10030    2    1    2    0    0  0.00000000000E+00  0.00000000000E+00  0.37869537722E+03  0.25092445760E+04  0.24805036089E+04 0.  0.
        1    1    3    3  502    0 -0.90931443842E+03  0.19304148974E+03 -0.64120555069E+03  0.11292751316E+04  0.50400001928E-02 0.  1.
       -1    1    3    3    0  502  0.90931443842E+03 -0.19304148974E+03  0.10199009279E+04  0.13799694444E+04  0.50400001928E-02 0. -1.
</event>
<event>
 5   0  0.1306843E-06  0.3060989E+04  0.7818609E-02  0.8226526E-01
       -1   -1    0    0    0  501  0.00000000000E+00  0.00000000000E+00  0.10583152663E+04  0.10583152663E+04  0.50400001928E-02 0.  1.
        1   -1    0    0  501    0  0.00000000000E+00  0.00000000000E+00 -0.22133424544E+04  0.22133424544E+04  0.50400001928E-02 0. -1.
    10030    2    1    2    0    0  0.00000000000E+00  0.00000000000E+00 -0.11550271880E+04  0.32716577207E+04  0.30609894538E+04 0.  0.
        5    1    3    3  502    0 -0.14769310632E+04  0.38331826015E+03 -0.45044595417E+03  0.15909688563E+04  0.46999998093E+01 0.  1.
       -5    1    3    3    0  502  0.14769310632E+04 -0.38331826015E+03 -0.70458123387E+03  0.16806888644E+04  0.46999998093E+01 0. -1.
</event>
<event>
 5   0  0.1306843E-06  0.3156723E+04  0.7818609E-02  0.8200341E-01
       -1   -1    0    0    0  501  0.00000000000E+00  0.00000000000E+00  0.12887088655E+04  0.12887088655E+04  0.50400001928E-02 0.  1.
        1   -1    0    0  501    0  0.00000000000E+00  0.00000000000E+00 -0.19331168031E+04  0.19331168031E+04  0.50400001928E-02 0. -1.
    10030    2    1    2    0    0  0.00000000000E+00  0.00000000000E+00 -0.64440793761E+03  0.32218256686E+04  0.31567228337E+04 0.  0.
        5    1    3    3  502    0 -0.41812306873E+03 -0.12566822331E+02  0.12310958348E+04  0.13002322370E+04  0.46999998093E+01 0.  1.
       -5    1    3    3    0  502  0.41812306873E+03  0.12566822331E+02 -0.18755037725E+04  0.19215934315E+04  0.46999998093E+01 0. -1.
</event>
<event>
 5   0  0.1306843E-06  0.3152463E+04  0.7818609E-02  0.8201486E-01
        1   -1    0    0  501    0  0.00000000000E+00  0.00000000000E+00  0.22278375440E+04  0.22278375441E+04  0.50400001928E-02 0.  1.
       -1   -1    0    0    0  501  0.00000000000E+00  0.00000000000E+00 -0.11152097429E+04  0.11152097430E+04  0.50400001928E-02 0. -1.
    10030    2    1    2    0    0  0.00000000000E+00  0.00000000000E+00  0.11126278011E+04  0.33430472870E+04  0.31524632495E+04 0.  0.
        5    1    3    3  502    0 -0.14761025214E+04 -0.50862689222E+03  0.78598046727E+03  0.17479609132E+04  0.46999998093E+01 0.  1.
       -5    1    3    3    0  502  0.14761025214E+04  0.50862689222E+03  0.32664733383E+03  0.15950863738E+04  0.46999998093E+01 0. -1.
</event>
<event>
 5   0  0.1273754E-06  0.3224877E+04  0.7818609E-02  0.8182278E-01
       -1   -1    0    0    0  501  0.00000000000E+00  0.00000000000E+00  0.11727193508E+04  0.11727193508E+04  0.50400001928E-02 0. -1.
        1   -1    0    0  501    0  0.00000000000E+00  0.00000000000E+00 -0.22170333904E+04  0.22170333904E+04  0.50400001928E-02 0.  1.
    10030    2    1    2    0    0  0.00000000000E+00  0.00000000000E+00 -0.10443140396E+04  0.33897527412E+04  0.32248770260E+04 0.  0.
        2    1    3    3  502    0 -0.44845176362E+03 -0.15379576339E+04 -0.32966802826E+03  0.16355744180E+04  0.25500000920E-02 0. -1.
       -2    1    3    3    0  502  0.44845176362E+03  0.15379576339E+04 -0.71464601131E+03  0.17541783232E+04  0.25500000920E-02 0.  1.
</event>
<event>
 5   0  0.3656086E-06  0.3212098E+04  0.7818609E-02  0.8185629E-01
        2   -1    0    0  501    0  0.00000000000E+00  0.00000000000E+00  0.11681780699E+04  0.11681780699E+04  0.25500000920E-02 0. -1.
       -2   -1    0    0    0  501  0.00000000000E+00  0.00000000000E+00 -0.22080477577E+04  0.22080477577E+04  0.25500000920E-02 0.  1.
    10030    2    1    2    0    0  0.00000000000E+00  0.00000000000E+00 -0.10398696877E+04  0.33762258276E+04  0.32120977369E+04 0.  0.
        3    1    3    3  502    0  0.11203348613E+04 -0.13480817615E+03 -0.17211640482E+04  0.20580887097E+04  0.10100000352E+00 0.  1.
       -3    1    3    3    0  502 -0.11203348613E+04  0.13480817615E+03  0.68129436048E+03  0.13181371179E+04  0.10100000352E+00 0. -1.
</event>
<event>
 5   0  0.3745943E-06  0.3171547E+04  0.7818609E-02  0.8196372E-01
       -2   -1    0    0    0  501  0.00000000000E+00  0.00000000000E+00  0.11958680471E+04  0.11958680471E+04  0.25500000920E-02 0.  1.
        2   -1    0    0  501    0  0.00000000000E+00  0.00000000000E+00 -0.21028054929E+04  0.21028054929E+04  0.25500000920E-02 0. -1.
    10030    2    1    2    0    0  0.00000000000E+00  0.00000000000E+00 -0.90693744581E+03  0.32986735400E+04  0.31715471922E+04 0.  0.
        5    1    3    3  502    0 -0.13484980165E+04  0.19609186541E+03 -0.12969993605E+04  0.18812571200E+04  0.46999998093E+01 0. -1.
       -5    1    3    3    0  502  0.13484980165E+04 -0.19609186541E+03  0.39006191472E+03  0.14174164200E+04  0.46999998093E+01 0.  1.
</event>
<event>
 5   0  0.3758062E-06  0.3336586E+04  0.7818609E-02  0.8153648E-01
        2   -1    0    0  501    0  0.00000000000E+00  0.00000000000E+00  0.14208818858E+04  0.14208818858E+04  0.25500000920E-02 0.  1.
       -2   -1    0    0    0  501  0.00000000000E+00  0.00000000000E+00 -0.19587848798E+04  0.19587848798E+04  0.25500000920E-02 0. -1.
    10030    2    1    2    0    0  0.00000000000E+00  0.00000000000E+00 -0.53790299408E+03  0.33796667656E+04  0.33365862518E+04 0.  0.
        2    1    3    3  502    0 -0.12145663721E+02  0.15377742809E+04  0.38616403470E+03  0.15855661191E+04  0.25500000920E-02 0.  1.
       -2    1    3    3    0  502  0.12145663721E+02 -0.15377742809E+04 -0.92406702878E+03  0.17941006465E+04  0.25500000920E-02 0. -1.
</event>
<event>
 5   0  0.1273980E-06  0.3234154E+04  0.7818609E-02  0.8179855E-01
        1   -1    0    0  501    0  0.00000000000E+00  0.00000000000E+00  0.18494205524E+04  0.18494205524E+04  0.50400001928E-02 0.  1.
       -1   -1    0    0    0  501  0.00000000000E+00  0.00000000000E+00 -0.14139226972E+04  0.14139226972E+04  0.50400001928E-02 0. -1.
    10030    2    1    2    0    0  0.00000000000E+00  0.00000000000E+00  0.43549785523E+03  0.32633432496E+04  0.32341537970E+04 0.  0.
        4    1    3    3  502    0 -0.64077534000E+03 -0.12017376270E+04 -0.66199721656E+03  0.15142682352E+04  0.12699999809E+01 0. -1.
       -4    1    3    3    0  502  0.64077534000E+03  0.12017376270E+04  0.10974950718E+04  0.17490750144E+04  0.12699999809E+01 0.  1.
</event>
<event>
 5   0  0.3531437E-06  0.3094442E+04  0.7818609E-02  0.8217265E-01
       -2   -1    0    0    0  501  0.00000000000E+00  0.00000000000E+00  0.25853234343E+04  0.25853234343E+04  0.25500000920E-02 0.  1.
        2   -1    0    0  501    0  0.00000000000E+00  0.00000000000E+00 -0.92595495041E+03  0.92595495042E+03  0.25500000920E-02 0. -1.
    10030    2    1    2    0    0  0.00000000000E+00  0.00000000000E+00  0.16593684839E+04  0.35112783847E+04  0.30944421355E+04 0.  0.
        1    1    3    3  502    0  0.23748080647E+03 -0.65957666039E+03 -0.73540836361E+03  0.10160039201E+04  0.50400001928E-02 0. -1.
       -1    1    3    3    0  502 -0.23748080647E+03  0.65957666039E+03  0.23947768475E+04  0.24952744646E+04  0.50400001928E-02 0.  1.
</event>
<event>
 5   0  0.1273754E-06  0.3179927E+04  0.7818609E-02  0.8194139E-01
       -1   -1    0    0    0  501  0.00000000000E+00  0.00000000000E+00  0.22758479738E+04  0.22758479738E+04  0.50400001928E-02 0. -1.
        1   -1    0    0  501    0  0.00000000000E+00  0.00000000000E+00 -0.11107875924E+04  0.11107875924E+04  0.50400001928E-02 0.  1.
    10030    2    1    2    0    0  0.00000000000E+00  0.00000000000E+00  0.11650603814E+04  0.33866355663E+04  0.31799268492E+04 0.  0.
        2    1    3    3  502    0  0.15385269542E+03  0.15771687425E+04  0.72078315408E+03  0.17408791599E+04  0.25500000920E-02 0.  1.
       -2    1    3    3    0  502 -0.15385269542E+03 -0.15771687425E+04  0.44427722733E+03  0.16457564063E+04  0.25500000920E-02 0. -1.
</event>
<event>
 5   0  0.1268836E-06  0.3102706E+04  0.7818609E-02  0.8214996E-01
        1   -1    0    0  501    0  0.00000000000E+00  0.00000000000E+00  0.13673292726E+04  0.13673292726E+04  0.50400001928E-02 0.  1.
       -1   -1    0    0    0  501  0.00000000000E+00  0.00000000000E+00 -0.17601438477E+04  0.17601438477E+04  0.50400001928E-02 0. -1.
    10030    2    1    2    0    0  0.00000000000E+00  0.00000000000E+00 -0.39281457507E+03  0.31274731203E+04  0.31027060492E+04 0.  0.
        1    1    3    3  502    0  0.66138872466E+03 -0.14418863407E+03 -0.16034261000E+04  0.17404599006E+04  0.50400001928E-02 0. -1.
       -1    1    3    3    0  502 -0.66138872466E+03  0.14418863407E+03  0.12106115249E+04  0.13870132197E+04  0.50400001928E-02 0.  1.
</event>
<event>
 5   0  0.1240725E-06  0.3176908E+04  0.7818609E-02  0.8194942E-01
        1   -1    0    0  501    0  0.00000000000E+00  0.00000000000E+00  0.15543910555E+04  0.15543910555E+04  0.50400001928E-02 0.  1.
       -1   -1    0    0    0  501  0.00000000000E+00  0.00000000000E+00 -0.16232636299E+04  0.16232636299E+04  0.50400001928E-02 0. -1.
    10030    2    1    2    0    0  0.00000000000E+00  0.00000000000E+00 -0.68872574433E+02  0.31776546855E+04  0.31769082248E+04 0.  0.
        3    1    3    3  502    0  0.12325088693E+04  0.55424691613E+03 -0.86944900612E+03  0.16069254312E+04  0.10100000352E+00 0. -1.
       -3    1    3    3    0  502 -0.12325088693E+04 -0.55424691613E+03  0.80057643169E+03  0.15707292543E+04  0.10100000352E+00 0.  1.
</event>
<event>
 5   0  0.1273754E-06  0.3212468E+04  0.7818609E-02  0.8185532E-01
       -1   -1    0    0    0  501  0.00000000000E+00  0.00000000000E+00  0.10993942207E+04  0.10993942207E+04  0.50400001928E-02 0. -1.
        1   -1    0    0  501    0  0.00000000000E+00  0.00000000000E+00 -0.23467359239E+04  0.23467359239E+04  0.50400001928E-02 0.  1.
    10030    2    1    2    0    0  0.00000000000E+00  0.00000000000E+00 -0.12473417033E+04  0.34461301446E+04  0.32124681553E+04 0.  0.
        2    1    3    3  502    0  0.86149329829E+03 -0.44233264331E+03  0.75100546774E+03  0.12254950359E+04  0.25500000920E-02 0. -1.
       -2    1    3    3    0  502 -0.86149329829E+03  0.44233264331E+03 -0.19983471710E+04  0.22206351087E+04  0.25500000920E-02 0.  1.
</event>
<event>
 5   0  0.1240725E-06  0.3218752E+04  0.7818609E-02  0.8183882E-01
        1   -1    0    0  501    0  0.00000000000E+00  0.00000000000E+00  0.16960715066E+04  0.16960715066E+04  0.50400001928E-02 0.  1.
       -1   -1    0    0    0  501  0.00000000000E+00  0.00000000000E+00 -0.15271119373E+04  0.15271119374E+04  0.50400001928E-02 0. -1.
    10030    2    1    2    0    0  0.00000000000E+00  0.00000000000E+00  0.16895956929E+03  0.32231834440E+04  0.32187519596E+04 0.  0.
        3    1    3    3  502    0 -0.19695717898E+03  0.62004985542E+03 -0.13895648771E+04  0.15343221668E+04  0.10100000352E+00 0. -1.
       -3    1    3    3    0  502  0.19695717898E+03 -0.62004985542E+03  0.15585244464E+04  0.16888612772E+04  0.10100000352E+00 0.  1.
</event>
<event>
 5   0  0.1268836E-06  0.3135519E+04  0.7818609E-02  0.8206057E-01
       -1   -1    0    0    0  501  0.00000000000E+00  0.00000000000E+00  0.13716190489E+04  0.13716190489E+04  0.50400001928E-02 0.  1.
        1   -1    0    0  501    0  0.00000000000E+00  0.00000000000E+00 -0.17919482753E+04  0.17919482753E+04  0.50400001928E-02 0. -1.
    10030    2    1    2    0    0  0.00000000000E+00  0.00000000000E+00 -0.42032922638E+03  0.31635673243E+04  0.31355193440E+04 0.  0.
        1    1    3    3  502    0 -0.11986255249E+04  0.10104461311E+04 -0.22315833318E+03  0.15835100803E+04  0.50400001928E-02 0. -1.
       -1    1    3    3    0  502  0.11986255249E+04 -0.10104461311E+04 -0.19717089320E+03  0.15800572439E+04  0.50400001928E-02 0.  1.
</event>
<event>
 5   0  0.1273754E-06  0.3125300E+04  0.7818609E-02  0.8208829E-01
        1   -1    0    0  501    0  0.00000000000E+00  0.00000000000E+00  0.22153160746E+04  0.22153160746E+04  0.50400001928E-02 0.  1.
       -1   -1    0    0    0  501  0.00000000000E+00  0.00000000000E+00 -0.11022690840E+04  0.11022690840E+04  0.50400001928E-02 0. -1.
    10030    2    1    2    0    0  0.00000000000E+00  0.00000000000E+00  0.11130469906E+04  0.33175851586E+04  0.31252996146E+04 0.  0.
        2    1    3    3  502    0 -0.59544033155E+03 -0.99282187953E+03  0.16706853560E+04  0.20325929331E+04  0.25500000920E-02 0.  1.
       -2    1    3    3    0  502  0.59544033155E+03  0.99282187953E+03 -0.55763836545E+03  0.12849922255E+04  0.25500000920E-02 0. -1.
</event>
<event>
 5   0  0.3758062E-06  0.3236500E+04  0.7818609E-02  0.8179244E-01
       -2   -1    0    0    0  501  0.00000000000E+00  0.00000000000E+00  0.17019507531E+04  0.17019507531E+04  0.25500000920E-02 0.  1.
        2   -1    0    0  501    0  0.00000000000E+00  0.00000000000E+00 -0.15386657683E+04  0.15386657683E+04  0.25500000920E-02 0. -1.
    10030    2    1    2    0    0  0.00000000000E+00  0.00000000000E+00  0.16328498479E+03  0.32406165213E+04  0.32365001857E+04 0.  0.
        2    1    3    3  502    0 -0.87019727493E+03  0.34618259925E+03 -0.12397509814E+04  0.15537271913E+04  0.25500000920E-02 0. -1.
       -2    1    3    3    0  502  0.87019727493E+03 -0.34618259925E+03  0.14030359662E+04  0.16868893300E+04  0.25500000920E-02 0.  1.
</event>
<event>
 5   0  0.1273754E-06  0.3184705E+04  0.7818609E-02  0.8192868E-01
        1   -1    0    0  501    0  0.00000000000E+00  0.00000000000E+00  0.11567337423E+04  0.11567337423E+04  0.50400001928E-02 0. -1.
       -1   -1    0    0    0  501  0.00000000000E+00  0.00000000000E+00 -0.21920226904E+04  0.21920226904E+04  0.50400001928E-02 0.  1.
    10030    2    1    2    0    0  0.00000000000E+00  0.00000000000E+00 -0.10352889481E+04  0.33487564327E+04  0.31847050789E+04 0.  0.
        2    1    3    3  502    0  0.10504818899E+04  0.59833510125E+03 -0.16074036527E+04  0.20112840667E+04  0.25500000920E-02 0.  1.
       -2    1    3    3    0  502 -0.10504818899E+04 -0.59833510125E+03  0.57211470465E+03  0.13374723660E+04  0.25500000920E-02 0. -1.
</event>
<event>
 5   0  0.1306843E-06  0.3098343E+04  0.7818609E-02  0.8216193E-01
       -1   -1    0    0    0  501  0.00000000000E+00  0.00000000000E+00  0.16186112716E+04  0.16186112716E+04  0.50400001928E-02 0.  1.
        1   -1    0    0  501    0  0.00000000000E+00  0.00000000000E+00 -0.14827107687E+04  0.14827107687E+04  0.50400001928E-02 0. -1.
    10030    2    1    2    0    0  0.00000000000E+00  0.00000000000E+00  0.13590050285E+03  0.31013220403E+04  0.30983430170E+04 0.  0.
        5    1    3    3  502    0  0.56782842554E+03  0.11931515891E+04 -0.74144978596E+03  0.15151929615E+04  0.46999998093E+01 0. -1.
       -5    1    3    3    0  502 -0.56782842554E+03 -0.11931515891E+04  0.87735028882E+03  0.15861290788E+04  0.46999998093E+01 0.  1.
</event>
<event>
 5   0  0.1185575E-06  0.3198570E+04  0.7818609E-02  0.8189195E-01
       -3   -1    0    0    0  501  0.00000000000E+00  0.00000000000E+00  0.15556278027E+04  0.15556278060E+04  0.10100000352E+00 0.  1.
        3   -1    0    0  501    0  0.00000000000E+00  0.00000000000E+00 -0.16441674140E+04  0.16441674171E+04  0.10100000352E+00 0. -1.
    10030    2    1    2    0    0  0.00000000000E+00  0.00000000000E+00 -0.88539611284E+02  0.31997952231E+04  0.31985700254E+04 0.  0.
        5    1    3    3  502    0  0.15911579740E+03  0.27499979688E+03  0.15237321679E+04  0.15565103710E+04  0.46999998093E+01 0.  1.
       -5    1    3    3    0  502 -0.15911579740E+03 -0.27499979688E+03 -0.16122717792E+04  0.16432848522E+04  0.46999998093E+01 0. -1.
</event>
<event>
 5   0  0.3656086E-06  0.3221942E+04  0.7818609E-02  0.8183046E-01
        2   -1    0    0  501    0  0.00000000000E+00  0.00000000000E+00  0.23306600483E+04  0.23306600483E+04  0.25500000920E-02 0. -1.
       -2   -1    0    0    0  501  0.00000000000E+00  0.00000000000E+00 -0.11135158705E+04  0.11135158705E+04  0.25500000920E-02 0.  1.
    10030    2    1    2    0    0  0.00000000000E+00  0.00000000000E+00  0.12171441777E+04  0.34441759188E+04  0.32219416212E+04 0.  0.
        3    1    3    3  502    0 -0.13700297232E+04  0.54013629264E+03 -0.89541840565E+02  0.14753800895E+04  0.10100000352E+00 0.  1.
       -3    1    3    3    0  502  0.13700297232E+04 -0.54013629264E+03  0.13066860183E+04  0.19687958293E+04  0.10100000352E+00 0. -1.
</event>
<event>
 5   0  0.3656086E-06  0.3019256E+04  0.7818609E-02  0.8238253E-01
        2   -1    0    0  501    0  0.00000000000E+00  0.00000000000E+00  0.28490316020E+04  0.28490316020E+04  0.25500000920E-02 0.  1.
       -2   -1    0    0    0  501  0.00000000000E+00  0.00000000000E+00 -0.79991293437E+03  0.79991293437E+03  0.25500000920E-02 0. -1.
    10030    2    1    2    0    0  0.00000000000E+00  0.00000000000E+00  0.20491186676E+04  0.36489445363E+04  0.30192563514E+04 0.  0.
        3    1    3    3  502    0  0.30655335260E+03  0.12849883533E+04  0.14156181292E+03  0.13286119761E+04  0.10100000352E+00 0. -1.
       -3    1    3    3    0  502 -0.30655335260E+03 -0.12849883533E+04  0.19075568547E+04  0.23203325602E+04  0.10100000352E+00 0.  1.
</event>
<event>
 5   0  0.3497546E-06  0.3219001E+04  0.7818609E-02  0.8183817E-01
       -2   -1    0    0    0  501  0.00000000000E+00  0.00000000000E+00  0.12120456333E+04  0.12120456333E+04  0.25500000920E-02 0.  1.
        2   -1    0    0  501    0  0.00000000000E+00  0.00000000000E+00 -0.21372885229E+04  0.21372885229E+04  0.25500000920E-02 0. -1.
    10030    2    1    2    0    0  0.00000000000E+00  0.00000000000E+00 -0.92524288956E+03  0.33493341562E+04  0.32190006035E+04 0.  0.
        4    1    3    3  502    0  0.17673677334E+03 -0.15388842137E+04 -0.91745801458E+03  0.18003142314E+04  0.12699999809E+01 0. -1.
       -4    1    3    3    0  502 -0.17673677334E+03  0.15388842137E+04 -0.77848749870E+01  0.15490199248E+04  0.12699999809E+01 0.  1.
</event>
<event>
 5   0  0.3656086E-06  0.3198681E+04  0.7818609E-02  0.8189165E-01
       -2   -1    0    0    0  501  0.00000000000E+00  0.00000000000E+00  0.25874236364E+04  0.25874236364E+04  0.25500000920E-02 0. -1.
        2   -1    0    0  501    0  0.00000000000E+00  0.00000000000E+00 -0.98858598645E+03  0.98858598645E+03  0.25500000920E-02 0.  1.
    10030    2    1    2    0    0  0.00000000000E+00  0.00000000000E+00  0.15988376500E+04  0.35760096229E+04  0.31986814458E+04 0.  0.
        3    1    3    3  502    0 -0.11106447969E+04  0.11433182842E+04  0.65287526289E+03  0.17224850312E+04  0.10100000352E+00 0.  1.
       -3    1    3    3    0  502  0.11106447969E+04 -0.11433182842E+04  0.94596238706E+03  0.18535245916E+04  0.10100000352E+00 0. -1.
</event>
<event>
 5   0  0.3531437E-06  0.3252290E+04  0.7818609E-02  0.8175143E-01
       -2   -1    0    0    0  501  0.00000000000E+00  0.00000000000E+00  0.10814629239E+04  0.10814629239E+04  0.25500000920E-02 0. -1.
        2   -1    0    0  501    0  0.00000000000E+00  0.00000000000E+00 -0.24451572572E+04  0.24451572572E+04  0.25500000920E-02 0.  1.
    10030    2    1    2    0    0  0.00000000000E+00  0.00000000000E+00 -0.13636943333E+04  0.35266201811E+04  0.32522896038E+04 0.  0.
        1    1    3    3  502    0  0.40301193399E+03  0.54748797307E+03  0.91997862540E+03  0.11439066268E+04  0.50400001928E-02 0. -1.
       -1    1    3    3    0  502 -0.40301193399E+03 -0.54748797307E+03 -0.22836729587E+04  0.23827135543E+04  0.50400001928E-02 0.  1.
</event>
<event>
 5   0  0.3656086E-06  0.3250878E+04  0.7818609E-02  0.8175508E-01
        2   -1    0    0  501    0  0.00000000000E+00  0.00000000000E+00  0.25649956517E+04  0.25649956517E+04  0.25500000920E-02 0.  1.
       -2   -1    0    0    0  501  0.00000000000E+00  0.00000000000E+00 -0.10300413241E+04  0.10300413241E+04  0.25500000920E-02 0. -1.
    10030    2    1    2    0    0  0.00000000000E+00  0.00000000000E+00  0.15349543276E+04  0.35950369758E+04  0.32508777383E+04 0.  0.
        3    1    3    3  502    0 -0.57212149052E+03 -0.12075862422E+04  0.17909051177E+04  0.22344862235E+04  0.10100000352E+00 0.  1.
       -3    1    3    3    0  502  0.57212149052E+03  0.12075862422E+04 -0.25595079010E+03  0.13605507522E+04  0.10100000352E+00 0. -1.
</event>
<event>
 5   0  0.3745943E-06  0.3222269E+04  0.7818609E-02  0.8182961E-01
        2   -1    0    0  501    0  0.00000000000E+00  0.00000000000E+00  0.18434980588E+04  0.18434980588E+04  0.25500000920E-02 0. -1.
       -2   -1    0    0    0  501  0.00000000000E+00  0.00000000000E+00 -0.14080588727E+04  0.14080588727E+04  0.25500000920E-02 0.  1.
    10030    2    1    2    0    0  0.00000000000E+00  0.00000000000E+00  0.43543918615E+03  0.32515569315E+04  0.32222686409E+04 0.  0.
        5    1    3    3  502    0 -0.11198634566E+04 -0.88169038369E+03 -0.54028022535E+03  0.15242693023E+04  0.46999998093E+01 0.  1.
       -5    1    3    3    0  502  0.11198634566E+04  0.88169038369E+03  0.97571941150E+03  0.17272876292E+04  0.46999998093E+01 0. -1.
</event>
<event>
 5   0  0.1240725E-06  0.3195608E+04  0.7818609E-02  0.8189978E-01
        1   -1    0    0  501    0  0.00000000000E+00  0.00000000000E+00  0.19913941200E+04  0.19913941200E+04  0.50400001928E-02 0. -1.
       -1   -1    0    0    0  501  0.00000000000E+00  0.00000000000E+00 -0.12820048424E+04  0.12820048424E+04  0.50400001928E-02 0.  1.
    10030    2    1    2    0    0  0.00000000000E+00  0.00000000000E+00  0.70938927764E+03  0.32733989624E+04  0.31956075510E+04 0.  0.
        3    1    3    3  502    0 -0.85221930223E+03  0.11561746991E+03  0.17340753078E+04  0.19356296964E+04  0.10100000352E+00 0. -1.
       -3    1    3    3    0  502  0.85221930223E+03 -0.11561746991E+03 -0.10246860302E+04  0.13377692660E+04  0.10100000352E+00 0.  1.
</event>
<event>
 5   0  0.1268836E-06  0.3177222E+04  0.7818609E-02  0.8194859E-01
        1   -1    0    0  501    0  0.00000000000E+00  0.00000000000E+00  0.21072764530E+04  0.21072764530E+04  0.50400001928E-02 0. -1.
       -1   -1    0    0    0  501  0.00000000000E+00  0.00000000000E+00 -0.11976051559E+04  0.11976051559E+04  0.50400001928E-02 0.  1.
    10030    2    1    2    0    0  0.00000000000E+00  0.00000000000E+00  0.90967129715E+03  0.33048816089E+04  0.31772221483E+04 0.  0.
        1    1    3    3  502    0 -0.16148844014E+03 -0.15477728919E+04  0.12261964216E+03  0.15609980839E+04  0.50400001928E-02 0.  1.
       -1    1    3    3    0  502  0.16148844014E+03  0.15477728919E+04  0.78705165499E+03  0.17438835250E+04  0.50400001928E-02 0. -1.
</event>
<event>
 5   0  0.1240725E-06  0.3175375E+04  0.7818609E-02  0.8195351E-01
       -1   -1    0    0    0  501  0.00000000000E+00  0.00000000000E+00  0.33242854118E+04  0.33242854118E+04  0.50400001928E-02 0. -1.
        1   -1    0    0  501    0  0.00000000000E+00  0.00000000000E+00 -0.75828351952E+03  0.75828351954E+03  0.50400001928E-02 0.  1.
    10030    2    1    2    0    0  0.00000000000E+00  0.00000000000E+00  0.25660018923E+04  0.40825689313E+04  0.31753745240E+04 0.  0.
        3    1    3    3  502    0  0.11365431455E+04 -0.90862161049E+03  0.20996231812E+04  0.25545530070E+04  0.10100000352E+00 0. -1.
       -3    1    3    3    0  502 -0.11365431455E+04  0.90862161049E+03  0.46637871106E+03  0.15280159243E+04  0.10100000352E+00 0.  1.
</event>
<event>
 5   0  0.1268836E-06  0.3165607E+04  0.7818609E-02  0.8197960E-01
       -1   -1    0    0    0  501  0.00000000000E+00  0.00000000000E+00  0.12429936283E+04  0.12429936283E+04  0.50400001928E-02 0. -1.
        1   -1    0    0  501    0  0.00000000000E+00  0.00000000000E+00 -0.20155102068E+04  0.20155102068E+04  0.50400001928E-02 0.  1.
    10030    2    1    2    0    0  0.00000000000E+00  0.00000000000E+00 -0.77251657851E+03  0.32585038351E+04  0.31656066369E+04 0.  0.
        1    1    3    3  502    0 -0.25650791909E+03 -0.15578202729E+04 -0.27041215721E+03  0.16017874547E+04  0.50400001928E-02 0. -1.
       -1    1    3    3    0  502  0.25650791909E+03  0.15578202729E+04 -0.50210442130E+03  0.16567163804E+04  0.50400001928E-02 0.  1.
</event>
<event>
 5   0  0.1273980E-06  0.3189131E+04  0.7818609E-02  0.8191694E-01
       -1   -1    0    0    0  501  0.00000000000E+00  0.00000000000E+00  0.23965914489E+04  0.23965914489E+04  0.50400001928E-02 0.  1.
        1   -1    0    0  501    0  0.00000000000E+00  0.00000000000E+00 -0.10609394909E+04  0.10609394909E+04  0.50400001928E-02 0. -1.
    10030    2    1    2    0    0  0.00000000000E+00  0.00000000000E+00  0.13356519580E+04  0.34575309398E+04  0.31891306099E+04 0.  0.
        4    1    3    3  502    0 -0.31012136539E+03 -0.21978876696E+03  0.23467550603E+04  0.23773395402E+04  0.12699999809E+01 0.  1.
       -4    1    3    3    0  502  0.31012136539E+03  0.21978876696E+03 -0.10111031023E+04  0.10801913996E+04  0.12699999809E+01 0. -1.
</event>
<event>
 5   0  0.3497546E-06  0.3337746E+04  0.7818609E-02  0.8153357E-01
        2   -1    0    0  501    0  0.00000000000E+00  0.00000000000E+00  0.24008434667E+04  0.24008434667E+04  0.25500000920E-02 0.  1.
       -2   -1    0    0    0  501  0.00000000000E+00  0.00000000000E+00 -0.11600662896E+04  0.11600662896E+04  0.25500000920E-02 0. -1.
    10030    2    1    2    0    0  0.00000000000E+00  0.00000000000E+00  0.12407771771E+04  0.35609097563E+04  0.33377462889E+04 0.  0.
        4    1    3    3  502    0  0.35769208701E+03 -0.14590172701E+04 -0.15516906957E+03  0.15102165661E+04  0.12699999809E+01 0. -1.
       -4    1    3    3    0  502 -0.35769208701E+03  0.14590172701E+04  0.13959462467E+04  0.20506931901E+04  0.12699999809E+01 0.  1.
</event>
<event>
 5   0  0.3745943E-06  0.3169275E+04  0.7818609E-02  0.8196979E-01
        2   -1    0    0  501    0  0.00000000000E+00  0.00000000000E+00  0.29959199033E+04  0.29959199034E+04  0.25500000920E-02 0. -1.
       -2   -1    0    0    0  501  0.00000000000E+00  0.00000000000E+00 -0.83816524745E+03  0.83816524745E+03  0.25500000920E-02 0.  1.
    10030    2    1    2    0    0  0.00000000000E+00  0.00000000000E+00  0.21577546559E+04  0.38340851508E+04  0.31692749626E+04 0.  0.
        5    1    3    3  502    0 -0.14476977243E+04  0.23031020519E+03  0.18069345004E+04  0.23267801508E+04  0.46999998093E+01 0. -1.
       -5    1    3    3    0  502  0.14476977243E+04 -0.23031020519E+03  0.35082015545E+03  0.15073050000E+04  0.46999998093E+01 0.  1.
</event>
<event>
 5   0  0.1268836E-06  0.3104510E+04  0.7818609E-02  0.8214501E-01
        1   -1    0    0  501    0  0.00000000000E+00  0.00000000000E+00  0.98115252044E+03  0.98115252045E+03  0.50400001928E-02 0.  1.
       -1   -1    0    0    0  501  0.00000000000E+00  0.00000000000E+00 -0.24557806956E+04  0.24557806956E+04  0.50400001928E-02 0. -1.
    10030    2    1    2    0    0  0.00000000000E+00  0.00000000000E+00 -0.14746281752E+04  0.34369332161E+04  0.31045098932E+04 0.  0.
        1    1    3    3  502    0  0.23802842803E+03 -0.25844717753E+03  0.93655017562E+03  0.10002893120E+04  0.50400001928E-02 0.  1.
       -1    1    3    3    0  502 -0.23802842803E+03  0.25844717753E+03 -0.24111783508E+04  0.24366439041E+04  0.50400001928E-02 0. -1.
</event>
<event>
 5   0  0.3656086E-06  0.3228525E+04  0.7818609E-02  0.8181324E-01
       -2   -1    0    0    0  501  0.00000000000E+00  0.00000000000E+00  0.19043528944E+04  0.19043528944E+04  0.25500000920E-02 0. -1.
        2   -1    0    0  501    0  0.00000000000E+00  0.00000000000E+00 -0.13683614868E+04  0.13683614868E+04  0.25500000920E-02 0.  1.
    10030    2    1    2    0    0  0.00000000000E+00  0.00000000000E+00  0.53599140764E+03  0.32727143812E+04  0.32285248383E+04 0.  0.
        3    1    3    3  502    0  0.15742439449E+04  0.12582022864E+02 -0.93879053451E+02  0.15770908636E+04  0.10100000352E+00 0. -1.
       -3    1    3    3    0  502 -0.15742439449E+04 -0.12582022864E+02  0.62987046109E+03  0.16956235175E+04  0.10100000352E+00 0.  1.
</event>
<event>
 5   0  0.3531437E-06  0.2925985E+04  0.7818609E-02  0.8265188E-01
        2   -1    0    0  501    0  0.00000000000E+00  0.00000000000E+00  0.27593882060E+04  0.27593882060E+04  0.25500000920E-02 0.  1.
       -2   -1    0    0    0  501  0.00000000000E+00  0.00000000000E+00 -0.77566023536E+03  0.77566023537E+03  0.25500000920E-02 0. -1.
    10030    2    1    2    0    0  0.00000000000E+00  0.00000000000E+00  0.19837279706E+04  0.35350484413E+04  0.29259854445E+04 0.  0.
        1    1    3    3  502    0  0.91380023469E+03  0.22787447273E+03  0.23444544806E+04  0.25265439747E+04  0.50400001928E-02 0.  1.
       -1    1    3    3    0  502 -0.91380023469E+03 -0.22787447273E+03 -0.36072651001E+03  0.10085044667E+04  0.50400001928E-02 0. -1.
</event>
<event>
 5   0  0.3758062E-06  0.3218760E+04  0.7818609E-02  0.8183880E-01
        2   -1    0    0  501    0  0.00000000000E+00  0.00000000000E+00  0.15566699081E+04  0.15566699081E+04  0.25500000920E-02 0. -1.
       -2   -1    0    0    0  501  0.00000000000E+00  0.00000000000E+00 -0.16638752741E+04  0.16638752741E+04  0.25500000920E-02 0.  1.
    10030    2    1    2    0    0  0.00000000000E+00  0.00000000000E+00 -0.10720536600E+03  0.32205451823E+04  0.32187603639E+04 0.  0.
        2    1    3    3  502    0 -0.10137435993E+04  0.65999256242E+03 -0.11157177067E+04  0.16456282292E+04  0.25500000920E-02 0.  1.
       -2    1    3    3    0  502  0.10137435993E+04 -0.65999256242E+03  0.10085123407E+04  0.15749169531E+04  0.25500000920E-02 0. -1.
</event>
<event>
 5   0  0.1273754E-06  0.3147215E+04  0.7818609E-02  0.8202898E-01
       -1   -1    0    0    0  501  0.00000000000E+00  0.00000000000E+00  0.14568031255E+04  0.14568031255E+04  0.50400001928E-02 0. -1.
        1   -1    0    0  501    0  0.00000000000E+00  0.00000000000E+00 -0.16997766272E+04  0.16997766272E+04  0.50400001928E-02 0.  1.
    10030    2    1    2    0    0  0.00000000000E+00  0.00000000000E+00 -0.24297350171E+03  0.31565797526E+04  0.31472145800E+04 0.  0.
        2    1    3    3  502    0 -0.70736652494E+03  0.11291618002E+04 -0.96115542061E+03  0.16429222484E+04  0.25500000920E-02 0.  1.
       -2    1    3    3    0  502  0.70736652494E+03 -0.11291618002E+04  0.71818191890E+03  0.15136575043E+04  0.25500000920E-02 0. -1.
</event>
<event>
 5   0  0.1273980E-06  0.3184326E+04  0.7818609E-02  0.8192969E-01
       -1   -1    0    0    0  501  0.00000000000E+00  0.00000000000E+00  0.26713840304E+04  0.26713840304E+04  0.50400001928E-02 0. -1.
        1   -1    0    0  501    0  0.00000000000E+00  0.00000000000E+00 -0.94893975634E+03  0.94893975636E+03  0.50400001928E-02 0.  1.
    10030    2    1    2    0    0  0.00000000000E+00  0.00000000000E+00  0.17224442741E+04  0.36203237868E+04  0.31843256812E+04 0.  0.
        4    1    3    3  502    0 -0.89043702603E+03 -0.21225593080E+03  0.23422979227E+04  0.25148144761E+04  0.12699999809E+01 0. -1.
       -4    1    3    3    0  502  0.89043702603E+03  0.21225593080E+03 -0.61985364861E+03  0.11055093107E+04  0.12699999809E+01 0.  1.
</event>
<event>
 5   0  0.3745943E-06  0.3208871E+04  0.7818609E-02  0.8186478E-01
       -2   -1    0    0    0  501  0.00000000000E+00  0.00000000000E+00  0.13058082338E+04  0.13058082338E+04  0.25500000920E-02 0.  1.
        2   -1    0    0  501    0  0.00000000000E+00  0.00000000000E+00 -0.19713564533E+04  0.19713564533E+04  0.25500000920E-02 0. -1.
    10030    2    1    2    0    0  0.00000000000E+00  0.00000000000E+00 -0.66554821945E+03  0.32771646871E+04  0.32088711339E+04 0.  0.
        5    1    3    3  502    0  0.49232153257E+02 -0.15199701338E+04  0.18943840807E+03  0.15325279811E+04  0.46999998093E+01 0.  1.
       -5    1    3    3    0  502 -0.49232153257E+02  0.15199701338E+04 -0.85498662752E+03  0.17446367060E+04  0.46999998093E+01 0. -1.
</event>
<event>
 5   0  0.1273754E-06  0.3192677E+04  0.7818609E-02  0.8190754E-01
        1   -1    0    0  501    0  0.00000000000E+00  0.00000000000E+00  0.13572953151E+04  0.13572953152E+04  0.50400001928E-02 0.  1.
       -1   -1    0    0    0  501  0.00000000000E+00  0.00000000000E+00 -0.18774811144E+04  0.18774811144E+04  0.50400001928E-02 0. -1.
    10030    2    1    2    0    0  0.00000000000E+00  0.00000000000E+00 -0.52018579929E+03  0.32347764296E+04  0.31926768211E+04 0.  0.
        2    1    3    3  502    0 -0.46230374137E+03  0.12730132533E+04 -0.11162256317E+04  0.17550632904E+04  0.25500000920E-02 0. -1.
       -2    1    3    3    0  502  0.46230374137E+03 -0.12730132533E+04  0.59603983241E+03  0.14797131392E+04  0.25500000920E-02 0.  1.
</event>
<event>
 5   0  0.1306843E-06  0.3203661E+04  0.7818609E-02  0.8187851E-01
        1   -1    0    0  501    0  0.00000000000E+00  0.00000000000E+00  0.10880628179E+04  0.10880628179E+04  0.50400001928E-02 0. -1.
       -1   -1    0    0    0  501  0.00000000000E+00  0.00000000000E+00 -0.23581924621E+04  0.23581924622E+04  0.50400001928E-02 0.  1.
    10030    2    1    2    0    0  0.00000000000E+00  0.00000000000E+00 -0.12701296443E+04  0.34462552800E+04  0.32036613650E+04 0.  0.
        5    1    3    3  502    0  0.78299734791E+03  0.13828916221E+04 -0.41893969765E+03  0.16434739565E+04  0.46999998093E+01 0. -1.
       -5    1    3    3    0  502 -0.78299734791E+03 -0.13828916221E+04 -0.85118994663E+03  0.18027813236E+04  0.46999998093E+01 0.  1.
</event>
<event>
 5   0  0.1273980E-06  0.3214336E+04  0.7818609E-02  0.8185041E-01
       -1   -1    0    0    0  501  0.00000000000E+00  0.00000000000E+00  0.15954173968E+04  0.15954173968E+04  0.50400001928E-02 0.  1.
        1   -1    0    0  501    0  0.00000000000E+00  0.00000000000E+00 -0.16190050825E+04  0.16190050826E+04  0.50400001928E-02 0. -1.
    10030    2    1    2    0    0  0.00000000000E+00  0.00000000000E+00 -0.23587685734E+02  0.32144224794E+04  0.32143359341E+04 0.  0.
        4    1    3    3  502    0  0.52157417608E+03 -0.11245650984E+04 -0.10347099309E+04  0.16147174786E+04  0.12699999809E+01 0. -1.
       -4    1    3    3    0  502 -0.52157417608E+03  0.11245650984E+04  0.10111222452E+04  0.15997050007E+04  0.12699999809E+01 0.  1.
</event>
<event>
 5   0  0.1240725E-06  0.3169303E+04  0.7818609E-02  0.8196972E-01
        1   -1    0    0  501    0  0.00000000000E+00  0.00000000000E+00  0.74906548991E+03  0.74906548992E+03  0.50400001928E-02 0. -1.
       -1   -1    0    0    0  501  0.00000000000E+00  0.00000000000E+00 -0.33523367186E+04  0.33523367186E+04  0.50400001928E-02 0.  1.
    10030    2    1    2    0    0  0.00000000000E+00  0.00000000000E+00 -0.26032712287E+04  0.41014022085E+04  0.31693026025E+04 0.  0.
        3    1    3    3  502    0  0.52185054135E+03 -0.11590205852E+04 -0.25262306211E+04  0.28279847711E+04  0.10100000352E+00 0.  1.
       -3    1    3    3    0  502 -0.52185054135E+03  0.11590205852E+04 -0.77040607544E+02  0.12734174374E+04  0.10100000352E+00 0. -1.
</event>
<event>
 5   0  0.1306843E-06  0.3793153E+04  0.7818609E-02  0.8047626E-01
       -1   -1    0    0    0  501  0.00000000000E+00  0.00000000000E+00  0.17677293635E+04  0.17677293635E+04  0.50400001928E-02 0.  1.
        1   -1    0    0  501    0  0.00000000000E+00  0.00000000000E+00 -0.20348148015E+04  0.20348148015E+04  0.50400001928E-02 0. -1.
    10030    2    1    2    0    0  0.00000000000E+00  0.00000000000E+00 -0.26708543804E+03  0.38025441650E+04  0.37931527119E+04 0.  0.
        5    1    3    3  502    0  0.75837346871E+03 -0.10901096397E+04 -0.14909670604E+04  0.19966156891E+04  0.46999998093E+01 0. -1.
       -5    1    3    3    0  502 -0.75837346871E+03  0.10901096397E+04  0.12238816224E+04  0.18059284759E+04  0.46999998093E+01 0.  1.
</event>
<event>
 5   0  0.1268836E-06  0.3246679E+04  0.7818609E-02  0.8176597E-01
       -1   -1    0    0    0  501  0.00000000000E+00  0.00000000000E+00  0.19258887877E+04  0.19258887877E+04  0.50400001928E-02 0. -1.
        1   -1    0    0  501    0  0.00000000000E+00  0.00000000000E+00 -0.13683192997E+04  0.13683192997E+04  0.50400001928E-02 0.  1.
    10030    2    1    2    0    0  0.00000000000E+00  0.00000000000E+00  0.55756948801E+03  0.32942080873E+04  0.32466787936E+04 0.  0.
        1    1    3    3  502    0 -0.13931875597E+04  0.14307035779E+03  0.11116486002E+04  0.17880725137E+04  0.50400001928E-02 0. -1.
       -1    1    3    3    0  502  0.13931875597E+04 -0.14307035779E+03 -0.55407911220E+03  0.15061355737E+04  0.50400001928E-02 0.  1.
</event>
<event>
 5   0  0.3531437E-06  0.2439698E+04  0.7818609E-02  0.8424789E-01
        2   -1    0    0  501    0  0.00000000000E+00  0.00000000000E+00  0.18660949572E+04  0.18660949572E+04  0.25500000920E-02 0.  1.
       -2   -1    0    0    0  501  0.00000000000E+00  0.00000000000E+00 -0.79740396500E+03  0.79740396501E+03  0.25500000920E-02 0. -1.
    10030    2    1    2    0    0  0.00000000000E+00  0.00000000000E+00  0.10686909922E+04  0.26634989222E+04  0.24396979469E+04 0.  0.
        1    1    3    3  502    0 -0.52014682788E+03 -0.42686801021E+03 -0.57646942699E+03  0.88605080044E+03  0.50400001928E-02 0. -1.
       -1    1    3    3    0  502  0.52014682788E+03  0.42686801021E+03  0.16451604192E+04  0.17774481218E+04  0.50400001928E-02 0.  1.
</event>
<event>
 5   0  0.1268836E-06  0.3247051E+04  0.7818609E-02  0.8176500E-01
        1   -1    0    0  501    0  0.00000000000E+00  0.00000000000E+00  0.15814263797E+04  0.15814263797E+04  0.50400001928E-02 0. -1.
       -1   -1    0    0    0  501  0.00000000000E+00  0.00000000000E+00 -0.16667454129E+04  0.16667454130E+04  0.50400001928E-02 0.  1.
    10030    2    1    2    0    0  0.00000000000E+00  0.00000000000E+00 -0.85319033258E+02  0.32481717926E+04  0.32470510709E+04 0.  0.
        1    1    3    3  502    0 -0.85367300386E+03 -0.12054026412E+04 -0.71674819538E+03  0.16417920394E+04  0.50400001928E-02 0.  1.
       -1    1    3    3    0  502  0.85367300386E+03  0.12054026412E+04  0.63142916212E+03  0.16063797533E+04  0.50400001928E-02 0. -1.
</event>
<event>
 5   0  0.3497546E-06  0.3196064E+04  0.7818609E-02  0.8189857E-01
        2   -1    0    0  501    0  0.00000000000E+00  0.00000000000E+00  0.22323842195E+04  0.22323842195E+04  0.25500000920E-02 0.  1.
       -2   -1    0    0    0  501  0.00000000000E+00  0.00000000000E+00 -0.11439369695E+04  0.11439369695E+04  0.25500000920E-02 0. -1.
    10030    2    1    2    0    0  0.00000000000E+00  0.00000000000E+00  0.10884472500E+04  0.33763211890E+04  0.31960643540E+04 0.  0.
        4    1    3    3  502    0  0.76552469932E+03 -0.13018335357E+04 -0.76444395604E+01  0.15102511944E+04  0.12699999809E+01 0. -1.
       -4    1    3    3    0  502 -0.76552469932E+03  0.13018335357E+04  0.10960916895E+04  0.18660699946E+04  0.12699999809E+01 0.  1.
</event>
<event>
 5   0  0.3745943E-06  0.3171129E+04  0.7818609E-02  0.8196484E-01
       -2   -1    0    0    0  501  0.00000000000E+00  0.00000000000E+00  0.11132967577E+04  0.11132967577E+04  0.25500000920E-02 0. -1.
        2   -1    0    0  501    0  0.00000000000E+00  0.00000000000E+00 -0.22581715985E+04  0.22581715985E+04  0.25500000920E-02 0.  1.
    10030    2    1    2    0    0  0.00000000000E+00  0.00000000000E+00 -0.11448748408E+04  0.33714683561E+04  0.31711292114E+04 0.  0.
        5    1    3    3  502    0  0.49721463397E+03  0.12600422262E+04 -0.14485513294E+04  0.19832427607E+04  0.46999998093E+01 0.  1.
       -5    1    3    3    0  502 -0.49721463397E+03 -0.12600422262E+04  0.30367648860E+03  0.13882255954E+04  0.46999998093E+01 0. -1.
</event>
<event>
 5   0  0.1273754E-06  0.3472933E+04  0.7818609E-02  0.8120235E-01
        1   -1    0    0  501    0  0.00000000000E+00  0.00000000000E+00  0.21060588944E+04  0.21060588944E+04  0.50400001928E-02 0.  1.
       -1   -1    0    0    0  501  0.00000000000E+00  0.00000000000E+00 -0.14317337571E+04  0.14317337571E+04  0.50400001928E-02 0. -1.
    10030    2    1    2    0    0  0.00000000000E+00  0.00000000000E+00  0.67432513727E+03  0.35377926516E+04  0.34729328319E+04 0.  0.
        2    1    3    3  502    0  0.21018844051E+03 -0.11449910875E+04 -0.97536151624E+03  0.15187211259E+04  0.25500000920E-02 0. -1.
       -2    1    3    3    0  502 -0.21018844051E+03  0.11449910875E+04  0.16496866535E+04  0.20190715257E+04  0.25500000920E-02 0.  1.
</event>
<event>
 5   0  0.1268836E-06  0.3226588E+04  0.7818609E-02  0.8181830E-01
        1   -1    0    0  501    0  0.00000000000E+00  0.00000000000E+00  0.16769009167E+04  0.16769009167E+04  0.50400001928E-02 0. -1.
       -1   -1    0    0    0  501  0.00000000000E+00  0.00000000000E+00 -0.15521000296E+04  0.15521000296E+04  0.50400001928E-02 0.  1.
    10030    2    1    2    0    0  0.00000000000E+00  0.00000000000E+00  0.12480088708E+03  0.32290009463E+04  0.32265882677E+04 0.  0.
        1    1    3    3  502    0 -0.45547904812E+03  0.62480332176E+03 -0.13545953292E+04  0.15597335863E+04  0.50400001928E-02 0.  1.
       -1    1    3    3    0  502  0.45547904812E+03 -0.62480332176E+03  0.14793962163E+04  0.16692673600E+04  0.50400001928E-02 0. -1.
</event>
<event>
 5   0  0.3758062E-06  0.3206663E+04  0.7818609E-02  0.8187060E-01
       -2   -1    0    0    0  501  0.00000000000E+00  0.00000000000E+00  0.14927613673E+04  0.14927613673E+04  0.25500000920E-02 0. -1.
        2   -1    0    0  501    0  0.00000000000E+00  0.00000000000E+00 -0.17220918551E+04  0.17220918551E+04  0.25500000920E-02 0.  1.
    10030    2    1    2    0    0  0.00000000000E+00  0.00000000000E+00 -0.22933048778E+03  0.32148532224E+04  0.32066631829E+04 0.  0.
        2    1    3    3  502    0  0.21241204206E+02  0.36335224309E+03 -0.16801257828E+04  0.17190982192E+04  0.25500000920E-02 0.  1.
       -2    1    3    3    0  502 -0.21241204206E+02 -0.36335224309E+03  0.14507952950E+04  0.14957550031E+04  0.25500000920E-02 0. -1.
</event>
<event>
 5   0  0.1240725E-06  0.3128078E+04  0.7818609E-02  0.8208074E-01
       -1   -1    0    0    0  501  0.00000000000E+00  0.00000000000E+00  0.16341358815E+04  0.16341358815E+04  0.50400001928E-02 0.  1.
        1   -1    0    0  501    0  0.00000000000E+00  0.00000000000E+00 -0.14969492942E+04  0.14969492942E+04  0.50400001928E-02 0. -1.
    10030    2    1    2    0    0  0.00000000000E+00  0.00000000000E+00  0.13718658734E+03  0.31310851757E+04  0.31280783586E+04 0.  0.
        3    1    3    3  502    0 -0.70874026406E+03 -0.56396093104E+03  0.13449086962E+04  0.16214635688E+04  0.10100000352E+00 0.  1.
       -3    1    3    3    0  502  0.70874026406E+03  0.56396093104E+03 -0.12077221088E+04  0.15096216069E+04  0.10100000352E+00 0. -1.
</event>
<event>
 5   0  0.1240725E-06  0.3179942E+04  0.7818609E-02  0.8194135E-01
        1   -1    0    0  501    0  0.00000000000E+00  0.00000000000E+00  0.13682632882E+04  0.13682632882E+04  0.50400001928E-02 0.  1.
       -1   -1    0    0    0  501  0.00000000000E+00  0.00000000000E+00 -0.18476035452E+04  0.18476035452E+04  0.50400001928E-02 0. -1.
    10030    2    1    2    0    0  0.00000000000E+00  0.00000000000E+00 -0.47934025700E+03  0.32158668334E+04  0.31799422021E+04 0.  0.
        3    1    3    3  502    0  0.13729016546E+04 -0.31269466412E+03  0.50716532170E+03  0.14966140384E+04  0.10100000352E+00 0.  1.
       -3    1    3    3    0  502 -0.13729016546E+04  0.31269466412E+03 -0.98650557870E+03  0.17192527950E+04  0.10100000352E+00 0. -1.
</event>
<event>
 5   0  0.3758062E-06  0.3175538E+04  0.7818609E-02  0.8195307E-01
       -2   -1    0    0    0  501  0.00000000000E+00  0.00000000000E+00  0.11162890413E+04  0.11162890413E+04  0.25500000920E-02 0.  1.
        2   -1    0    0  501    0  0.00000000000E+00  0.00000000000E+00 -0.22583855081E+04  0.22583855081E+04  0.25500000920E-02 0. -1.
    10030    2    1    2    0    0  0.00000000000E+00  0.00000000000E+00 -0.11420964668E+04  0.33746745493E+04  0.31755383755E+04 0.  0.
        2    1    3    3  502    0  0.67070419105E+03 -0.69033142594E+03  0.77091831831E+03  0.12331734035E+04  0.25500000920E-02 0.  1.
       -2    1    3    3    0  502 -0.67070419105E+03  0.69033142594E+03 -0.19130147851E+04  0.21415011459E+04  0.25500000920E-02 0. -1.
</event>
<event>
 5   0  0.1306843E-06  0.3068438E+04  0.7818609E-02  0.8224453E-01
        1   -1    0    0  501    0  0.00000000000E+00  0.00000000000E+00  0.21011415912E+04  0.21011415912E+04  0.50400001928E-02 0.  1.
       -1   -1    0    0    0  501  0.00000000000E+00  0.00000000000E+00 -0.11202618185E+04  0.11202618185E+04  0.50400001928E-02 0. -1.
    10030    2    1    2    0    0  0.00000000000E+00  0.00000000000E+00  0.98087977270E+03  0.32214034098E+04  0.30684384954E+04 0.  0.
        5    1    3    3  502    0  0.13403831372E+02 -0.22550938609E+03 -0.11026974115E+04  0.11256099757E+04  0.46999998093E+01 0. -1.
       -5    1    3    3    0  502 -0.13403831372E+02  0.22550938609E+03  0.20835771842E+04  0.20957934341E+04  0.46999998093E+01 0.  1.
</event>
<event>
 5   0  0.3656086E-06  0.3235383E+04  0.7818609E-02  0.8179535E-01
        2   -1    0    0  501    0  0.00000000000E+00  0.00000000000E+00  0.23551412593E+04  0.23551412593E+04  0.25500000920E-02 0.  1.
       -2   -1    0    0    0  501  0.00000000000E+00  0.00000000000E+00 -0.11111544031E+04  0.11111544031E+04  0.25500000920E-02 0. -1.
    10030    2    1    2    0    0  0.00000000000E+00  0.00000000000E+00  0.12439868562E+04  0.34662956624E+04  0.32353828708E+04 0.  0.
        3    1    3    3  502    0  0.30241635452E+03 -0.68757448047E+03 -0.91299057327E+03  0.11822715909E+04  0.10100000352E+00 0. -1.
       -3    1    3    3    0  502 -0.30241635452E+03  0.68757448047E+03  0.21569774295E+04  0.22840240715E+04  0.10100000352E+00 0.  1.
</event>
<event>
 5   0  0.3656086E-06  0.3415154E+04  0.7818609E-02  0.8134197E-01
        2   -1    0    0  501    0  0.00000000000E+00  0.00000000000E+00  0.11259006651E+04  0.11259006651E+04  0.25500000920E-02 0. -1.
       -2   -1    0    0    0  501  0.00000000000E+00  0.00000000000E+00 -0.25897656849E+04  0.25897656849E+04  0.25500000920E-02 0.  1.
    10030    2    1    2    0    0  0.00000000000E+00  0.00000000000E+00 -0.14638650198E+04  0.37156663500E+04  0.34151538220E+04 0.  0.
        3    1    3    3  502    0  0.12700462161E+04 -0.74104972771E+03 -0.16764507986E+04  0.22299460488E+04  0.10100000352E+00 0.  1.
       -3    1    3    3    0  502 -0.12700462161E+04  0.74104972771E+03  0.21258577886E+03  0.14857203012E+04  0.10100000352E+00 0. -1.
</event>
<event>
 5   0  0.3758062E-06  0.3203577E+04  0.7818609E-02  0.8187873E-01
       -2   -1    0    0    0  501  0.00000000000E+00  0.00000000000E+00  0.17813407504E+04  0.17813407504E+04  0.25500000920E-02 0.  1.
        2   -1    0    0  501    0  0.00000000000E+00  0.00000000000E+00 -0.14403348218E+04  0.14403348218E+04  0.25500000920E-02 0. -1.
    10030    2    1    2    0    0  0.00000000000E+00  0.00000000000E+00  0.34100592861E+03  0.32216755722E+04  0.32035774455E+04 0.  0.
        2    1    3    3  502    0 -0.13213366507E+04  0.89129680718E+03  0.10271211552E+02  0.15938776744E+04  0.25500000920E-02 0.  1.
       -2    1    3    3    0  502  0.13213366507E+04 -0.89129680718E+03  0.33073471706E+03  0.16277978978E+04  0.25500000920E-02 0. -1.
</event>
<event>
 5   0  0.1273980E-06  0.3142116E+04  0.7818609E-02  0.8204274E-01
       -1   -1    0    0    0  501  0.00000000000E+00  0.00000000000E+00  0.84067245360E+03  0.84067245361E+03  0.50400001928E-02 0. -1.
        1   -1    0    0  501    0  0.00000000000E+00  0.00000000000E+00 -0.29360110338E+04  0.29360110338E+04  0.50400001928E-02 0.  1.
    10030    2    1    2    0    0  0.00000000000E+00  0.00000000000E+00 -0.20953385802E+04  0.37766834874E+04  0.31421162293E+04 0.  0.
        4    1    3    3  502    0  0.14413296292E+04 -0.58087571363E+03 -0.76998302021E+03  0.17342788585E+04  0.12699999809E+01 0. -1.
       -4    1    3    3    0  502 -0.14413296292E+04  0.58087571363E+03 -0.13253555600E+04  0.20424046289E+04  0.12699999809E+01 0.  1.
</event>
<event>
 5   0  0.3531437E-06  0.3380544E+04  0.7818609E-02  0.8142698E-01
        2   -1    0    0  501    0  0.00000000000E+00  0.00000000000E+00  0.21593922537E+04  0.21593922537E+04  0.25500000920E-02 0.  1.
       -2   -1    0    0    0  501  0.00000000000E+00  0.00000000000E+00 -0.13230665887E+04  0.13230665887E+04  0.25500000920E-02 0. -1.
    10030    2    1    2    0    0  0.00000000000E+00  0.00000000000E+00  0.83632566499E+03  0.34824588425E+04  0.33805441828E+04 0.  0.
        1    1    3    3  502    0 -0.13637944743E+04 -0.42932644459E+02  0.14458561699E+04  0.19880338639E+04  0.50400001928E-02 0. -1.
       -1    1    3    3    0  502  0.13637944743E+04  0.42932644459E+02 -0.60953050492E+03  0.14944249785E+04  0.50400001928E-02 0.  1.
</event>
<event>
 5   0  0.3758062E-06  0.3189959E+04  0.7818609E-02  0.8191474E-01
        2   -1    0    0  501    0  0.00000000000E+00  0.00000000000E+00  0.10405400061E+04  0.10405400061E+04  0.25500000920E-02 0.  1.
       -2   -1    0    0    0  501  0.00000000000E+00  0.00000000000E+00 -0.24448449245E+04  0.24448449245E+04  0.25500000920E-02 0. -1.
    10030    2    1    2    0    0  0.00000000000E+00  0.00000000000E+00 -0.14043049184E+04  0.34853849306E+04  0.31899585907E+04 0.  0.
        2    1    3    3  502    0  0.15647817474E+04 -0.34417937626E+02 -0.36675024565E+03  0.16075547438E+04  0.25500000920E-02 0. -1.
       -2    1    3    3    0  502 -0.15647817474E+04  0.34417937626E+02 -0.10375546727E+04  0.18778301868E+04  0.25500000920E-02 0.  1.
</event>
<event>
 5   0  0.3531437E-06  0.3250659E+04  0.7818609E-02  0.8175565E-01
       -2   -1    0    0    0  501  0.00000000000E+00  0.00000000000E+00  0.20260360374E+04  0.20260360374E+04  0.25500000920E-02 0. -1.
        2   -1    0    0  501    0  0.00000000000E+00  0.00000000000E+00 -0.13038744152E+04  0.13038744152E+04  0.25500000920E-02 0.  1.
    10030    2    1    2    0    0  0.00000000000E+00  0.00000000000E+00  0.72216162227E+03  0.33299104526E+04  0.32506593506E+04 0.  0.
        1    1    3    3  502    0 -0.16484074100E+03 -0.25502583014E+03  0.19967196039E+04  0.20196781478E+04  0.50400001928E-02 0. -1.
       -1    1    3    3    0  502  0.16484074100E+03  0.25502583014E+03 -0.12745579816E+04  0.13102323048E+04  0.50400001928E-02 0.  1.
</event>
<event>
 5   0  0.3656086E-06  0.3258757E+04  0.7818609E-02  0.8173470E-01
       -2   -1    0    0    0  501  0.00000000000E+00  0.00000000000E+00  0.15388442770E+04  0.15388442770E+04  0.25500000920E-02 0. -1.
        2   -1    0    0  501    0  0.00000000000E+00  0.00000000000E+00 -0.17252395864E+04  0.17252395864E+04  0.25500000920E-02 0.  1.
    10030    2    1    2    0    0  0.00000000000E+00  0.00000000000E+00 -0.18639530940E+03  0.32640838634E+04  0.32587574712E+04 0.  0.
        3    1    3    3  502    0  0.39847251005E+03 -0.71745065640E+03  0.13167106997E+04  0.15515292014E+04  0.10100000352E+00 0. -1.
       -3    1    3    3    0  502 -0.39847251005E+03  0.71745065640E+03 -0.15031060091E+04  0.17125546621E+04  0.10100000352E+00 0.  1.
</event>
<event>
 5   0  0.1273754E-06  0.3154921E+04  0.7818609E-02  0.8200825E-01
       -1   -1    0    0    0  501  0.00000000000E+00  0.00000000000E+00  0.13404487876E+04  0.13404487876E+04  0.50400001928E-02 0. -1.
        1   -1    0    0  501    0  0.00000000000E+00  0.00000000000E+00 -0.18563792142E+04  0.18563792142E+04  0.50400001928E-02 0.  1.
    10030    2    1    2    0    0  0.00000000000E+00  0.00000000000E+00 -0.51593042661E+03  0.31968280018E+04  0.31549207705E+04 0.  0.
        2    1    3    3  502    0 -0.11605104567E+04 -0.32780359046E+03  0.77247027602E+03  0.14321138367E+04  0.25500000920E-02 0. -1.
       -2    1    3    3    0  502  0.11605104567E+04  0.32780359046E+03 -0.12884007026E+04  0.17647141651E+04  0.25500000920E-02 0.  1.
</event>
<event>
 5   0  0.3531437E-06  0.3208005E+04  0.7818609E-02  0.8186706E-01
        2   -1    0    0  501    0  0.00000000000E+00  0.00000000000E+00  0.18170861760E+04  0.18170861760E+04  0.25500000920E-02 0. -1.
       -2   -1    0    0    0  501  0.00000000000E+00  0.00000000000E+00 -0.14159065659E+04  0.14159065659E+04  0.25500000920E-02 0.  1.
    10030    2    1    2    0    0  0.00000000000E+00  0.00000000000E+00  0.40117961008E+03  0.32329927419E+04  0.32080051418E+04 0.  0.
        1    1    3    3  502    0  0.39630045390E+03  0.18487876903E+03  0.17558504282E+04  0.18094874786E+04  0.50400001928E-02 0. -1.
       -1    1    3    3    0  502 -0.39630045390E+03 -0.18487876903E+03 -0.13546708181E+04  0.14235052633E+04  0.50400001928E-02 0.  1.
</event>
<event>
 5   0  0.3497546E-06  0.3014006E+04  0.7818609E-02  0.8239743E-01
        2   -1    0    0  501    0  0.00000000000E+00  0.00000000000E+00  0.15779711068E+04  0.15779711068E+04  0.25500000920E-02 0.  1.
       -2   -1    0    0    0  501  0.00000000000E+00  0.00000000000E+00 -0.14392270480E+04  0.14392270480E+04  0.25500000920E-02 0. -1.
    10030    2    1    2    0    0  0.00000000000E+00  0.00000000000E+00  0.13874405877E+03  0.30171981548E+04  0.30140064352E+04 0.  0.
        4    1    3    3  502    0 -0.15578628648E+03 -0.74118599778E+03 -0.12348626004E+04  0.14486246253E+04  0.12699999809E+01 0. -1.
       -4    1    3    3    0  502  0.15578628648E+03  0.74118599778E+03  0.13736066592E+04  0.15685735295E+04  0.12699999809E+01 0.  1.
</event>
<event>
 5   0  0.1268836E-06  0.3150855E+04  0.7818609E-02  0.8201918E-01
       -1   -1    0    0    0  501  0.00000000000E+00  0.00000000000E+00  0.26932329100E+04  0.26932329100E+04  0.50400001928E-02 0.  1.
        1   -1    0    0  501    0  0.00000000000E+00  0.00000000000E+00 -0.92155828868E+03  0.92155828870E+03  0.50400001928E-02 0. -1.
    10030    2    1    2    0    0  0.00000000000E+00  0.00000000000E+00  0.17716746213E+04  0.36147911987E+04  0.31508545581E+04 0.  0.
        1    1    3    3  502    0 -0.19760669553E+03 -0.15597690528E+04  0.77086557902E+03  0.17510458718E+04  0.50400001928E-02 0.  1.
       -1    1    3    3    0  502  0.19760669553E+03  0.15597690528E+04  0.10008090423E+04  0.18637453269E+04  0.50400001928E-02 0. -1.
</event>
<event>
 5   0  0.1273754E-06  0.2440042E+04  0.7818609E-02  0.8424663E-01
       -1   -1    0    0    0  501  0.00000000000E+00  0.00000000000E+00  0.10966298625E+04  0.10966298626E+04  0.50400001928E-02 0. -1.
        1   -1    0    0  501    0  0.00000000000E+00  0.00000000000E+00 -0.13572961477E+04  0.13572961477E+04  0.50400001928E-02 0.  1.
    10030    2    1    2    0    0  0.00000000000E+00  0.00000000000E+00 -0.26066628512E+03  0.24539260102E+04  0.24400422028E+04 0.  0.
        2    1    3    3  502    0  0.73955908038E+03 -0.94781459524E+03  0.78577857087E+02  0.12047716049E+04  0.25500000920E-02 0. -1.
       -2    1    3    3    0  502 -0.73955908038E+03  0.94781459524E+03 -0.33924414221E+03  0.12491544053E+04  0.25500000920E-02 0.  1.
</event>
<event>
 5   0  0.1306843E-06  0.3180571E+04  0.7818609E-02  0.8193967E-01
       -1   -1    0    0    0  501  0.00000000000E+00  0.00000000000E+00  0.92383689682E+03  0.92383689683E+03  0.50400001928E-02 0.  1.
        1   -1    0    0  501    0  0.00000000000E+00  0.00000000000E+00 -0.27375049807E+04  0.27375049807E+04  0.50400001928E-02 0. -1.
    10030    2    1    2    0    0  0.00000000000E+00  0.00000000000E+00 -0.18136680839E+04  0.36613418776E+04  0.31805710849E+04 0.  0.
        5    1    3    3  502    0 -0.55088257722E+03 -0.48964440092E+03  0.71534526805E+03  0.10271144998E+04  0.46999998093E+01 0.  1.
       -5    1    3    3    0  502  0.55088257722E+03  0.48964440092E+03 -0.25290133519E+04  0.26342273777E+04  0.46999998093E+01 0. -1.
</event>
<event>
 5   0  0.1185575E-06  0.3249926E+04  0.7818609E-02  0.8175755E-01
       -3   -1    0    0    0  501  0.00000000000E+00  0.00000000000E+00  0.15655371965E+04  0.15655371997E+04  0.10100000352E+00 0.  1.
        3   -1    0    0  501    0  0.00000000000E+00  0.00000000000E+00 -0.16866447130E+04  0.16866447160E+04  0.10100000352E+00 0. -1.
    10030    2    1    2    0    0  0.00000000000E+00  0.00000000000E+00 -0.12110751656E+03  0.32521819158E+04  0.32499261811E+04 0.  0.
        5    1    3    3  502    0 -0.55093298696E+03 -0.77847692840E+03 -0.13771148621E+04  0.16751181802E+04  0.46999998093E+01 0. -1.
       -5    1    3    3    0  502  0.55093298696E+03  0.77847692840E+03  0.12560073455E+04  0.15770637356E+04  0.46999998093E+01 0.  1.
</event>
<event>
 5   0  0.1240725E-06  0.3168025E+04  0.7818609E-02  0.8197313E-01
        1   -1    0    0  501    0  0.00000000000E+00  0.00000000000E+00  0.14398284930E+04  0.14398284930E+04  0.50400001928E-02 0. -1.
       -1   -1    0    0    0  501  0.00000000000E+00  0.00000000000E+00 -0.17426345237E+04  0.17426345238E+04  0.50400001928E-02 0.  1.
    10030    2    1    2    0    0  0.00000000000E+00  0.00000000000E+00 -0.30280603078E+03  0.31824630167E+04  0.31680245202E+04 0.  0.
        3    1    3    3  502    0  0.75212084393E+03  0.12662281011E+04 -0.73722070200E+03  0.16469710810E+04  0.10100000352E+00 0.  1.
       -3    1    3    3    0  502 -0.75212084393E+03 -0.12662281011E+04  0.43441467122E+03  0.15354919357E+04  0.10100000352E+00 0. -1.
</event>
<event>
 5   0  0.3497546E-06  0.3186255E+04  0.7818609E-02  0.8192457E-01
       -2   -1    0    0    0  501  0.00000000000E+00  0.00000000000E+00  0.87783726890E+03  0.87783726890E+03  0.25500000920E-02 0. -1.
        2   -1    0    0  501    0  0.00000000000E+00  0.00000000000E+00 -0.28912594484E+04  0.28912594484E+04  0.25500000920E-02 0.  1.
    10030    2    1    2    0    0  0.00000000000E+00  0.00000000000E+00 -0.20134221795E+04  0.37690967173E+04  0.31862550418E+04 0.  0.
        4    1    3    3  502    0  0.88624957441E+03  0.91017196518E+03  0.13049790282E+03  0.12770601512E+04  0.12699999809E+01 0. -1.
       -4    1    3    3    0  502 -0.88624957441E+03 -0.91017196518E+03 -0.21439200823E+04  0.24920365660E+04  0.12699999809E+01 0.  1.
</event>
<event>
 5   0  0.1268836E-06  0.3193875E+04  0.7818609E-02  0.8190437E-01
       -1   -1    0    0    0  501  0.00000000000E+00  0.00000000000E+00  0.18166061357E+04  0.18166061357E+04  0.50400001928E-02 0. -1.
        1   -1    0    0  501    0  0.00000000000E+00  0.00000000000E+00 -0.14038321039E+04  0.14038321039E+04  0.50400001928E-02 0.  1.
    10030    2    1    2    0    0  0.00000000000E+00  0.00000000000E+00  0.41277403179E+03  0.32204382396E+04  0.31938753973E+04 0.  0.
        1    1    3    3  502    0  0.10696115204E+04 -0.86721598633E+02  0.13988556430E+04  0.17630616978E+04  0.50400001928E-02 0. -1.
       -1    1    3    3    0  502 -0.10696115204E+04  0.86721598633E+02 -0.98608161124E+03  0.14573765417E+04  0.50400001928E-02 0.  1.
</event>
<event>
 5   0  0.3745943E-06  0.3163078E+04  0.7818609E-02  0.8198637E-01
       -2   -1    0    0    0  501  0.00000000000E+00  0.00000000000E+00  0.13427172160E+04  0.13427172160E+04  0.25500000920E-02 0.  1.
        2   -1    0    0  501    0  0.00000000000E+00  0.00000000000E+00 -0.18628392914E+04  0.18628392914E+04  0.25500000920E-02 0. -1.
    10030    2    1    2    0    0  0.00000000000E+00  0.00000000000E+00 -0.52012207541E+03  0.32055565074E+04  0.31630784924E+04 0.  0.
        5    1    3    3  502    0  0.98213603238E+03 -0.11167829461E+03 -0.15112178634E+04  0.18057864625E+04  0.46999998093E+01 0. -1.
       -5    1    3    3    0  502 -0.98213603238E+03  0.11167829461E+03  0.99109578799E+03  0.13997700449E+04  0.46999998093E+01 0.  1.
</event>
<event>
 5   0  0.3745943E-06  0.3169672E+04  0.7818609E-02  0.8196873E-01
       -2   -1    0    0    0  501  0.00000000000E+00  0.00000000000E+00  0.24354626913E+04  0.24354626913E+04  0.25500000920E-02 0.  1.
        2   -1    0    0  501    0  0.00000000000E+00  0.00000000000E+00 -0.10313051499E+04  0.10313051499E+04  0.25500000920E-02 0. -1.
    10030    2    1    2    0    0  0.00000000000E+00  0.00000000000E+00  0.14041575415E+04  0.34667678412E+04  0.31696720435E+04 0.  0.
        5    1    3    3  502    0  0.15029790002E+03 -0.20854477967E+03  0.24125012128E+04  0.24261625205E+04  0.46999998093E+01 0.  1.
       -5    1    3    3    0  502 -0.15029790002E+03  0.20854477967E+03 -0.10083436714E+04  0.10406053207E+04  0.46999998093E+01 0. -1.
</event>
<event>
 5   0  0.3745943E-06  0.3220702E+04  0.7818609E-02  0.8183371E-01
       -2   -1    0    0    0  501  0.00000000000E+00  0.00000000000E+00  0.14812880897E+04  0.14812880897E+04  0.25500000920E-02 0.  1.
        2   -1    0    0  501    0  0.00000000000E+00  0.00000000000E+00 -0.17506586838E+04  0.17506586838E+04  0.25500000920E-02 0. -1.
    10030    2    1    2    0    0  0.00000000000E+00  0.00000000000E+00 -0.26937059408E+03  0.32319467735E+04  0.32207016984E+04 0.  0.
        5    1    3    3  502    0 -0.89397839815E+03 -0.16132868065E+03  0.11996125797E+04  0.15047646829E+04  0.46999998093E+01 0.  1.
       -5    1    3    3    0  502  0.89397839815E+03  0.16132868065E+03 -0.14689831737E+04  0.17271820907E+04  0.46999998093E+01 0. -1.
</event>
<event>
 5   0  0.3758062E-06  0.3196033E+04  0.7818609E-02  0.8189866E-01
        2   -1    0    0  501    0  0.00000000000E+00  0.00000000000E+00  0.16236632025E+04  0.16236632025E+04  0.25500000920E-02 0. -1.
       -2   -1    0    0    0  501  0.00000000000E+00  0.00000000000E+00 -0.15727752278E+04  0.15727752278E+04  0.25500000920E-02 0.  1.
    10030    2    1    2    0    0  0.00000000000E+00  0.00000000000E+00  0.50887974638E+02  0.31964384303E+04  0.31960333310E+04 0.  0.
        2    1    3    3  502    0  0.14034285250E+03  0.39839306946E+03  0.15668220314E+04  0.16227582790E+04  0.25500000920E-02 0. -1.
       -2    1    3    3    0  502 -0.14034285250E+03 -0.39839306946E+03 -0.15159340568E+04  0.15736801513E+04  0.25500000920E-02 0.  1.
</event>
<event>
 5   0  0.1273980E-06  0.3210695E+04  0.7818609E-02  0.8185998E-01
        1   -1    0    0  501    0  0.00000000000E+00  0.00000000000E+00  0.16377319781E+04  0.16377319781E+04  0.50400001928E-02 0. -1.
       -1   -1    0    0    0  501  0.00000000000E+00  0.00000000000E+00 -0.15736032645E+04  0.15736032645E+04  0.50400001928E-02 0.  1.
    10030    2    1    2    0    0  0.00000000000E+00  0.00000000000E+00  0.64128713672E+02  0.32113352426E+04  0.32106948700E+04 0.  0.
        4    1    3    3  502    0 -0.12201384544E+03 -0.21462730482E+02 -0.15688143851E+04  0.15736988959E+04  0.12699999809E+01 0.  1.
       -4    1    3    3    0  502  0.12201384544E+03  0.21462730482E+02  0.16329430988E+04  0.16376363467E+04  0.12699999809E+01 0. -1.
</event>
<event>
 5   0  0.3531437E-06  0.2318474E+04  0.7818609E-02  0.8470672E-01
       -2   -1    0    0    0  501  0.00000000000E+00  0.00000000000E+00  0.83228193142E+03  0.83228193143E+03  0.25500000920E-02 0.  1.
        2   -1    0    0  501    0  0.00000000000E+00  0.00000000000E+00 -0.16146341630E+04  0.16146341630E+04  0.25500000920E-02 0. -1.
    10030    2    1    2    0    0  0.00000000000E+00  0.00000000000E+00 -0.78235223157E+03  0.24469160944E+04  0.23184743602E+04 0.  0.
        1    1    3    3  502    0  0.34755405122E+03  0.72032412408E+02  0.77352203675E+03  0.85106922652E+03  0.50400001928E-02 0.  1.
       -1    1    3    3    0  502 -0.34755405122E+03 -0.72032412408E+02 -0.15558742683E+04  0.15958468679E+04  0.50400001928E-02 0. -1.
</event>
<event>
 5   0  0.3745943E-06  0.3198869E+04  0.7818609E-02  0.8189116E-01
       -2   -1    0    0    0  501  0.00000000000E+00  0.00000000000E+00  0.11463859991E+04  0.11463859991E+04  0.25500000920E-02 0.  1.
        2   -1    0    0  501    0  0.00000000000E+00  0.00000000000E+00 -0.22315264794E+04  0.22315264794E+04  0.25500000920E-02 0. -1.
    10030    2    1    2    0    0  0.00000000000E+00  0.00000000000E+00 -0.10851404803E+04  0.33779124785E+04  0.31988689955E+04 0.  0.
        5    1    3    3  502    0  0.67562001800E+03  0.30081714181E+03 -0.20401198423E+04  0.21700378850E+04  0.46999998093E+01 0. -1.
       -5    1    3    3    0  502 -0.67562001800E+03 -0.30081714181E+03  0.95497936203E+03  0.12078745934E+04  0.46999998093E+01 0.  1.
</event>
<event>
 5   0  0.3497546E-06  0.3073135E+04  0.7818609E-02  0.8223150E-01
       -2   -1    0    0    0  501  0.00000000000E+00  0.00000000000E+00  0.10694594934E+04  0.10694594934E+04  0.25500000920E-02 0. -1.
        2   -1    0    0  501    0  0.00000000000E+00  0.00000000000E+00 -0.22076942140E+04  0.22076942140E+04  0.25500000920E-02 0.  1.
    10030    2    1    2    0    0  0.00000000000E+00  0.00000000000E+00 -0.11382347206E+04  0.32771537074E+04  0.30731349048E+04 0.  0.
        4    1    3    3  502    0 -0.10696530795E+04 -0.86836832219E+03  0.15635301455E+03  0.13866034515E+04  0.12699999809E+01 0. -1.
       -4    1    3    3    0  502  0.10696530795E+04  0.86836832219E+03 -0.12945877351E+04  0.18905502560E+04  0.12699999809E+01 0.  1.
</event>
<event>
 5   0  0.3656086E-06  0.3208313E+04  0.7818609E-02  0.8186625E-01
        2   -1    0    0  501    0  0.00000000000E+00  0.00000000000E+00  0.14854409474E+04  0.14854409474E+04  0.25500000920E-02 0. -1.
       -2   -1    0    0    0  501  0.00000000000E+00  0.00000000000E+00 -0.17323598531E+04  0.17323598531E+04  0.25500000920E-02 0.  1.
    10030    2    1    2    0    0  0.00000000000E+00  0.00000000000E+00 -0.24691890573E+03  0.32178008006E+04  0.32083131153E+04 0.  0.
        3    1    3    3  502    0  0.35305333527E+03  0.87973579199E+02 -0.16904279698E+04  0.17291421975E+04  0.10100000352E+00 0.  1.
       -3    1    3    3    0  502 -0.35305333527E+03 -0.87973579199E+02  0.14435090640E+04  0.14886586030E+04  0.10100000352E+00 0. -1.
</event>
<event>
 5   0  0.3745943E-06  0.3172764E+04  0.7818609E-02  0.8196047E-01
        2   -1    0    0  501    0  0.00000000000E+00  0.00000000000E+00  0.20412952621E+04  0.20412952621E+04  0.25500000920E-02 0.  1.
       -2   -1    0    0    0  501  0.00000000000E+00  0.00000000000E+00 -0.12328484878E+04  0.12328484878E+04  0.25500000920E-02 0. -1.
    10030    2    1    2    0    0  0.00000000000E+00  0.00000000000E+00  0.80844677426E+03  0.32741437499E+04  0.31727639541E+04 0.  0.
        5    1    3    3  502    0  0.89587863599E+03  0.72077426445E+03  0.15320644365E+04  0.19155567332E+04  0.46999998093E+01 0.  1.
       -5    1    3    3    0  502 -0.89587863599E+03 -0.72077426445E+03 -0.72361766223E+03  0.13585870166E+04  0.46999998093E+01 0. -1.
</event>
<event>
 5   0  0.1273980E-06  0.3278631E+04  0.7818609E-02  0.8168354E-01
        1   -1    0    0  501    0  0.00000000000E+00  0.00000000000E+00  0.22549156070E+04  0.22549156070E+04  0.50400001928E-02 0. -1.
       -1   -1    0    0    0  501  0.00000000000E+00  0.00000000000E+00 -0.11917766922E+04  0.11917766922E+04  0.50400001928E-02 0.  1.
    10030    2    1    2    0    0  0.00000000000E+00  0.00000000000E+00  0.10631389149E+04  0.34466922992E+04  0.32786313384E+04 0.  0.
        4    1    3    3  502    0 -0.12090798095E+04  0.49645247422E+03 -0.50860131543E+03  0.14025034602E+04  0.12699999809E+01 0.  1.
       -4    1    3    3    0  502  0.12090798095E+04 -0.49645247422E+03  0.15717402303E+04  0.20441888390E+04  0.12699999809E+01 0. -1.
</event>
<event>
 5   0  0.1240725E-06  0.3211250E+04  0.7818609E-02  0.8185852E-01
       -1   -1    0    0    0  501  0.00000000000E+00  0.00000000000E+00  0.10675528629E+04  0.10675528629E+04  0.50400001928E-02 0.  1.
        1   -1    0    0  501    0  0.00000000000E+00  0.00000000000E+00 -0.24148990814E+04  0.24148990814E+04  0.50400001928E-02 0. -1.
    10030    2    1    2    0    0  0.00000000000E+00  0.00000000000E+00 -0.13473462185E+04  0.34824519443E+04  0.32112504903E+04 0.  0.
        3    1    3    3  502    0  0.65105869502E+02  0.44347610207E+03  0.99832868124E+03  0.10943354117E+04  0.10100000352E+00 0.  1.
       -3    1    3    3    0  502 -0.65105869502E+02 -0.44347610207E+03 -0.23456748998E+04  0.23881165325E+04  0.10100000352E+00 0. -1.
</event>
<event>
 5   0  0.1306843E-06  0.3156453E+04  0.7818609E-02  0.8200414E-01
       -1   -1    0    0    0  501  0.00000000000E+00  0.00000000000E+00  0.14520894320E+04  0.14520894320E+04  0.50400001928E-02 0.  1.
        1   -1    0    0  501    0  0.00000000000E+00  0.00000000000E+00 -0.17153202026E+04  0.17153202027E+04  0.50400001928E-02 0. -1.
    10030    2    1    2    0    0  0.00000000000E+00  0.00000000000E+00 -0.26323077065E+03  0.31674096347E+04  0.31564526537E+04 0.  0.
        5    1    3    3  502    0 -0.56272665580E+03 -0.10103847736E+04  0.94600139389E+03  0.14941483886E+04  0.46999998093E+01 0.  1.
       -5    1    3    3    0  502  0.56272665580E+03  0.10103847736E+04 -0.12092321645E+04  0.16732612461E+04  0.46999998093E+01 0. -1.
</event>
<event>
 5   0  0.3531437E-06  0.3118287E+04  0.7818609E-02  0.8210737E-01
        2   -1    0    0  501    0  0.00000000000E+00  0.00000000000E+00  0.17921904629E+04  0.17921904629E+04  0.25500000920E-02 0.  1.
       -2   -1    0    0    0  501  0.00000000000E+00  0.00000000000E+00 -0.13564005036E+04  0.13564005036E+04  0.25500000920E-02 0. -1.
    10030    2    1    2    0    0  0.00000000000E+00  0.00000000000E+00  0.43578995930E+03  0.31485909665E+04  0.31182867389E+04 0.  0.
        1    1    3    3  502    0  0.50845755862E+03  0.12378287602E+04 -0.58999250679E+03  0.14624774483E+04  0.50400001928E-02 0. -1.
       -1    1    3    3    0  502 -0.50845755862E+03 -0.12378287602E+04  0.10257824661E+04  0.16861135182E+04  0.50400001928E-02 0.  1.
</event>
<event>
 5   0  0.3745943E-06  0.3237519E+04  0.7818609E-02  0.8178978E-01
        2   -1    0    0  501    0  0.00000000000E+00  0.00000000000E+00  0.23127292224E+04  0.23127292224E+04  0.25500000920E-02 0.  1.
       -2   -1    0    0    0  501  0.00000000000E+00  0.00000000000E+00 -0.11330263171E+04  0.11330263171E+04  0.25500000920E-02 0. -1.
    10030    2    1    2    0    0  0.00000000000E+00  0.00000000000E+00  0.11797029054E+04  0.34457555395E+04  0.32375194660E+04 0.  0.
        5    1    3    3  502    0 -0.10953974197E+04 -0.10090791008E+04 -0.85152818407E+02  0.14917805574E+04  0.46999998093E+01 0. -1.
       -5    1    3    3    0  502  0.10953974197E+04  0.10090791008E+04  0.12648557238E+04  0.19539749821E+04  0.46999998093E+01 0.  1.
</event>
<event>
 5   0  0.1306843E-06  0.3198377E+04  0.7818609E-02  0.8189246E-01
        1   -1    0    0  501    0  0.00000000000E+00  0.00000000000E+00  0.10215741265E+04  0.10215741265E+04  0.50400001928E-02 0. -1.
       -1   -1    0    0    0  501  0.00000000000E+00  0.00000000000E+00 -0.25033947238E+04  0.25033947238E+04  0.50400001928E-02 0.  1.
    10030    2    1    2    0    0  0.00000000000E+00  0.00000000000E+00 -0.14818205973E+04  0.35249688503E+04  0.31983766371E+04 0.  0.
        5    1    3    3  502    0 -0.76665910130E+02 -0.61919569096E+03 -0.23637116330E+04  0.24446749762E+04  0.46999998093E+01 0.  1.
       -5    1    3    3    0  502  0.76665910130E+02  0.61919569096E+03  0.88189103569E+03  0.10802938740E+04  0.46999998093E+01 0. -1.
</event>
<event>
 5   0  0.1268836E-06  0.3135433E+04  0.7818609E-02  0.8206080E-01
        1   -1    0    0  501    0  0.00000000000E+00  0.00000000000E+00  0.14818599307E+04  0.14818599307E+04  0.50400001928E-02 0. -1.
       -1   -1    0    0    0  501  0.00000000000E+00  0.00000000000E+00 -0.16585475968E+04  0.16585475968E+04  0.50400001928E-02 0.  1.
    10030    2    1    2    0    0  0.00000000000E+00  0.00000000000E+00 -0.17668766603E+03  0.31404075275E+04  0.31354331292E+04 0.  0.
        1    1    3    3  502    0  0.68738375450E+03  0.84555235026E+03 -0.12171989375E+04  0.16337161493E+04  0.50400001928E-02 0.  1.
       -1    1    3    3    0  502 -0.68738375450E+03 -0.84555235026E+03  0.10405112715E+04  0.15066913782E+04  0.50400001928E-02 0. -1.
</event>
<event>
 5   0  0.3497546E-06  0.3113356E+04  0.7818609E-02  0.8212082E-01
        2   -1    0    0  501    0  0.00000000000E+00  0.00000000000E+00  0.21688190299E+04  0.21688190299E+04  0.25500000920E-02 0. -1.
       -2   -1    0    0    0  501  0.00000000000E+00  0.00000000000E+00 -0.11173112478E+04  0.11173112478E+04  0.25500000920E-02 0.  1.
    10030    2    1    2    0    0  0.00000000000E+00  0.00000000000E+00  0.10515077821E+04  0.32861302778E+04  0.31133556794E+04 0.  0.
        4    1    3    3  502    0  0.15060257822E+04  0.36450102403E+03  0.68326549212E+03  0.16934662673E+04  0.12699999809E+01 0.  1.
       -4    1    3    3    0  502 -0.15060257822E+04 -0.36450102403E+03  0.36824228995E+03  0.15926640104E+04  0.12699999809E+01 0. -1.
</event>
<event>
 5   0  0.1268836E-06  0.3161023E+04  0.7818609E-02  0.8199187E-01
        1   -1    0    0  501    0  0.00000000000E+00  0.00000000000E+00  0.18116124561E+04  0.18116124561E+04  0.50400001928E-02 0.  1.
       -1   -1    0    0    0  501  0.00000000000E+00  0.00000000000E+00 -0.13788913616E+04  0.13788913616E+04  0.50400001928E-02 0. -1.
    10030    2    1    2    0    0  0.00000000000E+00  0.00000000000E+00  0.43272109449E+03  0.31905038177E+04  0.31610231041E+04 0.  0.
        1    1    3    3  502    0  0.55813777545E+03 -0.14453084719E+04  0.53165575540E+03  0.16380147123E+04  0.50400001928E-02 0.  1.
       -1    1    3    3    0  502 -0.55813777545E+03  0.14453084719E+04 -0.98934660911E+02  0.15524891054E+04  0.50400001928E-02 0. -1.
</event>
<event>
 5   0  0.3497546E-06  0.3223003E+04  0.7818609E-02  0.8182768E-01
       -2   -1    0    0    0  501  0.00000000000E+00  0.00000000000E+00  0.18632538722E+04  0.18632538722E+04  0.25500000920E-02 0.  1.
        2   -1    0    0  501    0  0.00000000000E+00  0.00000000000E+00 -0.13937648389E+04  0.13937648389E+04  0.25500000920E-02 0. -1.
    10030    2    1    2    0    0  0.00000000000E+00  0.00000000000E+00  0.46948903326E+03  0.32570187111E+04  0.32230034025E+04 0.  0.
        4    1    3    3  502    0  0.86521105645E+03 -0.47672347669E+03  0.15213986034E+04  0.18139765073E+04  0.12699999809E+01 0.  1.
       -4    1    3    3    0  502 -0.86521105645E+03  0.47672347669E+03 -0.10519095702E+04  0.14430422039E+04  0.12699999809E+01 0. -1.
</event>
<event>
 5   0  0.3531437E-06  0.2319382E+04  0.7818609E-02  0.8470318E-01
        2   -1    0    0  501    0  0.00000000000E+00  0.00000000000E+00  0.19067448730E+04  0.19067448730E+04  0.25500000920E-02 0.  1.
       -2   -1    0    0    0  501  0.00000000000E+00  0.00000000000E+00 -0.70532947547E+03  0.70532947547E+03  0.25500000920E-02 0. -1.
    10030    2    1    2    0    0  0.00000000000E+00  0.00000000000E+00  0.12014153976E+04  0.26120743485E+04  0.23193821256E+04 0.  0.
        1    1    3    3  502    0  0.11142045648E+04 -0.30511943562E+03  0.48622477533E+03  0.12533811130E+04  0.50400001928E-02 0. -1.
       -1    1    3    3    0  502 -0.11142045648E+04  0.30511943562E+03  0.71519062225E+03  0.13586932356E+04  0.50400001928E-02 0.  1.
</event>
<event>
 5   0  0.1185575E-06  0.3174335E+04  0.7818609E-02  0.8195628E-01
        4   -1    0    0  501    0  0.00000000000E+00  0.00000000000E+00  0.11039932534E+04  0.11039939838E+04  0.12699999809E+01 0. -1.
       -4   -1    0    0    0  501  0.00000000000E+00  0.00000000000E+00 -0.22818068480E+04  0.22818072014E+04  0.12699999809E+01 0.  1.
    10030    2    1    2    0    0  0.00000000000E+00  0.00000000000E+00 -0.11778135946E+04  0.33858011852E+04  0.31743353324E+04 0.  0.
        5    1    3    3  502    0 -0.77101392840E+03 -0.89244627190E+03 -0.17218112484E+04  0.20870023697E+04  0.46999998093E+01 0.  1.
       -5    1    3    3    0  502  0.77101392840E+03  0.89244627190E+03  0.54399765376E+03  0.12987988156E+04  0.46999998093E+01 0. -1.
</event>
<event>
 5   0  0.1268836E-06  0.3124550E+04  0.7818609E-02  0.8209032E-01
       -1   -1    0    0    0  501  0.00000000000E+00  0.00000000000E+00  0.12437799308E+04  0.12437799308E+04  0.50400001928E-02 0.  1.
        1   -1    0    0  501    0  0.00000000000E+00  0.00000000000E+00 -0.19623274421E+04  0.19623274421E+04  0.50400001928E-02 0. -1.
    10030    2    1    2    0    0  0.00000000000E+00  0.00000000000E+00 -0.71854751123E+03  0.32061073729E+04  0.31245502013E+04 0.  0.
        1    1    3    3  502    0  0.58095957550E+03  0.55498648934E+03  0.10155419701E+04  0.12949322472E+04  0.50400001928E-02 0.  1.
       -1    1    3    3    0  502 -0.58095957550E+03 -0.55498648934E+03 -0.17340894814E+04  0.19111751257E+04  0.50400001928E-02 0. -1.
</event>
<event>
 5   0  0.1185575E-06  0.3261818E+04  0.7818609E-02  0.8172679E-01
       -3   -1    0    0    0  501  0.00000000000E+00  0.00000000000E+00  0.17579970125E+04  0.17579970154E+04  0.10100000352E+00 0.  1.
        3   -1    0    0  501    0  0.00000000000E+00  0.00000000000E+00 -0.15130082971E+04  0.15130083005E+04  0.10100000352E+00 0. -1.
    10030    2    1    2    0    0  0.00000000000E+00  0.00000000000E+00  0.24498871541E+03  0.32710053159E+04  0.32618179450E+04 0.  0.
        1    1    3    3  502    0 -0.97693523810E+03 -0.12968152904E+04  0.27697929393E+03  0.16470731271E+04  0.50400001928E-02 0. -1.
       -1    1    3    3    0  502  0.97693523810E+03  0.12968152904E+04 -0.31990578521E+02  0.16239321888E+04  0.50400001928E-02 0.  1.
</event>
<event>
 5   0  0.3497546E-06  0.2786108E+04  0.7818609E-02  0.8307594E-01
       -2   -1    0    0    0  501  0.00000000000E+00  0.00000000000E+00  0.92792307076E+03  0.92792307076E+03  0.25500000920E-02 0.  1.
        2   -1    0    0  501    0  0.00000000000E+00  0.00000000000E+00 -0.20913369378E+04  0.20913369378E+04  0.25500000920E-02 0. -1.
    10030    2    1    2    0    0  0.00000000000E+00  0.00000000000E+00 -0.11634138670E+04  0.30192600086E+04  0.27861082487E+04 0.  0.
        4    1    3    3  502    0 -0.61032316323E+02 -0.12859577848E+03 -0.20834345981E+04  0.20882919230E+04  0.12699999809E+01 0. -1.
       -4    1    3    3    0  502  0.61032316323E+02  0.12859577848E+03  0.92002073109E+03  0.93096808561E+03  0.12699999809E+01 0.  1.
</event>
<event>
 5   0  0.1273980E-06  0.3192880E+04  0.7818609E-02  0.8190700E-01
       -1   -1    0    0    0  501  0.00000000000E+00  0.00000000000E+00  0.81471701502E+03  0.81471701504E+03  0.50400001928E-02 0. -1.
        1   -1    0    0  501    0  0.00000000000E+00  0.00000000000E+00 -0.31282286271E+04  0.31282286271E+04  0.50400001928E-02 0.  1.
    10030    2    1    2    0    0  0.00000000000E+00  0.00000000000E+00 -0.23135116121E+04  0.39429456422E+04  0.31928802605E+04 0.  0.
        4    1    3    3  502    0  0.71618692741E+03 -0.11901126551E+04 -0.21286038965E+04  0.25417017937E+04  0.12699999809E+01 0.  1.
       -4    1    3    3    0  502 -0.71618692741E+03  0.11901126551E+04 -0.18490771561E+03  0.14012438485E+04  0.12699999809E+01 0. -1.
</event>
<event>
 5   0  0.3497546E-06  0.2441271E+04  0.7818609E-02  0.8424212E-01
        2   -1    0    0  501    0  0.00000000000E+00  0.00000000000E+00  0.19003998989E+04  0.19003998989E+04  0.25500000920E-02 0. -1.
       -2   -1    0    0    0  501  0.00000000000E+00  0.00000000000E+00 -0.78401953484E+03  0.78401953484E+03  0.25500000920E-02 0.  1.
    10030    2    1    2    0    0  0.00000000000E+00  0.00000000000E+00  0.11163803641E+04  0.26844194338E+04  0.24412706894E+04 0.  0.
        4    1    3    3  502    0  0.18709901761E+03  0.92757334036E+03 -0.28967905898E+03  0.98960290735E+03  0.12699999809E+01 0.  1.
       -4    1    3    3    0  502 -0.18709901761E+03 -0.92757334036E+03  0.14060594231E+04  0.16948165264E+04  0.12699999809E+01 0. -1.
</event>
<event>
 5   0  0.1273754E-06  0.3134657E+04  0.7818609E-02  0.8206290E-01
        1   -1    0    0  501    0  0.00000000000E+00  0.00000000000E+00  0.13946026731E+04  0.13946026731E+04  0.50400001928E-02 0. -1.
       -1   -1    0    0    0  501  0.00000000000E+00  0.00000000000E+00 -0.17614473955E+04  0.17614473955E+04  0.50400001928E-02 0.  1.
    10030    2    1    2    0    0  0.00000000000E+00  0.00000000000E+00 -0.36684472241E+03  0.31560500686E+04  0.31346573951E+04 0.  0.
        2    1    3    3  502    0  0.51547104156E+03 -0.14097957483E+04 -0.63737051711E+03  0.16307898769E+04  0.25500000920E-02 0.  1.
       -2    1    3    3    0  502 -0.51547104156E+03  0.14097957483E+04  0.27052579470E+03  0.15252601916E+04  0.25500000920E-02 0. -1.
</event>
<event>
 5   0  0.3531437E-06  0.3124523E+04  0.7818609E-02  0.8209040E-01
       -2   -1    0    0    0  501  0.00000000000E+00  0.00000000000E+00  0.85030581407E+03  0.85030581408E+03  0.25500000920E-02 0. -1.
        2   -1    0    0  501    0  0.00000000000E+00  0.00000000000E+00 -0.28703340695E+04  0.28703340695E+04  0.25500000920E-02 0.  1.
    10030    2    1    2    0    0  0.00000000000E+00  0.00000000000E+00 -0.20200282554E+04  0.37206398836E+04  0.31245234821E+04 0.  0.
        1    1    3    3  502    0 -0.30034129922E+03 -0.12824727604E+04 -0.20103600398E+04  0.24034327049E+04  0.50400001928E-02 0. -1.
       -1    1    3    3    0  502  0.30034129922E+03  0.12824727604E+04 -0.96682155564E+01  0.13172071787E+04  0.50400001928E-02 0.  1.
</event>
<event>
 5   0  0.1240725E-06  0.3042353E+04  0.7818609E-02  0.8231739E-01
       -1   -1    0    0    0  501  0.00000000000E+00  0.00000000000E+00  0.19439464111E+04  0.19439464112E+04  0.50400001928E-02 0.  1.
        1   -1    0    0  501    0  0.00000000000E+00  0.00000000000E+00 -0.11903508355E+04  0.11903508355E+04  0.50400001928E-02 0. -1.
    10030    2    1    2    0    0  0.00000000000E+00  0.00000000000E+00  0.75359557564E+03  0.31342972467E+04  0.30423531910E+04 0.  0.
        3    1    3    3  502    0  0.10561699269E+04 -0.10514189466E+03  0.14994216867E+04  0.18370669931E+04  0.10100000352E+00 0.  1.
       -3    1    3    3    0  502 -0.10561699269E+04  0.10514189466E+03 -0.74582611109E+03  0.12972302535E+04  0.10100000352E+00 0. -1.
</event>
<event>
 5   0  0.1268836E-06  0.3222086E+04  0.7818609E-02  0.8183009E-01
        1   -1    0    0  501    0  0.00000000000E+00  0.00000000000E+00  0.26944936143E+04  0.26944936143E+04  0.50400001928E-02 0. -1.
       -1   -1    0    0    0  501  0.00000000000E+00  0.00000000000E+00 -0.96324558525E+03  0.96324558526E+03  0.50400001928E-02 0.  1.
    10030    2    1    2    0    0  0.00000000000E+00  0.00000000000E+00  0.17312480290E+04  0.36577391995E+04  0.32220857086E+04 0.  0.
        1    1    3    3  502    0  0.90315915076E+03 -0.21818936926E+03  0.23596878463E+04  0.25360263769E+04  0.50400001928E-02 0. -1.
       -1    1    3    3    0  502 -0.90315915076E+03  0.21818936926E+03 -0.62843981728E+03  0.11217128226E+04  0.50400001928E-02 0.  1.
</event>
<event>
 5   0  0.1240725E-06  0.3187396E+04  0.7818609E-02  0.8192154E-01
       -1   -1    0    0    0  501  0.00000000000E+00  0.00000000000E+00  0.13959765329E+04  0.13959765329E+04  0.50400001928E-02 0. -1.
        1   -1    0    0  501    0  0.00000000000E+00  0.00000000000E+00 -0.18194236718E+04  0.18194236718E+04  0.50400001928E-02 0.  1.
    10030    2    1    2    0    0  0.00000000000E+00  0.00000000000E+00 -0.42344713884E+03  0.32154002047E+04  0.31873956449E+04 0.  0.
        3    1    3    3  502    0 -0.11493545975E+04  0.83050233688E+03 -0.94552275058E+03  0.17043366465E+04  0.10100000352E+00 0.  1.
       -3    1    3    3    0  502  0.11493545975E+04 -0.83050233688E+03  0.52207561173E+03  0.15110635582E+04  0.10100000352E+00 0. -1.
</event>
<event>
 5   0  0.3656086E-06  0.3104679E+04  0.7818609E-02  0.8214455E-01
       -2   -1    0    0    0  501  0.00000000000E+00  0.00000000000E+00  0.11792517317E+04  0.11792517317E+04  0.25500000920E-02 0.  1.
        2   -1    0    0  501    0  0.00000000000E+00  0.00000000000E+00 -0.20434637505E+04  0.20434637505E+04  0.25500000920E-02 0. -1.
    10030    2    1    2    0    0  0.00000000000E+00  0.00000000000E+00 -0.86421201886E+03  0.32227154822E+04  0.31046791566E+04 0.  0.
        3    1    3    3  502    0 -0.56583744001E+03  0.90508761056E+03 -0.16020792275E+04  0.19251008942E+04  0.10100000352E+00 0. -1.
       -3    1    3    3    0  502  0.56583744001E+03 -0.90508761056E+03  0.73786720865E+03  0.12976145880E+04  0.10100000352E+00 0.  1.
</event>
<event>
 5   0  0.3758062E-06  0.3240968E+04  0.7818609E-02  0.8178081E-01
        2   -1    0    0  501    0  0.00000000000E+00  0.00000000000E+00  0.18658416969E+04  0.18658416969E+04  0.25500000920E-02 0.  1.
       -2   -1    0    0    0  501  0.00000000000E+00  0.00000000000E+00 -0.14073911077E+04  0.14073911077E+04  0.25500000920E-02 0. -1.
    10030    2    1    2    0    0  0.00000000000E+00  0.00000000000E+00  0.45845058922E+03  0.32732328045E+04  0.32409683815E+04 0.  0.
        2    1    3    3  502    0  0.59782815528E+03  0.78992565930E+03  0.15244068601E+04  0.18180201665E+04  0.25500000920E-02 0.  1.
       -2    1    3    3    0  502 -0.59782815528E+03 -0.78992565930E+03 -0.10659562709E+04  0.14552126381E+04  0.25500000920E-02 0. -1.
</event>
<event>
 5   0  0.1273980E-06  0.3224799E+04  0.7818609E-02  0.8182298E-01
       -1   -1    0    0    0  501  0.00000000000E+00  0.00000000000E+00  0.12929732436E+04  0.12929732436E+04  0.50400001928E-02 0.  1.
        1   -1    0    0  501    0  0.00000000000E+00  0.00000000000E+00 -0.20107397936E+04  0.20107397936E+04  0.50400001928E-02 0. -1.
    10030    2    1    2    0    0  0.00000000000E+00  0.00000000000E+00 -0.71776655000E+03  0.33037130372E+04  0.32247993754E+04 0.  0.
        4    1    3    3  502    0 -0.10942147339E+04  0.11839238391E+04 -0.38874443871E+03  0.16583441718E+04  0.12699999809E+01 0.  1.
       -4    1    3    3    0  502  0.10942147339E+04 -0.11839238391E+04 -0.32902211130E+03  0.16453688654E+04  0.12699999809E+01 0. -1.
</event>
<event>
 5   0  0.3531437E-06  0.3194811E+04  0.7818609E-02  0.8190189E-01
       -2   -1    0    0    0  501  0.00000000000E+00  0.00000000000E+00  0.19337348688E+04  0.19337348688E+04  0.25500000920E-02 0. -1.
        2   -1    0    0  501    0  0.00000000000E+00  0.00000000000E+00 -0.13195726167E+04  0.13195726167E+04  0.25500000920E-02 0.  1.
    10030    2    1    2    0    0  0.00000000000E+00  0.00000000000E+00  0.61416225214E+03  0.32533074855E+04  0.31948105301E+04 0.  0.
        1    1    3    3  502    0  0.79121596119E+03 -0.11049109963E+04 -0.54784610455E+03  0.14652598272E+04  0.50400001928E-02 0.  1.
       -1    1    3    3    0  502 -0.79121596119E+03  0.11049109963E+04  0.11620083567E+04  0.17880476582E+04  0.50400001928E-02 0. -1.
</event>
<event>
 5   0  0.3745943E-06  0.3205571E+04  0.7818609E-02  0.8187347E-01
       -2   -1    0    0    0  501  0.00000000000E+00  0.00000000000E+00  0.12133281344E+04  0.12133281344E+04  0.25500000920E-02 0.  1.
        2   -1    0    0  501    0  0.00000000000E+00  0.00000000000E+00 -0.21172521879E+04  0.21172521879E+04  0.25500000920E-02 0. -1.
    10030    2    1    2    0    0  0.00000000000E+00  0.00000000000E+00 -0.90392405343E+03  0.33305803223E+04  0.32055711798E+04 0.  0.
        5    1    3    3  502    0  0.86465910438E+03  0.11233497452E+04 -0.12290248466E+04  0.18761860729E+04  0.46999998093E+01 0.  1.
       -5    1    3    3    0  502 -0.86465910438E+03 -0.11233497452E+04  0.32510079313E+03  0.14543942493E+04  0.46999998093E+01 0. -1.
</event>
<event>
 5   0  0.1273980E-06  0.3135684E+04  0.7818609E-02  0.8206012E-01
       -1   -1    0    0    0  501  0.00000000000E+00  0.00000000000E+00  0.16603479522E+04  0.16603479522E+04  0.50400001928E-02 0.  1.
        1   -1    0    0  501    0  0.00000000000E+00  0.00000000000E+00 -0.14804900986E+04  0.14804900986E+04  0.50400001928E-02 0. -1.
    10030    2    1    2    0    0  0.00000000000E+00  0.00000000000E+00  0.17985785364E+03  0.31408380508E+04  0.31356841062E+04 0.  0.
        4    1    3    3  502    0 -0.13472049437E+04 -0.37834902904E+03  0.79821064697E+03  0.16109782736E+04  0.12699999809E+01 0.  1.
       -4    1    3    3    0  502  0.13472049437E+04  0.37834902904E+03 -0.61835279333E+03  0.15298597772E+04  0.12699999809E+01 0. -1.
</event>
<event>
 5   0  0.3531437E-06  0.3182042E+04  0.7818609E-02  0.8193576E-01
       -2   -1    0    0    0  501  0.00000000000E+00  0.00000000000E+00  0.11402283866E+04  0.11402283866E+04  0.25500000920E-02 0.  1.
        2   -1    0    0  501    0  0.00000000000E+00  0.00000000000E+00 -0.22200357522E+04  0.22200357522E+04  0.25500000920E-02 0. -1.
    10030    2    1    2    0    0  0.00000000000E+00  0.00000000000E+00 -0.10798073656E+04  0.33602641388E+04  0.31820419758E+04 0.  0.
        1    1    3    3  502    0 -0.12296304331E+04 -0.91779008729E+03 -0.98420376785E+03  0.18229061147E+04  0.50400001928E-02 0. -1.
       -1    1    3    3    0  502  0.12296304331E+04  0.91779008729E+03 -0.95603597782E+02  0.15373580241E+04  0.50400001928E-02 0.  1.
</event>
<event>
 5   0  0.1268836E-06  0.3188405E+04  0.7818609E-02  0.8191886E-01
       -1   -1    0    0    0  501  0.00000000000E+00  0.00000000000E+00  0.23384567671E+04  0.23384567671E+04  0.50400001928E-02 0. -1.
        1   -1    0    0  501    0  0.00000000000E+00  0.00000000000E+00 -0.10868197859E+04  0.10868197859E+04  0.50400001928E-02 0.  1.
    10030    2    1    2    0    0  0.00000000000E+00  0.00000000000E+00  0.12516369811E+04  0.34252765530E+04  0.31884046688E+04 0.  0.
        1    1    3    3  502    0 -0.42658804287E+03  0.15300164245E+04  0.47948803440E+03  0.16591673793E+04  0.50400001928E-02 0. -1.
       -1    1    3    3    0  502  0.42658804287E+03 -0.15300164245E+04  0.77214894672E+03  0.17661091737E+04  0.50400001928E-02 0.  1.
</event>
<event>
 5   0  0.3531437E-06  0.3279862E+04  0.7818609E-02  0.8168038E-01
        2   -1    0    0  501    0  0.00000000000E+00  0.00000000000E+00  0.15450921401E+04  0.15450921401E+04  0.25500000920E-02 0. -1.
       -2   -1    0    0    0  501  0.00000000000E+00  0.00000000000E+00 -0.17405916545E+04  0.17405916545E+04  0.25500000920E-02 0.  1.
    10030    2    1    2    0    0  0.00000000000E+00  0.00000000000E+00 -0.19549951445E+03  0.32856837946E+04  0.32798624877E+04 0.  0.
        1    1    3    3  502    0  0.58681753310E+03  0.97388352531E+03  0.10861135748E+04  0.15724015503E+04  0.50400001928E-02 0. -1.
       -1    1    3    3    0  502 -0.58681753310E+03 -0.97388352531E+03 -0.12816130893E+04  0.17132822443E+04  0.50400001928E-02 0.  1.
</event>
<event>
 5   0  0.1273980E-06  0.2444330E+04  0.7818609E-02  0.8423091E-01
        1   -1    0    0  501    0  0.00000000000E+00  0.00000000000E+00  0.12422532560E+04  0.12422532560E+04  0.50400001928E-02 0. -1.
       -1   -1    0    0    0  501  0.00000000000E+00  0.00000000000E+00 -0.12024013172E+04  0.12024013172E+04  0.50400001928E-02 0.  1.
    10030    2    1    2    0    0  0.00000000000E+00  0.00000000000E+00  0.39851938770E+02  0.24446545732E+04  0.24443297251E+04 0.  0.
        4    1    3    3  502    0 -0.31621629218E+03  0.77904798513E+02  0.11980568145E+04  0.12415327804E+04  0.12699999809E+01 0. -1.
       -4    1    3    3    0  502  0.31621629218E+03 -0.77904798513E+02 -0.11582048758E+04  0.12031217928E+04  0.12699999809E+01 0.  1.
</event>
<event>
 5   0  0.3758062E-06  0.3218956E+04  0.7818609E-02  0.8183829E-01
       -2   -1    0    0    0  501  0.00000000000E+00  0.00000000000E+00  0.18537608461E+04  0.18537608461E+04  0.25500000920E-02 0.  1.
        2   -1    0    0  501    0  0.00000000000E+00  0.00000000000E+00 -0.13973857929E+04  0.13973857929E+04  0.25500000920E-02 0. -1.
    10030    2    1    2    0    0  0.00000000000E+00  0.00000000000E+00  0.45637505316E+03  0.32511466390E+04  0.32189557747E+04 0.  0.
        2    1    3    3  502    0  0.96862363936E+02 -0.88041073194E+03  0.15854693843E+04  0.18160998164E+04  0.25500000920E-02 0.  1.
       -2    1    3    3    0  502 -0.96862363936E+02  0.88041073194E+03 -0.11290943312E+04  0.14350468226E+04  0.25500000920E-02 0. -1.
</event>
<event>
 5   0  0.3758062E-06  0.3106085E+04  0.7818609E-02  0.8214070E-01
       -2   -1    0    0    0  501  0.00000000000E+00  0.00000000000E+00  0.11164268579E+04  0.11164268579E+04  0.25500000920E-02 0. -1.
        2   -1    0    0  501    0  0.00000000000E+00  0.00000000000E+00 -0.21604118200E+04  0.21604118200E+04  0.25500000920E-02 0.  1.
    10030    2    1    2    0    0  0.00000000000E+00  0.00000000000E+00 -0.10439849620E+04  0.32768386779E+04  0.31060854978E+04 0.  0.
        2    1    3    3  502    0 -0.40614493686E+03  0.10476421934E+04  0.60906234446E+03  0.12780707392E+04  0.25500000920E-02 0.  1.
       -2    1    3    3    0  502  0.40614493686E+03 -0.10476421934E+04 -0.16530473065E+04  0.19987679387E+04  0.25500000920E-02 0. -1.
</event>
<event>
 5   0  0.1273980E-06  0.3023898E+04  0.7818609E-02  0.8236939E-01
        1   -1    0    0  501    0  0.00000000000E+00  0.00000000000E+00  0.18033591050E+04  0.18033591050E+04  0.50400001928E-02 0. -1.
       -1   -1    0    0    0  501  0.00000000000E+00  0.00000000000E+00 -0.12676285148E+04  0.12676285148E+04  0.50400001928E-02 0.  1.
    10030    2    1    2    0    0  0.00000000000E+00  0.00000000000E+00  0.53573059021E+03  0.30709876197E+04  0.30238977654E+04 0.  0.
        4    1    3    3  502    0 -0.46823516152E+03 -0.14173422262E+04  0.51220424233E+03  0.15781184846E+04  0.12699999809E+01 0. -1.
       -4    1    3    3    0  502  0.46823516152E+03  0.14173422262E+04  0.23526347881E+02  0.14928691351E+04  0.12699999809E+01 0.  1.
</event>
<event>
 5   0  0.1306843E-06  0.3218982E+04  0.7818609E-02  0.8183822E-01
       -1   -1    0    0    0  501  0.00000000000E+00  0.00000000000E+00  0.86117989281E+03  0.86117989282E+03  0.50400001928E-02 0.  1.
        1   -1    0    0  501    0  0.00000000000E+00  0.00000000000E+00 -0.30080364466E+04  0.30080364466E+04  0.50400001928E-02 0. -1.
    10030    2    1    2    0    0  0.00000000000E+00  0.00000000000E+00 -0.21468565538E+04  0.38692163394E+04  0.32189815188E+04 0.  0.
        5    1    3    3  502    0 -0.24742736723E+03  0.11546685118E+04  0.24107789149E+03  0.12052469929E+04  0.46999998093E+01 0.  1.
       -5    1    3    3    0  502  0.24742736723E+03 -0.11546685118E+04 -0.23879344453E+04  0.26639693465E+04  0.46999998093E+01 0. -1.
</event>
<event>
 5   0  0.1273754E-06  0.3226631E+04  0.7818609E-02  0.8181819E-01
       -1   -1    0    0    0  501  0.00000000000E+00  0.00000000000E+00  0.13848683561E+04  0.13848683561E+04  0.50400001928E-02 0.  1.
        1   -1    0    0  501    0  0.00000000000E+00  0.00000000000E+00 -0.18794467368E+04  0.18794467368E+04  0.50400001928E-02 0. -1.
    10030    2    1    2    0    0  0.00000000000E+00  0.00000000000E+00 -0.49457838074E+03  0.32643150929E+04  0.32266306344E+04 0.  0.
        2    1    3    3  502    0  0.87496353037E+03  0.24437047180E+03  0.11015141331E+04  0.14277995281E+04  0.25500000920E-02 0.  1.
       -2    1    3    3    0  502 -0.87496353037E+03 -0.24437047180E+03 -0.15960925138E+04  0.18365155648E+04  0.25500000920E-02 0. -1.
</event>
<event>
 5   0  0.3656086E-06  0.3213181E+04  0.7818609E-02  0.8185345E-01
        2   -1    0    0  501    0  0.00000000000E+00  0.00000000000E+00  0.18170026883E+04  0.18170026883E+04  0.25500000920E-02 0.  1.
       -2   -1    0    0    0  501  0.00000000000E+00  0.00000000000E+00 -0.14205444423E+04  0.14205444423E+04  0.25500000920E-02 0. -1.
    10030    2    1    2    0    0  0.00000000000E+00  0.00000000000E+00  0.39645824598E+03  0.32375471306E+04  0.32131810223E+04 0.  0.
        3    1    3    3  502    0  0.64001082164E+03 -0.78164723836E+03  0.14569206401E+04  0.17729083503E+04  0.10100000352E+00 0.  1.
       -3    1    3    3    0  502 -0.64001082164E+03  0.78164723836E+03 -0.10604623941E+04  0.14646387802E+04  0.10100000352E+00 0. -1.
</event>
<event>
 5   0  0.1273754E-06  0.3194893E+04  0.7818609E-02  0.8190167E-01
        1   -1    0    0  501    0  0.00000000000E+00  0.00000000000E+00  0.21128140968E+04  0.21128140968E+04  0.50400001928E-02 0. -1.
       -1   -1    0    0    0  501  0.00000000000E+00  0.00000000000E+00 -0.12077898249E+04  0.12077898249E+04  0.50400001928E-02 0.  1.
    10030    2    1    2    0    0  0.00000000000E+00  0.00000000000E+00  0.90502427189E+03  0.33206039217E+04  0.31948930298E+04 0.  0.
        2    1    3    3  502    0  0.15942174796E+04 -0.92374349365E+02  0.40874863107E+03  0.16483743010E+04  0.25500000920E-02 0.  1.
       -2    1    3    3    0  502 -0.15942174796E+04  0.92374349365E+02  0.49627564082E+03  0.16722296207E+04  0.25500000920E-02 0. -1.
</event>
<event>
 5   0  0.1268836E-06  0.3226710E+04  0.7818609E-02  0.8181799E-01
        1   -1    0    0  501    0  0.00000000000E+00  0.00000000000E+00  0.14987298672E+04  0.14987298672E+04  0.50400001928E-02 0.  1.
       -1   -1    0    0    0  501  0.00000000000E+00  0.00000000000E+00 -0.17367463733E+04  0.17367463733E+04  0.50400001928E-02 0. -1.
    10030    2    1    2    0    0  0.00000000000E+00  0.00000000000E+00 -0.23801650610E+03  0.32354762405E+04  0.32267095695E+04 0.  0.
        1    1    3    3  502    0  0.12884363434E+03  0.65736394590E+03  0.13526938122E+04  0.15094729508E+04  0.50400001928E-02 0.  1.
       -1    1    3    3    0  502 -0.12884363434E+03 -0.65736394590E+03 -0.15907103183E+04  0.17260032898E+04  0.50400001928E-02 0. -1.
</event>
<event>
 5   0  0.3531437E-06  0.3286563E+04  0.7818609E-02  0.8166323E-01
       -2   -1    0    0    0  501  0.00000000000E+00  0.00000000000E+00  0.17286344155E+04  0.17286344155E+04  0.25500000920E-02 0.  1.
        2   -1    0    0  501    0  0.00000000000E+00  0.00000000000E+00 -0.15621428550E+04  0.15621428550E+04  0.25500000920E-02 0. -1.
    10030    2    1    2    0    0  0.00000000000E+00  0.00000000000E+00  0.16649156050E+03  0.32907772705E+04  0.32865628861E+04 0.  0.
        1    1    3    3  502    0 -0.14004418039E+04  0.17206777650E+03 -0.76016999596E+03  0.16027173764E+04  0.50400001928E-02 0. -1.
       -1    1    3    3    0  502  0.14004418039E+04 -0.17206777650E+03  0.92666155646E+03  0.16880598941E+04  0.50400001928E-02 0.  1.
</event>
<event>
 5   0  0.1306843E-06  0.3076115E+04  0.7818609E-02  0.8222324E-01
       -1   -1    0    0    0  501  0.00000000000E+00  0.00000000000E+00  0.17937418331E+04  0.17937418331E+04  0.50400001928E-02 0. -1.
        1   -1    0    0  501    0  0.00000000000E+00  0.00000000000E+00 -0.13188192988E+04  0.13188192988E+04  0.50400001928E-02 0.  1.
    10030    2    1    2    0    0  0.00000000000E+00  0.00000000000E+00  0.47492253425E+03  0.31125611319E+04  0.30761153077E+04 0.  0.
        5    1    3    3  502    0  0.10053323675E+04 -0.96539812841E+03  0.89548349009E+03  0.16566832789E+04  0.46999998093E+01 0. -1.
       -5    1    3    3    0  502 -0.10053323675E+04  0.96539812841E+03 -0.42056095584E+03  0.14558778531E+04  0.46999998093E+01 0.  1.
</event>
<event>
 5   0  0.1306843E-06  0.3173839E+04  0.7818609E-02  0.8195761E-01
        1   -1    0    0  501    0  0.00000000000E+00  0.00000000000E+00  0.17674530185E+04  0.17674530185E+04  0.50400001928E-02 0.  1.
       -1   -1    0    0    0  501  0.00000000000E+00  0.00000000000E+00 -0.14248260064E+04  0.14248260064E+04  0.50400001928E-02 0. -1.
    10030    2    1    2    0    0  0.00000000000E+00  0.00000000000E+00  0.34262701210E+03  0.31922790249E+04  0.31738387016E+04 0.  0.
        5    1    3    3  502    0 -0.26238326237E+03 -0.15546181909E+04  0.35294019780E+03  0.16156334885E+04  0.46999998093E+01 0.  1.
       -5    1    3    3    0  502  0.26238326237E+03  0.15546181909E+04 -0.10313185704E+02  0.15766455365E+04  0.46999998093E+01 0. -1.
</event>
<event>
 5   0  0.3758062E-06  0.3203345E+04  0.7818609E-02  0.8187934E-01
        2   -1    0    0  501    0  0.00000000000E+00  0.00000000000E+00  0.18556654224E+04  0.18556654225E+04  0.25500000920E-02 0.  1.
       -2   -1    0    0    0  501  0.00000000000E+00  0.00000000000E+00 -0.13824449626E+04  0.13824449626E+04  0.25500000920E-02 0. -1.
    10030    2    1    2    0    0  0.00000000000E+00  0.00000000000E+00  0.47322045987E+03  0.32381103850E+04  0.32033453236E+04 0.  0.
        2    1    3    3  502    0  0.11864867782E+04  0.14171275937E+03 -0.84151145373E+03  0.14614974881E+04  0.25500000920E-02 0. -1.
       -2    1    3    3    0  502 -0.11864867782E+04 -0.14171275937E+03  0.13147319136E+04  0.17766128969E+04  0.25500000920E-02 0.  1.
</event>
<event>
 5   0  0.3758062E-06  0.3188749E+04  0.7818609E-02  0.8191795E-01
       -2   -1    0    0    0  501  0.00000000000E+00  0.00000000000E+00  0.12044811587E+04  0.12044811587E+04  0.25500000920E-02 0. -1.
        2   -1    0    0  501    0  0.00000000000E+00  0.00000000000E+00 -0.21104767002E+04  0.21104767002E+04  0.25500000920E-02 0.  1.
    10030    2    1    2    0    0  0.00000000000E+00  0.00000000000E+00 -0.90599554144E+03  0.33149578589E+04  0.31887486081E+04 0.  0.
        2    1    3    3  502    0 -0.52049110293E+03  0.96920466875E+03 -0.16526927304E+04  0.19853619165E+04  0.25500000920E-02 0.  1.
       -2    1    3    3    0  502  0.52049110293E+03 -0.96920466875E+03  0.74669718899E+03  0.13295959425E+04  0.25500000920E-02 0. -1.
</event>
<event>
 5   0  0.1240725E-06  0.3190730E+04  0.7818609E-02  0.8191270E-01
       -1   -1    0    0    0  501  0.00000000000E+00  0.00000000000E+00  0.19179942022E+04  0.19179942022E+04  0.50400001928E-02 0.  1.
        1   -1    0    0  501    0  0.00000000000E+00  0.00000000000E+00 -0.13270056454E+04  0.13270056454E+04  0.50400001928E-02 0. -1.
    10030    2    1    2    0    0  0.00000000000E+00  0.00000000000E+00  0.59098855678E+03  0.32449998476E+04  0.31907297812E+04 0.  0.
        3    1    3    3  502    0 -0.11151176141E+04 -0.11210286359E+04  0.51122631366E+03  0.16617896527E+04  0.10100000352E+00 0.  1.
       -3    1    3    3    0  502  0.11151176141E+04  0.11210286359E+04  0.79762243122E+02  0.15832101950E+04  0.10100000352E+00 0. -1.
</event>
<event>
 5   0  0.3745943E-06  0.3131455E+04  0.7818609E-02  0.8207158E-01
        2   -1    0    0  501    0  0.00000000000E+00  0.00000000000E+00  0.17218189068E+04  0.17218189068E+04  0.25500000920E-02 0. -1.
       -2   -1    0    0    0  501  0.00000000000E+00  0.00000000000E+00 -0.14237864268E+04  0.14237864268E+04  0.25500000920E-02 0.  1.
    10030    2    1    2    0    0  0.00000000000E+00  0.00000000000E+00  0.29803247996E+03  0.31456053336E+04  0.31314548625E+04 0.  0.
        5    1    3    3  502    0 -0.14970053700E+04  0.29292884719E+03  0.50366674280E+03  0.16064042658E+04  0.46999998093E+01 0. -1.
       -5    1    3    3    0  502  0.14970053700E+04 -0.29292884719E+03 -0.20563426284E+03  0.15392010679E+04  0.46999998093E+01 0.  1.
</event>
<event>
 5   0  0.1273980E-06  0.3203867E+04  0.7818609E-02  0.8187797E-01
        1   -1    0    0  501    0  0.00000000000E+00  0.00000000000E+00  0.21484095226E+04  0.21484095226E+04  0.50400001928E-02 0.  1.
       -1   -1    0    0    0  501  0.00000000000E+00  0.00000000000E+00 -0.11944607980E+04  0.11944607980E+04  0.50400001928E-02 0. -1.
    10030    2    1    2    0    0  0.00000000000E+00  0.00000000000E+00  0.95394872466E+03  0.33428703206E+04  0.32038670090E+04 0.  0.
        4    1    3    3  502    0  0.14256277395E+03  0.15306485872E+04  0.68943583248E+01  0.15372892984E+04  0.12699999809E+01 0. -1.
       -4    1    3    3    0  502 -0.14256277395E+03 -0.15306485872E+04  0.94705436633E+03  0.18055810222E+04  0.12699999809E+01 0.  1.
</event>
<event>
 5   0  0.3758062E-06  0.3278815E+04  0.7818609E-02  0.8168307E-01
        2   -1    0    0  501    0  0.00000000000E+00  0.00000000000E+00  0.17109759143E+04  0.17109759143E+04  0.25500000920E-02 0.  1.
       -2   -1    0    0    0  501  0.00000000000E+00  0.00000000000E+00 -0.15708330885E+04  0.15708330885E+04  0.25500000920E-02 0. -1.
    10030    2    1    2    0    0  0.00000000000E+00  0.00000000000E+00  0.14014282577E+03  0.32818090028E+04  0.32788153835E+04 0.  0.
        2    1    3    3  502    0 -0.15978349564E+03  0.16250341988E+04  0.21646043228E+03  0.16471557399E+04  0.25500000920E-02 0.  1.
       -2    1    3    3    0  502  0.15978349564E+03 -0.16250341988E+04 -0.76317606513E+02  0.16346532629E+04  0.25500000920E-02 0. -1.
</event>
<event>
 5   0  0.1306843E-06  0.3138276E+04  0.7818609E-02  0.8205311E-01
       -1   -1    0    0    0  501  0.00000000000E+00  0.00000000000E+00  0.19941552785E+04  0.19941552785E+04  0.50400001928E-02 0. -1.
        1   -1    0    0  501    0  0.00000000000E+00  0.00000000000E+00 -0.12347049247E+04  0.12347049247E+04  0.50400001928E-02 0.  1.
    10030    2    1    2    0    0  0.00000000000E+00  0.00000000000E+00  0.75945035387E+03  0.32288602032E+04  0.31382755411E+04 0.  0.
        5    1    3    3  502    0 -0.11902183597E+04  0.43294027549E+03 -0.57335781902E+03  0.13902583589E+04  0.46999998093E+01 0.  1.
       -5    1    3    3    0  502  0.11902183597E+04 -0.43294027549E+03  0.13328081729E+04  0.18386018443E+04  0.46999998093E+01 0. -1.
</event>
<event>
 5   0  0.1306843E-06  0.3251512E+04  0.7818609E-02  0.8175344E-01
        1   -1    0    0  501    0  0.00000000000E+00  0.00000000000E+00  0.17436943719E+04  0.17436943719E+04  0.50400001928E-02 0. -1.
       -1   -1    0    0    0  501  0.00000000000E+00  0.00000000000E+00 -0.15157946092E+04  0.15157946092E+04  0.50400001928E-02 0.  1.
    10030    2    1    2    0    0  0.00000000000E+00  0.00000000000E+00  0.22789976265E+03  0.32594889811E+04  0.32515119739E+04 0.  0.
        5    1    3    3  502    0  0.12530669219E+04 -0.69407882112E+03  0.88469133095E+03  0.16836338562E+04  0.46999998093E+01 0. -1.
       -5    1    3    3    0  502 -0.12530669219E+04  0.69407882112E+03 -0.65679156830E+03  0.15758551249E+04  0.46999998093E+01 0.  1.
</event>
<event>
 5   0  0.1273754E-06  0.3320454E+04  0.7818609E-02  0.8157710E-01
       -1   -1    0    0    0  501  0.00000000000E+00  0.00000000000E+00  0.19615804148E+04  0.19615804148E+04  0.50400001928E-02 0.  1.
        1   -1    0    0  501    0  0.00000000000E+00  0.00000000000E+00 -0.14051702512E+04  0.14051702512E+04  0.50400001928E-02 0. -1.
    10030    2    1    2    0    0  0.00000000000E+00  0.00000000000E+00  0.55641016360E+03  0.33667506660E+04  0.33204544534E+04 0.  0.
        2    1    3    3  502    0 -0.34090184654E+03 -0.16222085413E+04  0.18428626435E+03  0.16678537249E+04  0.25500000920E-02 0. -1.
       -2    1    3    3    0  502  0.34090184654E+03  0.16222085413E+04  0.37212389925E+03  0.16988969412E+04  0.25500000920E-02 0.  1.
</event>
<event>
 5   0  0.1306843E-06  0.2751019E+04  0.7818609E-02  0.8318638E-01
        1   -1    0    0  501    0  0.00000000000E+00  0.00000000000E+00  0.21250465750E+04  0.21250465751E+04  0.50400001928E-02 0.  1.
       -1   -1    0    0    0  501  0.00000000000E+00  0.00000000000E+00 -0.89034581333E+03  0.89034581335E+03  0.50400001928E-02 0. -1.
    10030    2    1    2    0    0  0.00000000000E+00  0.00000000000E+00  0.12347007617E+04  0.30153923884E+04  0.27510189540E+04 0.  0.
        5    1    3    3  502    0  0.10138939323E+03  0.11041551599E+04 -0.27485484101E+03  0.11423684606E+04  0.46999998093E+01 0. -1.
       -5    1    3    3    0  502 -0.10138939323E+03 -0.11041551599E+04  0.15095556027E+04  0.18730239278E+04  0.46999998093E+01 0.  1.
</event>
<event>
 5   0  0.3758062E-06  0.3189400E+04  0.7818609E-02  0.8191622E-01
        2   -1    0    0  501    0  0.00000000000E+00  0.00000000000E+00  0.13843262900E+04  0.13843262900E+04  0.25500000920E-02 0.  1.
       -2   -1    0    0    0  501  0.00000000000E+00  0.00000000000E+00 -0.18370439788E+04  0.18370439788E+04  0.25500000920E-02 0. -1.
    10030    2    1    2    0    0  0.00000000000E+00  0.00000000000E+00 -0.45271768883E+03  0.32213702688E+04  0.31894001164E+04 0.  0.
        2    1    3    3  502    0  0.95623798567E+03 -0.44516158941E+03 -0.14343863946E+04  0.17804561930E+04  0.25500000920E-02 0. -1.
       -2    1    3    3    0  502 -0.95623798567E+03  0.44516158941E+03  0.98166870580E+03  0.14409140758E+04  0.25500000920E-02 0.  1.
</event>
<event>
 5   0  0.3758062E-06  0.3167931E+04  0.7818609E-02  0.8197338E-01
       -2   -1    0    0    0  501  0.00000000000E+00  0.00000000000E+00  0.12782439799E+04  0.12782439799E+04  0.25500000920E-02 0.  1.
        2   -1    0    0  501    0  0.00000000000E+00  0.00000000000E+00 -0.19628070363E+04  0.19628070363E+04  0.25500000920E-02 0. -1.
    10030    2    1    2    0    0  0.00000000000E+00  0.00000000000E+00 -0.68456305640E+03  0.32410510163E+04  0.31679307303E+04 0.  0.
        2    1    3    3  502    0 -0.14970078894E+04 -0.16130381114E+03 -0.84546156263E+03  0.17268053725E+04  0.25500000920E-02 0.  1.
       -2    1    3    3    0  502  0.14970078894E+04  0.16130381114E+03  0.16089850623E+03  0.15142456438E+04  0.25500000920E-02 0. -1.
</event>
<event>
 5   0  0.1273980E-06  0.3161756E+04  0.7818609E-02  0.8198991E-01
        1   -1    0    0  501    0  0.00000000000E+00  0.00000000000E+00  0.27741950388E+04  0.27741950388E+04  0.50400001928E-02 0. -1.
       -1   -1    0    0    0  501  0.00000000000E+00  0.00000000000E+00 -0.90086523645E+03  0.90086523646E+03  0.50400001928E-02 0.  1.
    10030    2    1    2    0    0  0.00000000000E+00  0.00000000000E+00  0.18733298023E+04  0.36750602753E+04  0.31617563914E+04 0.  0.
        4    1    3    3  502    0  0.32828492116E+03 -0.11848375644E+04  0.20917620538E+04  0.24263307990E+04  0.12699999809E+01 0. -1.
       -4    1    3    3    0  502 -0.32828492116E+03  0.11848375644E+04 -0.21843225149E+03  0.12487294763E+04  0.12699999809E+01 0.  1.
</event>
<event>
 5   0  0.3497546E-06  0.3195638E+04  0.7818609E-02  0.8189970E-01
        2   -1    0    0  501    0  0.00000000000E+00  0.00000000000E+00  0.13622439840E+04  0.13622439840E+04  0.25500000920E-02 0.  1.
       -2   -1    0    0    0  501  0.00000000000E+00  0.00000000000E+00 -0.18741328403E+04  0.18741328403E+04  0.25500000920E-02 0. -1.
    10030    2    1    2    0    0  0.00000000000E+00  0.00000000000E+00 -0.51188885632E+03  0.32363768243E+04  0.31956383944E+04 0.  0.
        4    1    3    3  502    0  0.14028434747E+04 -0.72681748095E+03 -0.49729127375E+03  0.16563615816E+04  0.12699999809E+01 0.  1.
       -4    1    3    3    0  502 -0.14028434747E+04  0.72681748095E+03 -0.14597582577E+02  0.15800152427E+04  0.12699999809E+01 0. -1.
</event>
<event>
 5   0  0.1185575E-06  0.3171535E+04  0.7818609E-02  0.8196375E-01
       -3   -1    0    0    0  501  0.00000000000E+00  0.00000000000E+00  0.17301104341E+04  0.17301104370E+04  0.10100000352E+00 0.  1.
        3   -1    0    0  501    0  0.00000000000E+00  0.00000000000E+00 -0.14534670509E+04  0.14534670544E+04  0.10100000352E+00 0. -1.
    10030    2    1    2    0    0  0.00000000000E+00  0.00000000000E+00  0.27664338314E+03  0.31835774915E+04  0.31715349726E+04 0.  0.
        3    1    3    3  502    0 -0.31929520691E+03  0.15131868247E+04 -0.21368736147E+03  0.15612002095E+04  0.10100000352E+00 0. -1.
       -3    1    3    3    0  502  0.31929520691E+03 -0.15131868247E+04  0.49033074461E+03  0.16223772819E+04  0.10100000352E+00 0.  1.
</event>
<event>
 5   0  0.1306843E-06  0.2759133E+04  0.7818609E-02  0.8316070E-01
       -1   -1    0    0    0  501  0.00000000000E+00  0.00000000000E+00  0.24671598112E+04  0.24671598112E+04  0.50400001928E-02 0.  1.
        1   -1    0    0  501    0  0.00000000000E+00  0.00000000000E+00 -0.77141458715E+03  0.77141458717E+03  0.50400001928E-02 0. -1.
    10030    2    1    2    0    0  0.00000000000E+00  0.00000000000E+00  0.16957452240E+04  0.32385743983E+04  0.27591325211E+04 0.  0.
        5    1    3    3  502    0 -0.73755999521E+03 -0.73765091192E+03 -0.21180901793E+03  0.10644288442E+04  0.46999998093E+01 0. -1.
       -5    1    3    3    0  502  0.73755999521E+03  0.73765091192E+03  0.19075542419E+04  0.21741455541E+04  0.46999998093E+01 0.  1.
</event>
<event>
 5   0  0.1240725E-06  0.3198016E+04  0.7818609E-02  0.8189341E-01
       -1   -1    0    0    0  501  0.00000000000E+00  0.00000000000E+00  0.17855828713E+04  0.17855828713E+04  0.50400001928E-02 0.  1.
        1   -1    0    0  501    0  0.00000000000E+00  0.00000000000E+00 -0.14319283560E+04  0.14319283560E+04  0.50400001928E-02 0. -1.
    10030    2    1    2    0    0  0.00000000000E+00  0.00000000000E+00  0.35365451529E+03  0.32175112273E+04  0.31980161009E+04 0.  0.
        3    1    3    3  502    0  0.82980657842E+03  0.12732643944E+04 -0.32323946063E+03  0.15537905054E+04  0.10100000352E+00 0.  1.
       -3    1    3    3    0  502 -0.82980657842E+03 -0.12732643944E+04  0.67689397591E+03  0.16637207219E+04  0.10100000352E+00 0. -1.
</event>
<event>
 5   0  0.3758062E-06  0.3188675E+04  0.7818609E-02  0.8191814E-01
       -2   -1    0    0    0  501  0.00000000000E+00  0.00000000000E+00  0.86090026073E+03  0.86090026073E+03  0.25500000920E-02 0.  1.
        2   -1    0    0  501    0  0.00000000000E+00  0.00000000000E+00 -0.29526212281E+04  0.29526212281E+04  0.25500000920E-02 0. -1.
    10030    2    1    2    0    0  0.00000000000E+00  0.00000000000E+00 -0.20917209673E+04  0.38135214888E+04  0.31886752014E+04 0.  0.
        2    1    3    3  502    0 -0.87819516726E+03  0.83271820521E+03 -0.22871623121E+04  0.25876162395E+04  0.25500000920E-02 0. -1.
       -2    1    3    3    0  502  0.87819516726E+03 -0.83271820521E+03  0.19544134472E+03  0.12259052493E+04  0.25500000920E-02 0.  1.
</event>
<event>
 5   0  0.1268836E-06  0.3192207E+04  0.7818609E-02  0.8190878E-01
        1   -1    0    0  501    0  0.00000000000E+00  0.00000000000E+00  0.11011667409E+04  0.11011667409E+04  0.50400001928E-02 0.  1.
       -1   -1    0    0    0  501  0.00000000000E+00  0.00000000000E+00 -0.23134969926E+04  0.23134969926E+04  0.50400001928E-02 0. -1.
    10030    2    1    2    0    0  0.00000000000E+00  0.00000000000E+00 -0.12123302517E+04  0.34146637334E+04  0.31922067247E+04 0.  0.
        1    1    3    3  502    0  0.30998496406E+02  0.12951938965E+04  0.39103257048E+03  0.13532902894E+04  0.50400001928E-02 0.  1.
       -1    1    3    3    0  502 -0.30998496406E+02 -0.12951938965E+04 -0.16033628222E+04  0.20613734440E+04  0.50400001928E-02 0. -1.
</event>
<event>
 5   0  0.3758062E-06  0.3092460E+04  0.7818609E-02  0.8217810E-01
       -2   -1    0    0    0  501  0.00000000000E+00  0.00000000000E+00  0.13193106305E+04  0.13193106305E+04  0.25500000920E-02 0.  1.
        2   -1    0    0  501    0  0.00000000000E+00  0.00000000000E+00 -0.18121793043E+04  0.18121793043E+04  0.25500000920E-02 0. -1.
    10030    2    1    2    0    0  0.00000000000E+00  0.00000000000E+00 -0.49286867374E+03  0.31314899348E+04  0.30924601343E+04 0.  0.
        2    1    3    3  502    0 -0.26046809216E+03  0.98126600955E+03 -0.14273869197E+04  0.17516164041E+04  0.25500000920E-02 0. -1.
       -2    1    3    3    0  502  0.26046809216E+03 -0.98126600955E+03  0.93451824601E+03  0.13798735307E+04  0.25500000920E-02 0.  1.
</event>
<event>
 5   0  0.3758062E-06  0.3249427E+04  0.7818609E-02  0.8175884E-01
       -2   -1    0    0    0  501  0.00000000000E+00  0.00000000000E+00  0.27472062171E+04  0.27472062171E+04  0.25500000920E-02 0.  1.
        2   -1    0    0  501    0  0.00000000000E+00  0.00000000000E+00 -0.96086502802E+03  0.96086502802E+03  0.25500000920E-02 0. -1.
    10030    2    1    2    0    0  0.00000000000E+00  0.00000000000E+00  0.17863411891E+04  0.37080712451E+04  0.32494272595E+04 0.  0.
        2    1    3    3  502    0  0.11220222681E+02 -0.13227937826E+03 -0.95466549609E+03  0.96385161552E+03  0.25500000920E-02 0. -1.
       -2    1    3    3    0  502 -0.11220222681E+02  0.13227937826E+03  0.27410066852E+04  0.27442196296E+04  0.25500000920E-02 0.  1.
</event>
<event>
 5   0  0.1240725E-06  0.3208124E+04  0.7818609E-02  0.8186675E-01
       -1   -1    0    0    0  501  0.00000000000E+00  0.00000000000E+00  0.10925166077E+04  0.10925166077E+04  0.50400001928E-02 0.  1.
        1   -1    0    0  501    0  0.00000000000E+00  0.00000000000E+00 -0.23551271514E+04  0.23551271514E+04  0.50400001928E-02 0. -1.
    10030    2    1    2    0    0  0.00000000000E+00  0.00000000000E+00 -0.12626105437E+04  0.34476437591E+04  0.32081243905E+04 0.  0.
        3    1    3    3  502    0  0.44139745773E+03 -0.58373883147E+03 -0.21652610141E+04  0.22855935790E+04  0.10100000352E+00 0. -1.
       -3    1    3    3    0  502 -0.44139745773E+03  0.58373883147E+03  0.90265047044E+03  0.11620501801E+04  0.10100000352E+00 0.  1.
</event>
<event>
 5   0  0.1268836E-06  0.3220764E+04  0.7818609E-02  0.8183355E-01
        1   -1    0    0  501    0  0.00000000000E+00  0.00000000000E+00  0.22668340060E+04  0.22668340060E+04  0.50400001928E-02 0. -1.
       -1   -1    0    0    0  501  0.00000000000E+00  0.00000000000E+00 -0.11440315150E+04  0.11440315150E+04  0.50400001928E-02 0.  1.
    10030    2    1    2    0    0  0.00000000000E+00  0.00000000000E+00  0.11228024910E+04  0.34108655211E+04  0.32207636003E+04 0.  0.
        1    1    3    3  502    0 -0.84896986019E+03  0.54399193835E+03  0.18911626941E+04  0.21431690060E+04  0.50400001928E-02 0. -1.
       -1    1    3    3    0  502  0.84896986019E+03 -0.54399193835E+03 -0.76836020317E+03  0.12676965151E+04  0.50400001928E-02 0.  1.
</event>
<event>
 5   0  0.1240725E-06  0.3191369E+04  0.7818609E-02  0.8191100E-01
        1   -1    0    0  501    0  0.00000000000E+00  0.00000000000E+00  0.15752376820E+04  0.15752376820E+04  0.50400001928E-02 0. -1.
       -1   -1    0    0    0  501  0.00000000000E+00  0.00000000000E+00 -0.16163966842E+04  0.16163966842E+04  0.50400001928E-02 0.  1.
    10030    2    1    2    0    0  0.00000000000E+00  0.00000000000E+00 -0.41159002168E+02  0.31916343662E+04  0.31913689640E+04 0.  0.
        3    1    3    3  502    0  0.82323511462E+03 -0.91356268990E+03  0.99631188124E+03  0.15827034521E+04  0.10100000352E+00 0. -1.
       -3    1    3    3    0  502 -0.82323511462E+03  0.91356268990E+03 -0.10374708834E+04  0.16089309141E+04  0.10100000352E+00 0.  1.
</event>
<event>
 5   0  0.1185575E-06  0.3208147E+04  0.7818609E-02  0.8186669E-01
       -3   -1    0    0    0  501  0.00000000000E+00  0.00000000000E+00  0.19167579891E+04  0.19167579918E+04  0.10100000352E+00 0. -1.
        3   -1    0    0  501    0  0.00000000000E+00  0.00000000000E+00 -0.13423975162E+04  0.13423975200E+04  0.10100000352E+00 0.  1.
    10030    2    1    2    0    0  0.00000000000E+00  0.00000000000E+00  0.57436047295E+03  0.32591555118E+04  0.32081466140E+04 0.  0.
        4    1    3    3  502    0 -0.69302676399E+02  0.17477544625E+03 -0.13311644887E+04  0.13443771147E+04  0.12699999809E+01 0.  1.
       -4    1    3    3    0  502  0.69302676399E+02 -0.17477544625E+03  0.19055249617E+04  0.19147783971E+04  0.12699999809E+01 0. -1.
</event>
<event>
 5   0  0.1273980E-06  0.3345126E+04  0.7818609E-02  0.8151507E-01
       -1   -1    0    0    0  501  0.00000000000E+00  0.00000000000E+00  0.14896368871E+04  0.14896368871E+04  0.50400001928E-02 0. -1.
        1   -1    0    0  501    0  0.00000000000E+00  0.00000000000E+00 -0.18779526106E+04  0.18779526106E+04  0.50400001928E-02 0.  1.
    10030    2    1    2    0    0  0.00000000000E+00  0.00000000000E+00 -0.38831572350E+03  0.33675894976E+04  0.33451262941E+04 0.  0.
        4    1    3    3  502    0  0.10967790699E+04 -0.12313664570E+04 -0.47581905218E+03  0.17162730152E+04  0.12699999809E+01 0.  1.
       -4    1    3    3    0  502 -0.10967790699E+04  0.12313664570E+04  0.87503328683E+02  0.16513164824E+04  0.12699999809E+01 0. -1.
</event>
<event>
 5   0  0.1273980E-06  0.3186511E+04  0.7818609E-02  0.8192389E-01
       -1   -1    0    0    0  501  0.00000000000E+00  0.00000000000E+00  0.12475072059E+04  0.12475072059E+04  0.50400001928E-02 0.  1.
        1   -1    0    0  501    0  0.00000000000E+00  0.00000000000E+00 -0.20348277697E+04  0.20348277697E+04  0.50400001928E-02 0. -1.
    10030    2    1    2    0    0  0.00000000000E+00  0.00000000000E+00 -0.78732056376E+03  0.32823349756E+04  0.31865105087E+04 0.  0.
        4    1    3    3  502    0 -0.11264295863E+04  0.33235405750E+03 -0.15026789014E+04  0.19071833488E+04  0.12699999809E+01 0. -1.
       -4    1    3    3    0  502  0.11264295863E+04 -0.33235405750E+03  0.71535833763E+03  0.13751516268E+04  0.12699999809E+01 0.  1.
</event>
<event>
 5   0  0.3531437E-06  0.3239732E+04  0.7818609E-02  0.8178402E-01
       -2   -1    0    0    0  501  0.00000000000E+00  0.00000000000E+00  0.12092908635E+04  0.12092908635E+04  0.25500000920E-02 0. -1.
        2   -1    0    0  501    0  0.00000000000E+00  0.00000000000E+00 -0.21698381577E+04  0.21698381577E+04  0.25500000920E-02 0.  1.
    10030    2    1    2    0    0  0.00000000000E+00  0.00000000000E+00 -0.96054729417E+03  0.33791290212E+04  0.32397317540E+04 0.  0.
        1    1    3    3  502    0 -0.45438707860E+03 -0.39573110461E+03  0.10880507298E+04  0.12437544432E+04  0.50400001928E-02 0. -1.
       -1    1    3    3    0  502  0.45438707860E+03  0.39573110461E+03 -0.20485980240E+04  0.21353745780E+04  0.50400001928E-02 0.  1.
</event>
<event>
 5   0  0.3656086E-06  0.3192284E+04  0.7818609E-02  0.8190858E-01
        2   -1    0    0  501    0  0.00000000000E+00  0.00000000000E+00  0.24692165714E+04  0.24692165714E+04  0.25500000920E-02 0. -1.
       -2   -1    0    0    0  501  0.00000000000E+00  0.00000000000E+00 -0.10317719902E+04  0.10317719902E+04  0.25500000920E-02 0.  1.
    10030    2    1    2    0    0  0.00000000000E+00  0.00000000000E+00  0.14374445812E+04  0.35009885616E+04  0.31922835063E+04 0.  0.
        3    1    3    3  502    0 -0.10481645246E+04 -0.57460620388E+03  0.18787667974E+04  0.22267882363E+04  0.10100000352E+00 0. -1.
       -3    1    3    3    0  502  0.10481645246E+04  0.57460620388E+03 -0.44132221618E+03  0.12742003253E+04  0.10100000352E+00 0.  1.
</event>
<event>
 5   0  0.1306843E-06  0.3176523E+04  0.7818609E-02  0.8195045E-01
        1   -1    0    0  501    0  0.00000000000E+00  0.00000000000E+00  0.20993798597E+04  0.20993798597E+04  0.50400001928E-02 0.  1.
       -1   -1    0    0    0  501  0.00000000000E+00  0.00000000000E+00 -0.12015805958E+04  0.12015805958E+04  0.50400001928E-02 0. -1.
    10030    2    1    2    0    0  0.00000000000E+00  0.00000000000E+00  0.89779926396E+03  0.33009604555E+04  0.31765226917E+04 0.  0.
        5    1    3    3  502    0 -0.13616268998E+04  0.29457833301E+03 -0.34370341207E+03  0.14349070820E+04  0.46999998093E+01 0. -1.
       -5    1    3    3    0  502  0.13616268998E+04 -0.29457833301E+03  0.12415026760E+04  0.18660533736E+04  0.46999998093E+01 0.  1.
</event>
<event>
 5   0  0.3758062E-06  0.3198555E+04  0.7818609E-02  0.8189199E-01
       -2   -1    0    0    0  501  0.00000000000E+00  0.00000000000E+00  0.18225591411E+04  0.18225591411E+04  0.25500000920E-02 0. -1.
        2   -1    0    0  501    0  0.00000000000E+00  0.00000000000E+00 -0.14033502735E+04  0.14033502735E+04  0.25500000920E-02 0.  1.
    10030    2    1    2    0    0  0.00000000000E+00  0.00000000000E+00  0.41920886762E+03  0.32259094146E+04  0.31985552171E+04 0.  0.
        2    1    3    3  502    0  0.75161104713E+03 -0.13338293636E+04 -0.25659206232E+03  0.15523721924E+04  0.25500000920E-02 0.  1.
       -2    1    3    3    0  502 -0.75161104713E+03  0.13338293636E+04  0.67580092994E+03  0.16735372222E+04  0.25500000920E-02 0. -1.
</event>
<event>
 5   0  0.3497546E-06  0.3196118E+04  0.7818609E-02  0.8189843E-01
       -2   -1    0    0    0  501  0.00000000000E+00  0.00000000000E+00  0.13617541425E+04  0.13617541425E+04  0.25500000920E-02 0. -1.
        2   -1    0    0  501    0  0.00000000000E+00  0.00000000000E+00 -0.18753694183E+04  0.18753694183E+04  0.25500000920E-02 0.  1.
    10030    2    1    2    0    0  0.00000000000E+00  0.00000000000E+00 -0.51361527586E+03  0.32371235608E+04  0.31961176913E+04 0.  0.
        4    1    3    3  502    0 -0.15078343928E+04 -0.52108294768E+03 -0.16234547815E+03  0.16035740275E+04  0.12699999809E+01 0. -1.
       -4    1    3    3    0  502  0.15078343928E+04  0.52108294768E+03 -0.35126979770E+03  0.16335495334E+04  0.12699999809E+01 0.  1.
</event>
<event>
 5   0  0.1273980E-06  0.3172444E+04  0.7818609E-02  0.8196133E-01
        1   -1    0    0  501    0  0.00000000000E+00  0.00000000000E+00  0.18808488902E+04  0.18808488902E+04  0.50400001928E-02 0.  1.
       -1   -1    0    0    0  501  0.00000000000E+00  0.00000000000E+00 -0.13377472244E+04  0.13377472244E+04  0.50400001928E-02 0. -1.
    10030    2    1    2    0    0  0.00000000000E+00  0.00000000000E+00  0.54310166581E+03  0.32185961147E+04  0.31724440941E+04 0.  0.
        4    1    3    3  502    0 -0.12000241627E+04 -0.98753385188E+03 -0.50586332780E+02  0.15549410566E+04  0.12699999809E+01 0. -1.
       -4    1    3    3    0  502  0.12000241627E+04  0.98753385188E+03  0.59368799859E+03  0.16636550580E+04  0.12699999809E+01 0.  1.
</event>
<event>
 5   0  0.3745943E-06  0.3217033E+04  0.7818609E-02  0.8184333E-01
       -2   -1    0    0    0  501  0.00000000000E+00  0.00000000000E+00  0.22532609639E+04  0.22532609639E+04  0.25500000920E-02 0.  1.
        2   -1    0    0  501    0  0.00000000000E+00  0.00000000000E+00 -0.11482584540E+04  0.11482584540E+04  0.25500000920E-02 0. -1.
    10030    2    1    2    0    0  0.00000000000E+00  0.00000000000E+00  0.11050025098E+04  0.34015194179E+04  0.32170333855E+04 0.  0.
        5    1    3    3  502    0  0.10618006039E+04 -0.58699675382E+03 -0.56414797653E+03  0.13380099928E+04  0.46999998093E+01 0. -1.
       -5    1    3    3    0  502 -0.10618006039E+04  0.58699675382E+03  0.16691504863E+04  0.20635094251E+04  0.46999998093E+01 0.  1.
</event>
<event>
 5   0  0.3531437E-06  0.2725604E+04  0.7818609E-02  0.8326745E-01
        2   -1    0    0  501    0  0.00000000000E+00  0.00000000000E+00  0.12682130595E+04  0.12682130595E+04  0.25500000920E-02 0. -1.
       -2   -1    0    0    0  501  0.00000000000E+00  0.00000000000E+00 -0.14644460914E+04  0.14644460914E+04  0.25500000920E-02 0.  1.
    10030    2    1    2    0    0  0.00000000000E+00  0.00000000000E+00 -0.19623303193E+03  0.27326591510E+04  0.27256042692E+04 0.  0.
        1    1    3    3  502    0  0.41762926883E+02 -0.74814609560E+02 -0.14617429631E+04  0.14642519790E+04  0.50400001928E-02 0.  1.
       -1    1    3    3    0  502 -0.41762926883E+02  0.74814609560E+02  0.12655099312E+04  0.12684071719E+04  0.50400001928E-02 0. -1.
</event>
<event>
 5   0  0.1273980E-06  0.3133456E+04  0.7818609E-02  0.8206616E-01
       -1   -1    0    0    0  501  0.00000000000E+00  0.00000000000E+00  0.11529502121E+04  0.11529502121E+04  0.50400001928E-02 0. -1.
        1   -1    0    0  501    0  0.00000000000E+00  0.00000000000E+00 -0.21290052491E+04  0.21290052491E+04  0.50400001928E-02 0.  1.
    10030    2    1    2    0    0  0.00000000000E+00  0.00000000000E+00 -0.97605503697E+03  0.32819554612E+04  0.31334562729E+04 0.  0.
        4    1    3    3  502    0  0.38812840472E+03 -0.14942014607E+04 -0.20824696368E+03  0.15577708672E+04  0.12699999809E+01 0. -1.
       -4    1    3    3    0  502 -0.38812840472E+03  0.14942014607E+04 -0.76780807328E+03  0.17241845940E+04  0.12699999809E+01 0.  1.
</event>
<event>
 5   0  0.1240725E-06  0.3197452E+04  0.7818609E-02  0.8189490E-01
        1   -1    0    0  501    0  0.00000000000E+00  0.00000000000E+00  0.18034949780E+04  0.18034949780E+04  0.50400001928E-02 0. -1.
       -1   -1    0    0    0  501  0.00000000000E+00  0.00000000000E+00 -0.14172067636E+04  0.14172067636E+04  0.50400001928E-02 0.  1.
    10030    2    1    2    0    0  0.00000000000E+00  0.00000000000E+00  0.38628821442E+03  0.32207017417E+04  0.31974522865E+04 0.  0.
        3    1    3    3  502    0  0.48981645792E+03 -0.75931912130E+03  0.15216121441E+04  0.17696861918E+04  0.10100000352E+00 0. -1.
       -3    1    3    3    0  502 -0.48981645792E+03  0.75931912130E+03 -0.11353239296E+04  0.14510155498E+04  0.10100000352E+00 0.  1.
</event>
<event>
 5   0  0.3497546E-06  0.3283674E+04  0.7818609E-02  0.8167062E-01
        2   -1    0    0  501    0  0.00000000000E+00  0.00000000000E+00  0.14712359396E+04  0.14712359397E+04  0.25500000920E-02 0. -1.
       -2   -1    0    0    0  501  0.00000000000E+00  0.00000000000E+00 -0.18322207994E+04  0.18322207994E+04  0.25500000920E-02 0.  1.
    10030    2    1    2    0    0  0.00000000000E+00  0.00000000000E+00 -0.36098485976E+03  0.33034567391E+04  0.32836742162E+04 0.  0.
        4    1    3    3  502    0 -0.10274774338E+04 -0.63766680557E+03 -0.12977226850E+04  0.17738135787E+04  0.12699999809E+01 0.  1.
       -4    1    3    3    0  502  0.10274774338E+04  0.63766680557E+03  0.93673782521E+03  0.15296431604E+04  0.12699999809E+01 0. -1.
</event>
<event>
 5   0  0.3656086E-06  0.3212252E+04  0.7818609E-02  0.8185589E-01
       -2   -1    0    0    0  501  0.00000000000E+00  0.00000000000E+00  0.14631134798E+04  0.14631134798E+04  0.25500000920E-02 0.  1.
        2   -1    0    0  501    0  0.00000000000E+00  0.00000000000E+00 -0.17631175651E+04  0.17631175651E+04  0.25500000920E-02 0. -1.
    10030    2    1    2    0    0  0.00000000000E+00  0.00000000000E+00 -0.30000408531E+03  0.32262310450E+04  0.32122522168E+04 0.  0.
        3    1    3    3  502    0 -0.23887756043E+03  0.17359047824E+03 -0.17356202116E+04  0.17605606130E+04  0.10100000352E+00 0. -1.
       -3    1    3    3    0  502  0.23887756043E+03 -0.17359047824E+03  0.14356161263E+04  0.14656704320E+04  0.10100000352E+00 0.  1.
</event>
<event>
 5   0  0.3758062E-06  0.3208395E+04  0.7818609E-02  0.8186604E-01
        2   -1    0    0  501    0  0.00000000000E+00  0.00000000000E+00  0.87274344937E+03  0.87274344937E+03  0.25500000920E-02 0. -1.
       -2   -1    0    0    0  501  0.00000000000E+00  0.00000000000E+00 -0.29486891151E+04  0.29486891151E+04  0.25500000920E-02 0.  1.
    10030    2    1    2    0    0  0.00000000000E+00  0.00000000000E+00 -0.20759456657E+04  0.38214325645E+04  0.32083946824E+04 0.  0.
        2    1    3    3  502    0  0.90366222901E+03  0.11967843104E+04 -0.17165197598E+04  0.22793284527E+04  0.25500000920E-02 0.  1.
       -2    1    3    3    0  502 -0.90366222901E+03 -0.11967843104E+04 -0.35942590596E+03  0.15421041118E+04  0.25500000920E-02 0. -1.
</event>
<event>
 5   0  0.3758062E-06  0.3158077E+04  0.7818609E-02  0.8199978E-01
       -2   -1    0    0    0  501  0.00000000000E+00  0.00000000000E+00  0.10315903524E+04  0.10315903524E+04  0.25500000920E-02 0. -1.
        2   -1    0    0  501    0  0.00000000000E+00  0.00000000000E+00 -0.24170078101E+04  0.24170078101E+04  0.25500000920E-02 0.  1.
    10030    2    1    2    0    0  0.00000000000E+00  0.00000000000E+00 -0.13854174577E+04  0.34485981624E+04  0.31580765909E+04 0.  0.
        2    1    3    3  502    0  0.89803878953E+03  0.10069888577E+04 -0.15884505304E+04  0.20841485827E+04  0.25500000920E-02 0.  1.
       -2    1    3    3    0  502 -0.89803878953E+03 -0.10069888577E+04  0.20303307273E+03  0.13644495797E+04  0.25500000920E-02 0. -1.
</event>
<event>
 5   0  0.3497546E-06  0.3165578E+04  0.7818609E-02  0.8197968E-01
       -2   -1    0    0    0  501  0.00000000000E+00  0.00000000000E+00  0.12263267668E+04  0.12263267668E+04  0.25500000920E-02 0.  1.
        2   -1    0    0  501    0  0.00000000000E+00  0.00000000000E+00 -0.20428657689E+04  0.20428657689E+04  0.25500000920E-02 0. -1.
    10030    2    1    2    0    0  0.00000000000E+00  0.00000000000E+00 -0.81653900209E+03  0.32691925357E+04  0.31655779715E+04 0.  0.
        4    1    3    3  502    0 -0.26552527372E+03  0.14733837722E+04  0.12221283694E+03  0.15020988655E+04  0.12699999809E+01 0.  1.
       -4    1    3    3    0  502  0.26552527372E+03 -0.14733837722E+04 -0.93875183903E+03  0.17670936703E+04  0.12699999809E+01 0. -1.
</event>
<event>
 5   0  0.3745943E-06  0.3203859E+04  0.7818609E-02  0.8187799E-01
       -2   -1    0    0    0  501  0.00000000000E+00  0.00000000000E+00  0.79924210763E+03  0.79924210764E+03  0.25500000920E-02 0. -1.
        2   -1    0    0  501    0  0.00000000000E+00  0.00000000000E+00 -0.32107640757E+04  0.32107640757E+04  0.25500000920E-02 0.  1.
    10030    2    1    2    0    0  0.00000000000E+00  0.00000000000E+00 -0.24115219681E+04  0.40100061834E+04  0.32038588277E+04 0.  0.
        5    1    3    3  502    0 -0.21636701830E+03  0.13566431589E+04 -0.22370061169E+04  0.26251692906E+04  0.46999998093E+01 0.  1.
       -5    1    3    3    0  502  0.21636701830E+03 -0.13566431589E+04 -0.17451585124E+03  0.13848368928E+04  0.46999998093E+01 0. -1.
</event>
<event>
 5   0  0.3745943E-06  0.3211745E+04  0.7818609E-02  0.8185722E-01
       -2   -1    0    0    0  501  0.00000000000E+00  0.00000000000E+00  0.15542923830E+04  0.15542923830E+04  0.25500000920E-02 0. -1.
        2   -1    0    0  501    0  0.00000000000E+00  0.00000000000E+00 -0.16591641129E+04  0.16591641129E+04  0.25500000920E-02 0.  1.
    10030    2    1    2    0    0  0.00000000000E+00  0.00000000000E+00 -0.10487172999E+03  0.32134564959E+04  0.32117447861E+04 0.  0.
        5    1    3    3  502    0 -0.34721228618E+02  0.66109932057E+03 -0.15162761594E+04  0.16545009389E+04  0.46999998093E+01 0.  1.
       -5    1    3    3    0  502  0.34721228618E+02 -0.66109932057E+03  0.14114044294E+04  0.15589555570E+04  0.46999998093E+01 0. -1.
</event>
<event>
 5   0  0.3656086E-06  0.3163877E+04  0.7818609E-02  0.8198423E-01
       -2   -1    0    0    0  501  0.00000000000E+00  0.00000000000E+00  0.22124107570E+04  0.22124107570E+04  0.25500000920E-02 0.  1.
        2   -1    0    0  501    0  0.00000000000E+00  0.00000000000E+00 -0.11311321741E+04  0.11311321741E+04  0.25500000920E-02 0. -1.
    10030    2    1    2    0    0  0.00000000000E+00  0.00000000000E+00  0.10812785829E+04  0.33435429311E+04  0.31638767293E+04 0.  0.
        3    1    3    3  502    0  0.60944818812E+03 -0.10364202883E+04  0.16270935914E+04  0.20231232472E+04  0.10100000352E+00 0.  1.
       -3    1    3    3    0  502 -0.60944818812E+03  0.10364202883E+04 -0.54581500846E+03  0.13204196839E+04  0.10100000352E+00 0. -1.
</event>
<event>
 5   0  0.1268836E-06  0.3198389E+04  0.7818609E-02  0.8189243E-01
        1   -1    0    0  501    0  0.00000000000E+00  0.00000000000E+00  0.14358415834E+04  0.14358415834E+04  0.50400001928E-02 0. -1.
       -1   -1    0    0    0  501  0.00000000000E+00  0.00000000000E+00 -0.17811317264E+04  0.17811317264E+04  0.50400001928E-02 0.  1.
    10030    2    1    2    0    0  0.00000000000E+00  0.00000000000E+00 -0.34529014298E+03  0.32169733098E+04  0.31983889683E+04 0.  0.
        1    1    3    3  502    0 -0.14631918099E+04 -0.93586935873E+02  0.46960587829E+03  0.15395513853E+04  0.50400001928E-02 0. -1.
       -1    1    3    3    0  502  0.14631918099E+04  0.93586935873E+02 -0.81489602127E+03  0.16774219244E+04  0.50400001928E-02 0.  1.
</event>
<event>
 5   0  0.1268836E-06  0.3025534E+04  0.7818609E-02  0.8236477E-01
        1   -1    0    0  501    0  0.00000000000E+00  0.00000000000E+00  0.15055608938E+04  0.15055608938E+04  0.50400001928E-02 0. -1.
       -1   -1    0    0    0  501  0.00000000000E+00  0.00000000000E+00 -0.15200074837E+04  0.15200074837E+04  0.50400001928E-02 0.  1.
    10030    2    1    2    0    0  0.00000000000E+00  0.00000000000E+00 -0.14446589920E+02  0.30255683775E+04  0.30255338873E+04 0.  0.
        1    1    3    3  502    0  0.26497711940E+03 -0.73477266780E+03  0.12883068454E+04  0.15065982460E+04  0.50400001928E-02 0. -1.
       -1    1    3    3    0  502 -0.26497711940E+03  0.73477266780E+03 -0.13027534353E+04  0.15189701315E+04  0.50400001928E-02 0.  1.
</event>
<event>
 5   0  0.3758062E-06  0.3262488E+04  0.7818609E-02  0.8172506E-01
       -2   -1    0    0    0  501  0.00000000000E+00  0.00000000000E+00  0.13429156064E+04  0.13429156064E+04  0.25500000920E-02 0. -1.
        2   -1    0    0  501    0  0.00000000000E+00  0.00000000000E+00 -0.19814772852E+04  0.19814772852E+04  0.25500000920E-02 0.  1.
    10030    2    1    2    0    0  0.00000000000E+00  0.00000000000E+00 -0.63856167873E+03  0.33243928916E+04  0.32624878667E+04 0.  0.
        2    1    3    3  502    0 -0.53827410134E+03 -0.35355598793E+03  0.12078955138E+04  0.13688507651E+04  0.25500000920E-02 0. -1.
       -2    1    3    3    0  502  0.53827410134E+03  0.35355598793E+03 -0.18464571925E+04  0.19555421265E+04  0.25500000920E-02 0.  1.
</event>
<event>
 5   0  0.3497546E-06  0.2803833E+04  0.7818609E-02  0.8302079E-01
        2   -1    0    0  501    0  0.00000000000E+00  0.00000000000E+00  0.12579854467E+04  0.12579854467E+04  0.25500000920E-02 0. -1.
       -2   -1    0    0    0  501  0.00000000000E+00  0.00000000000E+00 -0.15623157000E+04  0.15623157000E+04  0.25500000920E-02 0.  1.
    10030    2    1    2    0    0  0.00000000000E+00  0.00000000000E+00 -0.30433025337E+03  0.28203011467E+04  0.28038333858E+04 0.  0.
        4    1    3    3  502    0 -0.12438267672E+04 -0.14763078627E+03  0.48119082793E+03  0.13418070284E+04  0.12699999809E+01 0. -1.
       -4    1    3    3    0  502  0.12438267672E+04  0.14763078627E+03 -0.78552108129E+03  0.14784941183E+04  0.12699999809E+01 0.  1.
</event>
<event>
 5   0  0.1306843E-06  0.3196039E+04  0.7818609E-02  0.8189864E-01
       -1   -1    0    0    0  501  0.00000000000E+00  0.00000000000E+00  0.99169276626E+03  0.99169276628E+03  0.50400001928E-02 0.  1.
        1   -1    0    0  501    0  0.00000000000E+00  0.00000000000E+00 -0.25750582147E+04  0.25750582147E+04  0.50400001928E-02 0. -1.
    10030    2    1    2    0    0  0.00000000000E+00  0.00000000000E+00 -0.15833654484E+04  0.35667509810E+04  0.31960391764E+04 0.  0.
        5    1    3    3  502    0 -0.41420224984E+03 -0.14525133655E+03  0.92309222625E+03  0.10221461748E+04  0.46999998093E+01 0.  1.
       -5    1    3    3    0  502  0.41420224984E+03  0.14525133655E+03 -0.25064576747E+04  0.25446048062E+04  0.46999998093E+01 0. -1.
</event>
<event>
 5   0  0.3531437E-06  0.3204306E+04  0.7818609E-02  0.8187681E-01
        2   -1    0    0  501    0  0.00000000000E+00  0.00000000000E+00  0.19319948797E+04  0.19319948797E+04  0.25500000920E-02 0. -1.
       -2   -1    0    0    0  501  0.00000000000E+00  0.00000000000E+00 -0.13286235344E+04  0.13286235344E+04  0.25500000920E-02 0.  1.
    10030    2    1    2    0    0  0.00000000000E+00  0.00000000000E+00  0.60337134534E+03  0.32606184141E+04  0.32043057691E+04 0.  0.
        1    1    3    3  502    0  0.98741705911E+03  0.32749313214E+03 -0.93818965346E+03  0.14008725945E+04  0.50400001928E-02 0.  1.
       -1    1    3    3    0  502 -0.98741705911E+03 -0.32749313214E+03  0.15415609988E+04  0.18597458195E+04  0.50400001928E-02 0. -1.
</event>
<event>
 5   0  0.1306843E-06  0.3171207E+04  0.7818609E-02  0.8196463E-01
       -1   -1    0    0    0  501  0.00000000000E+00  0.00000000000E+00  0.14886056704E+04  0.14886056704E+04  0.50400001928E-02 0. -1.
        1   -1    0    0  501    0  0.00000000000E+00  0.00000000000E+00 -0.16889219967E+04  0.16889219968E+04  0.50400001928E-02 0.  1.
    10030    2    1    2    0    0  0.00000000000E+00  0.00000000000E+00 -0.20031632639E+03  0.31775276671E+04  0.31712072535E+04 0.  0.
        5    1    3    3  502    0 -0.14401638530E+04  0.41441882923E+03  0.41885285031E+03  0.15560445655E+04  0.46999998093E+01 0. -1.
       -5    1    3    3    0  502  0.14401638530E+04 -0.41441882923E+03 -0.61916917669E+03  0.16214831016E+04  0.46999998093E+01 0.  1.
</event>
<event>
 5   0  0.1273980E-06  0.3200662E+04  0.7818609E-02  0.8188642E-01
       -1   -1    0    0    0  501  0.00000000000E+00  0.00000000000E+00  0.19083270301E+04  0.19083270301E+04  0.50400001928E-02 0. -1.
        1   -1    0    0  501    0  0.00000000000E+00  0.00000000000E+00 -0.13420443298E+04  0.13420443298E+04  0.50400001928E-02 0.  1.
    10030    2    1    2    0    0  0.00000000000E+00  0.00000000000E+00  0.56628270025E+03  0.32503713599E+04  0.32006621003E+04 0.  0.
        4    1    3    3  502    0 -0.77236940934E+03 -0.19105484029E+03 -0.11269486342E+04  0.13795185006E+04  0.12699999809E+01 0.  1.
       -4    1    3    3    0  502  0.77236940934E+03  0.19105484029E+03  0.16932313344E+04  0.18708528593E+04  0.12699999809E+01 0. -1.
</event>
<event>
 5   0  0.1268836E-06  0.3232934E+04  0.7818609E-02  0.8180173E-01
       -1   -1    0    0    0  501  0.00000000000E+00  0.00000000000E+00  0.19294673187E+04  0.19294673187E+04  0.50400001928E-02 0. -1.
        1   -1    0    0  501    0  0.00000000000E+00  0.00000000000E+00 -0.13542417328E+04  0.13542417328E+04  0.50400001928E-02 0.  1.
    10030    2    1    2    0    0  0.00000000000E+00  0.00000000000E+00  0.57522558586E+03  0.32837090515E+04  0.32329337544E+04 0.  0.
        1    1    3    3  502    0  0.96461254811E+03  0.27502534628E+03  0.15751369269E+04  0.18673972924E+04  0.50400001928E-02 0. -1.
       -1    1    3    3    0  502 -0.96461254811E+03 -0.27502534628E+03 -0.99991134103E+03  0.14163117591E+04  0.50400001928E-02 0.  1.
</event>
<event>
 5   0  0.1268836E-06  0.3217213E+04  0.7818609E-02  0.8184286E-01
       -1   -1    0    0    0  501  0.00000000000E+00  0.00000000000E+00  0.10499125869E+04  0.10499125869E+04  0.50400001928E-02 0. -1.
        1   -1    0    0  501    0  0.00000000000E+00  0.00000000000E+00 -0.24645995521E+04  0.24645995521E+04  0.50400001928E-02 0.  1.
    10030    2    1    2    0    0  0.00000000000E+00  0.00000000000E+00 -0.14146869653E+04  0.35145121390E+04  0.32172125148E+04 0.  0.
        1    1    3    3  502    0 -0.30955522774E+03 -0.14728547689E+04 -0.13277015042E+04  0.20069670883E+04  0.50400001928E-02 0.  1.
       -1    1    3    3    0  502  0.30955522774E+03  0.14728547689E+04 -0.86985461034E+02  0.15075450507E+04  0.50400001928E-02 0. -1.
</event>
<event>
 5   0  0.1268836E-06  0.3018124E+04  0.7818609E-02  0.8238574E-01
       -1   -1    0    0    0  501  0.00000000000E+00  0.00000000000E+00  0.11603096707E+04  0.11603096707E+04  0.50400001928E-02 0. -1.
        1   -1    0    0  501    0  0.00000000000E+00  0.00000000000E+00 -0.19626385548E+04  0.19626385548E+04  0.50400001928E-02 0.  1.
    10030    2    1    2    0    0  0.00000000000E+00  0.00000000000E+00 -0.80232888406E+03  0.31229482255E+04  0.30181242488E+04 0.  0.
        1    1    3    3  502    0 -0.15002534009E+04  0.14706980127E+03 -0.32889082175E+03  0.15429060134E+04  0.50400001928E-02 0. -1.
       -1    1    3    3    0  502  0.15002534009E+04 -0.14706980127E+03 -0.47343806231E+03  0.15800422122E+04  0.50400001928E-02 0.  1.
</event>
<event>
 5   0  0.1273754E-06  0.3229876E+04  0.7818609E-02  0.8180971E-01
        1   -1    0    0  501    0  0.00000000000E+00  0.00000000000E+00  0.19376775081E+04  0.19376775081E+04  0.50400001928E-02 0. -1.
       -1   -1    0    0    0  501  0.00000000000E+00  0.00000000000E+00 -0.13459542447E+04  0.13459542447E+04  0.50400001928E-02 0.  1.
    10030    2    1    2    0    0  0.00000000000E+00  0.00000000000E+00  0.59172326344E+03  0.32836317528E+04  0.32298763239E+04 0.  0.
        2    1    3    3  502    0 -0.15075253309E+04  0.19015230862E+03  0.85198937617E+03  0.17420322675E+04  0.25500000920E-02 0. -1.
       -2    1    3    3    0  502  0.15075253309E+04 -0.19015230862E+03 -0.26026611273E+03  0.15415994854E+04  0.25500000920E-02 0.  1.
</event>
<event>
 5   0  0.1306843E-06  0.3199271E+04  0.7818609E-02  0.8189010E-01
       -1   -1    0    0    0  501  0.00000000000E+00  0.00000000000E+00  0.15488661137E+04  0.15488661137E+04  0.50400001928E-02 0.  1.
        1   -1    0    0  501    0  0.00000000000E+00  0.00000000000E+00 -0.16520689333E+04  0.16520689333E+04  0.50400001928E-02 0. -1.
    10030    2    1    2    0    0  0.00000000000E+00  0.00000000000E+00 -0.10320281960E+03  0.32009350470E+04  0.31992709096E+04 0.  0.
        5    1    3    3  502    0 -0.14092178602E+04  0.74662477079E+03 -0.17603640587E+03  0.16044794894E+04  0.46999998093E+01 0.  1.
       -5    1    3    3    0  502  0.14092178602E+04 -0.74662477079E+03  0.72833586269E+02  0.15964555575E+04  0.46999998093E+01 0. -1.
</event>
<event>
 5   0  0.3656086E-06  0.3169902E+04  0.7818609E-02  0.8196811E-01
        2   -1    0    0  501    0  0.00000000000E+00  0.00000000000E+00  0.23600803258E+04  0.23600803258E+04  0.25500000920E-02 0.  1.
       -2   -1    0    0    0  501  0.00000000000E+00  0.00000000000E+00 -0.10644003591E+04  0.10644003592E+04  0.25500000920E-02 0. -1.
    10030    2    1    2    0    0  0.00000000000E+00  0.00000000000E+00  0.12956799666E+04  0.34244806849E+04  0.31699024252E+04 0.  0.
        3    1    3    3  502    0  0.14310902580E+04  0.66257019150E+03  0.81882886401E+03  0.17769353686E+04  0.10100000352E+00 0.  1.
       -3    1    3    3    0  502 -0.14310902580E+04 -0.66257019150E+03  0.47685110263E+03  0.16475453164E+04  0.10100000352E+00 0. -1.
</event>
<event>
 5   0  0.1240725E-06  0.3128178E+04  0.7818609E-02  0.8208047E-01
        1   -1    0    0  501    0  0.00000000000E+00  0.00000000000E+00  0.20663432392E+04  0.20663432392E+04  0.50400001928E-02 0.  1.
       -1   -1    0    0    0  501  0.00000000000E+00  0.00000000000E+00 -0.11839151450E+04  0.11839151450E+04  0.50400001928E-02 0. -1.
    10030    2    1    2    0    0  0.00000000000E+00  0.00000000000E+00  0.88242809420E+03  0.32502583843E+04  0.31281784193E+04 0.  0.
        3    1    3    3  502    0 -0.31420213639E+03  0.32226578974E+03  0.19976029877E+04  0.20476806217E+04  0.10100000352E+00 0.  1.
       -3    1    3    3    0  502  0.31420213639E+03 -0.32226578974E+03 -0.11151748935E+04  0.12025777626E+04  0.10100000352E+00 0. -1.
</event>
<event>
 5   0  0.1273754E-06  0.3106931E+04  0.7818609E-02  0.8213838E-01
        1   -1    0    0  501    0  0.00000000000E+00  0.00000000000E+00  0.17078996942E+04  0.17078996942E+04  0.50400001928E-02 0. -1.
       -1   -1    0    0    0  501  0.00000000000E+00  0.00000000000E+00 -0.14129962278E+04  0.14129962278E+04  0.50400001928E-02 0.  1.
    10030    2    1    2    0    0  0.00000000000E+00  0.00000000000E+00  0.29490346640E+03  0.31208959220E+04  0.31069314929E+04 0.  0.
        2    1    3    3  502    0 -0.24795872319E+03 -0.14370082072E+04 -0.39047337822E+03  0.15096176917E+04  0.25500000920E-02 0. -1.
       -2    1    3    3    0  502  0.24795872319E+03  0.14370082072E+04  0.68537684462E+03  0.16112782302E+04  0.25500000920E-02 0.  1.
</event>
<event>
 5   0  0.3745943E-06  0.3227403E+04  0.7818609E-02  0.8181617E-01
        2   -1    0    0  501    0  0.00000000000E+00  0.00000000000E+00  0.12083363024E+04  0.12083363024E+04  0.25500000920E-02 0. -1.
       -2   -1    0    0    0  501  0.00000000000E+00  0.00000000000E+00 -0.21550560776E+04  0.21550560776E+04  0.25500000920E-02 0.  1.
    10030    2    1    2    0    0  0.00000000000E+00  0.00000000000E+00 -0.94671977525E+03  0.33633923800E+04  0.32274029759E+04 0.  0.
        5    1    3    3  502    0  0.80007172472E+03 -0.50881534815E+03  0.88741680140E+03  0.12986679686E+04  0.46999998093E+01 0. -1.
       -5    1    3    3    0  502 -0.80007172472E+03  0.50881534815E+03 -0.18341365766E+04  0.20647244114E+04  0.46999998093E+01 0.  1.
</event>
<event>
 5   0  0.3656086E-06  0.3100083E+04  0.7818609E-02  0.8215715E-01
        2   -1    0    0  501    0  0.00000000000E+00  0.00000000000E+00  0.12744399632E+04  0.12744399632E+04  0.25500000920E-02 0. -1.
       -2   -1    0    0    0  501  0.00000000000E+00  0.00000000000E+00 -0.18852426298E+04  0.18852426298E+04  0.25500000920E-02 0.  1.
    10030    2    1    2    0    0  0.00000000000E+00  0.00000000000E+00 -0.61080266661E+03  0.31596825930E+04  0.31000829329E+04 0.  0.
        3    1    3    3  502    0 -0.53017410821E+03 -0.10541158751E+04  0.71910183454E+03  0.13817931545E+04  0.10100000352E+00 0. -1.
       -3    1    3    3    0  502  0.53017410821E+03  0.10541158751E+04 -0.13299045012E+04  0.17778894385E+04  0.10100000352E+00 0.  1.
</event>
<event>
 5   0  0.1268836E-06  0.3199425E+04  0.7818609E-02  0.8188969E-01
       -1   -1    0    0    0  501  0.00000000000E+00  0.00000000000E+00  0.15268659003E+04  0.15268659003E+04  0.50400001928E-02 0. -1.
        1   -1    0    0  501    0  0.00000000000E+00  0.00000000000E+00 -0.16760348665E+04  0.16760348665E+04  0.50400001928E-02 0.  1.
    10030    2    1    2    0    0  0.00000000000E+00  0.00000000000E+00 -0.14916896617E+03  0.32029007668E+04  0.31994252518E+04 0.  0.
        1    1    3    3  502    0 -0.13428878996E+04 -0.27805741796E+03  0.74997077069E+03  0.15630483024E+04  0.50400001928E-02 0. -1.
       -1    1    3    3    0  502  0.13428878996E+04  0.27805741796E+03 -0.89913973686E+03  0.16398524644E+04  0.50400001928E-02 0.  1.
</event>
<event>
 5   0  0.3497546E-06  0.3007024E+04  0.7818609E-02  0.8241728E-01
        2   -1    0    0  501    0  0.00000000000E+00  0.00000000000E+00  0.23774679010E+04  0.23774679010E+04  0.25500000920E-02 0. -1.
       -2   -1    0    0    0  501  0.00000000000E+00  0.00000000000E+00 -0.95082198471E+03  0.95082198471E+03  0.25500000920E-02 0.  1.
    10030    2    1    2    0    0  0.00000000000E+00  0.00000000000E+00  0.14266459163E+04  0.33282898857E+04  0.30070242754E+04 0.  0.
        4    1    3    3  502    0  0.65373602895E+03 -0.13379595980E+04  0.48369612701E+03  0.15657171640E+04  0.12699999809E+01 0.  1.
       -4    1    3    3    0  502 -0.65373602895E+03  0.13379595980E+04  0.94294978930E+03  0.17625727217E+04  0.12699999809E+01 0. -1.
</event>
<event>
 5   0  0.3531437E-06  0.3209536E+04  0.7818609E-02  0.8186303E-01
        2   -1    0    0  501    0  0.00000000000E+00  0.00000000000E+00  0.24720136121E+04  0.24720136121E+04  0.25500000920E-02 0. -1.
       -2   -1    0    0    0  501  0.00000000000E+00  0.00000000000E+00 -0.10417741769E+04  0.10417741769E+04  0.25500000920E-02 0.  1.
    10030    2    1    2    0    0  0.00000000000E+00  0.00000000000E+00  0.14302394351E+04  0.35137877890E+04  0.32095357584E+04 0.  0.
        1    1    3    3  502    0 -0.54678175296E+03 -0.14558182283E+04  0.11487792137E+04  0.19334090827E+04  0.50400001928E-02 0. -1.
       -1    1    3    3    0  502  0.54678175296E+03  0.14558182283E+04  0.28146022143E+03  0.15803787063E+04  0.50400001928E-02 0.  1.
</event>
<event>
 5   0  0.3656086E-06  0.3159188E+04  0.7818609E-02  0.8199679E-01
       -2   -1    0    0    0  501  0.00000000000E+00  0.00000000000E+00  0.11603878889E+04  0.11603878889E+04  0.25500000920E-02 0.  1.
        2   -1    0    0  501    0  0.00000000000E+00  0.00000000000E+00 -0.21502441895E+04  0.21502441895E+04  0.25500000920E-02 0. -1.
    10030    2    1    2    0    0  0.00000000000E+00  0.00000000000E+00 -0.98985630057E+03  0.33106320784E+04  0.31591880702E+04 0.  0.
        3    1    3    3  502    0  0.70380707256E+03  0.95520179770E+03 -0.15876826436E+04  0.19820421430E+04  0.10100000352E+00 0. -1.
       -3    1    3    3    0  502 -0.70380707256E+03 -0.95520179770E+03  0.59782634306E+03  0.13285899354E+04  0.10100000352E+00 0.  1.
</event>
<event>
 5   0  0.1306843E-06  0.3164955E+04  0.7818609E-02  0.8198134E-01
        1   -1    0    0  501    0  0.00000000000E+00  0.00000000000E+00  0.22262003378E+04  0.22262003378E+04  0.50400001928E-02 0. -1.
       -1   -1    0    0    0  501  0.00000000000E+00  0.00000000000E+00 -0.11248922090E+04  0.11248922090E+04  0.50400001928E-02 0.  1.
    10030    2    1    2    0    0  0.00000000000E+00  0.00000000000E+00  0.11013081288E+04  0.33510925468E+04  0.31649552387E+04 0.  0.
        5    1    3    3  502    0  0.82958314149E+02  0.15793473935E+04  0.60858041234E+03  0.16945832761E+04  0.46999998093E+01 0.  1.
       -5    1    3    3    0  502 -0.82958314149E+02 -0.15793473935E+04  0.49272771641E+03  0.16565092707E+04  0.46999998093E+01 0. -1.
</event>
<event>
 5   0  0.1273754E-06  0.3098292E+04  0.7818609E-02  0.8216207E-01
       -1   -1    0    0    0  501  0.00000000000E+00  0.00000000000E+00  0.12164505285E+04  0.12164505285E+04  0.50400001928E-02 0.  1.
        1   -1    0    0  501    0  0.00000000000E+00  0.00000000000E+00 -0.19728324179E+04  0.19728324179E+04  0.50400001928E-02 0. -1.
    10030    2    1    2    0    0  0.00000000000E+00  0.00000000000E+00 -0.75638188944E+03  0.31892829464E+04  0.30982918115E+04 0.  0.
        2    1    3    3  502    0  0.27301541996E+03 -0.80875709902E+03  0.95253470355E+03  0.12790417609E+04  0.25500000920E-02 0.  1.
       -2    1    3    3    0  502 -0.27301541996E+03  0.80875709902E+03 -0.17089165930E+04  0.19102411854E+04  0.25500000920E-02 0. -1.
</event>
<event>
 5   0  0.1240725E-06  0.3206118E+04  0.7818609E-02  0.8187203E-01
        1   -1    0    0  501    0  0.00000000000E+00  0.00000000000E+00  0.22377960064E+04  0.22377960064E+04  0.50400001928E-02 0. -1.
       -1   -1    0    0    0  501  0.00000000000E+00  0.00000000000E+00 -0.11483609650E+04  0.11483609650E+04  0.50400001928E-02 0.  1.
    10030    2    1    2    0    0  0.00000000000E+00  0.00000000000E+00  0.10894350414E+04  0.33861569714E+04  0.32061176406E+04 0.  0.
        3    1    3    3  502    0 -0.77286925365E+03 -0.13773526888E+04  0.25476450113E+03  0.15997913219E+04  0.10100000352E+00 0.  1.
       -3    1    3    3    0  502  0.77286925365E+03  0.13773526888E+04  0.83467054030E+03  0.17863656494E+04  0.10100000352E+00 0. -1.
</event>
<event>
 5   0  0.3758062E-06  0.3191149E+04  0.7818609E-02  0.8191159E-01
       -2   -1    0    0    0  501  0.00000000000E+00  0.00000000000E+00  0.20161889996E+04  0.20161889996E+04  0.25500000920E-02 0.  1.
        2   -1    0    0  501    0  0.00000000000E+00  0.00000000000E+00 -0.12627077971E+04  0.12627077971E+04  0.25500000920E-02 0. -1.
    10030    2    1    2    0    0  0.00000000000E+00  0.00000000000E+00  0.75348120248E+03  0.32788967967E+04  0.31911487400E+04 0.  0.
        2    1    3    3  502    0 -0.93860624561E+03  0.76655421851E+03  0.14431969577E+04  0.18845170503E+04  0.25500000920E-02 0.  1.
       -2    1    3    3    0  502  0.93860624561E+03 -0.76655421851E+03 -0.68971575520E+03  0.13943797464E+04  0.25500000920E-02 0. -1.
</event>
<event>
 5   0  0.3497546E-06  0.3197840E+04  0.7818609E-02  0.8189388E-01
        2   -1    0    0  501    0  0.00000000000E+00  0.00000000000E+00  0.12734825080E+04  0.12734825080E+04  0.25500000920E-02 0.  1.
       -2   -1    0    0    0  501  0.00000000000E+00  0.00000000000E+00 -0.20075226523E+04  0.20075226523E+04  0.25500000920E-02 0. -1.
    10030    2    1    2    0    0  0.00000000000E+00  0.00000000000E+00 -0.73404014433E+03  0.32810051603E+04  0.31978398848E+04 0.  0.
        4    1    3    3  502    0 -0.17820283103E+03  0.79429687374E+01 -0.19972811324E+04  0.20052313768E+04  0.12699999809E+01 0. -1.
       -4    1    3    3    0  502  0.17820283103E+03 -0.79429687374E+01  0.12632409881E+04  0.12757737835E+04  0.12699999809E+01 0.  1.
</event>
<event>
 5   0  0.1273754E-06  0.3150262E+04  0.7818609E-02  0.8202078E-01
        1   -1    0    0  501    0  0.00000000000E+00  0.00000000000E+00  0.19082582522E+04  0.19082582522E+04  0.50400001928E-02 0. -1.
       -1   -1    0    0    0  501  0.00000000000E+00  0.00000000000E+00 -0.13001584735E+04  0.13001584735E+04  0.50400001928E-02 0.  1.
    10030    2    1    2    0    0  0.00000000000E+00  0.00000000000E+00  0.60809977874E+03  0.32084167257E+04  0.31502622978E+04 0.  0.
        2    1    3    3  502    0 -0.46741969320E+03 -0.11775274026E+04  0.12572688756E+04  0.17848744995E+04  0.25500000920E-02 0. -1.
       -2    1    3    3    0  502  0.46741969320E+03  0.11775274026E+04 -0.64916909690E+03  0.14235422262E+04  0.25500000920E-02 0.  1.
</event>
<event>
 5   0  0.1306843E-06  0.2573874E+04  0.7818609E-02  0.8377130E-01
        1   -1    0    0  501    0  0.00000000000E+00  0.00000000000E+00  0.19381705880E+04  0.19381705880E+04  0.50400001928E-02 0.  1.
       -1   -1    0    0    0  501  0.00000000000E+00  0.00000000000E+00 -0.85452066689E+03  0.85452066690E+03  0.50400001928E-02 0. -1.
    10030    2    1    2    0    0  0.00000000000E+00  0.00000000000E+00  0.10836499211E+04  0.27926912549E+04  0.25738739856E+04 0.  0.
        5    1    3    3  502    0 -0.18565378227E+03 -0.12149151175E+03  0.19172527736E+04  0.19300538340E+04  0.46999998093E+01 0.  1.
       -5    1    3    3    0  502  0.18565378227E+03  0.12149151175E+03 -0.83360285248E+03  0.86263742091E+03  0.46999998093E+01 0. -1.
</event>
<event>
 5   0  0.1273754E-06  0.3253466E+04  0.7818609E-02  0.8174838E-01
        1   -1    0    0  501    0  0.00000000000E+00  0.00000000000E+00  0.11125941746E+04  0.11125941746E+04  0.50400001928E-02 0. -1.
       -1   -1    0    0    0  501  0.00000000000E+00  0.00000000000E+00 -0.23784596077E+04  0.23784596077E+04  0.50400001928E-02 0.  1.
    10030    2    1    2    0    0  0.00000000000E+00  0.00000000000E+00 -0.12658654331E+04  0.34910537823E+04  0.32534660312E+04 0.  0.
        2    1    3    3  502    0  0.96818594693E+03 -0.43950028798E+03  0.68811695623E+03  0.12665107486E+04  0.25500000920E-02 0. -1.
       -2    1    3    3    0  502 -0.96818594693E+03  0.43950028798E+03 -0.19539823893E+04  0.22245430337E+04  0.25500000920E-02 0.  1.
</event>
<event>
 5   0  0.3758062E-06  0.3233387E+04  0.7818609E-02  0.8180055E-01
        2   -1    0    0  501    0  0.00000000000E+00  0.00000000000E+00  0.20042873057E+04  0.20042873057E+04  0.25500000920E-02 0. -1.
       -2   -1    0    0    0  501  0.00000000000E+00  0.00000000000E+00 -0.13040535858E+04  0.13040535858E+04  0.25500000920E-02 0.  1.
    10030    2    1    2    0    0  0.00000000000E+00  0.00000000000E+00  0.70023371992E+03  0.33083408914E+04  0.32333871082E+04 0.  0.
        2    1    3    3  502    0 -0.82438407644E+03 -0.34053040478E+03 -0.10295199600E+04  0.13621605670E+04  0.25500000920E-02 0.  1.
       -2    1    3    3    0  502  0.82438407644E+03  0.34053040478E+03  0.17297536800E+04  0.19461803245E+04  0.25500000920E-02 0. -1.
</event>
<event>
 5   0  0.3656086E-06  0.2622144E+04  0.7818609E-02  0.8360718E-01
       -2   -1    0    0    0  501  0.00000000000E+00  0.00000000000E+00  0.13980176654E+04  0.13980176654E+04  0.25500000920E-02 0.  1.
        2   -1    0    0  501    0  0.00000000000E+00  0.00000000000E+00 -0.12295334103E+04  0.12295334103E+04  0.25500000920E-02 0. -1.
    10030    2    1    2    0    0  0.00000000000E+00  0.00000000000E+00  0.16848425512E+03  0.26275510756E+04  0.26221437243E+04 0.  0.
        3    1    3    3  502    0  0.34198845204E+02  0.66386310687E+03  0.12166281017E+04  0.13863865744E+04  0.10100000352E+00 0.  1.
       -3    1    3    3    0  502 -0.34198845204E+02 -0.66386310687E+03 -0.10481438466E+04  0.12411645012E+04  0.10100000352E+00 0. -1.
</event>
<event>
 5   0  0.3758062E-06  0.3249063E+04  0.7818609E-02  0.8175979E-01
       -2   -1    0    0    0  501  0.00000000000E+00  0.00000000000E+00  0.12183265638E+04  0.12183265638E+04  0.25500000920E-02 0.  1.
        2   -1    0    0  501    0  0.00000000000E+00  0.00000000000E+00 -0.21661705346E+04  0.21661705346E+04  0.25500000920E-02 0. -1.
    10030    2    1    2    0    0  0.00000000000E+00  0.00000000000E+00 -0.94784397087E+03  0.33844970984E+04  0.32490633136E+04 0.  0.
        2    1    3    3  502    0  0.53420505560E+03 -0.14393393276E+04 -0.10271241932E+04  0.18471753705E+04  0.25500000920E-02 0.  1.
       -2    1    3    3    0  502 -0.53420505560E+03  0.14393393276E+04  0.79280222285E+02  0.15373217279E+04  0.25500000920E-02 0. -1.
</event>
<event>
 5   0  0.1240725E-06  0.2966313E+04  0.7818609E-02  0.8253416E-01
       -1   -1    0    0    0  501  0.00000000000E+00  0.00000000000E+00  0.26978860359E+04  0.26978860359E+04  0.50400001928E-02 0. -1.
        1   -1    0    0  501    0  0.00000000000E+00  0.00000000000E+00 -0.81536168818E+03  0.81536168820E+03  0.50400001928E-02 0.  1.
    10030    2    1    2    0    0  0.00000000000E+00  0.00000000000E+00  0.18825243477E+04  0.35132477241E+04  0.29663128040E+04 0.  0.
        3    1    3    3  502    0  0.13053023629E+04  0.48625218118E+03  0.15445969839E+04  0.20799123287E+04  0.10100000352E+00 0.  1.
       -3    1    3    3    0  502 -0.13053023629E+04 -0.48625218118E+03  0.33792736387E+03  0.14333353954E+04  0.10100000352E+00 0. -1.
</event>
<event>
 5   0  0.1306843E-06  0.3210306E+04  0.7818609E-02  0.8186101E-01
       -1   -1    0    0    0  501  0.00000000000E+00  0.00000000000E+00  0.14553488470E+04  0.14553488470E+04  0.50400001928E-02 0. -1.
        1   -1    0    0  501    0  0.00000000000E+00  0.00000000000E+00 -0.17703768996E+04  0.17703768996E+04  0.50400001928E-02 0.  1.
    10030    2    1    2    0    0  0.00000000000E+00  0.00000000000E+00 -0.31502805264E+03  0.32257257467E+04  0.32103058918E+04 0.  0.
        5    1    3    3  502    0 -0.11226756302E+04 -0.91468962415E+03  0.53822512130E+03  0.15449161953E+04  0.46999998093E+01 0. -1.
       -5    1    3    3    0  502  0.11226756302E+04  0.91468962415E+03 -0.85325317394E+03  0.16808095514E+04  0.46999998093E+01 0.  1.
</event>
<event>
 5   0  0.3745943E-06  0.2832360E+04  0.7818609E-02  0.8293292E-01
        2   -1    0    0  501    0  0.00000000000E+00  0.00000000000E+00  0.17935213048E+04  0.17935213048E+04  0.25500000920E-02 0. -1.
       -2   -1    0    0    0  501  0.00000000000E+00  0.00000000000E+00 -0.11182282265E+04  0.11182282265E+04  0.25500000920E-02 0.  1.
    10030    2    1    2    0    0  0.00000000000E+00  0.00000000000E+00  0.67529307827E+03  0.29117495313E+04  0.28323602510E+04 0.  0.
        5    1    3    3  502    0 -0.14998498650E+03 -0.10212336017E+04  0.13344271756E+04  0.16870481743E+04  0.46999998093E+01 0. -1.
       -5    1    3    3    0  502  0.14998498650E+03  0.10212336017E+04 -0.65913409738E+03  0.12247013569E+04  0.46999998093E+01 0.  1.
</event>
<event>
 5   0  0.1306843E-06  0.2338499E+04  0.7818609E-02  0.8462894E-01
       -1   -1    0    0    0  501  0.00000000000E+00  0.00000000000E+00  0.76498253841E+03  0.76498253842E+03  0.50400001928E-02 0.  1.
        1   -1    0    0  501    0  0.00000000000E+00  0.00000000000E+00 -0.17871573692E+04  0.17871573692E+04  0.50400001928E-02 0. -1.
    10030    2    1    2    0    0  0.00000000000E+00  0.00000000000E+00 -0.10221748308E+04  0.25521399077E+04  0.23384988184E+04 0.  0.
        5    1    3    3  502    0 -0.22870695534E+03  0.92206393225E+03  0.23281017855E+03  0.97812649275E+03  0.46999998093E+01 0.  1.
       -5    1    3    3    0  502  0.22870695534E+03 -0.92206393225E+03 -0.12549850094E+04  0.15740134149E+04  0.46999998093E+01 0. -1.
</event>
<event>
 5   0  0.1273754E-06  0.3125048E+04  0.7818609E-02  0.8208897E-01
        1   -1    0    0  501    0  0.00000000000E+00  0.00000000000E+00  0.26911830411E+04  0.26911830411E+04  0.50400001928E-02 0. -1.
       -1   -1    0    0    0  501  0.00000000000E+00  0.00000000000E+00 -0.90721507798E+03  0.90721507800E+03  0.50400001928E-02 0.  1.
    10030    2    1    2    0    0  0.00000000000E+00  0.00000000000E+00  0.17839679631E+04  0.35983981191E+04  0.31250483725E+04 0.  0.
        2    1    3    3  502    0  0.61533397768E+03 -0.72501660727E+03  0.23196190569E+04  0.25069737841E+04  0.25500000920E-02 0. -1.
       -2    1    3    3    0  502 -0.61533397768E+03  0.72501660727E+03 -0.53565109376E+03  0.10914243351E+04  0.25500000920E-02 0.  1.
</event>
<event>
 5   0  0.3745943E-06  0.3286546E+04  0.7818609E-02  0.8166327E-01
       -2   -1    0    0    0  501  0.00000000000E+00  0.00000000000E+00  0.12120836073E+04  0.12120836073E+04  0.25500000920E-02 0. -1.
        2   -1    0    0  501    0  0.00000000000E+00  0.00000000000E+00 -0.22278542142E+04  0.22278542142E+04  0.25500000920E-02 0.  1.
    10030    2    1    2    0    0  0.00000000000E+00  0.00000000000E+00 -0.10157706069E+04  0.34399378215E+04  0.32865456470E+04 0.  0.
        5    1    3    3  502    0 -0.50149839492E+02  0.87629810106E+03 -0.19619357196E+04  0.21493318092E+04  0.46999998093E+01 0.  1.
       -5    1    3    3    0  502  0.50149839492E+02 -0.87629810106E+03  0.94616511268E+03  0.12906060122E+04  0.46999998093E+01 0. -1.
</event>
<event>
 5   0  0.1268836E-06  0.2696216E+04  0.7818609E-02  0.8336234E-01
       -1   -1    0    0    0  501  0.00000000000E+00  0.00000000000E+00  0.23513655865E+04  0.23513655865E+04  0.50400001928E-02 0.  1.
        1   -1    0    0  501    0  0.00000000000E+00  0.00000000000E+00 -0.77291064888E+03  0.77291064890E+03  0.50400001928E-02 0. -1.
    10030    2    1    2    0    0  0.00000000000E+00  0.00000000000E+00  0.15784549377E+04  0.31242762354E+04  0.26962162386E+04 0.  0.
        1    1    3    3  502    0 -0.22653932910E+02 -0.93957086262E+03 -0.33069719681E+03  0.99632687536E+03  0.50400001928E-02 0. -1.
       -1    1    3    3    0  502  0.22653932910E+02  0.93957086262E+03  0.19091521345E+04  0.21279493601E+04  0.50400001928E-02 0.  1.
</event>
<event>
 5   0  0.3656086E-06  0.3174220E+04  0.7818609E-02  0.8195659E-01
        2   -1    0    0  501    0  0.00000000000E+00  0.00000000000E+00  0.23564954636E+04  0.23564954636E+04  0.25500000920E-02 0.  1.
       -2   -1    0    0    0  501  0.00000000000E+00  0.00000000000E+00 -0.10689256555E+04  0.10689256555E+04  0.25500000920E-02 0. -1.
    10030    2    1    2    0    0  0.00000000000E+00  0.00000000000E+00  0.12875698081E+04  0.34254211191E+04  0.31742201928E+04 0.  0.
        3    1    3    3  502    0  0.44271564027E+03 -0.13405677112E+04  0.14262897110E+04  0.20068436104E+04  0.10100000352E+00 0. -1.
       -3    1    3    3    0  502 -0.44271564027E+03  0.13405677112E+04 -0.13871990291E+03  0.14185775087E+04  0.10100000352E+00 0.  1.
</event>
<event>
 5   0  0.3531437E-06  0.3126715E+04  0.7818609E-02  0.8208444E-01
        2   -1    0    0  501    0  0.00000000000E+00  0.00000000000E+00  0.12014344379E+04  0.12014344379E+04  0.25500000920E-02 0.  1.
       -2   -1    0    0    0  501  0.00000000000E+00  0.00000000000E+00 -0.20343066171E+04  0.20343066171E+04  0.25500000920E-02 0. -1.
    10030    2    1    2    0    0  0.00000000000E+00  0.00000000000E+00 -0.83287217921E+03  0.32357410551E+04  0.31267145870E+04 0.  0.
        1    1    3    3  502    0  0.10833799098E+04 -0.13480836791E+03 -0.15744732373E+04  0.19159465807E+04  0.50400001928E-02 0. -1.
       -1    1    3    3    0  502 -0.10833799098E+04  0.13480836791E+03  0.74160105811E+03  0.13197944743E+04  0.50400001928E-02 0.  1.
</event>
<event>
 5   0  0.3656086E-06  0.3050931E+04  0.7818609E-02  0.8229335E-01
       -2   -1    0    0    0  501  0.00000000000E+00  0.00000000000E+00  0.14637627105E+04  0.14637627105E+04  0.25500000920E-02 0. -1.
        2   -1    0    0  501    0  0.00000000000E+00  0.00000000000E+00 -0.15897693089E+04  0.15897693089E+04  0.25500000920E-02 0.  1.
    10030    2    1    2    0    0  0.00000000000E+00  0.00000000000E+00 -0.12600659846E+03  0.30535320194E+04  0.30509310269E+04 0.  0.
        3    1    3    3  502    0  0.56677307641E+03  0.21947714600E+03  0.13373475082E+04  0.14689793414E+04  0.10100000352E+00 0. -1.
       -3    1    3    3    0  502 -0.56677307641E+03 -0.21947714600E+03 -0.14633541066E+04  0.15845526780E+04  0.10100000352E+00 0.  1.
</event>
<event>
 5   0  0.1273754E-06  0.3106772E+04  0.7818609E-02  0.8213882E-01
        1   -1    0    0  501    0  0.00000000000E+00  0.00000000000E+00  0.24860379671E+04  0.24860379671E+04  0.50400001928E-02 0.  1.
       -1   -1    0    0    0  501  0.00000000000E+00  0.00000000000E+00 -0.97062368389E+03  0.97062368391E+03  0.50400001928E-02 0. -1.
    10030    2    1    2    0    0  0.00000000000E+00  0.00000000000E+00  0.15154142832E+04  0.34566616510E+04  0.31067715268E+04 0.  0.
        2    1    3    3  502    0  0.11483544023E+04 -0.10389621189E+04  0.89327914455E+03  0.17877661334E+04  0.25500000920E-02 0. -1.
       -2    1    3    3    0  502 -0.11483544023E+04  0.10389621189E+04  0.62213513868E+03  0.16688955176E+04  0.25500000920E-02 0.  1.
</event>
<event>
 5   0  0.3497546E-06  0.3276221E+04  0.7818609E-02  0.8168972E-01
        2   -1    0    0  501    0  0.00000000000E+00  0.00000000000E+00  0.22167814432E+04  0.22167814432E+04  0.25500000920E-02 0.  1.
       -2   -1    0    0    0  501  0.00000000000E+00  0.00000000000E+00 -0.12104967612E+04  0.12104967612E+04  0.25500000920E-02 0. -1.
    10030    2    1    2    0    0  0.00000000000E+00  0.00000000000E+00  0.10062846820E+04  0.34272782045E+04  0.32762214561E+04 0.  0.
        4    1    3    3  502    0  0.15581415068E+04  0.10667742485E+03 -0.13829425718E+02  0.15618507913E+04  0.12699999809E+01 0. -1.
       -4    1    3    3    0  502 -0.15581415068E+04 -0.10667742485E+03  0.10201141077E+04  0.18654274132E+04  0.12699999809E+01 0.  1.
</event>
<event>
 5   0  0.1306843E-06  0.3206550E+04  0.7818609E-02  0.8187089E-01
       -1   -1    0    0    0  501  0.00000000000E+00  0.00000000000E+00  0.15974439264E+04  0.15974439264E+04  0.50400001928E-02 0.  1.
        1   -1    0    0  501    0  0.00000000000E+00  0.00000000000E+00 -0.16091278432E+04  0.16091278432E+04  0.50400001928E-02 0. -1.
    10030    2    1    2    0    0  0.00000000000E+00  0.00000000000E+00 -0.11683916811E+02  0.32065717696E+04  0.32065504829E+04 0.  0.
        5    1    3    3  502    0 -0.63174091937E+03  0.13646217061E+04 -0.56188559425E+03  0.16053119637E+04  0.46999998093E+01 0. -1.
       -5    1    3    3    0  502  0.63174091937E+03 -0.13646217061E+04  0.55020167744E+03  0.16012598058E+04  0.46999998093E+01 0.  1.
</event>
<event>
 5   0  0.1273754E-06  0.3185024E+04  0.7818609E-02  0.8192784E-01
       -1   -1    0    0    0  501  0.00000000000E+00  0.00000000000E+00  0.18100798893E+04  0.18100798893E+04  0.50400001928E-02 0.  1.
        1   -1    0    0  501    0  0.00000000000E+00  0.00000000000E+00 -0.14010951964E+04  0.14010951964E+04  0.50400001928E-02 0. -1.
    10030    2    1    2    0    0  0.00000000000E+00  0.00000000000E+00  0.40898469286E+03  0.32111750857E+04  0.31850238542E+04 0.  0.
        2    1    3    3  502    0  0.13348613617E+04  0.69037683467E+03 -0.32672965376E+03  0.15379295482E+04  0.25500000920E-02 0. -1.
       -2    1    3    3    0  502 -0.13348613617E+04 -0.69037683467E+03  0.73571434662E+03  0.16732455374E+04  0.25500000920E-02 0.  1.
</event>
<event>
 5   0  0.1185575E-06  0.3514499E+04  0.7818609E-02  0.8110362E-01
       -3   -1    0    0    0  501  0.00000000000E+00  0.00000000000E+00  0.15302374387E+04  0.15302374420E+04  0.10100000352E+00 0.  1.
        3   -1    0    0  501    0  0.00000000000E+00  0.00000000000E+00 -0.20179392355E+04  0.20179392381E+04  0.10100000352E+00 0. -1.
    10030    2    1    2    0    0  0.00000000000E+00  0.00000000000E+00 -0.48770179686E+03  0.35481766801E+04  0.35144992119E+04 0.  0.
        5    1    3    3  502    0  0.15990082662E+04 -0.63941271505E+02 -0.97674667388E+03  0.18748258790E+04  0.46999998093E+01 0.  1.
       -5    1    3    3    0  502 -0.15990082662E+04  0.63941271505E+02  0.48904487702E+03  0.16733508011E+04  0.46999998093E+01 0. -1.
</event>
<event>
 5   0  0.1273754E-06  0.3215958E+04  0.7818609E-02  0.8184616E-01
       -1   -1    0    0    0  501  0.00000000000E+00  0.00000000000E+00  0.30159793706E+04  0.30159793706E+04  0.50400001928E-02 0. -1.
        1   -1    0    0  501    0  0.00000000000E+00  0.00000000000E+00 -0.85729885610E+03  0.85729885612E+03  0.50400001928E-02 0.  1.
    10030    2    1    2    0    0  0.00000000000E+00  0.00000000000E+00  0.21586805145E+04  0.38732782268E+04  0.32159575025E+04 0.  0.
        2    1    3    3  502    0  0.21002131862E+03 -0.16992092251E+03 -0.82977103136E+03  0.87264084174E+03  0.25500000920E-02 0.  1.
       -2    1    3    3    0  502 -0.21002131862E+03  0.16992092251E+03  0.29884515459E+04  0.30006373850E+04  0.25500000920E-02 0. -1.
</event>
<event>
 5   0  0.1240725E-06  0.3174737E+04  0.7818609E-02  0.8195521E-01
       -1   -1    0    0    0  501  0.00000000000E+00  0.00000000000E+00  0.22180621768E+04  0.22180621768E+04  0.50400001928E-02 0.  1.
        1   -1    0    0  501    0  0.00000000000E+00  0.00000000000E+00 -0.11360090879E+04  0.11360090879E+04  0.50400001928E-02 0. -1.
    10030    2    1    2    0    0  0.00000000000E+00  0.00000000000E+00  0.10820530889E+04  0.33540712647E+04  0.31747370224E+04 0.  0.
        3    1    3    3  502    0  0.23875222532E+03  0.10174580709E+04 -0.72125113974E+03  0.12698136745E+04  0.10100000352E+00 0. -1.
       -3    1    3    3    0  502 -0.23875222532E+03 -0.10174580709E+04  0.18033042286E+04  0.20842575902E+04  0.10100000352E+00 0.  1.
</event>
<event>
 5   0  0.1306843E-06  0.3118144E+04  0.7818609E-02  0.8210776E-01
        1   -1    0    0  501    0  0.00000000000E+00  0.00000000000E+00  0.20438716016E+04  0.20438716016E+04  0.50400001928E-02 0. -1.
       -1   -1    0    0    0  501  0.00000000000E+00  0.00000000000E+00 -0.11892653550E+04  0.11892653550E+04  0.50400001928E-02 0.  1.
    10030    2    1    2    0    0  0.00000000000E+00  0.00000000000E+00  0.85460624659E+03  0.32331369566E+04  0.31181441184E+04 0.  0.
        5    1    3    3  502    0 -0.22656372024E+03  0.83109739404E+03  0.17746986971E+04  0.19727218641E+04  0.46999998093E+01 0. -1.
       -5    1    3    3    0  502  0.22656372024E+03 -0.83109739404E+03 -0.92009245053E+03  0.12604150924E+04  0.46999998093E+01 0.  1.
</event>
<event>
 5   0  0.3745943E-06  0.3271222E+04  0.7818609E-02  0.8170257E-01
        2   -1    0    0  501    0  0.00000000000E+00  0.00000000000E+00  0.13697796217E+04  0.13697796217E+04  0.25500000920E-02 0. -1.
       -2   -1    0    0    0  501  0.00000000000E+00  0.00000000000E+00 -0.19530318628E+04  0.19530318628E+04  0.25500000920E-02 0.  1.
    10030    2    1    2    0    0  0.00000000000E+00  0.00000000000E+00 -0.58325224116E+03  0.33228114845E+04  0.32712219406E+04 0.  0.
        5    1    3    3  502    0 -0.12129646867E+04  0.17089761793E+03 -0.13925603215E+04  0.18546524380E+04  0.46999998093E+01 0.  1.
       -5    1    3    3    0  502  0.12129646867E+04 -0.17089761793E+03  0.80930808032E+03  0.14681590465E+04  0.46999998093E+01 0. -1.
</event>
<event>
 5   0  0.1268836E-06  0.3237271E+04  0.7818609E-02  0.8179043E-01
        1   -1    0    0  501    0  0.00000000000E+00  0.00000000000E+00  0.14354317921E+04  0.14354317922E+04  0.50400001928E-02 0. -1.
       -1   -1    0    0    0  501  0.00000000000E+00  0.00000000000E+00 -0.18252219564E+04  0.18252219564E+04  0.50400001928E-02 0.  1.
    10030    2    1    2    0    0  0.00000000000E+00  0.00000000000E+00 -0.38979016427E+03  0.32606537486E+04  0.32372714585E+04 0.  0.
        1    1    3    3  502    0  0.56761168209E+03 -0.84856999730E+03  0.10702536107E+04  0.14790864928E+04  0.50400001928E-02 0. -1.
       -1    1    3    3    0  502 -0.56761168209E+03  0.84856999730E+03 -0.14600437750E+04  0.17815672558E+04  0.50400001928E-02 0.  1.
</event>
<event>
 5   0  0.1306843E-06  0.3194388E+04  0.7818609E-02  0.8190301E-01
        1   -1    0    0  501    0  0.00000000000E+00  0.00000000000E+00  0.86763019334E+03  0.86763019335E+03  0.50400001928E-02 0. -1.
       -1   -1    0    0    0  501  0.00000000000E+00  0.00000000000E+00 -0.29402257005E+04  0.29402257005E+04  0.50400001928E-02 0.  1.
    10030    2    1    2    0    0  0.00000000000E+00  0.00000000000E+00 -0.20725955072E+04  0.38078558939E+04  0.31943879495E+04 0.  0.
        5    1    3    3  502    0 -0.12516099889E+04  0.34527775994E+03 -0.21451322103E+04  0.25074605850E+04  0.46999998093E+01 0.  1.
       -5    1    3    3    0  502  0.12516099889E+04 -0.34527775994E+03  0.72536703121E+02  0.13003953088E+04  0.46999998093E+01 0. -1.
</event>
<event>
 5   0  0.1273980E-06  0.3266985E+04  0.7818609E-02  0.8171347E-01
       -1   -1    0    0    0  501  0.00000000000E+00  0.00000000000E+00  0.12046218340E+04  0.12046218340E+04  0.50400001928E-02 0.  1.
        1   -1    0    0  501    0  0.00000000000E+00  0.00000000000E+00 -0.22150504172E+04  0.22150504172E+04  0.50400001928E-02 0. -1.
    10030    2    1    2    0    0  0.00000000000E+00  0.00000000000E+00 -0.10104285832E+04  0.34196722512E+04  0.32669852133E+04 0.  0.
        4    1    3    3  502    0 -0.11728862410E+04 -0.74054664940E+03 -0.14082178162E+04  0.19766513362E+04  0.12699999809E+01 0. -1.
       -4    1    3    3    0  502  0.11728862410E+04  0.74054664940E+03  0.39778923295E+03  0.14430209150E+04  0.12699999809E+01 0.  1.
</event>
<event>
 5   0  0.1273754E-06  0.3225729E+04  0.7818609E-02  0.8182055E-01
        1   -1    0    0  501    0  0.00000000000E+00  0.00000000000E+00  0.19122189537E+04  0.19122189537E+04  0.50400001928E-02 0. -1.
       -1   -1    0    0    0  501  0.00000000000E+00  0.00000000000E+00 -0.13603736159E+04  0.13603736160E+04  0.50400001928E-02 0.  1.
    10030    2    1    2    0    0  0.00000000000E+00  0.00000000000E+00  0.55184533774E+03  0.32725925697E+04  0.32257291967E+04 0.  0.
        2    1    3    3  502    0  0.64260790226E+03 -0.71616945571E+03  0.15891344627E+04  0.18577383955E+04  0.25500000920E-02 0. -1.
       -2    1    3    3    0  502 -0.64260790226E+03  0.71616945571E+03 -0.10372891250E+04  0.14148541742E+04  0.25500000920E-02 0.  1.
</event>
<event>
 5   0  0.3758062E-06  0.3242564E+04  0.7818609E-02  0.8177666E-01
        2   -1    0    0  501    0  0.00000000000E+00  0.00000000000E+00  0.15361577533E+04  0.15361577533E+04  0.25500000920E-02 0.  1.
       -2   -1    0    0    0  501  0.00000000000E+00  0.00000000000E+00 -0.17111238008E+04  0.17111238008E+04  0.25500000920E-02 0. -1.
    10030    2    1    2    0    0  0.00000000000E+00  0.00000000000E+00 -0.17496604747E+03  0.32472815541E+04  0.32425644749E+04 0.  0.
        2    1    3    3  502    0  0.81816819885E+03 -0.13348187077E+04  0.33433740234E+03  0.16009127655E+04  0.25500000920E-02 0. -1.
       -2    1    3    3    0  502 -0.81816819885E+03  0.13348187077E+04 -0.50930344980E+03  0.16463687886E+04  0.25500000920E-02 0.  1.
</event>
<event>
 5   0  0.3656086E-06  0.3220396E+04  0.7818609E-02  0.8183451E-01
        2   -1    0    0  501    0  0.00000000000E+00  0.00000000000E+00  0.18758344531E+04  0.18758344531E+04  0.25500000920E-02 0.  1.
       -2   -1    0    0    0  501  0.00000000000E+00  0.00000000000E+00 -0.13821786672E+04  0.13821786672E+04  0.25500000920E-02 0. -1.
    10030    2    1    2    0    0  0.00000000000E+00  0.00000000000E+00  0.49365578586E+03  0.32580131203E+04  0.32203964751E+04 0.  0.
        3    1    3    3  502    0 -0.61265332285E+03 -0.95094659002E+02 -0.12565825533E+04  0.14012090535E+04  0.10100000352E+00 0. -1.
       -3    1    3    3    0  502  0.61265332285E+03  0.95094659002E+02  0.17502383392E+04  0.18568040667E+04  0.10100000352E+00 0.  1.
</event>
<event>
 5   0  0.3497546E-06  0.3192876E+04  0.7818609E-02  0.8190701E-01
       -2   -1    0    0    0  501  0.00000000000E+00  0.00000000000E+00  0.15520796526E+04  0.15520796526E+04  0.25500000920E-02 0. -1.
        2   -1    0    0  501    0  0.00000000000E+00  0.00000000000E+00 -0.16420644017E+04  0.16420644017E+04  0.25500000920E-02 0.  1.
    10030    2    1    2    0    0  0.00000000000E+00  0.00000000000E+00 -0.89984749073E+02  0.31941440543E+04  0.31928762871E+04 0.  0.
        4    1    3    3  502    0 -0.60528067128E+03  0.20419103931E+03  0.14186519338E+04  0.15558385500E+04  0.12699999809E+01 0. -1.
       -4    1    3    3    0  502  0.60528067128E+03 -0.20419103931E+03 -0.15086366829E+04  0.16383055043E+04  0.12699999809E+01 0.  1.
</event>
<event>
 5   0  0.1306843E-06  0.3319591E+04  0.7818609E-02  0.8157928E-01
       -1   -1    0    0    0  501  0.00000000000E+00  0.00000000000E+00  0.99286238604E+03  0.99286238606E+03  0.50400001928E-02 0.  1.
        1   -1    0    0  501    0  0.00000000000E+00  0.00000000000E+00 -0.27747267923E+04  0.27747267924E+04  0.50400001928E-02 0. -1.
    10030    2    1    2    0    0  0.00000000000E+00  0.00000000000E+00 -0.17818644063E+04  0.37675891784E+04  0.33195914590E+04 0.  0.
        5    1    3    3  502    0 -0.15249579107E+04  0.32569848938E+03 -0.24557876096E+03  0.15785775728E+04  0.46999998093E+01 0.  1.
       -5    1    3    3    0  502  0.15249579107E+04 -0.32569848938E+03 -0.15362856453E+04  0.21890116056E+04  0.46999998093E+01 0. -1.
</event>
<event>
 5   0  0.3531437E-06  0.3222400E+04  0.7818609E-02  0.8182926E-01
       -2   -1    0    0    0  501  0.00000000000E+00  0.00000000000E+00  0.13737366736E+04  0.13737366736E+04  0.25500000920E-02 0. -1.
        2   -1    0    0  501    0  0.00000000000E+00  0.00000000000E+00 -0.18897116770E+04  0.18897116770E+04  0.25500000920E-02 0.  1.
    10030    2    1    2    0    0  0.00000000000E+00  0.00000000000E+00 -0.51597500336E+03  0.32634483506E+04  0.32224004924E+04 0.  0.
        1    1    3    3  502    0  0.15368812957E+04 -0.12994170311E+03  0.21386298153E+03  0.15571211700E+04  0.50400001928E-02 0. -1.
       -1    1    3    3    0  502 -0.15368812957E+04  0.12994170311E+03 -0.72983798490E+03  0.17063271806E+04  0.50400001928E-02 0.  1.
</event>
<event>
 5   0  0.3745943E-06  0.3178165E+04  0.7818609E-02  0.8194608E-01
        2   -1    0    0  501    0  0.00000000000E+00  0.00000000000E+00  0.23295520450E+04  0.23295520450E+04  0.25500000920E-02 0.  1.
       -2   -1    0    0    0  501  0.00000000000E+00  0.00000000000E+00 -0.10839780175E+04  0.10839780175E+04  0.25500000920E-02 0. -1.
    10030    2    1    2    0    0  0.00000000000E+00  0.00000000000E+00  0.12455740275E+04  0.34135300626E+04  0.31781650099E+04 0.  0.
        5    1    3    3  502    0 -0.10142313682E+04  0.59687960704E+03  0.17696819438E+04  0.21252592326E+04  0.46999998093E+01 0.  1.
       -5    1    3    3    0  502  0.10142313682E+04 -0.59687960704E+03 -0.52410791626E+03  0.12882708300E+04  0.46999998093E+01 0. -1.
</event>
<event>
 5   0  0.1273980E-06  0.3189035E+04  0.7818609E-02  0.8191719E-01
        1   -1    0    0  501    0  0.00000000000E+00  0.00000000000E+00  0.28530812883E+04  0.28530812883E+04  0.50400001928E-02 0.  1.
       -1   -1    0    0    0  501  0.00000000000E+00  0.00000000000E+00 -0.89113710217E+03  0.89113710218E+03  0.50400001928E-02 0. -1.
    10030    2    1    2    0    0  0.00000000000E+00  0.00000000000E+00  0.19619441861E+04  0.37442183904E+04  0.31890353347E+04 0.  0.
        4    1    3    3  502    0 -0.93046644057E+03 -0.47264787682E+03 -0.43443914703E+03  0.11304436288E+04  0.12699999809E+01 0. -1.
       -4    1    3    3    0  502  0.93046644057E+03  0.47264787682E+03  0.23963833331E+04  0.26137747617E+04  0.12699999809E+01 0.  1.
</event>
<event>
 5   0  0.1273754E-06  0.3201810E+04  0.7818609E-02  0.8188339E-01
        1   -1    0    0  501    0  0.00000000000E+00  0.00000000000E+00  0.12155321258E+04  0.12155321258E+04  0.50400001928E-02 0. -1.
       -1   -1    0    0    0  501  0.00000000000E+00  0.00000000000E+00 -0.21084560473E+04  0.21084560473E+04  0.50400001928E-02 0.  1.
    10030    2    1    2    0    0  0.00000000000E+00  0.00000000000E+00 -0.89292392150E+03  0.33239881731E+04  0.32018095267E+04 0.  0.
        2    1    3    3  502    0  0.12611718418E+04  0.85006310964E+03 -0.96526573143E+03  0.18013604962E+04  0.25500000920E-02 0.  1.
       -2    1    3    3    0  502 -0.12611718418E+04 -0.85006310964E+03  0.72341809930E+02  0.15226276769E+04  0.25500000920E-02 0. -1.
</event>
<event>
 5   0  0.1273754E-06  0.3297774E+04  0.7818609E-02  0.8163462E-01
       -1   -1    0    0    0  501  0.00000000000E+00  0.00000000000E+00  0.15940101671E+04  0.15940101671E+04  0.50400001928E-02 0.  1.
        1   -1    0    0  501    0  0.00000000000E+00  0.00000000000E+00 -0.17056530247E+04  0.17056530247E+04  0.50400001928E-02 0. -1.
    10030    2    1    2    0    0  0.00000000000E+00  0.00000000000E+00 -0.11164285758E+03  0.32996631918E+04  0.32977739540E+04 0.  0.
        2    1    3    3  502    0  0.70562467838E+03 -0.62203728079E+03  0.12992038934E+04  0.16039848260E+04  0.25500000920E-02 0.  1.
       -2    1    3    3    0  502 -0.70562467838E+03  0.62203728079E+03 -0.14108467510E+04  0.16956783658E+04  0.25500000920E-02 0. -1.
</event>
<event>
 5   0  0.1306843E-06  0.3150671E+04  0.7818609E-02  0.8201968E-01
       -1   -1    0    0    0  501  0.00000000000E+00  0.00000000000E+00  0.19569951524E+04  0.19569951524E+04  0.50400001928E-02 0. -1.
        1   -1    0    0  501    0  0.00000000000E+00  0.00000000000E+00 -0.12681084202E+04  0.12681084202E+04  0.50400001928E-02 0.  1.
    10030    2    1    2    0    0  0.00000000000E+00  0.00000000000E+00  0.68888673219E+03  0.32251035726E+04  0.31506710593E+04 0.  0.
        5    1    3    3  502    0 -0.88807614723E+03  0.91382802659E+03  0.12925532901E+04  0.18150694210E+04  0.46999998093E+01 0. -1.
       -5    1    3    3    0  502  0.88807614723E+03 -0.91382802659E+03 -0.60366655789E+03  0.14100341516E+04  0.46999998093E+01 0.  1.
</event>
<event>
 5   0  0.1273754E-06  0.3172577E+04  0.7818609E-02  0.8196097E-01
       -1   -1    0    0    0  501  0.00000000000E+00  0.00000000000E+00  0.16826128814E+04  0.16826128814E+04  0.50400001928E-02 0. -1.
        1   -1    0    0  501    0  0.00000000000E+00  0.00000000000E+00 -0.14954782935E+04  0.14954782935E+04  0.50400001928E-02 0.  1.
    10030    2    1    2    0    0  0.00000000000E+00  0.00000000000E+00  0.18713458793E+03  0.31780911749E+04  0.31725768961E+04 0.  0.
        2    1    3    3  502    0 -0.12935252271E+04 -0.40890742845E+03 -0.72999196400E+03  0.15405521950E+04  0.25500000920E-02 0. -1.
       -2    1    3    3    0  502  0.12935252271E+04  0.40890742845E+03  0.91712655192E+03  0.16375389798E+04  0.25500000920E-02 0.  1.
</event>
<event>
 5   0  0.3758062E-06  0.3098783E+04  0.7818609E-02  0.8216072E-01
        2   -1    0    0  501    0  0.00000000000E+00  0.00000000000E+00  0.18514841764E+04  0.18514841764E+04  0.25500000920E-02 0.  1.
       -2   -1    0    0    0  501  0.00000000000E+00  0.00000000000E+00 -0.12965886457E+04  0.12965886457E+04  0.25500000920E-02 0. -1.
    10030    2    1    2    0    0  0.00000000000E+00  0.00000000000E+00  0.55489553068E+03  0.31480728221E+04  0.30987825744E+04 0.  0.
        2    1    3    3  502    0  0.27897310709E+03  0.48794339842E+02  0.18249657311E+04  0.18468098986E+04  0.25500000920E-02 0.  1.
       -2    1    3    3    0  502 -0.27897310709E+03 -0.48794339842E+02 -0.12700702004E+04  0.13012629235E+04  0.25500000920E-02 0. -1.
</event>
<event>
 5   0  0.3758062E-06  0.3149493E+04  0.7818609E-02  0.8202285E-01
       -2   -1    0    0    0  501  0.00000000000E+00  0.00000000000E+00  0.11610166706E+04  0.11610166706E+04  0.25500000920E-02 0.  1.
        2   -1    0    0  501    0  0.00000000000E+00  0.00000000000E+00 -0.21359095407E+04  0.21359095407E+04  0.25500000920E-02 0. -1.
    10030    2    1    2    0    0  0.00000000000E+00  0.00000000000E+00 -0.97489287001E+03  0.32969262113E+04  0.31494930282E+04 0.  0.
        2    1    3    3  502    0 -0.74003430866E+03  0.11984932497E+04 -0.12245310423E+04  0.18664171884E+04  0.25500000920E-02 0. -1.
       -2    1    3    3    0  502  0.74003430866E+03 -0.11984932497E+04  0.24963817225E+03  0.14305090229E+04  0.25500000920E-02 0.  1.
</event>
<event>
 5   0  0.3656086E-06  0.3236889E+04  0.7818609E-02  0.8179142E-01
       -2   -1    0    0    0  501  0.00000000000E+00  0.00000000000E+00  0.15506252227E+04  0.15506252227E+04  0.25500000920E-02 0.  1.
        2   -1    0    0  501    0  0.00000000000E+00  0.00000000000E+00 -0.16892302139E+04  0.16892302139E+04  0.25500000920E-02 0. -1.
    10030    2    1    2    0    0  0.00000000000E+00  0.00000000000E+00 -0.13860499117E+03  0.32398554366E+04  0.32368892330E+04 0.  0.
        3    1    3    3  502    0  0.14091033385E+04  0.20315023960E+03 -0.83976155847E+03  0.16528889024E+04  0.10100000352E+00 0.  1.
       -3    1    3    3    0  502 -0.14091033385E+04 -0.20315023960E+03  0.70115656730E+03  0.15869665342E+04  0.10100000352E+00 0. -1.
</event>
<event>
 5   0  0.1268836E-06  0.3119474E+04  0.7818609E-02  0.8210414E-01
        1   -1    0    0  501    0  0.00000000000E+00  0.00000000000E+00  0.19525894196E+04  0.19525894196E+04  0.50400001928E-02 0. -1.
       -1   -1    0    0    0  501  0.00000000000E+00  0.00000000000E+00 -0.12459248630E+04  0.12459248630E+04  0.50400001928E-02 0.  1.
    10030    2    1    2    0    0  0.00000000000E+00  0.00000000000E+00  0.70666455655E+03  0.31985142826E+04  0.31194741256E+04 0.  0.
        1    1    3    3  502    0 -0.10721323898E+04  0.10991447384E+04  0.72171516336E+02  0.15371388177E+04  0.50400001928E-02 0. -1.
       -1    1    3    3    0  502  0.10721323898E+04 -0.10991447384E+04  0.63449304021E+03  0.16613754649E+04  0.50400001928E-02 0.  1.
</event>
<event>
 5   0  0.1273754E-06  0.3218793E+04  0.7818609E-02  0.8183872E-01
        1   -1    0    0  501    0  0.00000000000E+00  0.00000000000E+00  0.24381649044E+04  0.24381649044E+04  0.50400001928E-02 0.  1.
       -1   -1    0    0    0  501  0.00000000000E+00  0.00000000000E+00 -0.10623388730E+04  0.10623388730E+04  0.50400001928E-02 0. -1.
    10030    2    1    2    0    0  0.00000000000E+00  0.00000000000E+00  0.13758260314E+04  0.35005037774E+04  0.32187931631E+04 0.  0.
        2    1    3    3  502    0 -0.53828699653E+03 -0.10753755768E+04 -0.47526221764E+03  0.12930814736E+04  0.25500000920E-02 0. -1.
       -2    1    3    3    0  502  0.53828699653E+03  0.10753755768E+04  0.18510882490E+04  0.22074223038E+04  0.25500000920E-02 0.  1.
</event>
<event>
 5   0  0.1273754E-06  0.3177965E+04  0.7818609E-02  0.8194661E-01
       -1   -1    0    0    0  501  0.00000000000E+00  0.00000000000E+00  0.13887333933E+04  0.13887333933E+04  0.50400001928E-02 0. -1.
        1   -1    0    0  501    0  0.00000000000E+00  0.00000000000E+00 -0.18181067459E+04  0.18181067459E+04  0.50400001928E-02 0.  1.
    10030    2    1    2    0    0  0.00000000000E+00  0.00000000000E+00 -0.42937335260E+03  0.32068401392E+04  0.31779651041E+04 0.  0.
        2    1    3    3  502    0  0.69650079712E+03 -0.74373527354E+03  0.10156577796E+04  0.14386855955E+04  0.25500000920E-02 0. -1.
       -2    1    3    3    0  502 -0.69650079712E+03  0.74373527354E+03 -0.14450311322E+04  0.17681545437E+04  0.25500000920E-02 0.  1.
</event>
<event>
 5   0  0.3656086E-06  0.3151633E+04  0.7818609E-02  0.8201709E-01
       -2   -1    0    0    0  501  0.00000000000E+00  0.00000000000E+00  0.93296314486E+03  0.93296314486E+03  0.25500000920E-02 0.  1.
        2   -1    0    0  501    0  0.00000000000E+00  0.00000000000E+00 -0.26616250746E+04  0.26616250746E+04  0.25500000920E-02 0. -1.
    10030    2    1    2    0    0  0.00000000000E+00  0.00000000000E+00 -0.17286619298E+04  0.35945882195E+04  0.31516332909E+04 0.  0.
        3    1    3    3  502    0  0.76622622843E+03  0.44477108417E+03 -0.23506682269E+04  0.25120838111E+04  0.10100000352E+00 0. -1.
       -3    1    3    3    0  502 -0.76622622843E+03 -0.44477108417E+03  0.62200629714E+03  0.10825044085E+04  0.10100000352E+00 0.  1.
</event>
<event>
 5   0  0.3758062E-06  0.3263081E+04  0.7818609E-02  0.8172353E-01
        2   -1    0    0  501    0  0.00000000000E+00  0.00000000000E+00  0.18577562966E+04  0.18577562966E+04  0.25500000920E-02 0.  1.
       -2   -1    0    0    0  501  0.00000000000E+00  0.00000000000E+00 -0.14328707524E+04  0.14328707524E+04  0.25500000920E-02 0. -1.
    10030    2    1    2    0    0  0.00000000000E+00  0.00000000000E+00  0.42488554429E+03  0.32906270490E+04  0.32630811589E+04 0.  0.
        2    1    3    3  502    0 -0.14844375531E+04 -0.67547587332E+03  0.25867911330E+03  0.16512835578E+04  0.25500000920E-02 0. -1.
       -2    1    3    3    0  502  0.14844375531E+04  0.67547587332E+03  0.16620643099E+03  0.16393434912E+04  0.25500000920E-02 0.  1.
</event>
<event>
 5   0  0.3758062E-06  0.3197541E+04  0.7818609E-02  0.8189467E-01
        2   -1    0    0  501    0  0.00000000000E+00  0.00000000000E+00  0.26609391892E+04  0.26609391892E+04  0.25500000920E-02 0. -1.
       -2   -1    0    0    0  501  0.00000000000E+00  0.00000000000E+00 -0.96058837550E+03  0.96058837550E+03  0.25500000920E-02 0.  1.
    10030    2    1    2    0    0  0.00000000000E+00  0.00000000000E+00  0.17003508137E+04  0.36215275647E+04  0.31975410885E+04 0.  0.
        2    1    3    3  502    0  0.47753018023E+03  0.67664613620E+03 -0.69870404851E+03  0.10835462215E+04  0.25500000920E-02 0.  1.
       -2    1    3    3    0  502 -0.47753018023E+03 -0.67664613620E+03  0.23990548622E+04  0.25379813433E+04  0.25500000920E-02 0. -1.
</event>
<event>
 5   0  0.1273980E-06  0.2660762E+04  0.7818609E-02  0.8347850E-01
        1   -1    0    0  501    0  0.00000000000E+00  0.00000000000E+00  0.13158732795E+04  0.13158732796E+04  0.50400001928E-02 0. -1.
       -1   -1    0    0    0  501  0.00000000000E+00  0.00000000000E+00 -0.13450486838E+04  0.13450486839E+04  0.50400001928E-02 0.  1.
    10030    2    1    2    0    0  0.00000000000E+00  0.00000000000E+00 -0.29175404305E+02  0.26609219634E+04  0.26607620132E+04 0.  0.
        4    1    3    3  502    0  0.60099493496E+03  0.46286175642E+03 -0.11075743019E+04  0.13424449205E+04  0.12699999809E+01 0.  1.
       -4    1    3    3    0  502 -0.60099493496E+03 -0.46286175642E+03  0.10783988976E+04  0.13184770429E+04  0.12699999809E+01 0. -1.
</event>
<event>
 5   0  0.1185575E-06  0.3239541E+04  0.7818609E-02  0.8178452E-01
        3   -1    0    0  501    0  0.00000000000E+00  0.00000000000E+00  0.17783695849E+04  0.17783695878E+04  0.10100000352E+00 0. -1.
       -3   -1    0    0    0  501  0.00000000000E+00  0.00000000000E+00 -0.14753159643E+04  0.14753159677E+04  0.10100000352E+00 0.  1.
    10030    2    1    2    0    0  0.00000000000E+00  0.00000000000E+00  0.30305362066E+03  0.32536855555E+04  0.32395413560E+04 0.  0.
        4    1    3    3  502    0 -0.11851073399E+04 -0.10040970782E+04 -0.30978794416E+03  0.15838751633E+04  0.12699999809E+01 0.  1.
       -4    1    3    3    0  502  0.11851073399E+04  0.10040970782E+04  0.61284156482E+03  0.16698103922E+04  0.12699999809E+01 0. -1.
</event>
<event>
 5   0  0.3531437E-06  0.3177896E+04  0.7818609E-02  0.8194679E-01
       -2   -1    0    0    0  501  0.00000000000E+00  0.00000000000E+00  0.10611544281E+04  0.10611544281E+04  0.25500000920E-02 0. -1.
        2   -1    0    0  501    0  0.00000000000E+00  0.00000000000E+00 -0.23792536651E+04  0.23792536651E+04  0.25500000920E-02 0.  1.
    10030    2    1    2    0    0  0.00000000000E+00  0.00000000000E+00 -0.13180992370E+04  0.34404080932E+04  0.31778958840E+04 0.  0.
        1    1    3    3  502    0 -0.13618573318E+04 -0.48057761368E+03  0.58371950126E+02  0.14453433915E+04  0.50400001928E-02 0. -1.
       -1    1    3    3    0  502  0.13618573318E+04  0.48057761368E+03 -0.13764711871E+04  0.19950647017E+04  0.50400001928E-02 0.  1.
</event>
<event>
 5   0  0.3656086E-06  0.3211731E+04  0.7818609E-02  0.8185726E-01
       -2   -1    0    0    0  501  0.00000000000E+00  0.00000000000E+00  0.12672574981E+04  0.12672574981E+04  0.25500000920E-02 0. -1.
        2   -1    0    0  501    0  0.00000000000E+00  0.00000000000E+00 -0.20349490615E+04  0.20349490615E+04  0.25500000920E-02 0.  1.
    10030    2    1    2    0    0  0.00000000000E+00  0.00000000000E+00 -0.76769156345E+03  0.33022065596E+04  0.32117312817E+04 0.  0.
        3    1    3    3  502    0 -0.15158695824E+04  0.30213374710E+03 -0.83161251464E+03  0.17551993553E+04  0.10100000352E+00 0.  1.
       -3    1    3    3    0  502  0.15158695824E+04 -0.30213374710E+03  0.63920951192E+02  0.15470072043E+04  0.10100000352E+00 0. -1.
</event>
<event>
 5   0  0.1273754E-06  0.3176420E+04  0.7818609E-02  0.8195072E-01
       -1   -1    0    0    0  501  0.00000000000E+00  0.00000000000E+00  0.11246819371E+04  0.11246819371E+04  0.50400001928E-02 0.  1.
        1   -1    0    0  501    0  0.00000000000E+00  0.00000000000E+00 -0.22427774623E+04  0.22427774623E+04  0.50400001928E-02 0. -1.
    10030    2    1    2    0    0  0.00000000000E+00  0.00000000000E+00 -0.11180955252E+04  0.33674593995E+04  0.31764201868E+04 0.  0.
        2    1    3    3  502    0  0.51368628108E+03 -0.12488806018E+04 -0.14452885396E+04  0.19779876935E+04  0.25500000920E-02 0. -1.
       -2    1    3    3    0  502 -0.51368628108E+03  0.12488806018E+04  0.32719301434E+03  0.13894717060E+04  0.25500000920E-02 0.  1.
</event>
<event>
 5   0  0.3656086E-06  0.3156881E+04  0.7818609E-02  0.8200298E-01
       -2   -1    0    0    0  501  0.00000000000E+00  0.00000000000E+00  0.15267036066E+04  0.15267036066E+04  0.25500000920E-02 0. -1.
        2   -1    0    0  501    0  0.00000000000E+00  0.00000000000E+00 -0.16319307801E+04  0.16319307802E+04  0.25500000920E-02 0.  1.
    10030    2    1    2    0    0  0.00000000000E+00  0.00000000000E+00 -0.10522717351E+03  0.31586343868E+04  0.31568811241E+04 0.  0.
        3    1    3    3  502    0  0.11466000475E+04  0.97368671906E+03 -0.53112296110E+03  0.15952583195E+04  0.10100000352E+00 0.  1.
       -3    1    3    3    0  502 -0.11466000475E+04 -0.97368671906E+03  0.42589578760E+03  0.15633760673E+04  0.10100000352E+00 0. -1.
</event>
<event>
 5   0  0.3758062E-06  0.3228974E+04  0.7818609E-02  0.8181207E-01
       -2   -1    0    0    0  501  0.00000000000E+00  0.00000000000E+00  0.16078030977E+04  0.16078030977E+04  0.25500000920E-02 0. -1.
        2   -1    0    0  501    0  0.00000000000E+00  0.00000000000E+00 -0.16211990320E+04  0.16211990320E+04  0.25500000920E-02 0.  1.
    10030    2    1    2    0    0  0.00000000000E+00  0.00000000000E+00 -0.13395934338E+02  0.32290021297E+04  0.32289743422E+04 0.  0.
        2    1    3    3  502    0  0.12920461678E+04  0.65463962406E+03 -0.71988885520E+03  0.16174598298E+04  0.25500000920E-02 0.  1.
       -2    1    3    3    0  502 -0.12920461678E+04 -0.65463962406E+03  0.70649292087E+03  0.16115422999E+04  0.25500000920E-02 0. -1.
</event>
<event>
 5   0  0.3656086E-06  0.3200887E+04  0.7818609E-02  0.8188583E-01
        2   -1    0    0  501    0  0.00000000000E+00  0.00000000000E+00  0.16227838789E+04  0.16227838789E+04  0.25500000920E-02 0.  1.
       -2   -1    0    0    0  501  0.00000000000E+00  0.00000000000E+00 -0.15784109622E+04  0.15784109622E+04  0.25500000920E-02 0. -1.
    10030    2    1    2    0    0  0.00000000000E+00  0.00000000000E+00  0.44372916739E+02  0.32011948411E+04  0.32008872918E+04 0.  0.
        3    1    3    3  502    0  0.11012437468E+04  0.78005761113E+03  0.88261334824E+03  0.16125241081E+04  0.10100000352E+00 0.  1.
       -3    1    3    3    0  502 -0.11012437468E+04 -0.78005761113E+03 -0.83824043150E+03  0.15886707330E+04  0.10100000352E+00 0. -1.
</event>
<event>
 5   0  0.1306843E-06  0.3162816E+04  0.7818609E-02  0.8198707E-01
        1   -1    0    0  501    0  0.00000000000E+00  0.00000000000E+00  0.11587855631E+04  0.11587855631E+04  0.50400001928E-02 0. -1.
       -1   -1    0    0    0  501  0.00000000000E+00  0.00000000000E+00 -0.21581656722E+04  0.21581656722E+04  0.50400001928E-02 0.  1.
    10030    2    1    2    0    0  0.00000000000E+00  0.00000000000E+00 -0.99938010911E+03  0.33169512354E+04  0.31628159756E+04 0.  0.
        5    1    3    3  502    0  0.50528548078E+02  0.89053448927E+03 -0.18691707740E+04  0.20710930165E+04  0.46999998093E+01 0.  1.
       -5    1    3    3    0  502 -0.50528548078E+02 -0.89053448927E+03  0.86979066487E+03  0.12458582188E+04  0.46999998093E+01 0. -1.
</event>
<event>
 5   0  0.1306843E-06  0.3147051E+04  0.7818609E-02  0.8202942E-01
       -1   -1    0    0    0  501  0.00000000000E+00  0.00000000000E+00  0.13990502676E+04  0.13990502676E+04  0.50400001928E-02 0. -1.
        1   -1    0    0  501    0  0.00000000000E+00  0.00000000000E+00 -0.17697599791E+04  0.17697599791E+04  0.50400001928E-02 0.  1.
    10030    2    1    2    0    0  0.00000000000E+00  0.00000000000E+00 -0.37070971151E+03  0.31688102468E+04  0.31470514279E+04 0.  0.
        5    1    3    3  502    0 -0.12177812229E+04  0.78813844758E+03  0.42862146255E+03  0.15125778551E+04  0.46999998093E+01 0.  1.
       -5    1    3    3    0  502  0.12177812229E+04 -0.78813844758E+03 -0.79933117406E+03  0.16562323917E+04  0.46999998093E+01 0. -1.
</event>
<event>
 5   0  0.3531437E-06  0.3160709E+04  0.7818609E-02  0.8199272E-01
       -2   -1    0    0    0  501  0.00000000000E+00  0.00000000000E+00  0.74922727457E+03  0.74922727458E+03  0.25500000920E-02 0.  1.
        2   -1    0    0  501    0  0.00000000000E+00  0.00000000000E+00 -0.33334608555E+04  0.33334608555E+04  0.25500000920E-02 0. -1.
    10030    2    1    2    0    0  0.00000000000E+00  0.00000000000E+00 -0.25842335810E+04  0.40826881301E+04  0.31607086495E+04 0.  0.
        1    1    3    3  502    0 -0.26496104239E+03  0.67690439600E+03 -0.31046976020E+04  0.31886597679E+04  0.50400001928E-02 0. -1.
       -1    1    3    3    0  502  0.26496104239E+03 -0.67690439600E+03  0.52046402103E+03  0.89402836226E+03  0.50400001928E-02 0.  1.
</event>
<event>
 5   0  0.1273980E-06  0.3167312E+04  0.7818609E-02  0.8197504E-01
        1   -1    0    0  501    0  0.00000000000E+00  0.00000000000E+00  0.20809274404E+04  0.20809274404E+04  0.50400001928E-02 0. -1.
       -1   -1    0    0    0  501  0.00000000000E+00  0.00000000000E+00 -0.12052158988E+04  0.12052158988E+04  0.50400001928E-02 0.  1.
    10030    2    1    2    0    0  0.00000000000E+00  0.00000000000E+00  0.87571154157E+03  0.32861433392E+04  0.31673123215E+04 0.  0.
        4    1    3    3  502    0 -0.77690967681E+02  0.11566041740E+04  0.15573160454E+04  0.19413922788E+04  0.12699999809E+01 0. -1.
       -4    1    3    3    0  502  0.77690967681E+02 -0.11566041740E+04 -0.68160450387E+03  0.13447510604E+04  0.12699999809E+01 0.  1.
</event>
<event>
 5   0  0.3758062E-06  0.3245769E+04  0.7818609E-02  0.8176833E-01
        2   -1    0    0  501    0  0.00000000000E+00  0.00000000000E+00  0.26928252874E+04  0.26928252874E+04  0.25500000920E-02 0. -1.
       -2   -1    0    0    0  501  0.00000000000E+00  0.00000000000E+00 -0.97806331266E+03  0.97806331266E+03  0.25500000920E-02 0.  1.
    10030    2    1    2    0    0  0.00000000000E+00  0.00000000000E+00  0.17147619747E+04  0.36708886001E+04  0.32457687046E+04 0.  0.
        2    1    3    3  502    0  0.11314638739E+04 -0.90024438142E+03  0.16908602680E+04  0.22247828861E+04  0.25500000920E-02 0. -1.
       -2    1    3    3    0  502 -0.11314638739E+04  0.90024438142E+03  0.23901706701E+02  0.14461057139E+04  0.25500000920E-02 0.  1.
</event>
<event>
 5   0  0.1268836E-06  0.3203807E+04  0.7818609E-02  0.8187812E-01
       -1   -1    0    0    0  501  0.00000000000E+00  0.00000000000E+00  0.10862281178E+04  0.10862281178E+04  0.50400001928E-02 0. -1.
        1   -1    0    0  501    0  0.00000000000E+00  0.00000000000E+00 -0.23623910072E+04  0.23623910072E+04  0.50400001928E-02 0.  1.
    10030    2    1    2    0    0  0.00000000000E+00  0.00000000000E+00 -0.12761628894E+04  0.34486191250E+04  0.32038074457E+04 0.  0.
        1    1    3    3  502    0 -0.12956294304E+04 -0.85217870118E+03 -0.20586268935E+03  0.15643668389E+04  0.50400001928E-02 0. -1.
       -1    1    3    3    0  502  0.12956294304E+04  0.85217870118E+03 -0.10703002000E+04  0.18842522862E+04  0.50400001928E-02 0.  1.
</event>
<event>
 5   0  0.3497546E-06  0.2443867E+04  0.7818609E-02  0.8423261E-01
        2   -1    0    0  501    0  0.00000000000E+00  0.00000000000E+00  0.15904056003E+04  0.15904056003E+04  0.25500000920E-02 0.  1.
       -2   -1    0    0    0  501  0.00000000000E+00  0.00000000000E+00 -0.93883064018E+03  0.93883064018E+03  0.25500000920E-02 0. -1.
    10030    2    1    2    0    0  0.00000000000E+00  0.00000000000E+00  0.65157496017E+03  0.25292362405E+04  0.24438670241E+04 0.  0.
        4    1    3    3  502    0  0.82508082467E+03  0.79135141194E+03  0.77227935731E+03  0.13796421431E+04  0.12699999809E+01 0.  1.
       -4    1    3    3    0  502 -0.82508082467E+03 -0.79135141194E+03 -0.12070439714E+03  0.11495940974E+04  0.12699999809E+01 0. -1.
</event>
<event>
 5   0  0.1273980E-06  0.3193221E+04  0.7818609E-02  0.8190610E-01
        1   -1    0    0  501    0  0.00000000000E+00  0.00000000000E+00  0.15399738416E+04  0.15399738416E+04  0.50400001928E-02 0. -1.
       -1   -1    0    0    0  501  0.00000000000E+00  0.00000000000E+00 -0.16553298025E+04  0.16553298025E+04  0.50400001928E-02 0.  1.
    10030    2    1    2    0    0  0.00000000000E+00  0.00000000000E+00 -0.11535596094E+03  0.31953036441E+04  0.31932206908E+04 0.  0.
        4    1    3    3  502    0 -0.94577306352E+03  0.36068135060E+03  0.11778684149E+04  0.15530464707E+04  0.12699999809E+01 0. -1.
       -4    1    3    3    0  502  0.94577306352E+03 -0.36068135060E+03 -0.12932243759E+04  0.16422571734E+04  0.12699999809E+01 0.  1.
</event>
<event>
 5   0  0.3745943E-06  0.3191668E+04  0.7818609E-02  0.8191021E-01
        2   -1    0    0  501    0  0.00000000000E+00  0.00000000000E+00  0.18521316261E+04  0.18521316261E+04  0.25500000920E-02 0. -1.
       -2   -1    0    0    0  501  0.00000000000E+00  0.00000000000E+00 -0.13750029088E+04  0.13750029088E+04  0.25500000920E-02 0.  1.
    10030    2    1    2    0    0  0.00000000000E+00  0.00000000000E+00  0.47712871731E+03  0.32271345349E+04  0.31916681365E+04 0.  0.
        5    1    3    3  502    0  0.93602795221E+03  0.11872412437E+04 -0.27796869554E+03  0.15371983553E+04  0.46999998093E+01 0. -1.
       -5    1    3    3    0  502 -0.93602795221E+03 -0.11872412437E+04  0.75509741285E+03  0.16899361795E+04  0.46999998093E+01 0.  1.
</event>
<event>
 5   0  0.1273980E-06  0.3547652E+04  0.7818609E-02  0.8102589E-01
       -1   -1    0    0    0  501  0.00000000000E+00  0.00000000000E+00  0.14555248506E+04  0.14555248506E+04  0.50400001928E-02 0.  1.
        1   -1    0    0  501    0  0.00000000000E+00  0.00000000000E+00 -0.21617343914E+04  0.21617343914E+04  0.50400001928E-02 0. -1.
    10030    2    1    2    0    0  0.00000000000E+00  0.00000000000E+00 -0.70620954083E+03  0.36172592421E+04  0.35476516893E+04 0.  0.
        4    1    3    3  502    0 -0.98436623365E+03 -0.15114581315E+03 -0.18497727710E+04  0.21008290877E+04  0.12699999809E+01 0. -1.
       -4    1    3    3    0  502  0.98436623365E+03  0.15114581315E+03  0.11435632301E+04  0.15164301543E+04  0.12699999809E+01 0.  1.
</event>
<event>
 5   0  0.1306843E-06  0.3249317E+04  0.7818609E-02  0.8175913E-01
       -1   -1    0    0    0  501  0.00000000000E+00  0.00000000000E+00  0.21368209827E+04  0.21368209827E+04  0.50400001928E-02 0.  1.
        1   -1    0    0  501    0  0.00000000000E+00  0.00000000000E+00 -0.12352532555E+04  0.12352532555E+04  0.50400001928E-02 0. -1.
    10030    2    1    2    0    0  0.00000000000E+00  0.00000000000E+00  0.90156772724E+03  0.33720742382E+04  0.32493168976E+04 0.  0.
        5    1    3    3  502    0  0.89970841882E+03 -0.12188910009E+04 -0.15817470182E+03  0.15232241586E+04  0.46999998093E+01 0. -1.
       -5    1    3    3    0  502 -0.89970841882E+03  0.12188910009E+04  0.10597424291E+04  0.18488500796E+04  0.46999998093E+01 0.  1.
</event>
<event>
 5   0  0.3531437E-06  0.3185141E+04  0.7818609E-02  0.8192752E-01
        2   -1    0    0  501    0  0.00000000000E+00  0.00000000000E+00  0.19370791128E+04  0.19370791128E+04  0.25500000920E-02 0.  1.
       -2   -1    0    0    0  501  0.00000000000E+00  0.00000000000E+00 -0.13093324877E+04  0.13093324877E+04  0.25500000920E-02 0. -1.
    10030    2    1    2    0    0  0.00000000000E+00  0.00000000000E+00  0.62774662506E+03  0.32464116005E+04  0.31851408845E+04 0.  0.
        1    1    3    3  502    0  0.13109215121E+04  0.19047485614E+03  0.12148948736E+04  0.17974330128E+04  0.50400001928E-02 0. -1.
       -1    1    3    3    0  502 -0.13109215121E+04 -0.19047485614E+03 -0.58714824850E+03  0.14489785876E+04  0.50400001928E-02 0.  1.
</event>
<event>
 5   0  0.1240725E-06  0.3355113E+04  0.7818609E-02  0.8149012E-01
       -1   -1    0    0    0  501  0.00000000000E+00  0.00000000000E+00  0.20647768586E+04  0.20647768586E+04  0.50400001928E-02 0. -1.
        1   -1    0    0  501    0  0.00000000000E+00  0.00000000000E+00 -0.13629539178E+04  0.13629539178E+04  0.50400001928E-02 0.  1.
    10030    2    1    2    0    0  0.00000000000E+00  0.00000000000E+00  0.70182294076E+03  0.34277307764E+04  0.33551129393E+04 0.  0.
        3    1    3    3  502    0 -0.73263158442E+02 -0.49170467005E+02 -0.13605816439E+04  0.13634396375E+04  0.10100000352E+00 0.  1.
       -3    1    3    3    0  502  0.73263158442E+02  0.49170467005E+02  0.20624045846E+04  0.20642911389E+04  0.10100000352E+00 0. -1.
</event>
<event>
 5   0  0.3531437E-06  0.2398149E+04  0.7818609E-02  0.8440197E-01
        2   -1    0    0  501    0  0.00000000000E+00  0.00000000000E+00  0.15828080496E+04  0.15828080496E+04  0.25500000920E-02 0.  1.
       -2   -1    0    0    0  501  0.00000000000E+00  0.00000000000E+00 -0.90837271676E+03  0.90837271677E+03  0.25500000920E-02 0. -1.
    10030    2    1    2    0    0  0.00000000000E+00  0.00000000000E+00  0.67443533285E+03  0.24911807664E+04  0.23981489930E+04 0.  0.
        1    1    3    3  502    0  0.83834302075E+03  0.64627614151E+03  0.92235222850E+03  0.14040033850E+04  0.50400001928E-02 0.  1.
       -1    1    3    3    0  502 -0.83834302075E+03 -0.64627614151E+03 -0.24791689565E+03  0.10871773814E+04  0.50400001928E-02 0. -1.
</event>
<event>
 5   0  0.1240725E-06  0.3132356E+04  0.7818609E-02  0.8206914E-01
        1   -1    0    0  501    0  0.00000000000E+00  0.00000000000E+00  0.20662489974E+04  0.20662489974E+04  0.50400001928E-02 0.  1.
       -1   -1    0    0    0  501  0.00000000000E+00  0.00000000000E+00 -0.11871336699E+04  0.11871336699E+04  0.50400001928E-02 0. -1.
    10030    2    1    2    0    0  0.00000000000E+00  0.00000000000E+00  0.87911532751E+03  0.32533826673E+04  0.31323561453E+04 0.  0.
        3    1    3    3  502    0  0.40209432156E+03  0.42269592681E+03  0.19491815228E+04  0.20346155187E+04  0.10100000352E+00 0.  1.
       -3    1    3    3    0  502 -0.40209432156E+03 -0.42269592681E+03 -0.10700661953E+04  0.12187671486E+04  0.10100000352E+00 0. -1.
</event>
<event>
 5   0  0.1306843E-06  0.3059969E+04  0.7818609E-02  0.8226811E-01
        1   -1    0    0  501    0  0.00000000000E+00  0.00000000000E+00  0.23814644023E+04  0.23814644023E+04  0.50400001928E-02 0.  1.
       -1   -1    0    0    0  501  0.00000000000E+00  0.00000000000E+00 -0.98294641278E+03  0.98294641279E+03  0.50400001928E-02 0. -1.
    10030    2    1    2    0    0  0.00000000000E+00  0.00000000000E+00  0.13985179895E+04  0.33644108151E+04  0.30599685563E+04 0.  0.
        5    1    3    3  502    0  0.70562485088E+03 -0.11523769448E+04  0.14882551799E+04  0.20101752719E+04  0.46999998093E+01 0.  1.
       -5    1    3    3    0  502 -0.70562485088E+03  0.11523769448E+04 -0.89737190389E+02  0.13542355432E+04  0.46999998093E+01 0. -1.
</event>
<event>
 5   0  0.3497546E-06  0.2819859E+04  0.7818609E-02  0.8297129E-01
        2   -1    0    0  501    0  0.00000000000E+00  0.00000000000E+00  0.13817359037E+04  0.13817359037E+04  0.25500000920E-02 0.  1.
       -2   -1    0    0    0  501  0.00000000000E+00  0.00000000000E+00 -0.14386982676E+04  0.14386982676E+04  0.25500000920E-02 0. -1.
    10030    2    1    2    0    0  0.00000000000E+00  0.00000000000E+00 -0.56962363877E+02  0.28204341714E+04  0.28198588979E+04 0.  0.
        4    1    3    3  502    0 -0.55508879986E+03  0.11481450027E+04 -0.62988490972E+03  0.14223632220E+04  0.12699999809E+01 0. -1.
       -4    1    3    3    0  502  0.55508879986E+03 -0.11481450027E+04  0.57292254584E+03  0.13980709493E+04  0.12699999809E+01 0.  1.
</event>
<event>
 5   0  0.3758062E-06  0.3246502E+04  0.7818609E-02  0.8176643E-01
        2   -1    0    0  501    0  0.00000000000E+00  0.00000000000E+00  0.13626251058E+04  0.13626251058E+04  0.25500000920E-02 0. -1.
       -2   -1    0    0    0  501  0.00000000000E+00  0.00000000000E+00 -0.19337264557E+04  0.19337264557E+04  0.25500000920E-02 0.  1.
    10030    2    1    2    0    0  0.00000000000E+00  0.00000000000E+00 -0.57110134986E+03  0.32963515615E+04  0.32465022509E+04 0.  0.
        2    1    3    3  502    0  0.20997156441E+03  0.14025577553E+04 -0.10874160765E+04  0.17871010151E+04  0.25500000920E-02 0.  1.
       -2    1    3    3    0  502 -0.20997156441E+03 -0.14025577553E+04  0.51631472661E+03  0.15092505464E+04  0.25500000920E-02 0. -1.
</event>
<event>
 5   0  0.1273980E-06  0.3182502E+04  0.7818609E-02  0.8193454E-01
        1   -1    0    0  501    0  0.00000000000E+00  0.00000000000E+00  0.12231829296E+04  0.12231829297E+04  0.50400001928E-02 0.  1.
       -1   -1    0    0    0  501  0.00000000000E+00  0.00000000000E+00 -0.20700742883E+04  0.20700742883E+04  0.50400001928E-02 0. -1.
    10030    2    1    2    0    0  0.00000000000E+00  0.00000000000E+00 -0.84689135870E+03  0.32932572180E+04  0.31825018665E+04 0.  0.
        4    1    3    3  502    0  0.23641677322E+03  0.60270654992E+03  0.10807333304E+04  0.12598151532E+04  0.12699999809E+01 0.  1.
       -4    1    3    3    0  502 -0.23641677322E+03 -0.60270654992E+03 -0.19276246891E+04  0.20334420648E+04  0.12699999809E+01 0. -1.
</event>
<event>
 5   0  0.3745943E-06  0.2658838E+04  0.7818609E-02  0.8348485E-01
        2   -1    0    0  501    0  0.00000000000E+00  0.00000000000E+00  0.19470621628E+04  0.19470621628E+04  0.25500000920E-02 0. -1.
       -2   -1    0    0    0  501  0.00000000000E+00  0.00000000000E+00 -0.90770349545E+03  0.90770349546E+03  0.25500000920E-02 0.  1.
    10030    2    1    2    0    0  0.00000000000E+00  0.00000000000E+00  0.10393586674E+04  0.28547656583E+04  0.26588381907E+04 0.  0.
        5    1    3    3  502    0  0.62777975102E+03  0.43390002542E+03 -0.64909250749E+03  0.10018581841E+04  0.46999998093E+01 0.  1.
       -5    1    3    3    0  502 -0.62777975102E+03 -0.43390002542E+03  0.16884511749E+04  0.18529074742E+04  0.46999998093E+01 0. -1.
</event>
<event>
 5   0  0.1268836E-06  0.3125391E+04  0.7818609E-02  0.8208804E-01
        1   -1    0    0  501    0  0.00000000000E+00  0.00000000000E+00  0.20125008816E+04  0.20125008816E+04  0.50400001928E-02 0.  1.
       -1   -1    0    0    0  501  0.00000000000E+00  0.00000000000E+00 -0.12134244726E+04  0.12134244726E+04  0.50400001928E-02 0. -1.
    10030    2    1    2    0    0  0.00000000000E+00  0.00000000000E+00  0.79907640897E+03  0.32259253542E+04  0.31253913809E+04 0.  0.
        1    1    3    3  502    0 -0.32985071808E+03  0.15028928425E+04  0.11775584630E+03  0.15431639031E+04  0.50400001928E-02 0. -1.
       -1    1    3    3    0  502  0.32985071808E+03 -0.15028928425E+04  0.68132056267E+03  0.16827614512E+04  0.50400001928E-02 0.  1.
</event>
<event>
 5   0  0.3497546E-06  0.3196719E+04  0.7818609E-02  0.8189684E-01
        2   -1    0    0  501    0  0.00000000000E+00  0.00000000000E+00  0.14816466396E+04  0.14816466396E+04  0.25500000920E-02 0. -1.
       -2   -1    0    0    0  501  0.00000000000E+00  0.00000000000E+00 -0.17242658148E+04  0.17242658148E+04  0.25500000920E-02 0.  1.
    10030    2    1    2    0    0  0.00000000000E+00  0.00000000000E+00 -0.24261917513E+03  0.32059124544E+04  0.31967187241E+04 0.  0.
        4    1    3    3  502    0  0.11312324285E+04  0.12944267071E+03 -0.12462793648E+04  0.16880924383E+04  0.12699999809E+01 0.  1.
       -4    1    3    3    0  502 -0.11312324285E+04 -0.12944267071E+03  0.10036601896E+04  0.15178200161E+04  0.12699999809E+01 0. -1.
</event>
<event>
 5   0  0.1273754E-06  0.3207262E+04  0.7818609E-02  0.8186902E-01
       -1   -1    0    0    0  501  0.00000000000E+00  0.00000000000E+00  0.16669610784E+04  0.16669610784E+04  0.50400001928E-02 0.  1.
        1   -1    0    0  501    0  0.00000000000E+00  0.00000000000E+00 -0.15427066432E+04  0.15427066432E+04  0.50400001928E-02 0. -1.
    10030    2    1    2    0    0  0.00000000000E+00  0.00000000000E+00  0.12425443527E+03  0.32096677216E+04  0.32072617165E+04 0.  0.
        2    1    3    3  502    0  0.12980976229E+04 -0.12296197580E+03 -0.87209054059E+03  0.15686679053E+04  0.25500000920E-02 0. -1.
       -2    1    3    3    0  502 -0.12980976229E+04  0.12296197580E+03  0.99634497586E+03  0.16409998163E+04  0.25500000920E-02 0.  1.
</event>
<event>
 5   0  0.1273754E-06  0.3220722E+04  0.7818609E-02  0.8183366E-01
       -1   -1    0    0    0  501  0.00000000000E+00  0.00000000000E+00  0.15241799447E+04  0.15241799447E+04  0.50400001928E-02 0. -1.
        1   -1    0    0  501    0  0.00000000000E+00  0.00000000000E+00 -0.17014149773E+04  0.17014149773E+04  0.50400001928E-02 0.  1.
    10030    2    1    2    0    0  0.00000000000E+00  0.00000000000E+00 -0.17723503253E+03  0.32255949220E+04  0.32207220222E+04 0.  0.
        2    1    3    3  502    0  0.56345204690E+03 -0.11425650051E+04 -0.10751609734E+04  0.16670045347E+04  0.25500000920E-02 0.  1.
       -2    1    3    3    0  502 -0.56345204690E+03  0.11425650051E+04  0.89792594091E+03  0.15585903873E+04  0.25500000920E-02 0. -1.
</event>
<event>
 5   0  0.3758062E-06  0.3218392E+04  0.7818609E-02  0.8183977E-01
       -2   -1    0    0    0  501  0.00000000000E+00  0.00000000000E+00  0.13853836113E+04  0.13853836113E+04  0.25500000920E-02 0.  1.
        2   -1    0    0  501    0  0.00000000000E+00  0.00000000000E+00 -0.18691656512E+04  0.18691656512E+04  0.25500000920E-02 0. -1.
    10030    2    1    2    0    0  0.00000000000E+00  0.00000000000E+00 -0.48378203994E+03  0.32545492625E+04  0.32183918096E+04 0.  0.
        2    1    3    3  502    0 -0.12883015264E+04  0.62184642789E+03  0.50333995882E+03  0.15164975822E+04  0.25500000920E-02 0.  1.
       -2    1    3    3    0  502  0.12883015264E+04 -0.62184642789E+03 -0.98712199877E+03  0.17380516803E+04  0.25500000920E-02 0. -1.
</event>
<event>
 5   0  0.1306843E-06  0.3212997E+04  0.7818609E-02  0.8185393E-01
        1   -1    0    0  501    0  0.00000000000E+00  0.00000000000E+00  0.13693207161E+04  0.13693207161E+04  0.50400001928E-02 0. -1.
       -1   -1    0    0    0  501  0.00000000000E+00  0.00000000000E+00 -0.18847578155E+04  0.18847578155E+04  0.50400001928E-02 0.  1.
    10030    2    1    2    0    0  0.00000000000E+00  0.00000000000E+00 -0.51543709942E+03  0.32540785315E+04  0.32129973056E+04 0.  0.
        5    1    3    3  502    0 -0.12609604209E+04  0.57981276163E+03  0.56170716093E+03  0.14972444844E+04  0.46999998093E+01 0. -1.
       -5    1    3    3    0  502  0.12609604209E+04 -0.57981276163E+03 -0.10771442604E+04  0.17568340471E+04  0.46999998093E+01 0.  1.
</event>
<event>
 5   0  0.1268836E-06  0.3198130E+04  0.7818609E-02  0.8189311E-01
       -1   -1    0    0    0  501  0.00000000000E+00  0.00000000000E+00  0.18278473448E+04  0.18278473448E+04  0.50400001928E-02 0. -1.
        1   -1    0    0  501    0  0.00000000000E+00  0.00000000000E+00 -0.13989180698E+04  0.13989180698E+04  0.50400001928E-02 0.  1.
    10030    2    1    2    0    0  0.00000000000E+00  0.00000000000E+00  0.42892927495E+03  0.32267654146E+04  0.31981298782E+04 0.  0.
        1    1    3    3  502    0 -0.55755996789E+03  0.13864882247E+04 -0.35965222946E+03  0.15370661798E+04  0.50400001928E-02 0. -1.
       -1    1    3    3    0  502  0.55755996789E+03 -0.13864882247E+04  0.78858150441E+03  0.16896992348E+04  0.50400001928E-02 0.  1.
</event>
<event>
 5   0  0.1306843E-06  0.3244884E+04  0.7818609E-02  0.8177063E-01
        1   -1    0    0  501    0  0.00000000000E+00  0.00000000000E+00  0.22750042978E+04  0.22750042978E+04  0.50400001928E-02 0. -1.
       -1   -1    0    0    0  501  0.00000000000E+00  0.00000000000E+00 -0.11570605140E+04  0.11570605140E+04  0.50400001928E-02 0.  1.
    10030    2    1    2    0    0  0.00000000000E+00  0.00000000000E+00  0.11179437837E+04  0.34320648118E+04  0.32448837527E+04 0.  0.
        5    1    3    3  502    0  0.11477031539E+04 -0.13751077579E+03  0.17631376774E+04  0.21082714015E+04  0.46999998093E+01 0. -1.
       -5    1    3    3    0  502 -0.11477031539E+04  0.13751077579E+03 -0.64519389365E+03  0.13237934103E+04  0.46999998093E+01 0.  1.
</event>
<event>
 5   0  0.3758062E-06  0.3213904E+04  0.7818609E-02  0.8185155E-01
        2   -1    0    0  501    0  0.00000000000E+00  0.00000000000E+00  0.88661889174E+03  0.88661889174E+03  0.25500000920E-02 0.  1.
       -2   -1    0    0    0  501  0.00000000000E+00  0.00000000000E+00 -0.29125186956E+04  0.29125186956E+04  0.25500000920E-02 0. -1.
    10030    2    1    2    0    0  0.00000000000E+00  0.00000000000E+00 -0.20258998038E+04  0.37991375873E+04  0.32139036066E+04 0.  0.
        2    1    3    3  502    0  0.12625731479E+04 -0.58569652186E+03 -0.19624320639E+04  0.24058825771E+04  0.25500000920E-02 0.  1.
       -2    1    3    3    0  502 -0.12625731479E+04  0.58569652186E+03 -0.63467739908E+02  0.13932550102E+04  0.25500000920E-02 0. -1.
</event>
<event>
 5   0  0.3758062E-06  0.3170471E+04  0.7818609E-02  0.8196660E-01
        2   -1    0    0  501    0  0.00000000000E+00  0.00000000000E+00  0.15962104743E+04  0.15962104743E+04  0.25500000920E-02 0.  1.
       -2   -1    0    0    0  501  0.00000000000E+00  0.00000000000E+00 -0.15743356964E+04  0.15743356964E+04  0.25500000920E-02 0. -1.
    10030    2    1    2    0    0  0.00000000000E+00  0.00000000000E+00  0.21874777941E+02  0.31705461707E+04  0.31704707087E+04 0.  0.
        2    1    3    3  502    0  0.13611040436E+04 -0.64560515099E+03 -0.48259325295E+03  0.15818680338E+04  0.25500000920E-02 0. -1.
       -2    1    3    3    0  502 -0.13611040436E+04  0.64560515099E+03  0.50446803089E+03  0.15886781369E+04  0.25500000920E-02 0.  1.
</event>
<event>
 5   0  0.1268836E-06  0.3205739E+04  0.7818609E-02  0.8187303E-01
       -1   -1    0    0    0  501  0.00000000000E+00  0.00000000000E+00  0.26810362445E+04  0.26810362445E+04  0.50400001928E-02 0.  1.
        1   -1    0    0  501    0  0.00000000000E+00  0.00000000000E+00 -0.95828288786E+03  0.95828288787E+03  0.50400001928E-02 0. -1.
    10030    2    1    2    0    0  0.00000000000E+00  0.00000000000E+00  0.17227533567E+04  0.36393191324E+04  0.32057393250E+04 0.  0.
        1    1    3    3  502    0  0.79183281998E+03  0.10993904976E+04  0.18336796394E+04  0.22799209857E+04  0.50400001928E-02 0.  1.
       -1    1    3    3    0  502 -0.79183281998E+03 -0.10993904976E+04 -0.11092628276E+03  0.13593981467E+04  0.50400001928E-02 0. -1.
</event>
<event>
 5   0  0.3656086E-06  0.3217053E+04  0.7818609E-02  0.8184328E-01
        2   -1    0    0  501    0  0.00000000000E+00  0.00000000000E+00  0.15619412679E+04  0.15619412679E+04  0.25500000920E-02 0. -1.
       -2   -1    0    0    0  501  0.00000000000E+00  0.00000000000E+00 -0.16565013839E+04  0.16565013839E+04  0.25500000920E-02 0.  1.
    10030    2    1    2    0    0  0.00000000000E+00  0.00000000000E+00 -0.94560115982E+02  0.32184426517E+04  0.32170532304E+04 0.  0.
        3    1    3    3  502    0 -0.89331614858E+03 -0.13304896384E+04  0.91132297248E+02  0.16051546732E+04  0.10100000352E+00 0.  1.
       -3    1    3    3    0  502  0.89331614858E+03  0.13304896384E+04 -0.18569241323E+03  0.16132879785E+04  0.10100000352E+00 0. -1.
</event>
<event>
 5   0  0.3656086E-06  0.3217662E+04  0.7818609E-02  0.8184168E-01
       -2   -1    0    0    0  501  0.00000000000E+00  0.00000000000E+00  0.10888920428E+04  0.10888920428E+04  0.25500000920E-02 0. -1.
        2   -1    0    0  501    0  0.00000000000E+00  0.00000000000E+00 -0.23770372770E+04  0.23770372770E+04  0.25500000920E-02 0.  1.
    10030    2    1    2    0    0  0.00000000000E+00  0.00000000000E+00 -0.12881452342E+04  0.34659293197E+04  0.32176618693E+04 0.  0.
        3    1    3    3  502    0  0.10563175559E+03 -0.66171413161E+03 -0.22195656762E+04  0.23185114753E+04  0.10100000352E+00 0.  1.
       -3    1    3    3    0  502 -0.10563175559E+03  0.66171413161E+03  0.93142044204E+03  0.11474178445E+04  0.10100000352E+00 0. -1.
</event>
<event>
 5   0  0.3497546E-06  0.3139334E+04  0.7818609E-02  0.8205025E-01
        2   -1    0    0  501    0  0.00000000000E+00  0.00000000000E+00  0.13017957723E+04  0.13017957723E+04  0.25500000920E-02 0.  1.
       -2   -1    0    0    0  501  0.00000000000E+00  0.00000000000E+00 -0.18926578877E+04  0.18926578877E+04  0.25500000920E-02 0. -1.
    10030    2    1    2    0    0  0.00000000000E+00  0.00000000000E+00 -0.59086211545E+03  0.31944536600E+04  0.31393337106E+04 0.  0.
        4    1    3    3  502    0 -0.36784700049E+03 -0.67430150171E+03 -0.16883553248E+04  0.18548690645E+04  0.12699999809E+01 0. -1.
       -4    1    3    3    0  502  0.36784700049E+03  0.67430150171E+03  0.10974932093E+04  0.13395845955E+04  0.12699999809E+01 0.  1.
</event>
<event>
 5   0  0.1273980E-06  0.3208371E+04  0.7818609E-02  0.8186610E-01
       -1   -1    0    0    0  501  0.00000000000E+00  0.00000000000E+00  0.10881677441E+04  0.10881677441E+04  0.50400001928E-02 0.  1.
        1   -1    0    0  501    0  0.00000000000E+00  0.00000000000E+00 -0.23649033388E+04  0.23649033388E+04  0.50400001928E-02 0. -1.
    10030    2    1    2    0    0  0.00000000000E+00  0.00000000000E+00 -0.12767355947E+04  0.34530710829E+04  0.32083712573E+04 0.  0.
        4    1    3    3  502    0 -0.94801277248E+03 -0.26352352359E+03 -0.20019787775E+04  0.22307159171E+04  0.12699999809E+01 0. -1.
       -4    1    3    3    0  502  0.94801277248E+03  0.26352352359E+03  0.72524318276E+03  0.12223551658E+04  0.12699999809E+01 0.  1.
</event>
<event>
 5   0  0.1273980E-06  0.3193066E+04  0.7818609E-02  0.8190651E-01
       -1   -1    0    0    0  501  0.00000000000E+00  0.00000000000E+00  0.10804182321E+04  0.10804182321E+04  0.50400001928E-02 0.  1.
        1   -1    0    0  501    0  0.00000000000E+00  0.00000000000E+00 -0.23591955071E+04  0.23591955071E+04  0.50400001928E-02 0. -1.
    10030    2    1    2    0    0  0.00000000000E+00  0.00000000000E+00 -0.12787772750E+04  0.34396137392E+04  0.31930661371E+04 0.  0.
        4    1    3    3  502    0  0.46315600699E+03 -0.65413245299E+03  0.84799055046E+03  0.11668300388E+04  0.12699999809E+01 0.  1.
       -4    1    3    3    0  502 -0.46315600699E+03  0.65413245299E+03 -0.21267678254E+04  0.22727837004E+04  0.12699999809E+01 0. -1.
</event>
<event>
 5   0  0.3745943E-06  0.2739945E+04  0.7818609E-02  0.8322159E-01
       -2   -1    0    0    0  501  0.00000000000E+00  0.00000000000E+00  0.14839127821E+04  0.14839127821E+04  0.25500000920E-02 0.  1.
        2   -1    0    0  501    0  0.00000000000E+00  0.00000000000E+00 -0.12647812481E+04  0.12647812481E+04  0.25500000920E-02 0. -1.
    10030    2    1    2    0    0  0.00000000000E+00  0.00000000000E+00  0.21913153397E+03  0.27486940302E+04  0.27399452992E+04 0.  0.
        5    1    3    3  502    0  0.42365196912E+03  0.11799487375E+04  0.66363624078E+03  0.14185186513E+04  0.46999998093E+01 0. -1.
       -5    1    3    3    0  502 -0.42365196912E+03 -0.11799487375E+04 -0.44450470682E+03  0.13301753788E+04  0.46999998093E+01 0.  1.
</event>
<event>
 5   0  0.1273980E-06  0.3121061E+04  0.7818609E-02  0.8209982E-01
       -1   -1    0    0    0  501  0.00000000000E+00  0.00000000000E+00  0.10655185199E+04  0.10655185200E+04  0.50400001928E-02 0.  1.
        1   -1    0    0  501    0  0.00000000000E+00  0.00000000000E+00 -0.22855115825E+04  0.22855115826E+04  0.50400001928E-02 0. -1.
    10030    2    1    2    0    0  0.00000000000E+00  0.00000000000E+00 -0.12199930626E+04  0.33510301025E+04  0.31210606651E+04 0.  0.
        4    1    3    3  502    0  0.11194464353E+03  0.70880668927E+03 -0.20978574319E+04  0.22171932581E+04  0.12699999809E+01 0. -1.
       -4    1    3    3    0  502 -0.11194464353E+03 -0.70880668927E+03  0.87786436934E+03  0.11338368444E+04  0.12699999809E+01 0.  1.
</event>
<event>
 5   0  0.3656086E-06  0.3203538E+04  0.7818609E-02  0.8187883E-01
        2   -1    0    0  501    0  0.00000000000E+00  0.00000000000E+00  0.12570805993E+04  0.12570805993E+04  0.25500000920E-02 0. -1.
       -2   -1    0    0    0  501  0.00000000000E+00  0.00000000000E+00 -0.20409697897E+04  0.20409697897E+04  0.25500000920E-02 0.  1.
    10030    2    1    2    0    0  0.00000000000E+00  0.00000000000E+00 -0.78388919040E+03  0.32980503891E+04  0.32035377485E+04 0.  0.
        3    1    3    3  502    0  0.14923598236E+04  0.69381444532E+02  0.20277641314E+03  0.15076703592E+04  0.10100000352E+00 0. -1.
       -3    1    3    3    0  502 -0.14923598236E+04 -0.69381444532E+02 -0.98666560354E+03  0.17903800299E+04  0.10100000352E+00 0.  1.
</event>
<event>
 5   0  0.3656086E-06  0.3033784E+04  0.7818609E-02  0.8234149E-01
       -2   -1    0    0    0  501  0.00000000000E+00  0.00000000000E+00  0.11748829305E+04  0.11748829305E+04  0.25500000920E-02 0.  1.
        2   -1    0    0  501    0  0.00000000000E+00  0.00000000000E+00 -0.19584603586E+04  0.19584603586E+04  0.25500000920E-02 0. -1.
    10030    2    1    2    0    0  0.00000000000E+00  0.00000000000E+00 -0.78357742807E+03  0.31333432891E+04  0.30337842016E+04 0.  0.
        3    1    3    3  502    0  0.11276792563E+04 -0.12432738559E+03 -0.14317300114E+04  0.18267371567E+04  0.10100000352E+00 0. -1.
       -3    1    3    3    0  502 -0.11276792563E+04  0.12432738559E+03  0.64815258330E+03  0.13066061324E+04  0.10100000352E+00 0.  1.
</event>
<event>
 5   0  0.1273980E-06  0.3180290E+04  0.7818609E-02  0.8194042E-01
       -1   -1    0    0    0  501  0.00000000000E+00  0.00000000000E+00  0.15373030944E+04  0.15373030944E+04  0.50400001928E-02 0. -1.
        1   -1    0    0  501    0  0.00000000000E+00  0.00000000000E+00 -0.16448032503E+04  0.16448032503E+04  0.50400001928E-02 0.  1.
    10030    2    1    2    0    0  0.00000000000E+00  0.00000000000E+00 -0.10750015589E+03  0.31821063446E+04  0.31802900033E+04 0.  0.
        4    1    3    3  502    0  0.23065478436E+02 -0.15034184803E+04  0.46400112340E+03  0.15735621369E+04  0.12699999809E+01 0.  1.
       -4    1    3    3    0  502 -0.23065478436E+02  0.15034184803E+04 -0.57150127929E+03  0.16085442078E+04  0.12699999809E+01 0. -1.
</event>
<event>
 5   0  0.1240725E-06  0.2984569E+04  0.7818609E-02  0.8248151E-01
       -1   -1    0    0    0  501  0.00000000000E+00  0.00000000000E+00  0.15577322458E+04  0.15577322458E+04  0.50400001928E-02 0. -1.
        1   -1    0    0  501    0  0.00000000000E+00  0.00000000000E+00 -0.14295867261E+04  0.14295867261E+04  0.50400001928E-02 0.  1.
    10030    2    1    2    0    0  0.00000000000E+00  0.00000000000E+00  0.12814551968E+03  0.29873189719E+04  0.29845692094E+04 0.  0.
        3    1    3    3  502    0 -0.14114698975E+04 -0.35889340198E+03 -0.26159078053E+03  0.14796896608E+04  0.10100000352E+00 0.  1.
       -3    1    3    3    0  502  0.14114698975E+04  0.35889340198E+03  0.38973630020E+03  0.15076293111E+04  0.10100000352E+00 0. -1.
</event>
<event>
 5   0  0.1273980E-06  0.3178393E+04  0.7818609E-02  0.8194547E-01
        1   -1    0    0  501    0  0.00000000000E+00  0.00000000000E+00  0.26983294368E+04  0.26983294368E+04  0.50400001928E-02 0. -1.
       -1   -1    0    0    0  501  0.00000000000E+00  0.00000000000E+00 -0.93596634647E+03  0.93596634649E+03  0.50400001928E-02 0.  1.
    10030    2    1    2    0    0  0.00000000000E+00  0.00000000000E+00  0.17623630904E+04  0.36342957833E+04  0.31783930182E+04 0.  0.
        4    1    3    3  502    0  0.55390179013E+03 -0.13274797001E+04  0.10859094780E+03  0.14424989269E+04  0.12699999809E+01 0. -1.
       -4    1    3    3    0  502 -0.55390179013E+03  0.13274797001E+04  0.16537721426E+04  0.21917968564E+04  0.12699999809E+01 0.  1.
</event>
<event>
 5   0  0.3745943E-06  0.3211287E+04  0.7818609E-02  0.8185843E-01
       -2   -1    0    0    0  501  0.00000000000E+00  0.00000000000E+00  0.20294172296E+04  0.20294172296E+04  0.25500000920E-02 0. -1.
        2   -1    0    0  501    0  0.00000000000E+00  0.00000000000E+00 -0.12703605858E+04  0.12703605858E+04  0.25500000920E-02 0.  1.
    10030    2    1    2    0    0  0.00000000000E+00  0.00000000000E+00  0.75905664382E+03  0.32997778154E+04  0.32112873809E+04 0.  0.
        5    1    3    3  502    0 -0.85300021549E+02 -0.11483670163E+04 -0.77025441819E+03  0.13854013341E+04  0.46999998093E+01 0.  1.
       -5    1    3    3    0  502  0.85300021549E+02  0.11483670163E+04  0.15293110620E+04  0.19143764813E+04  0.46999998093E+01 0. -1.
</event>
<event>
 5   0  0.1273980E-06  0.3361742E+04  0.7818609E-02  0.8147360E-01
       -1   -1    0    0    0  501  0.00000000000E+00  0.00000000000E+00  0.12162237897E+04  0.12162237897E+04  0.50400001928E-02 0.  1.
        1   -1    0    0  501    0  0.00000000000E+00  0.00000000000E+00 -0.23230320960E+04  0.23230320960E+04  0.50400001928E-02 0. -1.
    10030    2    1    2    0    0  0.00000000000E+00  0.00000000000E+00 -0.11068083062E+04  0.35392558857E+04  0.33617417506E+04 0.  0.
        4    1    3    3  502    0  0.78677924932E+03  0.13658670315E+04  0.61122412397E+02  0.15774510760E+04  0.12699999809E+01 0.  1.
       -4    1    3    3    0  502 -0.78677924932E+03 -0.13658670315E+04 -0.11679307186E+04  0.19618048097E+04  0.12699999809E+01 0. -1.
</event>
<event>
 5   0  0.1273754E-06  0.3203014E+04  0.7818609E-02  0.8188022E-01
       -1   -1    0    0    0  501  0.00000000000E+00  0.00000000000E+00  0.10701808037E+04  0.10701808037E+04  0.50400001928E-02 0.  1.
        1   -1    0    0  501    0  0.00000000000E+00  0.00000000000E+00 -0.23966267003E+04  0.23966267003E+04  0.50400001928E-02 0. -1.
    10030    2    1    2    0    0  0.00000000000E+00  0.00000000000E+00 -0.13264458966E+04  0.34668075040E+04  0.32030135112E+04 0.  0.
        2    1    3    3  502    0 -0.15960762206E+04  0.10743314672E+03 -0.58063182624E+03  0.17018033084E+04  0.25500000920E-02 0. -1.
       -2    1    3    3    0  502  0.15960762206E+04 -0.10743314672E+03 -0.74581407040E+03  0.17650041956E+04  0.25500000920E-02 0.  1.
</event>
<event>
 5   0  0.1306843E-06  0.3200148E+04  0.7818609E-02  0.8188778E-01
       -1   -1    0    0    0  501  0.00000000000E+00  0.00000000000E+00  0.10463809519E+04  0.10463809519E+04  0.50400001928E-02 0. -1.
        1   -1    0    0  501    0  0.00000000000E+00  0.00000000000E+00 -0.24467539244E+04  0.24467539244E+04  0.50400001928E-02 0.  1.
    10030    2    1    2    0    0  0.00000000000E+00  0.00000000000E+00 -0.14003729725E+04  0.34931348764E+04  0.32001479344E+04 0.  0.
        5    1    3    3  502    0  0.18748516479E+03 -0.60600531356E+03 -0.23036277514E+04  0.23893756578E+04  0.46999998093E+01 0.  1.
       -5    1    3    3    0  502 -0.18748516479E+03  0.60600531356E+03  0.90325477885E+03  0.11037592186E+04  0.46999998093E+01 0. -1.
</event>
<event>
 5   0  0.3758062E-06  0.2835384E+04  0.7818609E-02  0.8292366E-01
       -2   -1    0    0    0  501  0.00000000000E+00  0.00000000000E+00  0.12002746871E+04  0.12002746871E+04  0.25500000920E-02 0. -1.
        2   -1    0    0  501    0  0.00000000000E+00  0.00000000000E+00 -0.16744927408E+04  0.16744927408E+04  0.25500000920E-02 0.  1.
    10030    2    1    2    0    0  0.00000000000E+00  0.00000000000E+00 -0.47421805367E+03  0.28747674279E+04  0.28353844540E+04 0.  0.
        2    1    3    3  502    0 -0.10221600290E+04  0.98008625952E+03 -0.16931436437E+03  0.14262003909E+04  0.25500000920E-02 0.  1.
       -2    1    3    3    0  502  0.10221600290E+04 -0.98008625952E+03 -0.30490368929E+03  0.14485670370E+04  0.25500000920E-02 0. -1.
</event>
<event>
 5   0  0.3497546E-06  0.3034222E+04  0.7818609E-02  0.8234026E-01
        2   -1    0    0  501    0  0.00000000000E+00  0.00000000000E+00  0.10235819798E+04  0.10235819798E+04  0.25500000920E-02 0. -1.
       -2   -1    0    0    0  501  0.00000000000E+00  0.00000000000E+00 -0.22485991145E+04  0.22485991145E+04  0.25500000920E-02 0.  1.
    10030    2    1    2    0    0  0.00000000000E+00  0.00000000000E+00 -0.12250171347E+04  0.32721810943E+04  0.30342218333E+04 0.  0.
        4    1    3    3  502    0  0.27266187172E+03 -0.34435922920E+03  0.95351035044E+03  0.10498149248E+04  0.12699999809E+01 0. -1.
       -4    1    3    3    0  502 -0.27266187172E+03  0.34435922920E+03 -0.21785274851E+04  0.22223661695E+04  0.12699999809E+01 0.  1.
</event>
<event>
 5   0  0.3656086E-06  0.3263306E+04  0.7818609E-02  0.8172295E-01
       -2   -1    0    0    0  501  0.00000000000E+00  0.00000000000E+00  0.15810855341E+04  0.15810855341E+04  0.25500000920E-02 0.  1.
        2   -1    0    0  501    0  0.00000000000E+00  0.00000000000E+00 -0.16838378095E+04  0.16838378095E+04  0.25500000920E-02 0. -1.
    10030    2    1    2    0    0  0.00000000000E+00  0.00000000000E+00 -0.10275227544E+03  0.32649233436E+04  0.32633060551E+04 0.  0.
        3    1    3    3  502    0  0.11434065330E+02 -0.53615571960E+03  0.14903930647E+04  0.15839397688E+04  0.10100000352E+00 0.  1.
       -3    1    3    3    0  502 -0.11434065330E+02  0.53615571960E+03 -0.15931453402E+04  0.16809835748E+04  0.10100000352E+00 0. -1.
</event>
<event>
 5   0  0.1268836E-06  0.3193706E+04  0.7818609E-02  0.8190481E-01
       -1   -1    0    0    0  501  0.00000000000E+00  0.00000000000E+00  0.24323863515E+04  0.24323863515E+04  0.50400001928E-02 0. -1.
        1   -1    0    0  501    0  0.00000000000E+00  0.00000000000E+00 -0.10483280815E+04  0.10483280815E+04  0.50400001928E-02 0.  1.
    10030    2    1    2    0    0  0.00000000000E+00  0.00000000000E+00  0.13840582700E+04  0.34807144330E+04  0.31937056329E+04 0.  0.
        1    1    3    3  502    0  0.46766397276E+03 -0.23009440911E+03 -0.95301524912E+03  0.10862279197E+04  0.50400001928E-02 0.  1.
       -1    1    3    3    0  502 -0.46766397276E+03  0.23009440911E+03  0.23370735191E+04  0.23944865133E+04  0.50400001928E-02 0. -1.
</event>
<event>
 5   0  0.1240725E-06  0.3189606E+04  0.7818609E-02  0.8191568E-01
        1   -1    0    0  501    0  0.00000000000E+00  0.00000000000E+00  0.15235979707E+04  0.15235979707E+04  0.50400001928E-02 0. -1.
       -1   -1    0    0    0  501  0.00000000000E+00  0.00000000000E+00 -0.16693355087E+04  0.16693355087E+04  0.50400001928E-02 0.  1.
    10030    2    1    2    0    0  0.00000000000E+00  0.00000000000E+00 -0.14573753803E+03  0.31929334794E+04  0.31896057395E+04 0.  0.
        3    1    3    3  502    0 -0.15529077677E+04  0.18778631223E+03  0.23827692376E+03  0.15822648756E+04  0.10100000352E+00 0. -1.
       -3    1    3    3    0  502  0.15529077677E+04 -0.18778631223E+03 -0.38401446179E+03  0.16106686037E+04  0.10100000352E+00 0.  1.
</event>
<event>
 5   0  0.1306843E-06  0.3181123E+04  0.7818609E-02  0.8193820E-01
        1   -1    0    0  501    0  0.00000000000E+00  0.00000000000E+00  0.17448720709E+04  0.17448720709E+04  0.50400001928E-02 0. -1.
       -1   -1    0    0    0  501  0.00000000000E+00  0.00000000000E+00 -0.14498979621E+04  0.14498979621E+04  0.50400001928E-02 0.  1.
    10030    2    1    2    0    0  0.00000000000E+00  0.00000000000E+00  0.29497410873E+03  0.31947700330E+04  0.31811233612E+04 0.  0.
        5    1    3    3  502    0 -0.15273084729E+03 -0.35710862870E+03  0.16965081201E+04  0.17404066123E+04  0.46999998093E+01 0. -1.
       -5    1    3    3    0  502  0.15273084729E+03  0.35710862870E+03 -0.14015340114E+04  0.14543634207E+04  0.46999998093E+01 0.  1.
</event>
<event>
 5   0  0.1306843E-06  0.3046134E+04  0.7818609E-02  0.8230678E-01
        1   -1    0    0  501    0  0.00000000000E+00  0.00000000000E+00  0.16086008441E+04  0.16086008441E+04  0.50400001928E-02 0. -1.
       -1   -1    0    0    0  501  0.00000000000E+00  0.00000000000E+00 -0.14420809214E+04  0.14420809214E+04  0.50400001928E-02 0.  1.
    10030    2    1    2    0    0  0.00000000000E+00  0.00000000000E+00  0.16651992273E+03  0.30506817655E+04  0.30461336723E+04 0.  0.
        5    1    3    3  502    0  0.64597862990E+03 -0.12893136961E+04  0.57398369737E+03  0.15521267899E+04  0.46999998093E+01 0. -1.
       -5    1    3    3    0  502 -0.64597862990E+03  0.12893136961E+04 -0.40746377464E+03  0.14985549756E+04  0.46999998093E+01 0.  1.
</event>
<event>
 5   0  0.3758062E-06  0.3184537E+04  0.7818609E-02  0.8192913E-01
        2   -1    0    0  501    0  0.00000000000E+00  0.00000000000E+00  0.14180765492E+04  0.14180765492E+04  0.25500000920E-02 0.  1.
       -2   -1    0    0    0  501  0.00000000000E+00  0.00000000000E+00 -0.17878574888E+04  0.17878574888E+04  0.25500000920E-02 0. -1.
    10030    2    1    2    0    0  0.00000000000E+00  0.00000000000E+00 -0.36978093958E+03  0.32059340381E+04  0.31845368758E+04 0.  0.
        2    1    3    3  502    0 -0.25814116547E+03  0.16637660562E+03 -0.17577583945E+04  0.17843857794E+04  0.25500000920E-02 0. -1.
       -2    1    3    3    0  502  0.25814116547E+03 -0.16637660562E+03  0.13879774550E+04  0.14215482586E+04  0.25500000920E-02 0.  1.
</event>
<event>
 5   0  0.3758062E-06  0.3162666E+04  0.7818609E-02  0.8198747E-01
       -2   -1    0    0    0  501  0.00000000000E+00  0.00000000000E+00  0.10661556739E+04  0.10661556739E+04  0.25500000920E-02 0. -1.
        2   -1    0    0  501    0  0.00000000000E+00  0.00000000000E+00 -0.23454491243E+04  0.23454491243E+04  0.25500000920E-02 0.  1.
    10030    2    1    2    0    0  0.00000000000E+00  0.00000000000E+00 -0.12792934504E+04  0.34116047982E+04  0.31626658956E+04 0.  0.
        2    1    3    3  502    0  0.80865621997E+03 -0.12991001068E+04 -0.10698186803E+04  0.18671095250E+04  0.25500000920E-02 0.  1.
       -2    1    3    3    0  502 -0.80865621997E+03  0.12991001068E+04 -0.20947477012E+03  0.15444952732E+04  0.25500000920E-02 0. -1.
</event>
<event>
 5   0  0.1240725E-06  0.3199834E+04  0.7818609E-02  0.8188861E-01
       -1   -1    0    0    0  501  0.00000000000E+00  0.00000000000E+00  0.15858590558E+04  0.15858590558E+04  0.50400001928E-02 0.  1.
        1   -1    0    0  501    0  0.00000000000E+00  0.00000000000E+00 -0.16140992151E+04  0.16140992151E+04  0.50400001928E-02 0. -1.
    10030    2    1    2    0    0  0.00000000000E+00  0.00000000000E+00 -0.28240159366E+02  0.31999582709E+04  0.31998336565E+04 0.  0.
        3    1    3    3  502    0 -0.58950937525E+03 -0.40667564440E+03 -0.14448495756E+04  0.16126055592E+04  0.10100000352E+00 0. -1.
       -3    1    3    3    0  502  0.58950937525E+03  0.40667564440E+03  0.14166094162E+04  0.15873527118E+04  0.10100000352E+00 0.  1.
</event>
<event>
 5   0  0.1268836E-06  0.2504725E+04  0.7818609E-02  0.8401304E-01
       -1   -1    0    0    0  501  0.00000000000E+00  0.00000000000E+00  0.66929142434E+03  0.66929142435E+03  0.50400001928E-02 0. -1.
        1   -1    0    0  501    0  0.00000000000E+00  0.00000000000E+00 -0.23433922023E+04  0.23433922023E+04  0.50400001928E-02 0.  1.
    10030    2    1    2    0    0  0.00000000000E+00  0.00000000000E+00 -0.16741007779E+04  0.30126836266E+04  0.25047253781E+04 0.  0.
        1    1    3    3  502    0 -0.53959601456E+03  0.11214950928E+04 -0.66910056016E+03  0.14130147422E+04  0.50400001928E-02 0. -1.
       -1    1    3    3    0  502  0.53959601456E+03 -0.11214950928E+04 -0.10050002178E+04  0.15996688844E+04  0.50400001928E-02 0.  1.
</event>
<event>
 5   0  0.3531437E-06  0.3139093E+04  0.7818609E-02  0.8205090E-01
        2   -1    0    0  501    0  0.00000000000E+00  0.00000000000E+00  0.25103918422E+04  0.25103918422E+04  0.25500000920E-02 0. -1.
       -2   -1    0    0    0  501  0.00000000000E+00  0.00000000000E+00 -0.98131152742E+03  0.98131152742E+03  0.25500000920E-02 0.  1.
    10030    2    1    2    0    0  0.00000000000E+00  0.00000000000E+00  0.15290803147E+04  0.34917033696E+04  0.31390931512E+04 0.  0.
        1    1    3    3  502    0  0.11998679082E+04 -0.32435065076E+03  0.18306305303E+04  0.22127120193E+04  0.50400001928E-02 0. -1.
       -1    1    3    3    0  502 -0.11998679082E+04  0.32435065076E+03 -0.30155021556E+03  0.12789913503E+04  0.50400001928E-02 0.  1.
</event>
<event>
 5   0  0.3745943E-06  0.3194383E+04  0.7818609E-02  0.8190302E-01
        2   -1    0    0  501    0  0.00000000000E+00  0.00000000000E+00  0.14851100208E+04  0.14851100208E+04  0.25500000920E-02 0.  1.
       -2   -1    0    0    0  501  0.00000000000E+00  0.00000000000E+00 -0.17177317814E+04  0.17177317815E+04  0.25500000920E-02 0. -1.
    10030    2    1    2    0    0  0.00000000000E+00  0.00000000000E+00 -0.23262176068E+03  0.32028418022E+04  0.31943829962E+04 0.  0.
        5    1    3    3  502    0  0.10419885319E+04 -0.85354104557E+03  0.74428953742E+03  0.15389156646E+04  0.46999998093E+01 0.  1.
       -5    1    3    3    0  502 -0.10419885319E+04  0.85354104557E+03 -0.97691129811E+03  0.16639261376E+04  0.46999998093E+01 0. -1.
</event>
<event>
 5   0  0.1273754E-06  0.3202181E+04  0.7818609E-02  0.8188241E-01
        1   -1    0    0  501    0  0.00000000000E+00  0.00000000000E+00  0.17366385129E+04  0.17366385129E+04  0.50400001928E-02 0. -1.
       -1   -1    0    0    0  501  0.00000000000E+00  0.00000000000E+00 -0.14761227122E+04  0.14761227122E+04  0.50400001928E-02 0.  1.
    10030    2    1    2    0    0  0.00000000000E+00  0.00000000000E+00  0.26051580066E+03  0.32127612251E+04  0.32021814763E+04 0.  0.
        2    1    3    3  502    0 -0.13776702551E+04  0.49340906937E+03  0.78206864458E+03  0.16592345242E+04  0.25500000920E-02 0. -1.
       -2    1    3    3    0  502  0.13776702551E+04 -0.49340906937E+03 -0.52155284392E+03  0.15535267009E+04  0.25500000920E-02 0.  1.
</event>
<event>
 5   0  0.1273754E-06  0.3138831E+04  0.7818609E-02  0.8205161E-01
        1   -1    0    0  501    0  0.00000000000E+00  0.00000000000E+00  0.22632384641E+04  0.22632384641E+04  0.50400001928E-02 0. -1.
       -1   -1    0    0    0  501  0.00000000000E+00  0.00000000000E+00 -0.10882920969E+04  0.10882920969E+04  0.50400001928E-02 0.  1.
    10030    2    1    2    0    0  0.00000000000E+00  0.00000000000E+00  0.11749463672E+04  0.33515305610E+04  0.31388306956E+04 0.  0.
        2    1    3    3  502    0  0.89100883756E+03 -0.10236025382E+03  0.19626480536E+04  0.21578604571E+04  0.25500000920E-02 0. -1.
       -2    1    3    3    0  502 -0.89100883756E+03  0.10236025382E+03 -0.78770168641E+03  0.11936701039E+04  0.25500000920E-02 0.  1.
</event>
<event>
 5   0  0.1240725E-06  0.3182124E+04  0.7818609E-02  0.8193554E-01
        1   -1    0    0  501    0  0.00000000000E+00  0.00000000000E+00  0.13759079833E+04  0.13759079833E+04  0.50400001928E-02 0.  1.
       -1   -1    0    0    0  501  0.00000000000E+00  0.00000000000E+00 -0.18398603654E+04  0.18398603654E+04  0.50400001928E-02 0. -1.
    10030    2    1    2    0    0  0.00000000000E+00  0.00000000000E+00 -0.46395238208E+03  0.32157683487E+04  0.31821241741E+04 0.  0.
        3    1    3    3  502    0  0.79489801197E+03  0.37787865999E+03  0.11074897961E+04  0.14146338006E+04  0.10100000352E+00 0.  1.
       -3    1    3    3    0  502 -0.79489801197E+03 -0.37787865999E+03 -0.15714421781E+04  0.18011345481E+04  0.10100000352E+00 0. -1.
</event>
<event>
 5   0  0.3656086E-06  0.3132533E+04  0.7818609E-02  0.8206866E-01
        2   -1    0    0  501    0  0.00000000000E+00  0.00000000000E+00  0.12883607510E+04  0.12883607510E+04  0.25500000920E-02 0. -1.
       -2   -1    0    0    0  501  0.00000000000E+00  0.00000000000E+00 -0.19041174447E+04  0.19041174447E+04  0.25500000920E-02 0.  1.
    10030    2    1    2    0    0  0.00000000000E+00  0.00000000000E+00 -0.61575669369E+03  0.31924781957E+04  0.31325326373E+04 0.  0.
        3    1    3    3  502    0 -0.65710553995E+03 -0.49863680964E+03  0.10490526838E+04  0.13345178538E+04  0.10100000352E+00 0. -1.
       -3    1    3    3    0  502  0.65710553995E+03  0.49863680964E+03 -0.16648093774E+04  0.18579603419E+04  0.10100000352E+00 0.  1.
</event>
<event>
 5   0  0.1306843E-06  0.3186623E+04  0.7818609E-02  0.8192359E-01
        1   -1    0    0  501    0  0.00000000000E+00  0.00000000000E+00  0.25658960296E+04  0.25658960296E+04  0.50400001928E-02 0. -1.
       -1   -1    0    0    0  501  0.00000000000E+00  0.00000000000E+00 -0.98937807910E+03  0.98937807911E+03  0.50400001928E-02 0.  1.
    10030    2    1    2    0    0  0.00000000000E+00  0.00000000000E+00  0.15765179505E+04  0.35552741088E+04  0.31866228424E+04 0.  0.
        5    1    3    3  502    0 -0.72363547810E+03  0.73092970111E+03  0.21458777030E+04  0.23796469779E+04  0.46999998093E+01 0. -1.
       -5    1    3    3    0  502  0.72363547810E+03 -0.73092970111E+03 -0.56935975246E+03  0.11756271309E+04  0.46999998093E+01 0.  1.
</event>
<event>
 5   0  0.1273754E-06  0.3225304E+04  0.7818609E-02  0.8182166E-01
        1   -1    0    0  501    0  0.00000000000E+00  0.00000000000E+00  0.21972975262E+04  0.21972975262E+04  0.50400001928E-02 0. -1.
       -1   -1    0    0    0  501  0.00000000000E+00  0.00000000000E+00 -0.11835660660E+04  0.11835660660E+04  0.50400001928E-02 0.  1.
    10030    2    1    2    0    0  0.00000000000E+00  0.00000000000E+00  0.10137314603E+04  0.33808635922E+04  0.32253041958E+04 0.  0.
        2    1    3    3  502    0 -0.15124847589E+04 -0.10235453600E+02 -0.79517944504E+02  0.15146082047E+04  0.25500000920E-02 0. -1.
       -2    1    3    3    0  502  0.15124847589E+04  0.10235453600E+02  0.10932494048E+04  0.18662553875E+04  0.25500000920E-02 0.  1.
</event>
<event>
 5   0  0.3656086E-06  0.3153555E+04  0.7818609E-02  0.8201192E-01
       -2   -1    0    0    0  501  0.00000000000E+00  0.00000000000E+00  0.15923131981E+04  0.15923131981E+04  0.25500000920E-02 0. -1.
        2   -1    0    0  501    0  0.00000000000E+00  0.00000000000E+00 -0.15613935609E+04  0.15613935609E+04  0.25500000920E-02 0.  1.
    10030    2    1    2    0    0  0.00000000000E+00  0.00000000000E+00  0.30919637176E+02  0.31537067590E+04  0.31535551839E+04 0.  0.
        3    1    3    3  502    0  0.18997211599E+03  0.20146375547E+01  0.15808254746E+04  0.15922005699E+04  0.10100000352E+00 0. -1.
       -3    1    3    3    0  502 -0.18997211599E+03 -0.20146375547E+01 -0.15499058374E+04  0.15615061891E+04  0.10100000352E+00 0.  1.
</event>
<event>
 5   0  0.3745943E-06  0.3214104E+04  0.7818609E-02  0.8185102E-01
        2   -1    0    0  501    0  0.00000000000E+00  0.00000000000E+00  0.20151203461E+04  0.20151203461E+04  0.25500000920E-02 0.  1.
       -2   -1    0    0    0  501  0.00000000000E+00  0.00000000000E+00 -0.12816190358E+04  0.12816190358E+04  0.25500000920E-02 0. -1.
    10030    2    1    2    0    0  0.00000000000E+00  0.00000000000E+00  0.73350131037E+03  0.32967393819E+04  0.32141042889E+04 0.  0.
        5    1    3    3  502    0  0.43398446338E+03 -0.36332164968E+03 -0.11759969811E+04  0.13051191996E+04  0.46999998093E+01 0. -1.
       -5    1    3    3    0  502 -0.43398446338E+03  0.36332164968E+03  0.19094982914E+04  0.19916201823E+04  0.46999998093E+01 0.  1.
</event>
<event>
 5   0  0.3745943E-06  0.3039184E+04  0.7818609E-02  0.8232629E-01
       -2   -1    0    0    0  501  0.00000000000E+00  0.00000000000E+00  0.21311098445E+04  0.21311098445E+04  0.25500000920E-02 0. -1.
        2   -1    0    0  501    0  0.00000000000E+00  0.00000000000E+00 -0.10835479526E+04  0.10835479526E+04  0.25500000920E-02 0.  1.
    10030    2    1    2    0    0  0.00000000000E+00  0.00000000000E+00  0.10475618919E+04  0.32146577972E+04  0.30391839095E+04 0.  0.
        5    1    3    3  502    0 -0.36299597237E+03 -0.55387648792E+03  0.19704438586E+04  0.20787535519E+04  0.46999998093E+01 0. -1.
       -5    1    3    3    0  502  0.36299597237E+03  0.55387648792E+03 -0.92288196672E+03  0.11359042452E+04  0.46999998093E+01 0.  1.
</event>
<event>
 5   0  0.3745943E-06  0.3187923E+04  0.7818609E-02  0.8192014E-01
       -2   -1    0    0    0  501  0.00000000000E+00  0.00000000000E+00  0.19577144804E+04  0.19577144804E+04  0.25500000920E-02 0. -1.
        2   -1    0    0  501    0  0.00000000000E+00  0.00000000000E+00 -0.12977957257E+04  0.12977957257E+04  0.25500000920E-02 0.  1.
    10030    2    1    2    0    0  0.00000000000E+00  0.00000000000E+00  0.65991875473E+03  0.32555102061E+04  0.31879231388E+04 0.  0.
        5    1    3    3  502    0  0.15309542640E+04  0.16943002697E+03 -0.88812594955E+02  0.15428665722E+04  0.46999998093E+01 0.  1.
       -5    1    3    3    0  502 -0.15309542640E+04 -0.16943002697E+03  0.74873134969E+03  0.17126436339E+04  0.46999998093E+01 0. -1.
</event>
<event>
 5   0  0.3758062E-06  0.3134409E+04  0.7818609E-02  0.8206358E-01
        2   -1    0    0  501    0  0.00000000000E+00  0.00000000000E+00  0.15222865916E+04  0.15222865916E+04  0.25500000920E-02 0. -1.
       -2   -1    0    0    0  501  0.00000000000E+00  0.00000000000E+00 -0.16134482187E+04  0.16134482187E+04  0.25500000920E-02 0.  1.
    10030    2    1    2    0    0  0.00000000000E+00  0.00000000000E+00 -0.91161627060E+02  0.31357348103E+04  0.31344094114E+04 0.  0.
        2    1    3    3  502    0 -0.12829572818E+04 -0.90006362396E+03 -0.39522219705E+02  0.15676912706E+04  0.25500000920E-02 0. -1.
       -2    1    3    3    0  502  0.12829572818E+04  0.90006362396E+03 -0.51639407355E+02  0.15680435397E+04  0.25500000920E-02 0.  1.
</event>
<event>
 5   0  0.3497546E-06  0.3191728E+04  0.7818609E-02  0.8191005E-01
        2   -1    0    0  501    0  0.00000000000E+00  0.00000000000E+00  0.30340757321E+04  0.30340757321E+04  0.25500000920E-02 0. -1.
       -2   -1    0    0    0  501  0.00000000000E+00  0.00000000000E+00 -0.83939275801E+03  0.83939275801E+03  0.25500000920E-02 0.  1.
    10030    2    1    2    0    0  0.00000000000E+00  0.00000000000E+00  0.21946829741E+04  0.38734684901E+04  0.31917275553E+04 0.  0.
        4    1    3    3  502    0  0.45135524235E+02 -0.15658236452E+04  0.14673165607E+04  0.21463598034E+04  0.12699999809E+01 0. -1.
       -4    1    3    3    0  502 -0.45135524235E+02  0.15658236452E+04  0.72736641339E+03  0.17271086867E+04  0.12699999809E+01 0.  1.
</event>
<event>
 5   0  0.3656086E-06  0.3218438E+04  0.7818609E-02  0.8183965E-01
        2   -1    0    0  501    0  0.00000000000E+00  0.00000000000E+00  0.29637560129E+04  0.29637560129E+04  0.25500000920E-02 0. -1.
       -2   -1    0    0    0  501  0.00000000000E+00  0.00000000000E+00 -0.87375107358E+03  0.87375107358E+03  0.25500000920E-02 0.  1.
    10030    2    1    2    0    0  0.00000000000E+00  0.00000000000E+00  0.20900049393E+04  0.38375070865E+04  0.32184375079E+04 0.  0.
        3    1    3    3  502    0 -0.56274233976E+03  0.38554726105E+02  0.28420219794E+04  0.28974565311E+04  0.10100000352E+00 0. -1.
       -3    1    3    3    0  502  0.56274233976E+03 -0.38554726105E+02 -0.75201704011E+03  0.94005055538E+03  0.10100000352E+00 0.  1.
</event>
<event>
 5   0  0.3745943E-06  0.2996703E+04  0.7818609E-02  0.8244673E-01
       -2   -1    0    0    0  501  0.00000000000E+00  0.00000000000E+00  0.12204518163E+04  0.12204518163E+04  0.25500000920E-02 0.  1.
        2   -1    0    0  501    0  0.00000000000E+00  0.00000000000E+00 -0.18395294713E+04  0.18395294713E+04  0.25500000920E-02 0. -1.
    10030    2    1    2    0    0  0.00000000000E+00  0.00000000000E+00 -0.61907765509E+03  0.30599812876E+04  0.29967029111E+04 0.  0.
        5    1    3    3  502    0 -0.99412060052E+02 -0.12718303839E+04  0.49293083546E+03  0.13676396388E+04  0.46999998093E+01 0.  1.
       -5    1    3    3    0  502  0.99412060052E+02  0.12718303839E+04 -0.11120084905E+04  0.16923416488E+04  0.46999998093E+01 0. -1.
</event>
<event>
 5   0  0.3531437E-06  0.2669627E+04  0.7818609E-02  0.8344928E-01
        2   -1    0    0  501    0  0.00000000000E+00  0.00000000000E+00  0.29635578158E+04  0.29635578158E+04  0.25500000920E-02 0. -1.
       -2   -1    0    0    0  501  0.00000000000E+00  0.00000000000E+00 -0.60121221997E+03  0.60121221997E+03  0.25500000920E-02 0.  1.
    10030    2    1    2    0    0  0.00000000000E+00  0.00000000000E+00  0.23623455958E+04  0.35647700358E+04  0.26696270702E+04 0.  0.
        1    1    3    3  502    0  0.91020487349E+02 -0.13272701539E+04  0.10361436312E+04  0.16862753082E+04  0.50400001928E-02 0.  1.
       -1    1    3    3    0  502 -0.91020487349E+02  0.13272701539E+04  0.13262019646E+04  0.18784947276E+04  0.50400001928E-02 0. -1.
</event>
<event>
 5   0  0.1185575E-06  0.3218137E+04  0.7818609E-02  0.8184044E-01
       -3   -1    0    0    0  501  0.00000000000E+00  0.00000000000E+00  0.19456204107E+04  0.19456204133E+04  0.10100000352E+00 0. -1.
        3   -1    0    0  501    0  0.00000000000E+00  0.00000000000E+00 -0.13307327926E+04  0.13307327965E+04  0.10100000352E+00 0.  1.
    10030    2    1    2    0    0  0.00000000000E+00  0.00000000000E+00  0.61488761808E+03  0.32763532098E+04  0.32181366616E+04 0.  0.
        5    1    3    3  502    0 -0.35853326072E+03  0.40702155845E+03 -0.12348421778E+04  0.13487290099E+04  0.46999998093E+01 0.  1.
       -5    1    3    3    0  502  0.35853326072E+03 -0.40702155845E+03  0.18497297959E+04  0.19276241999E+04  0.46999998093E+01 0. -1.
</event>
<event>
 5   0  0.3531437E-06  0.3108362E+04  0.7818609E-02  0.8213447E-01
        2   -1    0    0  501    0  0.00000000000E+00  0.00000000000E+00  0.14982383761E+04  0.14982383761E+04  0.25500000920E-02 0. -1.
       -2   -1    0    0    0  501  0.00000000000E+00  0.00000000000E+00 -0.16122119955E+04  0.16122119955E+04  0.25500000920E-02 0.  1.
    10030    2    1    2    0    0  0.00000000000E+00  0.00000000000E+00 -0.11397361940E+03  0.31104503717E+04  0.31083615505E+04 0.  0.
        1    1    3    3  502    0  0.12776188977E+04 -0.81164526671E+03  0.29595375892E+03  0.15422926811E+04  0.50400001928E-02 0. -1.
       -1    1    3    3    0  502 -0.12776188977E+04  0.81164526671E+03 -0.40992737832E+03  0.15681576905E+04  0.50400001928E-02 0.  1.
</event>
<event>
 5   0  0.1273754E-06  0.3195977E+04  0.7818609E-02  0.8189880E-01
        1   -1    0    0  501    0  0.00000000000E+00  0.00000000000E+00  0.20992363911E+04  0.20992363911E+04  0.50400001928E-02 0.  1.
       -1   -1    0    0    0  501  0.00000000000E+00  0.00000000000E+00 -0.12164270821E+04  0.12164270821E+04  0.50400001928E-02 0. -1.
    10030    2    1    2    0    0  0.00000000000E+00  0.00000000000E+00  0.88280930896E+03  0.33156634732E+04  0.31959774705E+04 0.  0.
        2    1    3    3  502    0  0.16007993755E+03 -0.53536665928E+03  0.19945752100E+04  0.20713699126E+04  0.25500000920E-02 0.  1.
       -2    1    3    3    0  502 -0.16007993755E+03  0.53536665928E+03 -0.11117659011E+04  0.12442935606E+04  0.25500000920E-02 0. -1.
</event>
<event>
 5   0  0.3656086E-06  0.3202538E+04  0.7818609E-02  0.8188147E-01
       -2   -1    0    0    0  501  0.00000000000E+00  0.00000000000E+00  0.17412262481E+04  0.17412262481E+04  0.25500000920E-02 0.  1.
        2   -1    0    0  501    0  0.00000000000E+00  0.00000000000E+00 -0.14725614143E+04  0.14725614143E+04  0.25500000920E-02 0. -1.
    10030    2    1    2    0    0  0.00000000000E+00  0.00000000000E+00  0.26866483376E+03  0.32137876624E+04  0.32025381101E+04 0.  0.
        3    1    3    3  502    0 -0.15894047767E+04  0.16325820460E+03  0.28122124944E+02  0.15980149091E+04  0.10100000352E+00 0. -1.
       -3    1    3    3    0  502  0.15894047767E+04 -0.16325820460E+03  0.24054270882E+03  0.16157727534E+04  0.10100000352E+00 0.  1.
</event>
<event>
 5   0  0.1273980E-06  0.3121176E+04  0.7818609E-02  0.8209950E-01
        1   -1    0    0  501    0  0.00000000000E+00  0.00000000000E+00  0.19650788115E+04  0.19650788115E+04  0.50400001928E-02 0. -1.
       -1   -1    0    0    0  501  0.00000000000E+00  0.00000000000E+00 -0.12393572990E+04  0.12393572990E+04  0.50400001928E-02 0.  1.
    10030    2    1    2    0    0  0.00000000000E+00  0.00000000000E+00  0.72572151257E+03  0.32044361105E+04  0.31211759118E+04 0.  0.
        4    1    3    3  502    0  0.59798209173E+03 -0.50098164059E+03 -0.10248116460E+04  0.12879463145E+04  0.12699999809E+01 0.  1.
       -4    1    3    3    0  502 -0.59798209173E+03  0.50098164059E+03  0.17505331586E+04  0.19164897961E+04  0.12699999809E+01 0. -1.
</event>
<event>
 5   0  0.1268836E-06  0.3202992E+04  0.7818609E-02  0.8188028E-01
       -1   -1    0    0    0  501  0.00000000000E+00  0.00000000000E+00  0.12103349544E+04  0.12103349545E+04  0.50400001928E-02 0.  1.
        1   -1    0    0  501    0  0.00000000000E+00  0.00000000000E+00 -0.21190735914E+04  0.21190735914E+04  0.50400001928E-02 0. -1.
    10030    2    1    2    0    0  0.00000000000E+00  0.00000000000E+00 -0.90873863699E+03  0.33294085459E+04  0.32029916258E+04 0.  0.
        1    1    3    3  502    0 -0.72312936579E+03  0.60318234074E+03  0.89215107694E+03  0.12971810051E+04  0.50400001928E-02 0.  1.
       -1    1    3    3    0  502  0.72312936579E+03 -0.60318234074E+03 -0.18008897139E+04  0.20322275408E+04  0.50400001928E-02 0. -1.
</event>
<event>
 5   0  0.1306843E-06  0.3168723E+04  0.7818609E-02  0.8197127E-01
        1   -1    0    0  501    0  0.00000000000E+00  0.00000000000E+00  0.95048834208E+03  0.95048834209E+03  0.50400001928E-02 0.  1.
       -1   -1    0    0    0  501  0.00000000000E+00  0.00000000000E+00 -0.26409594649E+04  0.26409594649E+04  0.50400001928E-02 0. -1.
    10030    2    1    2    0    0  0.00000000000E+00  0.00000000000E+00 -0.16904711228E+04  0.35914478070E+04  0.31687228868E+04 0.  0.
        5    1    3    3  502    0 -0.42119435311E+03  0.53240074861E+03  0.77728644645E+03  0.10320133478E+04  0.46999998093E+01 0.  1.
       -5    1    3    3    0  502  0.42119435311E+03 -0.53240074861E+03 -0.24677575692E+04  0.25594344592E+04  0.46999998093E+01 0. -1.
</event>
<event>
 5   0  0.3497546E-06  0.3243861E+04  0.7818609E-02  0.8177329E-01
       -2   -1    0    0    0  501  0.00000000000E+00  0.00000000000E+00  0.16959905778E+04  0.16959905778E+04  0.25500000920E-02 0.  1.
        2   -1    0    0  501    0  0.00000000000E+00  0.00000000000E+00 -0.15511049314E+04  0.15511049314E+04  0.25500000920E-02 0. -1.
    10030    2    1    2    0    0  0.00000000000E+00  0.00000000000E+00  0.14488564635E+03  0.32470955092E+04  0.32438614945E+04 0.  0.
        4    1    3    3  502    0  0.14048590187E+04 -0.80753857637E+03  0.22992773913E+01  0.16204179443E+04  0.12699999809E+01 0.  1.
       -4    1    3    3    0  502 -0.14048590187E+04  0.80753857637E+03  0.14258636896E+03  0.16266775649E+04  0.12699999809E+01 0. -1.
</event>
<event>
 5   0  0.1273754E-06  0.3216923E+04  0.7818609E-02  0.8184362E-01
       -1   -1    0    0    0  501  0.00000000000E+00  0.00000000000E+00  0.16098455329E+04  0.16098455330E+04  0.50400001928E-02 0. -1.
        1   -1    0    0  501    0  0.00000000000E+00  0.00000000000E+00 -0.16070786740E+04  0.16070786740E+04  0.50400001928E-02 0.  1.
    10030    2    1    2    0    0  0.00000000000E+00  0.00000000000E+00  0.27668589165E+01  0.32169242070E+04  0.32169230171E+04 0.  0.
        2    1    3    3  502    0 -0.10799188883E+04 -0.10641318314E+04  0.53854939839E+03  0.16089241170E+04  0.25500000920E-02 0. -1.
       -2    1    3    3    0  502  0.10799188883E+04  0.10641318314E+04 -0.53578253948E+03  0.16080000900E+04  0.25500000920E-02 0.  1.
</event>
<event>
 5   0  0.3758062E-06  0.3238818E+04  0.7818609E-02  0.8178640E-01
        2   -1    0    0  501    0  0.00000000000E+00  0.00000000000E+00  0.10489167168E+04  0.10489167168E+04  0.25500000920E-02 0. -1.
       -2   -1    0    0    0  501  0.00000000000E+00  0.00000000000E+00 -0.25001844392E+04  0.25001844392E+04  0.25500000920E-02 0.  1.
    10030    2    1    2    0    0  0.00000000000E+00  0.00000000000E+00 -0.14512677225E+04  0.35491011560E+04  0.32388178419E+04 0.  0.
        2    1    3    3  502    0  0.15495089738E+03  0.13520819297E+04  0.23614644007E+03  0.13812677027E+04  0.25500000920E-02 0. -1.
       -2    1    3    3    0  502 -0.15495089738E+03 -0.13520819297E+04 -0.16874141625E+04  0.21678334533E+04  0.25500000920E-02 0.  1.
</event>
<event>
 5   0  0.3531437E-06  0.3234501E+04  0.7818609E-02  0.8179764E-01
       -2   -1    0    0    0  501  0.00000000000E+00  0.00000000000E+00  0.15030423319E+04  0.15030423319E+04  0.25500000920E-02 0.  1.
        2   -1    0    0  501    0  0.00000000000E+00  0.00000000000E+00 -0.17401369451E+04  0.17401369451E+04  0.25500000920E-02 0. -1.
    10030    2    1    2    0    0  0.00000000000E+00  0.00000000000E+00 -0.23709461324E+03  0.32431792770E+04  0.32345011929E+04 0.  0.
        1    1    3    3  502    0 -0.10342045326E+04  0.11369245300E+04  0.38611518657E+03  0.15846959769E+04  0.50400001928E-02 0.  1.
       -1    1    3    3    0  502  0.10342045326E+04 -0.11369245300E+04 -0.62320979981E+03  0.16584833001E+04  0.50400001928E-02 0. -1.
</event>
<event>
 5   0  0.3745943E-06  0.3247525E+04  0.7818609E-02  0.8176378E-01
        2   -1    0    0  501    0  0.00000000000E+00  0.00000000000E+00  0.22803696064E+04  0.22803696064E+04  0.25500000920E-02 0. -1.
       -2   -1    0    0    0  501  0.00000000000E+00  0.00000000000E+00 -0.11562179945E+04  0.11562179945E+04  0.25500000920E-02 0.  1.
    10030    2    1    2    0    0  0.00000000000E+00  0.00000000000E+00  0.11241516120E+04  0.34365876009E+04  0.32475248254E+04 0.  0.
        5    1    3    3  502    0  0.53368820555E+03  0.36947227141E+03 -0.10129448550E+04  0.12030844647E+04  0.46999998093E+01 0.  1.
       -5    1    3    3    0  502 -0.53368820555E+03 -0.36947227141E+03  0.21370964669E+04  0.22335031361E+04  0.46999998093E+01 0. -1.
</event>
<event>
 5   0  0.1273754E-06  0.3183563E+04  0.7818609E-02  0.8193172E-01
        1   -1    0    0  501    0  0.00000000000E+00  0.00000000000E+00  0.30848342960E+04  0.30848342960E+04  0.50400001928E-02 0. -1.
       -1   -1    0    0    0  501  0.00000000000E+00  0.00000000000E+00 -0.82136269969E+03  0.82136269970E+03  0.50400001928E-02 0.  1.
    10030    2    1    2    0    0  0.00000000000E+00  0.00000000000E+00  0.22634715963E+04  0.39061969957E+04  0.31835626744E+04 0.  0.
        2    1    3    3  502    0 -0.29274309524E+03 -0.94587087693E+03 -0.39752674381E+03  0.10669572380E+04  0.25500000920E-02 0.  1.
       -2    1    3    3    0  502  0.29274309524E+03  0.94587087693E+03  0.26609983401E+04  0.28392397577E+04  0.25500000920E-02 0. -1.
</event>
<event>
 5   0  0.1273980E-06  0.3198306E+04  0.7818609E-02  0.8189265E-01
       -1   -1    0    0    0  501  0.00000000000E+00  0.00000000000E+00  0.12074783422E+04  0.12074783422E+04  0.50400001928E-02 0. -1.
        1   -1    0    0  501    0  0.00000000000E+00  0.00000000000E+00 -0.21178772975E+04  0.21178772975E+04  0.50400001928E-02 0.  1.
    10030    2    1    2    0    0  0.00000000000E+00  0.00000000000E+00 -0.91039895538E+03  0.33253556397E+04  0.31983064069E+04 0.  0.
        4    1    3    3  502    0  0.66631410118E+02 -0.84595521769E+03  0.95408074739E+03  0.12768522470E+04  0.12699999809E+01 0. -1.
       -4    1    3    3    0  502 -0.66631410118E+02  0.84595521769E+03 -0.18644797028E+04  0.20485033927E+04  0.12699999809E+01 0.  1.
</event>
<event>
 5   0  0.3497546E-06  0.3185205E+04  0.7818609E-02  0.8192735E-01
        2   -1    0    0  501    0  0.00000000000E+00  0.00000000000E+00  0.18343047976E+04  0.18343047976E+04  0.25500000920E-02 0.  1.
       -2   -1    0    0    0  501  0.00000000000E+00  0.00000000000E+00 -0.13827488248E+04  0.13827488248E+04  0.25500000920E-02 0. -1.
    10030    2    1    2    0    0  0.00000000000E+00  0.00000000000E+00  0.45155597278E+03  0.32170536224E+04  0.31852050503E+04 0.  0.
        4    1    3    3  502    0 -0.10336744762E+04 -0.99189889137E+03 -0.47690465152E+03  0.15098960206E+04  0.12699999809E+01 0. -1.
       -4    1    3    3    0  502  0.10336744762E+04  0.99189889137E+03  0.92846062430E+03  0.17071576018E+04  0.12699999809E+01 0.  1.
</event>
<event>
 5   0  0.3656086E-06  0.3185000E+04  0.7818609E-02  0.8192790E-01
       -2   -1    0    0    0  501  0.00000000000E+00  0.00000000000E+00  0.16414649029E+04  0.16414649029E+04  0.25500000920E-02 0. -1.
        2   -1    0    0  501    0  0.00000000000E+00  0.00000000000E+00 -0.15449953887E+04  0.15449953887E+04  0.25500000920E-02 0.  1.
    10030    2    1    2    0    0  0.00000000000E+00  0.00000000000E+00  0.96469514187E+02  0.31864602916E+04  0.31849996582E+04 0.  0.
        3    1    3    3  502    0 -0.74259220982E+03  0.98434375443E+03 -0.96003686748E+03  0.15627049031E+04  0.10100000352E+00 0.  1.
       -3    1    3    3    0  502  0.74259220982E+03 -0.98434375443E+03  0.10565063817E+04  0.16237553885E+04  0.10100000352E+00 0. -1.
</event>
<event>
 5   0  0.1268836E-06  0.3119753E+04  0.7818609E-02  0.8210338E-01
       -1   -1    0    0    0  501  0.00000000000E+00  0.00000000000E+00  0.13011918593E+04  0.13011918593E+04  0.50400001928E-02 0. -1.
        1   -1    0    0  501    0  0.00000000000E+00  0.00000000000E+00 -0.18699890814E+04  0.18699890814E+04  0.50400001928E-02 0.  1.
    10030    2    1    2    0    0  0.00000000000E+00  0.00000000000E+00 -0.56879722214E+03  0.31711809407E+04  0.31197529195E+04 0.  0.
        1    1    3    3  502    0 -0.11986616371E+04  0.94992714538E+03 -0.59615176354E+03  0.16415079126E+04  0.50400001928E-02 0. -1.
       -1    1    3    3    0  502  0.11986616371E+04 -0.94992714538E+03  0.27354541396E+02  0.15296730281E+04  0.50400001928E-02 0.  1.
</event>
<event>
 5   0  0.1240725E-06  0.3327895E+04  0.7818609E-02  0.8155834E-01
        1   -1    0    0  501    0  0.00000000000E+00  0.00000000000E+00  0.15840801269E+04  0.15840801270E+04  0.50400001928E-02 0.  1.
       -1   -1    0    0    0  501  0.00000000000E+00  0.00000000000E+00 -0.17478416175E+04  0.17478416175E+04  0.50400001928E-02 0. -1.
    10030    2    1    2    0    0  0.00000000000E+00  0.00000000000E+00 -0.16376149054E+03  0.33319217445E+04  0.33278949330E+04 0.  0.
        3    1    3    3  502    0  0.11071012093E+04  0.81845675404E+03 -0.10174506314E+04  0.17119434405E+04  0.10100000352E+00 0. -1.
       -3    1    3    3    0  502 -0.11071012093E+04 -0.81845675404E+03  0.85368914087E+03  0.16199783040E+04  0.10100000352E+00 0.  1.
</event>
<event>
 5   0  0.1273754E-06  0.3152487E+04  0.7818609E-02  0.8201479E-01
        1   -1    0    0  501    0  0.00000000000E+00  0.00000000000E+00  0.20028435634E+04  0.20028435634E+04  0.50400001928E-02 0.  1.
       -1   -1    0    0    0  501  0.00000000000E+00  0.00000000000E+00 -0.12405082073E+04  0.12405082073E+04  0.50400001928E-02 0. -1.
    10030    2    1    2    0    0  0.00000000000E+00  0.00000000000E+00  0.76233535610E+03  0.32433517706E+04  0.31524871947E+04 0.  0.
        2    1    3    3  502    0 -0.21181759410E+03 -0.54759194459E+03  0.18861429685E+04  0.19754136095E+04  0.25500000920E-02 0.  1.
       -2    1    3    3    0  502  0.21181759410E+03  0.54759194459E+03 -0.11238076124E+04  0.12679381612E+04  0.25500000920E-02 0. -1.
</event>
<event>
 5   0  0.1273754E-06  0.2583491E+04  0.7818609E-02  0.8373831E-01
       -1   -1    0    0    0  501  0.00000000000E+00  0.00000000000E+00  0.22358072776E+04  0.22358072776E+04  0.50400001928E-02 0.  1.
        1   -1    0    0  501    0  0.00000000000E+00  0.00000000000E+00 -0.74631063347E+03  0.74631063349E+03  0.50400001928E-02 0. -1.
    10030    2    1    2    0    0  0.00000000000E+00  0.00000000000E+00  0.14894966441E+04  0.29821179111E+04  0.25834912391E+04 0.  0.
        2    1    3    3  502    0 -0.10953095864E+04 -0.65262081073E+03  0.50541664067E+03  0.13715184991E+04  0.25500000920E-02 0. -1.
       -2    1    3    3    0  502  0.10953095864E+04  0.65262081073E+03  0.98408000344E+03  0.16105994120E+04  0.25500000920E-02 0.  1.
</event>
<event>
 5   0  0.3745943E-06  0.3168392E+04  0.7818609E-02  0.8197215E-01
        2   -1    0    0  501    0  0.00000000000E+00  0.00000000000E+00  0.23519007866E+04  0.23519007866E+04  0.25500000920E-02 0.  1.
       -2   -1    0    0    0  501  0.00000000000E+00  0.00000000000E+00 -0.10670842226E+04  0.10670842226E+04  0.25500000920E-02 0. -1.
    10030    2    1    2    0    0  0.00000000000E+00  0.00000000000E+00  0.12848165640E+04  0.34189850092E+04  0.31683915304E+04 0.  0.
        5    1    3    3  502    0 -0.13829026595E+04  0.72269403818E+03  0.34698991674E+03  0.15984775665E+04  0.46999998093E+01 0. -1.
       -5    1    3    3    0  502  0.13829026595E+04 -0.72269403818E+03  0.93782664727E+03  0.18205074426E+04  0.46999998093E+01 0.  1.
</event>
<event>
 5   0  0.1306843E-06  0.3159276E+04  0.7818609E-02  0.8199656E-01
        1   -1    0    0  501    0  0.00000000000E+00  0.00000000000E+00  0.18355420668E+04  0.18355420668E+04  0.50400001928E-02 0. -1.
       -1   -1    0    0    0  501  0.00000000000E+00  0.00000000000E+00 -0.13594113779E+04  0.13594113780E+04  0.50400001928E-02 0.  1.
    10030    2    1    2    0    0  0.00000000000E+00  0.00000000000E+00  0.47613068885E+03  0.31949534448E+04  0.31592763541E+04 0.  0.
        5    1    3    3  502    0 -0.15093200860E+04  0.23285267482E+03  0.64631610840E+03  0.16583166441E+04  0.46999998093E+01 0. -1.
       -5    1    3    3    0  502  0.15093200860E+04 -0.23285267482E+03 -0.17018541956E+03  0.15366368007E+04  0.46999998093E+01 0.  1.
</event>
<event>
 5   0  0.1240725E-06  0.3235881E+04  0.7818609E-02  0.8179405E-01
        1   -1    0    0  501    0  0.00000000000E+00  0.00000000000E+00  0.95458496478E+03  0.95458496479E+03  0.50400001928E-02 0.  1.
       -1   -1    0    0    0  501  0.00000000000E+00  0.00000000000E+00 -0.27422721342E+04  0.27422721342E+04  0.50400001928E-02 0. -1.
    10030    2    1    2    0    0  0.00000000000E+00  0.00000000000E+00 -0.17876871695E+04  0.36968570990E+04  0.32358811775E+04 0.  0.
        3    1    3    3  502    0 -0.14436353536E+04  0.72825749873E+03 -0.95937047433E+03  0.18801153518E+04  0.10100000352E+00 0.  1.
       -3    1    3    3    0  502  0.14436353536E+04 -0.72825749873E+03 -0.82831669512E+03  0.18167417473E+04  0.10100000352E+00 0. -1.
</event>
<event>
 5   0  0.1306843E-06  0.3185916E+04  0.7818609E-02  0.8192547E-01
        1   -1    0    0  501    0  0.00000000000E+00  0.00000000000E+00  0.23596224794E+04  0.23596224794E+04  0.50400001928E-02 0.  1.
       -1   -1    0    0    0  501  0.00000000000E+00  0.00000000000E+00 -0.10753901626E+04  0.10753901626E+04  0.50400001928E-02 0. -1.
    10030    2    1    2    0    0  0.00000000000E+00  0.00000000000E+00  0.12842323168E+04  0.34350126420E+04  0.31859157564E+04 0.  0.
        5    1    3    3  502    0 -0.33944294032E+03 -0.14347115053E+04 -0.82675038559E+01  0.14743503840E+04  0.46999998093E+01 0.  1.
       -5    1    3    3    0  502  0.33944294032E+03  0.14347115053E+04  0.12924998207E+04  0.19606622580E+04  0.46999998093E+01 0. -1.
</event>
<event>
 5   0  0.1268836E-06  0.3189606E+04  0.7818609E-02  0.8191568E-01
       -1   -1    0    0    0  501  0.00000000000E+00  0.00000000000E+00  0.11690853384E+04  0.11690853384E+04  0.50400001928E-02 0.  1.
        1   -1    0    0  501    0  0.00000000000E+00  0.00000000000E+00 -0.21755436422E+04  0.21755436422E+04  0.50400001928E-02 0. -1.
    10030    2    1    2    0    0  0.00000000000E+00  0.00000000000E+00 -0.10064583039E+04  0.33446289806E+04  0.31896057280E+04 0.  0.
        1    1    3    3  502    0  0.60710608458E+03 -0.39064585871E+03 -0.19943901044E+04  0.21210313231E+04  0.50400001928E-02 0. -1.
       -1    1    3    3    0  502 -0.60710608458E+03  0.39064585871E+03  0.98793180056E+03  0.12235976575E+04  0.50400001928E-02 0.  1.
</event>
<event>
 5   0  0.3758062E-06  0.2294590E+04  0.7818609E-02  0.8480057E-01
        2   -1    0    0  501    0  0.00000000000E+00  0.00000000000E+00  0.58052976850E+03  0.58052976850E+03  0.25500000920E-02 0. -1.
       -2   -1    0    0    0  501  0.00000000000E+00  0.00000000000E+00 -0.22673869558E+04  0.22673869558E+04  0.25500000920E-02 0.  1.
    10030    2    1    2    0    0  0.00000000000E+00  0.00000000000E+00 -0.16868571873E+04  0.28479167243E+04  0.22945898322E+04 0.  0.
        2    1    3    3  502    0  0.10626102645E+04  0.19364944183E+03 -0.13235524053E+04  0.17083417837E+04  0.25500000920E-02 0.  1.
       -2    1    3    3    0  502 -0.10626102645E+04 -0.19364944183E+03 -0.36330478203E+03  0.11395749406E+04  0.25500000920E-02 0. -1.
</event>
<event>
 5   0  0.3531437E-06  0.3251854E+04  0.7818609E-02  0.8175255E-01
        2   -1    0    0  501    0  0.00000000000E+00  0.00000000000E+00  0.20575668971E+04  0.20575668971E+04  0.25500000920E-02 0.  1.
       -2   -1    0    0    0  501  0.00000000000E+00  0.00000000000E+00 -0.12848369919E+04  0.12848369919E+04  0.25500000920E-02 0. -1.
    10030    2    1    2    0    0  0.00000000000E+00  0.00000000000E+00  0.77272990523E+03  0.33424038889E+04  0.32518536637E+04 0.  0.
        1    1    3    3  502    0 -0.15881561419E+04 -0.34560181062E+03  0.34088908103E+03  0.16606883838E+04  0.50400001928E-02 0.  1.
       -1    1    3    3    0  502  0.15881561419E+04  0.34560181062E+03  0.43184082420E+03  0.16817155051E+04  0.50400001928E-02 0. -1.
</event>
<event>
 5   0  0.1306843E-06  0.3150779E+04  0.7818609E-02  0.8201939E-01
        1   -1    0    0  501    0  0.00000000000E+00  0.00000000000E+00  0.19311118424E+04  0.19311118424E+04  0.50400001928E-02 0.  1.
       -1   -1    0    0    0  501  0.00000000000E+00  0.00000000000E+00 -0.12851933610E+04  0.12851933610E+04  0.50400001928E-02 0. -1.
    10030    2    1    2    0    0  0.00000000000E+00  0.00000000000E+00  0.64591848146E+03  0.32163052034E+04  0.31507790269E+04 0.  0.
        5    1    3    3  502    0  0.54223566747E+03  0.14761578451E+04  0.41854707299E+03  0.16273491467E+04  0.46999998093E+01 0. -1.
       -5    1    3    3    0  502 -0.54223566747E+03 -0.14761578451E+04  0.22737140847E+03  0.15889560567E+04  0.46999998093E+01 0.  1.
</event>
<event>
 5   0  0.1273754E-06  0.3194150E+04  0.7818609E-02  0.8190364E-01
        1   -1    0    0  501    0  0.00000000000E+00  0.00000000000E+00  0.23622972471E+04  0.23622972471E+04  0.50400001928E-02 0.  1.
       -1   -1    0    0    0  501  0.00000000000E+00  0.00000000000E+00 -0.10797324038E+04  0.10797324039E+04  0.50400001928E-02 0. -1.
    10030    2    1    2    0    0  0.00000000000E+00  0.00000000000E+00  0.12825648432E+04  0.34420296509E+04  0.31941502064E+04 0.  0.
        2    1    3    3  502    0 -0.19734940960E+03 -0.10430939467E+04 -0.64448368485E+03  0.12419142447E+04  0.25500000920E-02 0. -1.
       -2    1    3    3    0  502  0.19734940960E+03  0.10430939467E+04  0.19270485281E+04  0.22001154062E+04  0.25500000920E-02 0.  1.
</event>
<event>
 5   0  0.1240725E-06  0.3187665E+04  0.7818609E-02  0.8192083E-01
       -1   -1    0    0    0  501  0.00000000000E+00  0.00000000000E+00  0.13013067594E+04  0.13013067594E+04  0.50400001928E-02 0. -1.
        1   -1    0    0  501    0  0.00000000000E+00  0.00000000000E+00 -0.19521157399E+04  0.19521157399E+04  0.50400001928E-02 0.  1.
    10030    2    1    2    0    0  0.00000000000E+00  0.00000000000E+00 -0.65080898057E+03  0.32534224993E+04  0.31876646043E+04 0.  0.
        3    1    3    3  502    0 -0.47695766750E+02  0.74710085576E+03  0.11106993206E+04  0.13394355400E+04  0.10100000352E+00 0. -1.
       -3    1    3    3    0  502  0.47695766750E+02 -0.74710085576E+03 -0.17615083012E+04  0.19139869593E+04  0.10100000352E+00 0.  1.
</event>
<event>
 5   0  0.3758062E-06  0.3171543E+04  0.7818609E-02  0.8196373E-01
       -2   -1    0    0    0  501  0.00000000000E+00  0.00000000000E+00  0.11352910947E+04  0.11352910947E+04  0.25500000920E-02 0.  1.
        2   -1    0    0  501    0  0.00000000000E+00  0.00000000000E+00 -0.22150009088E+04  0.22150009088E+04  0.25500000920E-02 0. -1.
    10030    2    1    2    0    0  0.00000000000E+00  0.00000000000E+00 -0.10797098141E+04  0.33502920035E+04  0.31715427202E+04 0.  0.
        2    1    3    3  502    0 -0.16789271805E+03  0.10133194977E+04  0.73640435318E+03  0.12638416596E+04  0.25500000920E-02 0.  1.
       -2    1    3    3    0  502  0.16789271805E+03 -0.10133194977E+04 -0.18161141673E+04  0.20864503439E+04  0.25500000920E-02 0. -1.
</event>
<event>
 5   0  0.3531437E-06  0.3207705E+04  0.7818609E-02  0.8186785E-01
        2   -1    0    0  501    0  0.00000000000E+00  0.00000000000E+00  0.18716074931E+04  0.18716074931E+04  0.25500000920E-02 0.  1.
       -2   -1    0    0    0  501  0.00000000000E+00  0.00000000000E+00 -0.13744029983E+04  0.13744029983E+04  0.25500000920E-02 0. -1.
    10030    2    1    2    0    0  0.00000000000E+00  0.00000000000E+00  0.49720449480E+03  0.32460104915E+04  0.32077050676E+04 0.  0.
        1    1    3    3  502    0  0.45475772409E+03 -0.99438325234E+03 -0.93875526169E+03  0.14411329160E+04  0.50400001928E-02 0. -1.
       -1    1    3    3    0  502 -0.45475772409E+03  0.99438325234E+03  0.14359597565E+04  0.18048775755E+04  0.50400001928E-02 0.  1.
</event>
<event>
 5   0  0.1268836E-06  0.3153011E+04  0.7818609E-02  0.8201338E-01
        1   -1    0    0  501    0  0.00000000000E+00  0.00000000000E+00  0.26928281311E+04  0.26928281311E+04  0.50400001928E-02 0.  1.
       -1   -1    0    0    0  501  0.00000000000E+00  0.00000000000E+00 -0.92295865132E+03  0.92295865134E+03  0.50400001928E-02 0. -1.
    10030    2    1    2    0    0  0.00000000000E+00  0.00000000000E+00  0.17698694798E+04  0.36157867824E+04  0.31530106376E+04 0.  0.
        1    1    3    3  502    0  0.84119003803E+03 -0.86808653197E+03  0.20454971889E+04  0.23759700455E+04  0.50400001928E-02 0.  1.
       -1    1    3    3    0  502 -0.84119003803E+03  0.86808653197E+03 -0.27562770919E+03  0.12398167369E+04  0.50400001928E-02 0. -1.
</event>
<event>
 5   0  0.3758062E-06  0.3153577E+04  0.7818609E-02  0.8201186E-01
        2   -1    0    0  501    0  0.00000000000E+00  0.00000000000E+00  0.29941092906E+04  0.29941092906E+04  0.25500000920E-02 0.  1.
       -2   -1    0    0    0  501  0.00000000000E+00  0.00000000000E+00 -0.83038445436E+03  0.83038445436E+03  0.25500000920E-02 0. -1.
    10030    2    1    2    0    0  0.00000000000E+00  0.00000000000E+00  0.21637248362E+04  0.38244937449E+04  0.31535768959E+04 0.  0.
        2    1    3    3  502    0 -0.73053966783E+03 -0.63406063447E+03  0.25919847052E+04  0.27666054664E+04  0.25500000920E-02 0.  1.
       -2    1    3    3    0  502  0.73053966783E+03  0.63406063447E+03 -0.42825986903E+03  0.10578882785E+04  0.25500000920E-02 0. -1.
</event>
<event>
 5   0  0.1273980E-06  0.3007960E+04  0.7818609E-02  0.8241462E-01
       -1   -1    0    0    0  501  0.00000000000E+00  0.00000000000E+00  0.10979977637E+04  0.10979977637E+04  0.50400001928E-02 0.  1.
        1   -1    0    0  501    0  0.00000000000E+00  0.00000000000E+00 -0.20600726517E+04  0.20600726517E+04  0.50400001928E-02 0. -1.
    10030    2    1    2    0    0  0.00000000000E+00  0.00000000000E+00 -0.96207488797E+03  0.31580704154E+04  0.30079595507E+04 0.  0.
        4    1    3    3  502    0  0.62185788585E+02 -0.14477927289E+04 -0.58481587235E+02  0.14503077491E+04  0.12699999809E+01 0.  1.
       -4    1    3    3    0  502 -0.62185788585E+02  0.14477927289E+04 -0.90359330074E+03  0.17077626663E+04  0.12699999809E+01 0. -1.
</event>
<event>
 5   0  0.1240725E-06  0.3148108E+04  0.7818609E-02  0.8202658E-01
       -1   -1    0    0    0  501  0.00000000000E+00  0.00000000000E+00  0.15173732866E+04  0.15173732866E+04  0.50400001928E-02 0. -1.
        1   -1    0    0  501    0  0.00000000000E+00  0.00000000000E+00 -0.16328514975E+04  0.16328514975E+04  0.50400001928E-02 0.  1.
    10030    2    1    2    0    0  0.00000000000E+00  0.00000000000E+00 -0.11547821088E+03  0.31502247841E+04  0.31481075225E+04 0.  0.
        3    1    3    3  502    0 -0.72489935725E+03  0.57957485322E+03 -0.13299159436E+04  0.16217467484E+04  0.10100000352E+00 0.  1.
       -3    1    3    3    0  502  0.72489935725E+03 -0.57957485322E+03  0.12144377327E+04  0.15284780357E+04  0.10100000352E+00 0. -1.
</event>
<event>
 5   0  0.3745943E-06  0.3136565E+04  0.7818609E-02  0.8205774E-01
       -2   -1    0    0    0  501  0.00000000000E+00  0.00000000000E+00  0.14340920699E+04  0.14340920699E+04  0.25500000920E-02 0.  1.
        2   -1    0    0  501    0  0.00000000000E+00  0.00000000000E+00 -0.17150295558E+04  0.17150295558E+04  0.25500000920E-02 0. -1.
    10030    2    1    2    0    0  0.00000000000E+00  0.00000000000E+00 -0.28093748593E+03  0.31491216258E+04  0.31365651823E+04 0.  0.
        5    1    3    3  502    0 -0.30308752554E+03  0.58007771472E+03 -0.15713533712E+04  0.17022120051E+04  0.46999998093E+01 0. -1.
       -5    1    3    3    0  502  0.30308752554E+03 -0.58007771472E+03  0.12904158853E+04  0.14469096206E+04  0.46999998093E+01 0.  1.
</event>
<event>
 5   0  0.3758062E-06  0.3205029E+04  0.7818609E-02  0.8187490E-01
        2   -1    0    0  501    0  0.00000000000E+00  0.00000000000E+00  0.16148150263E+04  0.16148150263E+04  0.25500000920E-02 0.  1.
       -2   -1    0    0    0  501  0.00000000000E+00  0.00000000000E+00 -0.15903076090E+04  0.15903076090E+04  0.25500000920E-02 0. -1.
    10030    2    1    2    0    0  0.00000000000E+00  0.00000000000E+00  0.24507417353E+02  0.32051226353E+04  0.32050289381E+04 0.  0.
        2    1    3    3  502    0 -0.16767744855E+03  0.14860692115E+04  0.58806147184E+03  0.16069641324E+04  0.25500000920E-02 0.  1.
       -2    1    3    3    0  502  0.16767744855E+03 -0.14860692115E+04 -0.56355405449E+03  0.15981585029E+04  0.25500000920E-02 0. -1.
</event>
<event>
 5   0  0.1185575E-06  0.3183910E+04  0.7818609E-02  0.8193079E-01
       -3   -1    0    0    0  501  0.00000000000E+00  0.00000000000E+00  0.18713073179E+04  0.18713073206E+04  0.10100000352E+00 0.  1.
        3   -1    0    0  501    0  0.00000000000E+00  0.00000000000E+00 -0.13543049670E+04  0.13543049708E+04  0.10100000352E+00 0. -1.
    10030    2    1    2    0    0  0.00000000000E+00  0.00000000000E+00  0.51700235085E+03  0.32256122914E+04  0.31839100527E+04 0.  0.
        1    1    3    3  502    0  0.40448759827E+03 -0.60891612108E+03 -0.11742110353E+04  0.13831704939E+04  0.50400001928E-02 0. -1.
       -1    1    3    3    0  502 -0.40448759827E+03  0.60891612108E+03  0.16912133862E+04  0.18424417975E+04  0.50400001928E-02 0.  1.
</event>
<event>
 5   0  0.1306843E-06  0.2716086E+04  0.7818609E-02  0.8329804E-01
       -1   -1    0    0    0  501  0.00000000000E+00  0.00000000000E+00  0.91623048923E+03  0.91623048924E+03  0.50400001928E-02 0. -1.
        1   -1    0    0  501    0  0.00000000000E+00  0.00000000000E+00 -0.20129004374E+04  0.20129004374E+04  0.50400001928E-02 0.  1.
    10030    2    1    2    0    0  0.00000000000E+00  0.00000000000E+00 -0.10966699482E+04  0.29291309266E+04  0.27160859725E+04 0.  0.
        5    1    3    3  502    0  0.11839522230E+04 -0.46372736914E+03 -0.33983563474E+02  0.12719917106E+04  0.46999998093E+01 0. -1.
       -5    1    3    3    0  502 -0.11839522230E+04  0.46372736914E+03 -0.10626863847E+04  0.16571392161E+04  0.46999998093E+01 0.  1.
</event>
<event>
 5   0  0.1273754E-06  0.3186642E+04  0.7818609E-02  0.8192354E-01
       -1   -1    0    0    0  501  0.00000000000E+00  0.00000000000E+00  0.13159498198E+04  0.13159498198E+04  0.50400001928E-02 0.  1.
        1   -1    0    0  501    0  0.00000000000E+00  0.00000000000E+00 -0.19291553069E+04  0.19291553069E+04  0.50400001928E-02 0. -1.
    10030    2    1    2    0    0  0.00000000000E+00  0.00000000000E+00 -0.61320548705E+03  0.32451051267E+04  0.31866418553E+04 0.  0.
        2    1    3    3  502    0 -0.13409278954E+04  0.77280699408E+03  0.78963827797E+02  0.15496946657E+04  0.25500000920E-02 0.  1.
       -2    1    3    3    0  502  0.13409278954E+04 -0.77280699408E+03 -0.69216931484E+03  0.16954104610E+04  0.25500000920E-02 0. -1.
</event>
<event>
 5   0  0.1268836E-06  0.3214943E+04  0.7818609E-02  0.8184882E-01
        1   -1    0    0  501    0  0.00000000000E+00  0.00000000000E+00  0.21355659388E+04  0.21355659388E+04  0.50400001928E-02 0. -1.
       -1   -1    0    0    0  501  0.00000000000E+00  0.00000000000E+00 -0.12099672720E+04  0.12099672720E+04  0.50400001928E-02 0.  1.
    10030    2    1    2    0    0  0.00000000000E+00  0.00000000000E+00  0.92559866685E+03  0.33455332108E+04  0.32149431679E+04 0.  0.
        1    1    3    3  502    0  0.36223791569E+03  0.15474408057E+04  0.71379270421E+03  0.17422081906E+04  0.50400001928E-02 0. -1.
       -1    1    3    3    0  502 -0.36223791569E+03 -0.15474408057E+04  0.21180596263E+03  0.16033250202E+04  0.50400001928E-02 0.  1.
</event>
<event>
 5   0  0.3758062E-06  0.3201963E+04  0.7818609E-02  0.8188299E-01
       -2   -1    0    0    0  501  0.00000000000E+00  0.00000000000E+00  0.10863428702E+04  0.10863428702E+04  0.25500000920E-02 0. -1.
        2   -1    0    0  501    0  0.00000000000E+00  0.00000000000E+00 -0.23594228047E+04  0.23594228047E+04  0.25500000920E-02 0.  1.
    10030    2    1    2    0    0  0.00000000000E+00  0.00000000000E+00 -0.12730799345E+04  0.34457656749E+04  0.32019632362E+04 0.  0.
        2    1    3    3  502    0 -0.51946331488E+03 -0.13730003635E+04  0.50987327370E+02  0.14688675370E+04  0.25500000920E-02 0. -1.
       -2    1    3    3    0  502  0.51946331488E+03  0.13730003635E+04 -0.13240672619E+04  0.19768981379E+04  0.25500000920E-02 0.  1.
</event>
<event>
 5   0  0.1268836E-06  0.3219405E+04  0.7818609E-02  0.8183711E-01
       -1   -1    0    0    0  501  0.00000000000E+00  0.00000000000E+00  0.19451286017E+04  0.19451286017E+04  0.50400001928E-02 0. -1.
        1   -1    0    0  501    0  0.00000000000E+00  0.00000000000E+00 -0.13321185817E+04  0.13321185817E+04  0.50400001928E-02 0.  1.
    10030    2    1    2    0    0  0.00000000000E+00  0.00000000000E+00  0.61301001995E+03  0.32772471834E+04  0.32194048855E+04 0.  0.
        1    1    3    3  502    0  0.36664453781E+03  0.44370930927E+03  0.18367890223E+04  0.19248636525E+04  0.50400001928E-02 0. -1.
       -1    1    3    3    0  502 -0.36664453781E+03 -0.44370930927E+03 -0.12237790023E+04  0.13523835310E+04  0.50400001928E-02 0.  1.
</event>
<event>
 5   0  0.3745943E-06  0.3184303E+04  0.7818609E-02  0.8192975E-01
        2   -1    0    0  501    0  0.00000000000E+00  0.00000000000E+00  0.10209290979E+04  0.10209290979E+04  0.25500000920E-02 0.  1.
       -2   -1    0    0    0  501  0.00000000000E+00  0.00000000000E+00 -0.24829802677E+04  0.24829802677E+04  0.25500000920E-02 0. -1.
    10030    2    1    2    0    0  0.00000000000E+00  0.00000000000E+00 -0.14620511698E+04  0.35039093655E+04  0.31843032548E+04 0.  0.
        5    1    3    3  502    0 -0.10690774507E+04 -0.11794597170E+04 -0.76353577455E+03  0.17655199768E+04  0.46999998093E+01 0.  1.
       -5    1    3    3    0  502  0.10690774507E+04  0.11794597170E+04 -0.69851539526E+03  0.17383893887E+04  0.46999998093E+01 0. -1.
</event>
<event>
 5   0  0.1240725E-06  0.3170801E+04  0.7818609E-02  0.8196571E-01
       -1   -1    0    0    0  501  0.00000000000E+00  0.00000000000E+00  0.13648517961E+04  0.13648517961E+04  0.50400001928E-02 0. -1.
        1   -1    0    0  501    0  0.00000000000E+00  0.00000000000E+00 -0.18415877414E+04  0.18415877414E+04  0.50400001928E-02 0.  1.
    10030    2    1    2    0    0  0.00000000000E+00  0.00000000000E+00 -0.47673594532E+03  0.32064395376E+04  0.31708007421E+04 0.  0.
        3    1    3    3  502    0  0.31692602412E+03  0.54526561366E+03 -0.17092742767E+04  0.18219152717E+04  0.10100000352E+00 0.  1.
       -3    1    3    3    0  502 -0.31692602412E+03 -0.54526561366E+03  0.12325383314E+04  0.13845242658E+04  0.10100000352E+00 0. -1.
</event>
<event>
 5   0  0.1185575E-06  0.3249783E+04  0.7818609E-02  0.8175792E-01
       -3   -1    0    0    0  501  0.00000000000E+00  0.00000000000E+00  0.13221209357E+04  0.13221209395E+04  0.10100000352E+00 0. -1.
        3   -1    0    0  501    0  0.00000000000E+00  0.00000000000E+00 -0.19969976853E+04  0.19969976878E+04  0.10100000352E+00 0.  1.
    10030    2    1    2    0    0  0.00000000000E+00  0.00000000000E+00 -0.67487674962E+03  0.33191186274E+04  0.32497830444E+04 0.  0.
        4    1    3    3  502    0  0.31418258935E+03 -0.15856313977E+04 -0.50629331902E+03  0.16938926078E+04  0.12699999809E+01 0.  1.
       -4    1    3    3    0  502 -0.31418258935E+03  0.15856313977E+04 -0.16858343060E+03  0.16252260196E+04  0.12699999809E+01 0. -1.
</event>
<event>
 5   0  0.1306843E-06  0.3185168E+04  0.7818609E-02  0.8192745E-01
        1   -1    0    0  501    0  0.00000000000E+00  0.00000000000E+00  0.11300876409E+04  0.11300876410E+04  0.50400001928E-02 0.  1.
       -1   -1    0    0    0  501  0.00000000000E+00  0.00000000000E+00 -0.22443607282E+04  0.22443607282E+04  0.50400001928E-02 0. -1.
    10030    2    1    2    0    0  0.00000000000E+00  0.00000000000E+00 -0.11142730872E+04  0.33744483691E+04  0.31851683288E+04 0.  0.
        5    1    3    3  502    0  0.12743922409E+03  0.12900156764E+03  0.11191075621E+04  0.11337133614E+04  0.46999998093E+01 0.  1.
       -5    1    3    3    0  502 -0.12743922409E+03 -0.12900156764E+03 -0.22333806493E+04  0.22407350077E+04  0.46999998093E+01 0. -1.
</event>
<event>
 5   0  0.3758062E-06  0.3184978E+04  0.7818609E-02  0.8192796E-01
        2   -1    0    0  501    0  0.00000000000E+00  0.00000000000E+00  0.14277421921E+04  0.14277421921E+04  0.25500000920E-02 0. -1.
       -2   -1    0    0    0  501  0.00000000000E+00  0.00000000000E+00 -0.17762455765E+04  0.17762455765E+04  0.25500000920E-02 0.  1.
    10030    2    1    2    0    0  0.00000000000E+00  0.00000000000E+00 -0.34850338444E+03  0.32039877686E+04  0.31849777099E+04 0.  0.
        2    1    3    3  502    0  0.54620883460E+03  0.13628581902E+04  0.44610905729E+03  0.15345161545E+04  0.25500000920E-02 0. -1.
       -2    1    3    3    0  502 -0.54620883460E+03 -0.13628581902E+04 -0.79461244173E+03  0.16694716141E+04  0.25500000920E-02 0.  1.
</event>
<event>
 5   0  0.1185575E-06  0.3046035E+04  0.7818609E-02  0.8230706E-01
        3   -1    0    0  501    0  0.00000000000E+00  0.00000000000E+00  0.13981223169E+04  0.13981223205E+04  0.10100000352E+00 0. -1.
       -3   -1    0    0    0  501  0.00000000000E+00  0.00000000000E+00 -0.16590692516E+04  0.16590692547E+04  0.10100000352E+00 0.  1.
    10030    2    1    2    0    0  0.00000000000E+00  0.00000000000E+00 -0.26094693472E+03  0.30571915752E+04  0.30460346394E+04 0.  0.
        1    1    3    3  502    0  0.38851203389E+03 -0.20012912308E+03 -0.15947856345E+04  0.16535823192E+04  0.50400001928E-02 0.  1.
       -1    1    3    3    0  502 -0.38851203389E+03  0.20012912308E+03  0.13338386998E+04  0.14036092560E+04  0.50400001928E-02 0. -1.
</event>
<event>
 5   0  0.1268836E-06  0.3230236E+04  0.7818609E-02  0.8180877E-01
        1   -1    0    0  501    0  0.00000000000E+00  0.00000000000E+00  0.19403190346E+04  0.19403190346E+04  0.50400001928E-02 0.  1.
       -1   -1    0    0    0  501  0.00000000000E+00  0.00000000000E+00 -0.13444215929E+04  0.13444215929E+04  0.50400001928E-02 0. -1.
    10030    2    1    2    0    0  0.00000000000E+00  0.00000000000E+00  0.59589744179E+03  0.32847406275E+04  0.32302364045E+04 0.  0.
        1    1    3    3  502    0  0.27898008911E+02  0.11539761348E+04  0.14466857750E+04  0.18507671248E+04  0.50400001928E-02 0.  1.
       -1    1    3    3    0  502 -0.27898008911E+02 -0.11539761348E+04 -0.85078833319E+03  0.14339735027E+04  0.50400001928E-02 0. -1.
</event>
<event>
 5   0  0.3758062E-06  0.2911906E+04  0.7818609E-02  0.8269344E-01
        2   -1    0    0  501    0  0.00000000000E+00  0.00000000000E+00  0.18251314436E+04  0.18251314436E+04  0.25500000920E-02 0. -1.
       -2   -1    0    0    0  501  0.00000000000E+00  0.00000000000E+00 -0.11614497925E+04  0.11614497925E+04  0.25500000920E-02 0.  1.
    10030    2    1    2    0    0  0.00000000000E+00  0.00000000000E+00  0.66368165106E+03  0.29865812361E+04  0.29119055867E+04 0.  0.
        2    1    3    3  502    0  0.11103502407E+04 -0.73334097911E+03  0.93786758475E+03  0.16279626086E+04  0.25500000920E-02 0. -1.
       -2    1    3    3    0  502 -0.11103502407E+04  0.73334097911E+03 -0.27418593369E+03  0.13586186274E+04  0.25500000920E-02 0.  1.
</event>
<event>
 5   0  0.1273754E-06  0.3222017E+04  0.7818609E-02  0.8183027E-01
        1   -1    0    0  501    0  0.00000000000E+00  0.00000000000E+00  0.22207077565E+04  0.22207077565E+04  0.50400001928E-02 0.  1.
       -1   -1    0    0    0  501  0.00000000000E+00  0.00000000000E+00 -0.11687033919E+04  0.11687033919E+04  0.50400001928E-02 0. -1.
    10030    2    1    2    0    0  0.00000000000E+00  0.00000000000E+00  0.10520043646E+04  0.33894111484E+04  0.32220171864E+04 0.  0.
        2    1    3    3  502    0  0.15291084389E+04 -0.49070733535E+03  0.66064553193E+03  0.17364961346E+04  0.25500000920E-02 0. -1.
       -2    1    3    3    0  502 -0.15291084389E+04  0.49070733535E+03  0.39135883264E+03  0.16529150137E+04  0.25500000920E-02 0.  1.
</event>
<event>
 5   0  0.1273754E-06  0.3140310E+04  0.7818609E-02  0.8204762E-01
        1   -1    0    0  501    0  0.00000000000E+00  0.00000000000E+00  0.15566239848E+04  0.15566239848E+04  0.50400001928E-02 0.  1.
       -1   -1    0    0    0  501  0.00000000000E+00  0.00000000000E+00 -0.15838034481E+04  0.15838034481E+04  0.50400001928E-02 0. -1.
    10030    2    1    2    0    0  0.00000000000E+00  0.00000000000E+00 -0.27179463291E+02  0.31404274330E+04  0.31403098157E+04 0.  0.
        2    1    3    3  502    0  0.14509389888E+04 -0.62334751526E+02  0.58332194741E+03  0.15650476238E+04  0.25500000920E-02 0. -1.
       -2    1    3    3    0  502 -0.14509389888E+04  0.62334751526E+02 -0.61050141070E+03  0.15753798091E+04  0.25500000920E-02 0.  1.
</event>
<event>
 5   0  0.1273980E-06  0.3211003E+04  0.7818609E-02  0.8185917E-01
        1   -1    0    0  501    0  0.00000000000E+00  0.00000000000E+00  0.17614154618E+04  0.17614154618E+04  0.50400001928E-02 0. -1.
       -1   -1    0    0    0  501  0.00000000000E+00  0.00000000000E+00 -0.14633887174E+04  0.14633887174E+04  0.50400001928E-02 0.  1.
    10030    2    1    2    0    0  0.00000000000E+00  0.00000000000E+00  0.29802674446E+03  0.32248041792E+04  0.32110032784E+04 0.  0.
        4    1    3    3  502    0  0.14478463188E+03 -0.25325886909E+03 -0.14365474473E+04  0.14658693072E+04  0.12699999809E+01 0.  1.
       -4    1    3    3    0  502 -0.14478463188E+03  0.25325886909E+03  0.17345741918E+04  0.17589348721E+04  0.12699999809E+01 0. -1.
</event>
<event>
 5   0  0.1273980E-06  0.3231891E+04  0.7818609E-02  0.8180445E-01
       -1   -1    0    0    0  501  0.00000000000E+00  0.00000000000E+00  0.16970660234E+04  0.16970660234E+04  0.50400001928E-02 0. -1.
        1   -1    0    0  501    0  0.00000000000E+00  0.00000000000E+00 -0.15387025600E+04  0.15387025600E+04  0.50400001928E-02 0.  1.
    10030    2    1    2    0    0  0.00000000000E+00  0.00000000000E+00  0.15836346339E+03  0.32357685833E+04  0.32318909849E+04 0.  0.
        4    1    3    3  502    0  0.12150566508E+04  0.10561837292E+04  0.21860212688E+03  0.16247077390E+04  0.12699999809E+01 0.  1.
       -4    1    3    3    0  502 -0.12150566508E+04 -0.10561837292E+04 -0.60238663492E+02  0.16110608443E+04  0.12699999809E+01 0. -1.
</event>
<event>
 5   0  0.1306843E-06  0.3192492E+04  0.7818609E-02  0.8190803E-01
       -1   -1    0    0    0  501  0.00000000000E+00  0.00000000000E+00  0.10678531645E+04  0.10678531645E+04  0.50400001928E-02 0. -1.
        1   -1    0    0  501    0  0.00000000000E+00  0.00000000000E+00 -0.23860968587E+04  0.23860968587E+04  0.50400001928E-02 0.  1.
    10030    2    1    2    0    0  0.00000000000E+00  0.00000000000E+00 -0.13182436942E+04  0.34539500232E+04  0.31924918677E+04 0.  0.
        5    1    3    3  502    0  0.74035825091E+03 -0.58379262113E+02 -0.21877942903E+04  0.23104121764E+04  0.46999998093E+01 0.  1.
       -5    1    3    3    0  502 -0.74035825091E+03  0.58379262113E+02  0.86955059613E+03  0.11435378468E+04  0.46999998093E+01 0. -1.
</event>
<event>
 5   0  0.1240725E-06  0.3186603E+04  0.7818609E-02  0.8192364E-01
       -1   -1    0    0    0  501  0.00000000000E+00  0.00000000000E+00  0.19211964654E+04  0.19211964654E+04  0.50400001928E-02 0.  1.
        1   -1    0    0  501    0  0.00000000000E+00  0.00000000000E+00 -0.13213691291E+04  0.13213691291E+04  0.50400001928E-02 0. -1.
    10030    2    1    2    0    0  0.00000000000E+00  0.00000000000E+00  0.59982733635E+03  0.32425655945E+04  0.31866030191E+04 0.  0.
        3    1    3    3  502    0 -0.95379611985E+03 -0.67470466029E+03 -0.80246618920E+03  0.14173586038E+04  0.10100000352E+00 0. -1.
       -3    1    3    3    0  502  0.95379611985E+03  0.67470466029E+03  0.14022935255E+04  0.18252069907E+04  0.10100000352E+00 0.  1.
</event>
<event>
 5   0  0.3745943E-06  0.2869607E+04  0.7818609E-02  0.8281978E-01
        2   -1    0    0  501    0  0.00000000000E+00  0.00000000000E+00  0.12477780008E+04  0.12477780008E+04  0.25500000920E-02 0. -1.
       -2   -1    0    0    0  501  0.00000000000E+00  0.00000000000E+00 -0.16498621119E+04  0.16498621119E+04  0.25500000920E-02 0.  1.
    10030    2    1    2    0    0  0.00000000000E+00  0.00000000000E+00 -0.40208411116E+03  0.28976401127E+04  0.28696073931E+04 0.  0.
        5    1    3    3  502    0  0.17359321884E+03 -0.83995780097E+03  0.96040099528E+03  0.12876551847E+04  0.46999998093E+01 0. -1.
       -5    1    3    3    0  502 -0.17359321884E+03  0.83995780097E+03 -0.13624851064E+04  0.16099849280E+04  0.46999998093E+01 0.  1.
</event>
<event>
 5   0  0.1306843E-06  0.3167730E+04  0.7818609E-02  0.8197392E-01
        1   -1    0    0  501    0  0.00000000000E+00  0.00000000000E+00  0.20205639441E+04  0.20205639441E+04  0.50400001928E-02 0.  1.
       -1   -1    0    0    0  501  0.00000000000E+00  0.00000000000E+00 -0.12415488968E+04  0.12415488968E+04  0.50400001928E-02 0. -1.
    10030    2    1    2    0    0  0.00000000000E+00  0.00000000000E+00  0.77901504724E+03  0.32621128409E+04  0.31677303772E+04 0.  0.
        5    1    3    3  502    0  0.14664866722E+04 -0.37823908141E+03  0.86695815178E+03  0.17450749237E+04  0.46999998093E+01 0.  1.
       -5    1    3    3    0  502 -0.14664866722E+04  0.37823908141E+03 -0.87943104537E+02  0.15170379172E+04  0.46999998093E+01 0. -1.
</event>
<event>
 5   0  0.3531437E-06  0.3210800E+04  0.7818609E-02  0.8185971E-01
        2   -1    0    0  501    0  0.00000000000E+00  0.00000000000E+00  0.15072045542E+04  0.15072045542E+04  0.25500000920E-02 0. -1.
       -2   -1    0    0    0  501  0.00000000000E+00  0.00000000000E+00 -0.17099933001E+04  0.17099933001E+04  0.25500000920E-02 0.  1.
    10030    2    1    2    0    0  0.00000000000E+00  0.00000000000E+00 -0.20278874585E+03  0.32171978543E+04  0.32108003299E+04 0.  0.
        1    1    3    3  502    0 -0.42101258061E+03  0.15223566286E+04  0.18638581362E+03  0.15904593580E+04  0.50400001928E-02 0.  1.
       -1    1    3    3    0  502  0.42101258061E+03 -0.15223566286E+04 -0.38917455947E+03  0.16267384964E+04  0.50400001928E-02 0. -1.
</event>
<event>
 5   0  0.1240725E-06  0.3143144E+04  0.7818609E-02  0.8203996E-01
       -1   -1    0    0    0  501  0.00000000000E+00  0.00000000000E+00  0.26771877066E+04  0.26771877066E+04  0.50400001928E-02 0. -1.
        1   -1    0    0  501    0  0.00000000000E+00  0.00000000000E+00 -0.92254951776E+03  0.92254951778E+03  0.50400001928E-02 0.  1.
    10030    2    1    2    0    0  0.00000000000E+00  0.00000000000E+00  0.17546381888E+04  0.35997372244E+04  0.31431437942E+04 0.  0.
        3    1    3    3  502    0 -0.24348676648E+03  0.14032412392E+03 -0.89353900980E+03  0.93669025694E+03  0.10100000352E+00 0.  1.
       -3    1    3    3    0  502  0.24348676648E+03 -0.14032412392E+03  0.26481771986E+04  0.26630469675E+04  0.10100000352E+00 0. -1.
</event>
<event>
 5   0  0.1273980E-06  0.3225186E+04  0.7818609E-02  0.8182197E-01
       -1   -1    0    0    0  501  0.00000000000E+00  0.00000000000E+00  0.14190475779E+04  0.14190475779E+04  0.50400001928E-02 0.  1.
        1   -1    0    0  501    0  0.00000000000E+00  0.00000000000E+00 -0.18325365969E+04  0.18325365969E+04  0.50400001928E-02 0. -1.
    10030    2    1    2    0    0  0.00000000000E+00  0.00000000000E+00 -0.41348901897E+03  0.32515841748E+04  0.32251862701E+04 0.  0.
        4    1    3    3  502    0  0.10569456245E+04 -0.10676049970E+04  0.38417616585E+03  0.15506474203E+04  0.12699999809E+01 0.  1.
       -4    1    3    3    0  502 -0.10569456245E+04  0.10676049970E+04 -0.79766518482E+03  0.17009367545E+04  0.12699999809E+01 0. -1.
</event>
<event>
 5   0  0.3531437E-06  0.3186643E+04  0.7818609E-02  0.8192354E-01
        2   -1    0    0  501    0  0.00000000000E+00  0.00000000000E+00  0.16015937837E+04  0.16015937837E+04  0.25500000920E-02 0. -1.
       -2   -1    0    0    0  501  0.00000000000E+00  0.00000000000E+00 -0.15850923439E+04  0.15850923439E+04  0.25500000920E-02 0.  1.
    10030    2    1    2    0    0  0.00000000000E+00  0.00000000000E+00  0.16501439789E+02  0.31866861276E+04  0.31866434031E+04 0.  0.
        1    1    3    3  502    0 -0.11606197474E+04  0.97880387560E+02  0.10954889518E+04  0.15989730492E+04  0.50400001928E-02 0. -1.
       -1    1    3    3    0  502  0.11606197474E+04 -0.97880387560E+02 -0.10789875120E+04  0.15877130785E+04  0.50400001928E-02 0.  1.
</event>
<event>
 5   0  0.3656086E-06  0.3296583E+04  0.7818609E-02  0.8163765E-01
       -2   -1    0    0    0  501  0.00000000000E+00  0.00000000000E+00  0.16604512710E+04  0.16604512710E+04  0.25500000920E-02 0. -1.
        2   -1    0    0  501    0  0.00000000000E+00  0.00000000000E+00 -0.16362205990E+04  0.16362205990E+04  0.25500000920E-02 0.  1.
    10030    2    1    2    0    0  0.00000000000E+00  0.00000000000E+00  0.24230672052E+02  0.32966718700E+04  0.32965828206E+04 0.  0.
        3    1    3    3  502    0 -0.13974548945E+03  0.10183134845E+01  0.16545161551E+04  0.16604076477E+04  0.10100000352E+00 0. -1.
       -3    1    3    3    0  502  0.13974548945E+03 -0.10183134845E+01 -0.16302854831E+04  0.16362642223E+04  0.10100000352E+00 0.  1.
</event>
<event>
 5   0  0.3531437E-06  0.3222168E+04  0.7818609E-02  0.8182987E-01
        2   -1    0    0  501    0  0.00000000000E+00  0.00000000000E+00  0.22329388664E+04  0.22329388664E+04  0.25500000920E-02 0.  1.
       -2   -1    0    0    0  501  0.00000000000E+00  0.00000000000E+00 -0.11624106505E+04  0.11624106505E+04  0.25500000920E-02 0. -1.
    10030    2    1    2    0    0  0.00000000000E+00  0.00000000000E+00  0.10705282160E+04  0.33953495169E+04  0.32221681646E+04 0.  0.
        1    1    3    3  502    0 -0.65618430313E+03 -0.12376616562E+04  0.13737762973E+04  0.19620513576E+04  0.50400001928E-02 0.  1.
       -1    1    3    3    0  502  0.65618430313E+03  0.12376616562E+04 -0.30324808129E+03  0.14332981594E+04  0.50400001928E-02 0. -1.
</event>
<event>
 5   0  0.3656086E-06  0.3336708E+04  0.7818609E-02  0.8153617E-01
       -2   -1    0    0    0  501  0.00000000000E+00  0.00000000000E+00  0.87196743119E+03  0.87196743119E+03  0.25500000920E-02 0.  1.
        2   -1    0    0  501    0  0.00000000000E+00  0.00000000000E+00 -0.31920979897E+04  0.31920979897E+04  0.25500000920E-02 0. -1.
    10030    2    1    2    0    0  0.00000000000E+00  0.00000000000E+00 -0.23201305585E+04  0.40640654209E+04  0.33367082487E+04 0.  0.
        3    1    3    3  502    0  0.35037624633E+03 -0.11043308644E+04  0.30207420977E+03  0.11973132466E+04  0.10100000352E+00 0.  1.
       -3    1    3    3    0  502 -0.35037624633E+03  0.11043308644E+04 -0.26222047683E+04  0.28667521743E+04  0.10100000352E+00 0. -1.
</event>
<event>
 5   0  0.3758062E-06  0.3196612E+04  0.7818609E-02  0.8189713E-01
       -2   -1    0    0    0  501  0.00000000000E+00  0.00000000000E+00  0.22935793805E+04  0.22935793805E+04  0.25500000920E-02 0.  1.
        2   -1    0    0  501    0  0.00000000000E+00  0.00000000000E+00 -0.11137968923E+04  0.11137968923E+04  0.25500000920E-02 0. -1.
    10030    2    1    2    0    0  0.00000000000E+00  0.00000000000E+00  0.11797824882E+04  0.34073762728E+04  0.31966116976E+04 0.  0.
        2    1    3    3  502    0  0.82771449986E+03 -0.13175971573E+04  0.97922421718E+03  0.18384922164E+04  0.25500000920E-02 0.  1.
       -2    1    3    3    0  502 -0.82771449986E+03  0.13175971573E+04  0.20055827099E+03  0.15688840564E+04  0.25500000920E-02 0. -1.
</event>
<event>
 5   0  0.3531437E-06  0.3237691E+04  0.7818609E-02  0.8178933E-01
       -2   -1    0    0    0  501  0.00000000000E+00  0.00000000000E+00  0.10881973303E+04  0.10881973303E+04  0.25500000920E-02 0. -1.
        2   -1    0    0  501    0  0.00000000000E+00  0.00000000000E+00 -0.24082582481E+04  0.24082582481E+04  0.25500000920E-02 0.  1.
    10030    2    1    2    0    0  0.00000000000E+00  0.00000000000E+00 -0.13200609178E+04  0.34964555784E+04  0.32376906561E+04 0.  0.
        1    1    3    3  502    0 -0.93618593441E+03 -0.13199755696E+04 -0.70686211468E+03  0.17659087341E+04  0.50400001928E-02 0.  1.
       -1    1    3    3    0  502  0.93618593441E+03  0.13199755696E+04 -0.61319880310E+03  0.17305468443E+04  0.50400001928E-02 0. -1.
</event>
<event>
 5   0  0.1306843E-06  0.2545857E+04  0.7818609E-02  0.8386828E-01
        1   -1    0    0  501    0  0.00000000000E+00  0.00000000000E+00  0.14684094730E+04  0.14684094730E+04  0.50400001928E-02 0. -1.
       -1   -1    0    0    0  501  0.00000000000E+00  0.00000000000E+00 -0.11034709262E+04  0.11034709262E+04  0.50400001928E-02 0.  1.
    10030    2    1    2    0    0  0.00000000000E+00  0.00000000000E+00  0.36493854682E+03  0.25718803992E+04  0.25458571533E+04 0.  0.
        5    1    3    3  502    0 -0.32413023012E+03 -0.83716716342E+03  0.10941438278E+04  0.14153028197E+04  0.46999998093E+01 0. -1.
       -5    1    3    3    0  502  0.32413023012E+03  0.83716716342E+03 -0.72920528098E+03  0.11565775795E+04  0.46999998093E+01 0.  1.
</event>
<event>
 5   0  0.1306843E-06  0.3208477E+04  0.7818609E-02  0.8186582E-01
       -1   -1    0    0    0  501  0.00000000000E+00  0.00000000000E+00  0.16909290375E+04  0.16909290375E+04  0.50400001928E-02 0.  1.
        1   -1    0    0  501    0  0.00000000000E+00  0.00000000000E+00 -0.15219923981E+04  0.15219923981E+04  0.50400001928E-02 0. -1.
    10030    2    1    2    0    0  0.00000000000E+00  0.00000000000E+00  0.16893663947E+03  0.32129214356E+04  0.32084769850E+04 0.  0.
        5    1    3    3  502    0  0.28955178546E+03 -0.45771165399E+03  0.15965994142E+04  0.16859691498E+04  0.46999998093E+01 0.  1.
       -5    1    3    3    0  502 -0.28955178546E+03  0.45771165399E+03 -0.14276627747E+04  0.15269522858E+04  0.46999998093E+01 0. -1.
</event>
<event>
 5   0  0.3758062E-06  0.3204684E+04  0.7818609E-02  0.8187581E-01
       -2   -1    0    0    0  501  0.00000000000E+00  0.00000000000E+00  0.13563305992E+04  0.13563305992E+04  0.25500000920E-02 0.  1.
        2   -1    0    0  501    0  0.00000000000E+00  0.00000000000E+00 -0.18929745609E+04  0.18929745609E+04  0.25500000920E-02 0. -1.
    10030    2    1    2    0    0  0.00000000000E+00  0.00000000000E+00 -0.53664396171E+03  0.32493051601E+04  0.32046836477E+04 0.  0.
        2    1    3    3  502    0 -0.12706312388E+04  0.49575080723E+03  0.58435524563E+03  0.14838273690E+04  0.25500000920E-02 0.  1.
       -2    1    3    3    0  502  0.12706312388E+04 -0.49575080723E+03 -0.11209992073E+04  0.17654777911E+04  0.25500000920E-02 0. -1.
</event>
<event>
 5   0  0.1240725E-06  0.3271867E+04  0.7818609E-02  0.8170091E-01
       -1   -1    0    0    0  501  0.00000000000E+00  0.00000000000E+00  0.14507892603E+04  0.14507892603E+04  0.50400001928E-02 0. -1.
        1   -1    0    0  501    0  0.00000000000E+00  0.00000000000E+00 -0.18447053278E+04  0.18447053278E+04  0.50400001928E-02 0.  1.
    10030    2    1    2    0    0  0.00000000000E+00  0.00000000000E+00 -0.39391606749E+03  0.32954945881E+04  0.32718671599E+04 0.  0.
        3    1    3    3  502    0 -0.12224828972E+04 -0.81368200169E+03 -0.92309119480E+03  0.17345432246E+04  0.10100000352E+00 0.  1.
       -3    1    3    3    0  502  0.12224828972E+04  0.81368200169E+03  0.52917512731E+03  0.15609513635E+04  0.10100000352E+00 0. -1.
</event>
<event>
 5   0  0.1306843E-06  0.3091175E+04  0.7818609E-02  0.8218164E-01
       -1   -1    0    0    0  501  0.00000000000E+00  0.00000000000E+00  0.10412259016E+04  0.10412259016E+04  0.50400001928E-02 0.  1.
        1   -1    0    0  501    0  0.00000000000E+00  0.00000000000E+00 -0.22942571444E+04  0.22942571444E+04  0.50400001928E-02 0. -1.
    10030    2    1    2    0    0  0.00000000000E+00  0.00000000000E+00 -0.12530312428E+04  0.33354830460E+04  0.30911745106E+04 0.  0.
        5    1    3    3  502    0 -0.14992608066E+04  0.18543914692E+03 -0.27413663278E+03  0.15353643303E+04  0.46999998093E+01 0.  1.
       -5    1    3    3    0  502  0.14992608066E+04 -0.18543914692E+03 -0.97889461002E+03  0.18001187158E+04  0.46999998093E+01 0. -1.
</event>
<event>
 5   0  0.3745943E-06  0.3078145E+04  0.7818609E-02  0.8221761E-01
        2   -1    0    0  501    0  0.00000000000E+00  0.00000000000E+00  0.20013700134E+04  0.20013700134E+04  0.25500000920E-02 0.  1.
       -2   -1    0    0    0  501  0.00000000000E+00  0.00000000000E+00 -0.11835616953E+04  0.11835616953E+04  0.25500000920E-02 0. -1.
    10030    2    1    2    0    0  0.00000000000E+00  0.00000000000E+00  0.81780831812E+03  0.31849317088E+04  0.30781454716E+04 0.  0.
        5    1    3    3  502    0 -0.97329975896E+03  0.67896633118E+03 -0.60510172028E+03  0.13320952975E+04  0.46999998093E+01 0. -1.
       -5    1    3    3    0  502  0.97329975896E+03 -0.67896633118E+03  0.14229100384E+04  0.18528364113E+04  0.46999998093E+01 0.  1.
</event>
<event>
 5   0  0.3656086E-06  0.3212548E+04  0.7818609E-02  0.8185511E-01
        2   -1    0    0  501    0  0.00000000000E+00  0.00000000000E+00  0.20413945398E+04  0.20413945398E+04  0.25500000920E-02 0.  1.
       -2   -1    0    0    0  501  0.00000000000E+00  0.00000000000E+00 -0.12638989246E+04  0.12638989246E+04  0.25500000920E-02 0. -1.
    10030    2    1    2    0    0  0.00000000000E+00  0.00000000000E+00  0.77749561519E+03  0.33052934644E+04  0.32125481248E+04 0.  0.
        3    1    3    3  502    0  0.59854853341E+03 -0.84322808383E+03  0.16533883223E+04  0.19501248429E+04  0.10100000352E+00 0.  1.
       -3    1    3    3    0  502 -0.59854853341E+03  0.84322808383E+03 -0.87589270714E+03  0.13551686215E+04  0.10100000352E+00 0. -1.
</event>
<event>
 5   0  0.1306843E-06  0.3211050E+04  0.7818609E-02  0.8185905E-01
       -1   -1    0    0    0  501  0.00000000000E+00  0.00000000000E+00  0.17132595196E+04  0.17132595196E+04  0.50400001928E-02 0. -1.
        1   -1    0    0  501    0  0.00000000000E+00  0.00000000000E+00 -0.15045646974E+04  0.15045646974E+04  0.50400001928E-02 0.  1.
    10030    2    1    2    0    0  0.00000000000E+00  0.00000000000E+00  0.20869482223E+03  0.32178242170E+04  0.32110495422E+04 0.  0.
        5    1    3    3  502    0  0.10257863102E+04  0.12113750741E+04 -0.13703539314E+03  0.15932570142E+04  0.46999998093E+01 0.  1.
       -5    1    3    3    0  502 -0.10257863102E+04 -0.12113750741E+04  0.34573021537E+03  0.16245672028E+04  0.46999998093E+01 0. -1.
</event>
<event>
 5   0  0.3758062E-06  0.3558698E+04  0.7818609E-02  0.8100018E-01
        2   -1    0    0  501    0  0.00000000000E+00  0.00000000000E+00  0.18425906544E+04  0.18425906544E+04  0.25500000920E-02 0.  1.
       -2   -1    0    0    0  501  0.00000000000E+00  0.00000000000E+00 -0.17182779852E+04  0.17182779852E+04  0.25500000920E-02 0. -1.
    10030    2    1    2    0    0  0.00000000000E+00  0.00000000000E+00  0.12431266925E+03  0.35608686396E+04  0.35586980525E+04 0.  0.
        2    1    3    3  502    0  0.45812655902E+02 -0.56664218500E+03  0.17492751328E+04  0.18393329376E+04  0.25500000920E-02 0.  1.
       -2    1    3    3    0  502 -0.45812655902E+02  0.56664218500E+03 -0.16249624635E+04  0.17215357020E+04  0.25500000920E-02 0. -1.
</event>
<event>
 5   0  0.1268836E-06  0.3199277E+04  0.7818609E-02  0.8189008E-01
       -1   -1    0    0    0  501  0.00000000000E+00  0.00000000000E+00  0.11628015933E+04  0.11628015933E+04  0.50400001928E-02 0.  1.
        1   -1    0    0  501    0  0.00000000000E+00  0.00000000000E+00 -0.22005846354E+04  0.22005846354E+04  0.50400001928E-02 0. -1.
    10030    2    1    2    0    0  0.00000000000E+00  0.00000000000E+00 -0.10377830421E+04  0.33633862288E+04  0.31992769935E+04 0.  0.
        1    1    3    3  502    0  0.13399369576E+04 -0.65966580480E+03  0.83431477943E+02  0.14958445226E+04  0.50400001928E-02 0.  1.
       -1    1    3    3    0  502 -0.13399369576E+04  0.65966580480E+03 -0.11212145200E+04  0.18675417061E+04  0.50400001928E-02 0. -1.
</event>
<event>
 5   0  0.3531437E-06  0.3196837E+04  0.7818609E-02  0.8189653E-01
       -2   -1    0    0    0  501  0.00000000000E+00  0.00000000000E+00  0.13709666859E+04  0.13709666859E+04  0.25500000920E-02 0.  1.
        2   -1    0    0  501    0  0.00000000000E+00  0.00000000000E+00 -0.18636062579E+04  0.18636062579E+04  0.25500000920E-02 0. -1.
    10030    2    1    2    0    0  0.00000000000E+00  0.00000000000E+00 -0.49263957205E+03  0.32345729438E+04  0.31968372466E+04 0.  0.
        1    1    3    3  502    0  0.10911143419E+04  0.10279305710E+04  0.31499928466E+03  0.15317951284E+04  0.50400001928E-02 0.  1.
       -1    1    3    3    0  502 -0.10911143419E+04 -0.10279305710E+04 -0.80763885671E+03  0.17027778155E+04  0.50400001928E-02 0. -1.
</event>
<event>
 5   0  0.1273754E-06  0.3199224E+04  0.7818609E-02  0.8189022E-01
        1   -1    0    0  501    0  0.00000000000E+00  0.00000000000E+00  0.28707177570E+04  0.28707177570E+04  0.50400001928E-02 0.  1.
       -1   -1    0    0    0  501  0.00000000000E+00  0.00000000000E+00 -0.89133084477E+03  0.89133084478E+03  0.50400001928E-02 0. -1.
    10030    2    1    2    0    0  0.00000000000E+00  0.00000000000E+00  0.19793869122E+04  0.37620486018E+04  0.31992244582E+04 0.  0.
        2    1    3    3  502    0 -0.14311606892E+04  0.57307231673E+03  0.48785233672E+03  0.16169825915E+04  0.25500000920E-02 0.  1.
       -2    1    3    3    0  502  0.14311606892E+04 -0.57307231673E+03  0.14915345755E+04  0.21450660103E+04  0.25500000920E-02 0. -1.
</event>
<event>
 5   0  0.1240725E-06  0.3192145E+04  0.7818609E-02  0.8190895E-01
        1   -1    0    0  501    0  0.00000000000E+00  0.00000000000E+00  0.20575862173E+04  0.20575862173E+04  0.50400001928E-02 0.  1.
       -1   -1    0    0    0  501  0.00000000000E+00  0.00000000000E+00 -0.12380755895E+04  0.12380755895E+04  0.50400001928E-02 0. -1.
    10030    2    1    2    0    0  0.00000000000E+00  0.00000000000E+00  0.81951062778E+03  0.32956618069E+04  0.31921449021E+04 0.  0.
        3    1    3    3  502    0 -0.12399255882E+04 -0.70649480678E+02  0.14447826294E+04  0.19052043643E+04  0.10100000352E+00 0.  1.
       -3    1    3    3    0  502  0.12399255882E+04  0.70649480678E+02 -0.62527200158E+03  0.13904574426E+04  0.10100000352E+00 0. -1.
</event>
<event>
 5   0  0.1306843E-06  0.3028224E+04  0.7818609E-02  0.8235717E-01
       -1   -1    0    0    0  501  0.00000000000E+00  0.00000000000E+00  0.15788600941E+04  0.15788600941E+04  0.50400001928E-02 0. -1.
        1   -1    0    0  501    0  0.00000000000E+00  0.00000000000E+00 -0.14520196067E+04  0.14520196067E+04  0.50400001928E-02 0.  1.
    10030    2    1    2    0    0  0.00000000000E+00  0.00000000000E+00  0.12684048744E+03  0.30308797008E+04  0.30282244388E+04 0.  0.
        5    1    3    3  502    0 -0.22377861230E+03  0.14383143972E+04  0.48054525765E+03  0.15328962807E+04  0.46999998093E+01 0. -1.
       -5    1    3    3    0  502  0.22377861230E+03 -0.14383143972E+04 -0.35370477021E+03  0.14979834202E+04  0.46999998093E+01 0.  1.
</event>
<event>
 5   0  0.1273754E-06  0.3063790E+04  0.7818609E-02  0.8225746E-01
        1   -1    0    0  501    0  0.00000000000E+00  0.00000000000E+00  0.25155121523E+04  0.25155121523E+04  0.50400001928E-02 0.  1.
       -1   -1    0    0    0  501  0.00000000000E+00  0.00000000000E+00 -0.93289224982E+03  0.93289224984E+03  0.50400001928E-02 0. -1.
    10030    2    1    2    0    0  0.00000000000E+00  0.00000000000E+00  0.15826199024E+04  0.34484044021E+04  0.30637896737E+04 0.  0.
        2    1    3    3  502    0 -0.55494794732E+03  0.79066327524E+03 -0.54688807130E+03  0.11100460358E+04  0.25500000920E-02 0. -1.
       -2    1    3    3    0  502  0.55494794732E+03 -0.79066327524E+03  0.21295079737E+04  0.23383583663E+04  0.25500000920E-02 0.  1.
</event>
<event>
 5   0  0.3497546E-06  0.3202380E+04  0.7818609E-02  0.8188189E-01
        2   -1    0    0  501    0  0.00000000000E+00  0.00000000000E+00  0.22104312068E+04  0.22104312068E+04  0.25500000920E-02 0.  1.
       -2   -1    0    0    0  501  0.00000000000E+00  0.00000000000E+00 -0.11598686264E+04  0.11598686264E+04  0.25500000920E-02 0. -1.
    10030    2    1    2    0    0  0.00000000000E+00  0.00000000000E+00  0.10505625804E+04  0.33702998332E+04  0.32023802445E+04 0.  0.
        4    1    3    3  502    0 -0.14456254525E+03  0.12808601923E+04  0.15249884723E+04  0.19967705465E+04  0.12699999809E+01 0.  1.
       -4    1    3    3    0  502  0.14456254525E+03 -0.12808601923E+04 -0.47442589190E+03  0.13735292868E+04  0.12699999809E+01 0. -1.
</event>
<event>
 5   0  0.1273980E-06  0.3125332E+04  0.7818609E-02  0.8208820E-01
       -1   -1    0    0    0  501  0.00000000000E+00  0.00000000000E+00  0.15940457091E+04  0.15940457091E+04  0.50400001928E-02 0.  1.
        1   -1    0    0  501    0  0.00000000000E+00  0.00000000000E+00 -0.15319042892E+04  0.15319042892E+04  0.50400001928E-02 0. -1.
    10030    2    1    2    0    0  0.00000000000E+00  0.00000000000E+00  0.62141419929E+02  0.31259499983E+04  0.31253322761E+04 0.  0.
        4    1    3    3  502    0 -0.43414311398E+03 -0.14352750957E+04 -0.40882185924E+03  0.15542302819E+04  0.12699999809E+01 0. -1.
       -4    1    3    3    0  502  0.43414311398E+03  0.14352750957E+04  0.47096327917E+03  0.15717197164E+04  0.12699999809E+01 0.  1.
</event>
<event>
 5   0  0.1306843E-06  0.3148054E+04  0.7818609E-02  0.8202672E-01
       -1   -1    0    0    0  501  0.00000000000E+00  0.00000000000E+00  0.15179972168E+04  0.15179972168E+04  0.50400001928E-02 0.  1.
        1   -1    0    0  501    0  0.00000000000E+00  0.00000000000E+00 -0.16321251983E+04  0.16321251983E+04  0.50400001928E-02 0. -1.
    10030    2    1    2    0    0  0.00000000000E+00  0.00000000000E+00 -0.11412798156E+03  0.31501224151E+04  0.31480543251E+04 0.  0.
        5    1    3    3  502    0  0.13613264180E+04 -0.11892788381E+03  0.72459318337E+03  0.15467420047E+04  0.46999998093E+01 0.  1.
       -5    1    3    3    0  502 -0.13613264180E+04  0.11892788381E+03 -0.83872116494E+03  0.16033804104E+04  0.46999998093E+01 0. -1.
</event>
<event>
 5   0  0.1273754E-06  0.3161494E+04  0.7818609E-02  0.8199061E-01
        1   -1    0    0  501    0  0.00000000000E+00  0.00000000000E+00  0.22368605510E+04  0.22368605510E+04  0.50400001928E-02 0. -1.
       -1   -1    0    0    0  501  0.00000000000E+00  0.00000000000E+00 -0.11170840416E+04  0.11170840416E+04  0.50400001928E-02 0.  1.
    10030    2    1    2    0    0  0.00000000000E+00  0.00000000000E+00  0.11197765094E+04  0.33539445926E+04  0.31614940928E+04 0.  0.
        2    1    3    3  502    0  0.10146991271E+04 -0.73288407164E+03  0.15840721734E+04  0.20189150630E+04  0.25500000920E-02 0. -1.
       -2    1    3    3    0  502 -0.10146991271E+04  0.73288407164E+03 -0.46429566402E+03  0.13350295295E+04  0.25500000920E-02 0.  1.
</event>
<event>
 5   0  0.3531437E-06  0.3253514E+04  0.7818609E-02  0.8174825E-01
        2   -1    0    0  501    0  0.00000000000E+00  0.00000000000E+00  0.18641530400E+04  0.18641530400E+04  0.25500000920E-02 0. -1.
       -2   -1    0    0    0  501  0.00000000000E+00  0.00000000000E+00 -0.14195930253E+04  0.14195930253E+04  0.25500000920E-02 0.  1.
    10030    2    1    2    0    0  0.00000000000E+00  0.00000000000E+00  0.44456001473E+03  0.32837460653E+04  0.32535141947E+04 0.  0.
        1    1    3    3  502    0  0.45066911920E+03 -0.13369758381E+04  0.10395770329E+04  0.17525203149E+04  0.50400001928E-02 0. -1.
       -1    1    3    3    0  502 -0.45066911920E+03  0.13369758381E+04 -0.59501701821E+03  0.15312257504E+04  0.50400001928E-02 0.  1.
</event>
<event>
 5   0  0.3656086E-06  0.3184858E+04  0.7818609E-02  0.8192828E-01
       -2   -1    0    0    0  501  0.00000000000E+00  0.00000000000E+00  0.25423753768E+04  0.25423753768E+04  0.25500000920E-02 0.  1.
        2   -1    0    0  501    0  0.00000000000E+00  0.00000000000E+00 -0.99742574951E+03  0.99742574951E+03  0.25500000920E-02 0. -1.
    10030    2    1    2    0    0  0.00000000000E+00  0.00000000000E+00  0.15449496273E+04  0.35398011263E+04  0.31848583427E+04 0.  0.
        3    1    3    3  502    0 -0.11540676973E+04  0.10721446570E+04  0.51309004694E+03  0.16566918307E+04  0.10100000352E+00 0. -1.
       -3    1    3    3    0  502  0.11540676973E+04 -0.10721446570E+04  0.10318595804E+04  0.18831092956E+04  0.10100000352E+00 0.  1.
</event>
<event>
 5   0  0.3656086E-06  0.3205262E+04  0.7818609E-02  0.8187429E-01
        2   -1    0    0  501    0  0.00000000000E+00  0.00000000000E+00  0.10305794917E+04  0.10305794917E+04  0.25500000920E-02 0. -1.
       -2   -1    0    0    0  501  0.00000000000E+00  0.00000000000E+00 -0.24922161296E+04  0.24922161296E+04  0.25500000920E-02 0.  1.
    10030    2    1    2    0    0  0.00000000000E+00  0.00000000000E+00 -0.14616366379E+04  0.35227956212E+04  0.32052624429E+04 0.  0.
        3    1    3    3  502    0  0.70001437103E+03  0.96054199328E+03  0.45074981306E+03  0.12711555549E+04  0.10100000352E+00 0. -1.
       -3    1    3    3    0  502 -0.70001437103E+03 -0.96054199328E+03 -0.19123864509E+04  0.22516400664E+04  0.10100000352E+00 0.  1.
</event>
<event>
 5   0  0.1273980E-06  0.3125300E+04  0.7818609E-02  0.8208829E-01
        1   -1    0    0  501    0  0.00000000000E+00  0.00000000000E+00  0.17386486868E+04  0.17386486869E+04  0.50400001928E-02 0.  1.
       -1   -1    0    0    0  501  0.00000000000E+00  0.00000000000E+00 -0.14044674107E+04  0.14044674107E+04  0.50400001928E-02 0. -1.
    10030    2    1    2    0    0  0.00000000000E+00  0.00000000000E+00  0.33418127614E+03  0.31431160976E+04  0.31253002540E+04 0.  0.
        4    1    3    3  502    0  0.21774161049E+03  0.14317890767E+04 -0.42314713927E+03  0.15088029969E+04  0.12699999809E+01 0. -1.
       -4    1    3    3    0  502 -0.21774161049E+03 -0.14317890767E+04  0.75732841541E+03  0.16343131006E+04  0.12699999809E+01 0.  1.
</event>
<event>
 5   0  0.3531437E-06  0.3150121E+04  0.7818609E-02  0.8202116E-01
       -2   -1    0    0    0  501  0.00000000000E+00  0.00000000000E+00  0.25372899581E+04  0.25372899581E+04  0.25500000920E-02 0.  1.
        2   -1    0    0  501    0  0.00000000000E+00  0.00000000000E+00 -0.97774200111E+03  0.97774200112E+03  0.25500000920E-02 0. -1.
    10030    2    1    2    0    0  0.00000000000E+00  0.00000000000E+00  0.15595479569E+04  0.35150319592E+04  0.31501206078E+04 0.  0.
        1    1    3    3  502    0 -0.12664634887E+03 -0.83141761037E+03 -0.70623075523E+03  0.10982060008E+04  0.50400001928E-02 0. -1.
       -1    1    3    3    0  502  0.12664634887E+03  0.83141761037E+03  0.22657787122E+04  0.24168259584E+04  0.50400001928E-02 0.  1.
</event>
<event>
 5   0  0.1273754E-06  0.3195841E+04  0.7818609E-02  0.8189916E-01
       -1   -1    0    0    0  501  0.00000000000E+00  0.00000000000E+00  0.14623438234E+04  0.14623438234E+04  0.50400001928E-02 0. -1.
        1   -1    0    0  501    0  0.00000000000E+00  0.00000000000E+00 -0.17460669430E+04  0.17460669430E+04  0.50400001928E-02 0.  1.
    10030    2    1    2    0    0  0.00000000000E+00  0.00000000000E+00 -0.28372311960E+03  0.32084107664E+04  0.31958411784E+04 0.  0.
        2    1    3    3  502    0  0.24758423615E+03  0.33981292112E+03 -0.16895407529E+04  0.17410682729E+04  0.25500000920E-02 0.  1.
       -2    1    3    3    0  502 -0.24758423615E+03 -0.33981292112E+03  0.14058176333E+04  0.14673424935E+04  0.25500000920E-02 0. -1.
</event>
<event>
 5   0  0.1268836E-06  0.3222935E+04  0.7818609E-02  0.8182786E-01
       -1   -1    0    0    0  501  0.00000000000E+00  0.00000000000E+00  0.10819367557E+04  0.10819367557E+04  0.50400001928E-02 0.  1.
        1   -1    0    0  501    0  0.00000000000E+00  0.00000000000E+00 -0.24001653297E+04  0.24001653297E+04  0.50400001928E-02 0. -1.
    10030    2    1    2    0    0  0.00000000000E+00  0.00000000000E+00 -0.13182285741E+04  0.34821020854E+04  0.32229347433E+04 0.  0.
        1    1    3    3  502    0  0.10618877293E+04  0.12309348478E+03 -0.19619287605E+04  0.22342609554E+04  0.50400001928E-02 0. -1.
       -1    1    3    3    0  502 -0.10618877293E+04 -0.12309348478E+03  0.64370018642E+03  0.12478411300E+04  0.50400001928E-02 0.  1.
</event>
<event>
 5   0  0.1306843E-06  0.3226436E+04  0.7818609E-02  0.8181870E-01
       -1   -1    0    0    0  501  0.00000000000E+00  0.00000000000E+00  0.14783357625E+04  0.14783357625E+04  0.50400001928E-02 0.  1.
        1   -1    0    0  501    0  0.00000000000E+00  0.00000000000E+00 -0.17604068042E+04  0.17604068042E+04  0.50400001928E-02 0. -1.
    10030    2    1    2    0    0  0.00000000000E+00  0.00000000000E+00 -0.28207104163E+03  0.32387425667E+04  0.32264360122E+04 0.  0.
        5    1    3    3  502    0 -0.10979884687E+04 -0.91607817244E+03  0.60858752350E+03  0.15540845405E+04  0.46999998093E+01 0. -1.
       -5    1    3    3    0  502  0.10979884687E+04  0.91607817244E+03 -0.89065856513E+03  0.16846580261E+04  0.46999998093E+01 0.  1.
</event>
<event>
 5   0  0.3758062E-06  0.3168797E+04  0.7818609E-02  0.8197107E-01
        2   -1    0    0  501    0  0.00000000000E+00  0.00000000000E+00  0.24019323677E+04  0.24019323677E+04  0.25500000920E-02 0. -1.
       -2   -1    0    0    0  501  0.00000000000E+00  0.00000000000E+00 -0.10451248013E+04  0.10451248013E+04  0.25500000920E-02 0.  1.
    10030    2    1    2    0    0  0.00000000000E+00  0.00000000000E+00  0.13568075665E+04  0.34470571690E+04  0.31687973041E+04 0.  0.
        2    1    3    3  502    0  0.35493917886E+03 -0.83060352440E+03 -0.73760676936E+03  0.11661679903E+04  0.25500000920E-02 0.  1.
       -2    1    3    3    0  502 -0.35493917886E+03  0.83060352440E+03  0.20944143358E+04  0.22808891787E+04  0.25500000920E-02 0. -1.
</event>
<event>
 5   0  0.3531437E-06  0.3208228E+04  0.7818609E-02  0.8186648E-01
        2   -1    0    0  501    0  0.00000000000E+00  0.00000000000E+00  0.21260505128E+04  0.21260505128E+04  0.25500000920E-02 0. -1.
       -2   -1    0    0    0  501  0.00000000000E+00  0.00000000000E+00 -0.12103107920E+04  0.12103107920E+04  0.25500000920E-02 0.  1.
    10030    2    1    2    0    0  0.00000000000E+00  0.00000000000E+00  0.91573972082E+03  0.33363613049E+04  0.32082280967E+04 0.  0.
        1    1    3    3  502    0 -0.31691740876E+03 -0.10923700002E+04  0.16341842338E+04  0.19910467024E+04  0.50400001928E-02 0. -1.
       -1    1    3    3    0  502  0.31691740876E+03  0.10923700002E+04 -0.71844451296E+03  0.13453146024E+04  0.50400001928E-02 0.  1.
</event>
<event>
 5   0  0.3656086E-06  0.3197545E+04  0.7818609E-02  0.8189466E-01
       -2   -1    0    0    0  501  0.00000000000E+00  0.00000000000E+00  0.11133876436E+04  0.11133876436E+04  0.25500000920E-02 0. -1.
        2   -1    0    0  501    0  0.00000000000E+00  0.00000000000E+00 -0.22957626260E+04  0.22957626260E+04  0.25500000920E-02 0.  1.
    10030    2    1    2    0    0  0.00000000000E+00  0.00000000000E+00 -0.11823749823E+04  0.34091502696E+04  0.31975451462E+04 0.  0.
        3    1    3    3  502    0 -0.73310723804E+02 -0.86473514737E+03  0.84040423740E+03  0.12080648285E+04  0.10100000352E+00 0. -1.
       -3    1    3    3    0  502  0.73310723804E+02  0.86473514737E+03 -0.20227792197E+04  0.22010854412E+04  0.10100000352E+00 0.  1.
</event>
<event>
 5   0  0.1185575E-06  0.3175932E+04  0.7818609E-02  0.8195202E-01
       -3   -1    0    0    0  501  0.00000000000E+00  0.00000000000E+00  0.11753660428E+04  0.11753660472E+04  0.10100000352E+00 0. -1.
        3   -1    0    0  501    0  0.00000000000E+00  0.00000000000E+00 -0.21454050099E+04  0.21454050123E+04  0.10100000352E+00 0.  1.
    10030    2    1    2    0    0  0.00000000000E+00  0.00000000000E+00 -0.97003896711E+03  0.33207710595E+04  0.31759321201E+04 0.  0.
        5    1    3    3  502    0  0.43914382760E+03 -0.54385780921E+03  0.10058336568E+04  0.12248885881E+04  0.46999998093E+01 0. -1.
       -5    1    3    3    0  502 -0.43914382760E+03  0.54385780921E+03 -0.19758726239E+04  0.20958824714E+04  0.46999998093E+01 0.  1.
</event>
<event>
 5   0  0.1273754E-06  0.3224545E+04  0.7818609E-02  0.8182365E-01
        1   -1    0    0  501    0  0.00000000000E+00  0.00000000000E+00  0.15360440544E+04  0.15360440544E+04  0.50400001928E-02 0. -1.
       -1   -1    0    0    0  501  0.00000000000E+00  0.00000000000E+00 -0.16922838452E+04  0.16922838452E+04  0.50400001928E-02 0.  1.
    10030    2    1    2    0    0  0.00000000000E+00  0.00000000000E+00 -0.15623979088E+03  0.32283278996E+04  0.32245449532E+04 0.  0.
        2    1    3    3  502    0  0.13188956897E+04 -0.26466008074E+03 -0.96792110095E+03  0.16572272193E+04  0.25500000920E-02 0.  1.
       -2    1    3    3    0  502 -0.13188956897E+04  0.26466008074E+03  0.81168131007E+03  0.15711006803E+04  0.25500000920E-02 0. -1.
</event>
<event>
 5   0  0.3497546E-06  0.3216638E+04  0.7818609E-02  0.8184437E-01
       -2   -1    0    0    0  501  0.00000000000E+00  0.00000000000E+00  0.15352468079E+04  0.15352468079E+04  0.25500000920E-02 0. -1.
        2   -1    0    0  501    0  0.00000000000E+00  0.00000000000E+00 -0.16848695916E+04  0.16848695916E+04  0.25500000920E-02 0.  1.
    10030    2    1    2    0    0  0.00000000000E+00  0.00000000000E+00 -0.14962278369E+03  0.32201163995E+04  0.32166384081E+04 0.  0.
        4    1    3    3  502    0 -0.11708399722E+04  0.10992579455E+04  0.11623020694E+02  0.16060420227E+04  0.12699999809E+01 0. -1.
       -4    1    3    3    0  502  0.11708399722E+04 -0.10992579455E+04 -0.16124580438E+03  0.16140743767E+04  0.12699999809E+01 0.  1.
</event>
<event>
 5   0  0.3531437E-06  0.3262763E+04  0.7818609E-02  0.8172436E-01
        2   -1    0    0  501    0  0.00000000000E+00  0.00000000000E+00  0.17263305664E+04  0.17263305664E+04  0.25500000920E-02 0. -1.
       -2   -1    0    0    0  501  0.00000000000E+00  0.00000000000E+00 -0.15416546167E+04  0.15416546167E+04  0.25500000920E-02 0.  1.
    10030    2    1    2    0    0  0.00000000000E+00  0.00000000000E+00  0.18467594970E+03  0.32679851830E+04  0.32627629320E+04 0.  0.
        1    1    3    3  502    0 -0.11314804933E+04  0.87769424097E+03 -0.69045640619E+03  0.15897563764E+04  0.50400001928E-02 0.  1.
       -1    1    3    3    0  502  0.11314804933E+04 -0.87769424097E+03  0.87513235589E+03  0.16782288067E+04  0.50400001928E-02 0. -1.
</event>
<event>
 5   0  0.1268836E-06  0.3138556E+04  0.7818609E-02  0.8205235E-01
       -1   -1    0    0    0  501  0.00000000000E+00  0.00000000000E+00  0.85717283333E+03  0.85717283335E+03  0.50400001928E-02 0.  1.
        1   -1    0    0  501    0  0.00000000000E+00  0.00000000000E+00 -0.28729725034E+04  0.28729725034E+04  0.50400001928E-02 0. -1.
    10030    2    1    2    0    0  0.00000000000E+00  0.00000000000E+00 -0.20157996701E+04  0.37301453368E+04  0.31385563439E+04 0.  0.
        1    1    3    3  502    0  0.13394217905E+04  0.74796691249E+03 -0.14005134952E+04  0.20772441564E+04  0.50400001928E-02 0. -1.
       -1    1    3    3    0  502 -0.13394217905E+04 -0.74796691249E+03 -0.61528617489E+03  0.16529011804E+04  0.50400001928E-02 0.  1.
</event>
<event>
 5   0  0.1306843E-06  0.3221296E+04  0.7818609E-02  0.8183216E-01
       -1   -1    0    0    0  501  0.00000000000E+00  0.00000000000E+00  0.12377104711E+04  0.12377104711E+04  0.50400001928E-02 0.  1.
        1   -1    0    0  501    0  0.00000000000E+00  0.00000000000E+00 -0.20959561073E+04  0.20959561073E+04  0.50400001928E-02 0. -1.
    10030    2    1    2    0    0  0.00000000000E+00  0.00000000000E+00 -0.85824563618E+03  0.33336665784E+04  0.32212959014E+04 0.  0.
        5    1    3    3  502    0  0.11461090090E+04  0.51880951732E+03  0.61166128277E+03  0.13988855531E+04  0.46999998093E+01 0.  1.
       -5    1    3    3    0  502 -0.11461090090E+04 -0.51880951732E+03 -0.14699069189E+04  0.19347810254E+04  0.46999998093E+01 0. -1.
</event>
<event>
 5   0  0.3745943E-06  0.3310664E+04  0.7818609E-02  0.8160187E-01
       -2   -1    0    0    0  501  0.00000000000E+00  0.00000000000E+00  0.95940173826E+03  0.95940173826E+03  0.25500000920E-02 0.  1.
        2   -1    0    0  501    0  0.00000000000E+00  0.00000000000E+00 -0.28560763641E+04  0.28560763641E+04  0.25500000920E-02 0. -1.
    10030    2    1    2    0    0  0.00000000000E+00  0.00000000000E+00 -0.18966746259E+04  0.38154781024E+04  0.33106643613E+04 0.  0.
        5    1    3    3  502    0 -0.40366575871E+02 -0.16087411709E+04 -0.13953230967E+04  0.21299357383E+04  0.46999998093E+01 0. -1.
       -5    1    3    3    0  502  0.40366575871E+02  0.16087411709E+04 -0.50135152916E+03  0.16855423641E+04  0.46999998093E+01 0.  1.
</event>
<event>
 5   0  0.3745943E-06  0.3187946E+04  0.7818609E-02  0.8192008E-01
       -2   -1    0    0    0  501  0.00000000000E+00  0.00000000000E+00  0.12107673691E+04  0.12107673691E+04  0.25500000920E-02 0.  1.
        2   -1    0    0  501    0  0.00000000000E+00  0.00000000000E+00 -0.20984629081E+04  0.20984629081E+04  0.25500000920E-02 0. -1.
    10030    2    1    2    0    0  0.00000000000E+00  0.00000000000E+00 -0.88769553895E+03  0.33092302772E+04  0.31879463072E+04 0.  0.
        5    1    3    3  502    0 -0.27105425835E+03  0.13962403062E+04  0.30309068526E+03  0.14542501357E+04  0.46999998093E+01 0.  1.
       -5    1    3    3    0  502  0.27105425835E+03 -0.13962403062E+04 -0.11907862242E+04  0.18549801415E+04  0.46999998093E+01 0. -1.
</event>
<event>
 5   0  0.3745943E-06  0.3194689E+04  0.7818609E-02  0.8190221E-01
       -2   -1    0    0    0  501  0.00000000000E+00  0.00000000000E+00  0.10140926710E+04  0.10140926710E+04  0.25500000920E-02 0.  1.
        2   -1    0    0  501    0  0.00000000000E+00  0.00000000000E+00 -0.25160512918E+04  0.25160512918E+04  0.25500000920E-02 0. -1.
    10030    2    1    2    0    0  0.00000000000E+00  0.00000000000E+00 -0.15019586208E+04  0.35301439628E+04  0.31946888267E+04 0.  0.
        5    1    3    3  502    0 -0.91689629257E+03 -0.73891550410E+03 -0.19435608204E+04  0.22724756733E+04  0.46999998093E+01 0. -1.
       -5    1    3    3    0  502  0.91689629257E+03  0.73891550410E+03  0.44160219960E+03  0.12576682894E+04  0.46999998093E+01 0.  1.
</event>
<event>
 5   0  0.3497546E-06  0.3259002E+04  0.7818609E-02  0.8173406E-01
        2   -1    0    0  501    0  0.00000000000E+00  0.00000000000E+00  0.21642002898E+04  0.21642002898E+04  0.25500000920E-02 0.  1.
       -2   -1    0    0    0  501  0.00000000000E+00  0.00000000000E+00 -0.12269074705E+04  0.12269074705E+04  0.25500000920E-02 0. -1.
    10030    2    1    2    0    0  0.00000000000E+00  0.00000000000E+00  0.93729281925E+03  0.33911077603E+04  0.32590019965E+04 0.  0.
        4    1    3    3  502    0 -0.47075796127E+03 -0.64698609041E+03  0.19457188640E+04  0.21038126271E+04  0.12699999809E+01 0.  1.
       -4    1    3    3    0  502  0.47075796127E+03  0.64698609041E+03 -0.10084260448E+04  0.12872951332E+04  0.12699999809E+01 0. -1.
</event>
<event>
 5   0  0.3497546E-06  0.3329571E+04  0.7818609E-02  0.8155411E-01
       -2   -1    0    0    0  501  0.00000000000E+00  0.00000000000E+00  0.11602631754E+04  0.11602631754E+04  0.25500000920E-02 0.  1.
        2   -1    0    0  501    0  0.00000000000E+00  0.00000000000E+00 -0.23886920118E+04  0.23886920118E+04  0.25500000920E-02 0. -1.
    10030    2    1    2    0    0  0.00000000000E+00  0.00000000000E+00 -0.12284288364E+04  0.35489551872E+04  0.33295713711E+04 0.  0.
        4    1    3    3  502    0  0.20028020294E+03  0.12022219658E+04  0.59455313554E+03  0.13560770106E+04  0.12699999809E+01 0.  1.
       -4    1    3    3    0  502 -0.20028020294E+03 -0.12022219658E+04 -0.18229819719E+04  0.21928781767E+04  0.12699999809E+01 0. -1.
</event>
<event>
 5   0  0.1306843E-06  0.3181868E+04  0.7818609E-02  0.8193622E-01
        1   -1    0    0  501    0  0.00000000000E+00  0.00000000000E+00  0.20468965771E+04  0.20468965771E+04  0.50400001928E-02 0.  1.
       -1   -1    0    0    0  501  0.00000000000E+00  0.00000000000E+00 -0.12365410448E+04  0.12365410448E+04  0.50400001928E-02 0. -1.
    10030    2    1    2    0    0  0.00000000000E+00  0.00000000000E+00  0.81035553222E+03  0.32834376219E+04  0.31818684021E+04 0.  0.
        5    1    3    3  502    0 -0.87091133586E+03 -0.50864426685E+03 -0.86448129884E+03  0.13283657445E+04  0.46999998093E+01 0. -1.
       -5    1    3    3    0  502  0.87091133586E+03  0.50864426685E+03  0.16748368311E+04  0.19550718774E+04  0.46999998093E+01 0.  1.
</event>
<event>
 5   0  0.3656086E-06  0.3207267E+04  0.7818609E-02  0.8186901E-01
        2   -1    0    0  501    0  0.00000000000E+00  0.00000000000E+00  0.25928399134E+04  0.25928399134E+04  0.25500000920E-02 0. -1.
       -2   -1    0    0    0  501  0.00000000000E+00  0.00000000000E+00 -0.99182408464E+03  0.99182408464E+03  0.25500000920E-02 0.  1.
    10030    2    1    2    0    0  0.00000000000E+00  0.00000000000E+00  0.16010158288E+04  0.35846639981E+04  0.32072674187E+04 0.  0.
        3    1    3    3  502    0  0.88193461359E+03  0.46684407861E+03  0.22035674337E+04  0.24189794339E+04  0.10100000352E+00 0. -1.
       -3    1    3    3    0  502 -0.88193461359E+03 -0.46684407861E+03 -0.60255160493E+03  0.11656845642E+04  0.10100000352E+00 0.  1.
</event>
<event>
 5   0  0.3497546E-06  0.3117989E+04  0.7818609E-02  0.8210818E-01
       -2   -1    0    0    0  501  0.00000000000E+00  0.00000000000E+00  0.12745919053E+04  0.12745919053E+04  0.25500000920E-02 0. -1.
        2   -1    0    0  501    0  0.00000000000E+00  0.00000000000E+00 -0.19068570245E+04  0.19068570245E+04  0.25500000920E-02 0.  1.
    10030    2    1    2    0    0  0.00000000000E+00  0.00000000000E+00 -0.63226511922E+03  0.31814489298E+04  0.31179894343E+04 0.  0.
        4    1    3    3  502    0  0.12091309442E+04  0.90481682035E+03  0.78747621042E+02  0.15122479688E+04  0.12699999809E+01 0. -1.
       -4    1    3    3    0  502 -0.12091309442E+04 -0.90481682035E+03 -0.71101274026E+03  0.16692009610E+04  0.12699999809E+01 0.  1.
</event>
<event>
 5   0  0.1240725E-06  0.3171408E+04  0.7818609E-02  0.8196409E-01
       -1   -1    0    0    0  501  0.00000000000E+00  0.00000000000E+00  0.18600520315E+04  0.18600520315E+04  0.50400001928E-02 0. -1.
        1   -1    0    0  501    0  0.00000000000E+00  0.00000000000E+00 -0.13518205704E+04  0.13518205704E+04  0.50400001928E-02 0.  1.
    10030    2    1    2    0    0  0.00000000000E+00  0.00000000000E+00  0.50823146107E+03  0.32118726020E+04  0.31714076359E+04 0.  0.
        3    1    3    3  502    0  0.32860877565E+03  0.31106176440E+02  0.18248741609E+04  0.18544856524E+04  0.10100000352E+00 0. -1.
       -3    1    3    3    0  502 -0.32860877565E+03 -0.31106176440E+02 -0.13166426998E+04  0.13573869496E+04  0.10100000352E+00 0.  1.
</event>
<event>
 5   0  0.3745943E-06  0.3227195E+04  0.7818609E-02  0.8181672E-01
        2   -1    0    0  501    0  0.00000000000E+00  0.00000000000E+00  0.13307600252E+04  0.13307600252E+04  0.25500000920E-02 0.  1.
       -2   -1    0    0    0  501  0.00000000000E+00  0.00000000000E+00 -0.19565482630E+04  0.19565482630E+04  0.25500000920E-02 0. -1.
    10030    2    1    2    0    0  0.00000000000E+00  0.00000000000E+00 -0.62578823783E+03  0.32873082882E+04  0.32271945810E+04 0.  0.
        5    1    3    3  502    0 -0.44972594362E+03 -0.65414237149E+03 -0.17438817489E+04  0.19160640153E+04  0.46999998093E+01 0. -1.
       -5    1    3    3    0  502  0.44972594362E+03  0.65414237149E+03  0.11180935111E+04  0.13712442729E+04  0.46999998093E+01 0.  1.
</event>
<event>
 5   0  0.3758062E-06  0.3218607E+04  0.7818609E-02  0.8183920E-01
       -2   -1    0    0    0  501  0.00000000000E+00  0.00000000000E+00  0.21008165494E+04  0.21008165494E+04  0.25500000920E-02 0. -1.
        2   -1    0    0  501    0  0.00000000000E+00  0.00000000000E+00 -0.12327861504E+04  0.12327861504E+04  0.25500000920E-02 0.  1.
    10030    2    1    2    0    0  0.00000000000E+00  0.00000000000E+00  0.86803039900E+03  0.33336026999E+04  0.32186068706E+04 0.  0.
        2    1    3    3  502    0  0.74730003429E+03 -0.12513356252E+04 -0.27268210649E+03  0.14827857969E+04  0.25500000920E-02 0.  1.
       -2    1    3    3    0  502 -0.74730003429E+03  0.12513356252E+04  0.11407125055E+04  0.18508169030E+04  0.25500000920E-02 0. -1.
</event>
<event>
 5   0  0.1268836E-06  0.3211945E+04  0.7818609E-02  0.8185670E-01
       -1   -1    0    0    0  501  0.00000000000E+00  0.00000000000E+00  0.10858087639E+04  0.10858087639E+04  0.50400001928E-02 0.  1.
        1   -1    0    0  501    0  0.00000000000E+00  0.00000000000E+00 -0.23753235626E+04  0.23753235626E+04  0.50400001928E-02 0. -1.
    10030    2    1    2    0    0  0.00000000000E+00  0.00000000000E+00 -0.12895147987E+04  0.34611323265E+04  0.32119446704E+04 0.  0.
        1    1    3    3  502    0 -0.98155127991E+03 -0.97651117055E+02  0.72091237782E+03  0.12217582872E+04  0.50400001928E-02 0.  1.
       -1    1    3    3    0  502  0.98155127991E+03  0.97651117055E+02 -0.20104271766E+04  0.22393740393E+04  0.50400001928E-02 0. -1.
</event>
<event>
 5   0  0.3745943E-06  0.3172489E+04  0.7818609E-02  0.8196121E-01
        2   -1    0    0  501    0  0.00000000000E+00  0.00000000000E+00  0.15609784854E+04  0.15609784854E+04  0.25500000920E-02 0.  1.
       -2   -1    0    0    0  501  0.00000000000E+00  0.00000000000E+00 -0.16119189695E+04  0.16119189695E+04  0.25500000920E-02 0. -1.
    10030    2    1    2    0    0  0.00000000000E+00  0.00000000000E+00 -0.50940484069E+02  0.31728974548E+04  0.31724885068E+04 0.  0.
        5    1    3    3  502    0  0.71994581495E+03  0.52931027431E+02 -0.14381058780E+04  0.16091284213E+04  0.46999998093E+01 0. -1.
       -5    1    3    3    0  502 -0.71994581495E+03 -0.52931027431E+02  0.13871653939E+04  0.15637690335E+04  0.46999998093E+01 0.  1.
</event>
<event>
 5   0  0.3745943E-06  0.3170223E+04  0.7818609E-02  0.8196726E-01
        2   -1    0    0  501    0  0.00000000000E+00  0.00000000000E+00  0.23291759244E+04  0.23291759244E+04  0.25500000920E-02 0. -1.
       -2   -1    0    0    0  501  0.00000000000E+00  0.00000000000E+00 -0.10787413831E+04  0.10787413831E+04  0.25500000920E-02 0.  1.
    10030    2    1    2    0    0  0.00000000000E+00  0.00000000000E+00  0.12504345413E+04  0.34079173075E+04  0.31702229942E+04 0.  0.
        5    1    3    3  502    0 -0.90440675193E+03 -0.55030316263E+03 -0.64296933810E+03  0.12386350566E+04  0.46999998093E+01 0.  1.
       -5    1    3    3    0  502  0.90440675193E+03  0.55030316263E+03  0.18934038794E+04  0.21692822509E+04  0.46999998093E+01 0. -1.
</event>
<event>
 5   0  0.3656086E-06  0.3202380E+04  0.7818609E-02  0.8188189E-01
       -2   -1    0    0    0  501  0.00000000000E+00  0.00000000000E+00  0.17748026803E+04  0.17748026803E+04  0.25500000920E-02 0. -1.
        2   -1    0    0  501    0  0.00000000000E+00  0.00000000000E+00 -0.14445602088E+04  0.14445602088E+04  0.25500000920E-02 0.  1.
    10030    2    1    2    0    0  0.00000000000E+00  0.00000000000E+00  0.33024247152E+03  0.32193628890E+04  0.32023799464E+04 0.  0.
        3    1    3    3  502    0 -0.43922134502E+03  0.13939217352E+04 -0.49247013211E+03  0.15422256758E+04  0.10100000352E+00 0.  1.
       -3    1    3    3    0  502  0.43922134502E+03 -0.13939217352E+04  0.82271260363E+03  0.16771372133E+04  0.10100000352E+00 0. -1.
</event>
<event>
 5   0  0.1273754E-06  0.2798396E+04  0.7818609E-02  0.8303766E-01
       -1   -1    0    0    0  501  0.00000000000E+00  0.00000000000E+00  0.11381946690E+04  0.11381946690E+04  0.50400001928E-02 0.  1.
        1   -1    0    0  501    0  0.00000000000E+00  0.00000000000E+00 -0.17200531220E+04  0.17200531220E+04  0.50400001928E-02 0. -1.
    10030    2    1    2    0    0  0.00000000000E+00  0.00000000000E+00 -0.58185845300E+03  0.28582477910E+04  0.27983961791E+04 0.  0.
        2    1    3    3  502    0  0.65036475871E+03 -0.12386625254E+04 -0.26817902820E+03  0.14244925982E+04  0.25500000920E-02 0. -1.
       -2    1    3    3    0  502 -0.65036475871E+03  0.12386625254E+04 -0.31367942481E+03  0.14337551928E+04  0.25500000920E-02 0.  1.
</event>
<event>
 5   0  0.1306843E-06  0.3153856E+04  0.7818609E-02  0.8201111E-01
        1   -1    0    0  501    0  0.00000000000E+00  0.00000000000E+00  0.16773963308E+04  0.16773963308E+04  0.50400001928E-02 0. -1.
       -1   -1    0    0    0  501  0.00000000000E+00  0.00000000000E+00 -0.14824768375E+04  0.14824768375E+04  0.50400001928E-02 0.  1.
    10030    2    1    2    0    0  0.00000000000E+00  0.00000000000E+00  0.19491949332E+03  0.31598731683E+04  0.31538555501E+04 0.  0.
        5    1    3    3  502    0 -0.55458460501E+03  0.22600289695E+03  0.15590226590E+04  0.16700943491E+04  0.46999998093E+01 0. -1.
       -5    1    3    3    0  502  0.55458460501E+03 -0.22600289695E+03 -0.13641031657E+04  0.14897788192E+04  0.46999998093E+01 0.  1.
</event>
<event>
 5   0  0.3758062E-06  0.3160886E+04  0.7818609E-02  0.8199224E-01
       -2   -1    0    0    0  501  0.00000000000E+00  0.00000000000E+00  0.17910636246E+04  0.17910636246E+04  0.25500000920E-02 0. -1.
        2   -1    0    0  501    0  0.00000000000E+00  0.00000000000E+00 -0.13945899289E+04  0.13945899289E+04  0.25500000920E-02 0.  1.
    10030    2    1    2    0    0  0.00000000000E+00  0.00000000000E+00  0.39647369568E+03  0.31856535535E+04  0.31608855043E+04 0.  0.
        2    1    3    3  502    0  0.13005826428E+04  0.21156601615E+03  0.10777281496E+04  0.17022847454E+04  0.25500000920E-02 0. -1.
       -2    1    3    3    0  502 -0.13005826428E+04 -0.21156601615E+03 -0.68125445389E+03  0.14833688081E+04  0.25500000920E-02 0.  1.
</event>
<event>
 5   0  0.3531437E-06  0.3205574E+04  0.7818609E-02  0.8187347E-01
        2   -1    0    0  501    0  0.00000000000E+00  0.00000000000E+00  0.19999037383E+04  0.19999037383E+04  0.25500000920E-02 0.  1.
       -2   -1    0    0    0  501  0.00000000000E+00  0.00000000000E+00 -0.12845249705E+04  0.12845249705E+04  0.25500000920E-02 0. -1.
    10030    2    1    2    0    0  0.00000000000E+00  0.00000000000E+00  0.71537876777E+03  0.32844287087E+04  0.32055740767E+04 0.  0.
        1    1    3    3  502    0 -0.79326851371E+03  0.88636018340E+03  0.14583669679E+04  0.18819520511E+04  0.50400001928E-02 0.  1.
       -1    1    3    3    0  502  0.79326851371E+03 -0.88636018340E+03 -0.74298820016E+03  0.14024766576E+04  0.50400001928E-02 0. -1.
</event>
<event>
 5   0  0.1273980E-06  0.3339000E+04  0.7818609E-02  0.8153042E-01
        1   -1    0    0  501    0  0.00000000000E+00  0.00000000000E+00  0.13583962328E+04  0.13583962328E+04  0.50400001928E-02 0.  1.
       -1   -1    0    0    0  501  0.00000000000E+00  0.00000000000E+00 -0.20518535575E+04  0.20518535575E+04  0.50400001928E-02 0. -1.
    10030    2    1    2    0    0  0.00000000000E+00  0.00000000000E+00 -0.69345732474E+03  0.34102497903E+04  0.33389999358E+04 0.  0.
        4    1    3    3  502    0  0.52438857226E+03  0.14408083026E+04 -0.10213664196E+04  0.18423091260E+04  0.12699999809E+01 0. -1.
       -4    1    3    3    0  502 -0.52438857226E+03 -0.14408083026E+04  0.32790909490E+03  0.15679406644E+04  0.12699999809E+01 0.  1.
</event>
<event>
 5   0  0.1240725E-06  0.3212301E+04  0.7818609E-02  0.8185576E-01
        1   -1    0    0  501    0  0.00000000000E+00  0.00000000000E+00  0.13659153276E+04  0.13659153276E+04  0.50400001928E-02 0.  1.
       -1   -1    0    0    0  501  0.00000000000E+00  0.00000000000E+00 -0.18886378370E+04  0.18886378371E+04  0.50400001928E-02 0. -1.
    10030    2    1    2    0    0  0.00000000000E+00  0.00000000000E+00 -0.52272250941E+03  0.32545531647E+04  0.32123009635E+04 0.  0.
        3    1    3    3  502    0 -0.13630389132E+04  0.31029246501E+03 -0.10626898174E+04  0.17559801112E+04  0.10100000352E+00 0. -1.
       -3    1    3    3    0  502  0.13630389132E+04 -0.31029246501E+03  0.53996730804E+03  0.14985730535E+04  0.10100000352E+00 0.  1.
</event>
<event>
 5   0  0.3758062E-06  0.3204162E+04  0.7818609E-02  0.8187719E-01
        2   -1    0    0  501    0  0.00000000000E+00  0.00000000000E+00  0.18112461264E+04  0.18112461264E+04  0.25500000920E-02 0. -1.
       -2   -1    0    0    0  501  0.00000000000E+00  0.00000000000E+00 -0.14170709535E+04  0.14170709535E+04  0.25500000920E-02 0.  1.
    10030    2    1    2    0    0  0.00000000000E+00  0.00000000000E+00  0.39417517287E+03  0.32283170799E+04  0.32041624649E+04 0.  0.
        2    1    3    3  502    0  0.91619439527E+03  0.52367657210E+03 -0.10174101148E+04  0.14658692519E+04  0.25500000920E-02 0.  1.
       -2    1    3    3    0  502 -0.91619439527E+03 -0.52367657210E+03  0.14115852876E+04  0.17624478280E+04  0.25500000920E-02 0. -1.
</event>
<event>
 5   0  0.1268836E-06  0.3196303E+04  0.7818609E-02  0.8189794E-01
        1   -1    0    0  501    0  0.00000000000E+00  0.00000000000E+00  0.21300106283E+04  0.21300106283E+04  0.50400001928E-02 0. -1.
       -1   -1    0    0    0  501  0.00000000000E+00  0.00000000000E+00 -0.11990961049E+04  0.11990961050E+04  0.50400001928E-02 0.  1.
    10030    2    1    2    0    0  0.00000000000E+00  0.00000000000E+00  0.93091452333E+03  0.33291067332E+04  0.31963025188E+04 0.  0.
        1    1    3    3  502    0  0.24519861212E+03 -0.15248541091E+04  0.37552804365E+02  0.15448989050E+04  0.50400001928E-02 0.  1.
       -1    1    3    3    0  502 -0.24519861212E+03  0.15248541091E+04  0.89336171896E+03  0.17842078282E+04  0.50400001928E-02 0. -1.
</event>
<event>
 5   0  0.1268836E-06  0.3276687E+04  0.7818609E-02  0.8168853E-01
       -1   -1    0    0    0  501  0.00000000000E+00  0.00000000000E+00  0.14877169878E+04  0.14877169878E+04  0.50400001928E-02 0. -1.
        1   -1    0    0  501    0  0.00000000000E+00  0.00000000000E+00 -0.18042201908E+04  0.18042201908E+04  0.50400001928E-02 0.  1.
    10030    2    1    2    0    0  0.00000000000E+00  0.00000000000E+00 -0.31650320302E+03  0.32919371787E+04  0.32766867581E+04 0.  0.
        1    1    3    3  502    0  0.15939796069E+04  0.36629597937E+03 -0.61756166442E+02  0.16366910386E+04  0.50400001928E-02 0.  1.
       -1    1    3    3    0  502 -0.15939796069E+04 -0.36629597937E+03 -0.25474703658E+03  0.16552461401E+04  0.50400001928E-02 0. -1.
</event>
<event>
 5   0  0.1273754E-06  0.3212674E+04  0.7818609E-02  0.8185478E-01
        1   -1    0    0  501    0  0.00000000000E+00  0.00000000000E+00  0.21212865637E+04  0.21212865637E+04  0.50400001928E-02 0.  1.
       -1   -1    0    0    0  501  0.00000000000E+00  0.00000000000E+00 -0.12163929018E+04  0.12163929018E+04  0.50400001928E-02 0. -1.
    10030    2    1    2    0    0  0.00000000000E+00  0.00000000000E+00  0.90489366184E+03  0.33376794655E+04  0.32126736023E+04 0.  0.
        2    1    3    3  502    0  0.10432067967E+03 -0.16002180964E+04  0.54955664583E+03  0.16951676222E+04  0.25500000920E-02 0.  1.
       -2    1    3    3    0  502 -0.10432067967E+03  0.16002180964E+04  0.35533701602E+03  0.16425118433E+04  0.25500000920E-02 0. -1.
</event>
<event>
 5   0  0.3497546E-06  0.2459713E+04  0.7818609E-02  0.8417480E-01
        2   -1    0    0  501    0  0.00000000000E+00  0.00000000000E+00  0.22517084594E+04  0.22517084594E+04  0.25500000920E-02 0. -1.
       -2   -1    0    0    0  501  0.00000000000E+00  0.00000000000E+00 -0.67173299241E+03  0.67173299242E+03  0.25500000920E-02 0.  1.
    10030    2    1    2    0    0  0.00000000000E+00  0.00000000000E+00  0.15799754670E+04  0.29234414518E+04  0.24597128788E+04 0.  0.
        4    1    3    3  502    0  0.36515686903E+03  0.32457773990E+03  0.21314238149E+04  0.21867005601E+04  0.12699999809E+01 0. -1.
       -4    1    3    3    0  502 -0.36515686903E+03 -0.32457773990E+03 -0.55144834786E+03  0.73674089170E+03  0.12699999809E+01 0.  1.
</event>
<event>
 5   0  0.3745943E-06  0.2872498E+04  0.7818609E-02  0.8281107E-01
       -2   -1    0    0    0  501  0.00000000000E+00  0.00000000000E+00  0.14785007482E+04  0.14785007482E+04  0.25500000920E-02 0.  1.
        2   -1    0    0  501    0  0.00000000000E+00  0.00000000000E+00 -0.13952048285E+04  0.13952048285E+04  0.25500000920E-02 0. -1.
    10030    2    1    2    0    0  0.00000000000E+00  0.00000000000E+00  0.83295919630E+02  0.28737055767E+04  0.28724981343E+04 0.  0.
        5    1    3    3  502    0 -0.13146820274E+04 -0.35837737275E+03  0.49567362948E+03  0.14500129694E+04  0.46999998093E+01 0.  1.
       -5    1    3    3    0  502  0.13146820274E+04  0.35837737275E+03 -0.41237770985E+03  0.14236926073E+04  0.46999998093E+01 0. -1.
</event>
<event>
 5   0  0.3497546E-06  0.3208793E+04  0.7818609E-02  0.8186499E-01
        2   -1    0    0  501    0  0.00000000000E+00  0.00000000000E+00  0.15236841442E+04  0.15236841442E+04  0.25500000920E-02 0.  1.
       -2   -1    0    0    0  501  0.00000000000E+00  0.00000000000E+00 -0.16893844993E+04  0.16893844993E+04  0.25500000920E-02 0. -1.
    10030    2    1    2    0    0  0.00000000000E+00  0.00000000000E+00 -0.16570035510E+03  0.32130686435E+04  0.32087931532E+04 0.  0.
        4    1    3    3  502    0 -0.68554310227E+03  0.88139032596E+03  0.10707562761E+04  0.15470419734E+04  0.12699999809E+01 0.  1.
       -4    1    3    3    0  502  0.68554310227E+03 -0.88139032596E+03 -0.12364566312E+04  0.16660266701E+04  0.12699999809E+01 0. -1.
</event>
<event>
 5   0  0.3531437E-06  0.3244297E+04  0.7818609E-02  0.8177216E-01
        2   -1    0    0  501    0  0.00000000000E+00  0.00000000000E+00  0.30293622067E+04  0.30293622067E+04  0.25500000920E-02 0. -1.
       -2   -1    0    0    0  501  0.00000000000E+00  0.00000000000E+00 -0.86862014659E+03  0.86862014659E+03  0.25500000920E-02 0.  1.
    10030    2    1    2    0    0  0.00000000000E+00  0.00000000000E+00  0.21607420601E+04  0.38979823533E+04  0.32442965611E+04 0.  0.
        1    1    3    3  502    0 -0.22545268676E+03  0.55700758698E+03  0.28907058623E+04  0.29525017779E+04  0.50400001928E-02 0. -1.
       -1    1    3    3    0  502  0.22545268676E+03 -0.55700758698E+03 -0.72996380221E+03  0.94548057541E+03  0.50400001928E-02 0.  1.
</event>
<event>
 5   0  0.3745943E-06  0.3347443E+04  0.7818609E-02  0.8150927E-01
        2   -1    0    0  501    0  0.00000000000E+00  0.00000000000E+00  0.88985347937E+03  0.88985347937E+03  0.25500000920E-02 0.  1.
       -2   -1    0    0    0  501  0.00000000000E+00  0.00000000000E+00 -0.31480954140E+04  0.31480954140E+04  0.25500000920E-02 0. -1.
    10030    2    1    2    0    0  0.00000000000E+00  0.00000000000E+00 -0.22582419347E+04  0.40379488934E+04  0.33474429988E+04 0.  0.
        5    1    3    3  502    0 -0.61730030832E+03 -0.24704349712E+03  0.72369761661E+03  0.98277692810E+03  0.46999998093E+01 0.  1.
       -5    1    3    3    0  502  0.61730030832E+03  0.24704349712E+03 -0.29819395513E+04  0.30551719653E+04  0.46999998093E+01 0. -1.
</event>
<event>
 5   0  0.3656086E-06  0.3190868E+04  0.7818609E-02  0.8191233E-01
       -2   -1    0    0    0  501  0.00000000000E+00  0.00000000000E+00  0.14309197198E+04  0.14309197198E+04  0.25500000920E-02 0. -1.
        2   -1    0    0  501    0  0.00000000000E+00  0.00000000000E+00 -0.17788625282E+04  0.17788625282E+04  0.25500000920E-02 0.  1.
    10030    2    1    2    0    0  0.00000000000E+00  0.00000000000E+00 -0.34794280841E+03  0.32097822480E+04  0.31908678885E+04 0.  0.
        3    1    3    3  502    0 -0.98480697533E+03  0.62615997442E+03 -0.12683025106E+04  0.17235174385E+04  0.10100000352E+00 0.  1.
       -3    1    3    3    0  502  0.98480697533E+03 -0.62615997442E+03  0.92035970223E+03  0.14862648095E+04  0.10100000352E+00 0. -1.
</event>
<event>
 5   0  0.3497546E-06  0.3186778E+04  0.7818609E-02  0.8192318E-01
        2   -1    0    0  501    0  0.00000000000E+00  0.00000000000E+00  0.17776815629E+04  0.17776815629E+04  0.25500000920E-02 0. -1.
       -2   -1    0    0    0  501  0.00000000000E+00  0.00000000000E+00 -0.14282024261E+04  0.14282024261E+04  0.25500000920E-02 0.  1.
    10030    2    1    2    0    0  0.00000000000E+00  0.00000000000E+00  0.34947913680E+03  0.32058839889E+04  0.31867783863E+04 0.  0.
        4    1    3    3  502    0 -0.15062507797E+04 -0.10055226373E+03 -0.33820492102E+03  0.15470250000E+04  0.12699999809E+01 0.  1.
       -4    1    3    3    0  502  0.15062507797E+04  0.10055226373E+03  0.68768405782E+03  0.16588589890E+04  0.12699999809E+01 0. -1.
</event>
<event>
 5   0  0.1240725E-06  0.3180519E+04  0.7818609E-02  0.8193981E-01
       -1   -1    0    0    0  501  0.00000000000E+00  0.00000000000E+00  0.15358560161E+04  0.15358560161E+04  0.50400001928E-02 0.  1.
        1   -1    0    0  501    0  0.00000000000E+00  0.00000000000E+00 -0.16465896206E+04  0.16465896206E+04  0.50400001928E-02 0. -1.
    10030    2    1    2    0    0  0.00000000000E+00  0.00000000000E+00 -0.11073360450E+03  0.31824456368E+04  0.31805185583E+04 0.  0.
        3    1    3    3  502    0  0.13171575841E+04  0.21761038131E+03 -0.91998884140E+03  0.16213074532E+04  0.10100000352E+00 0. -1.
       -3    1    3    3    0  502 -0.13171575841E+04 -0.21761038131E+03  0.80925523690E+03  0.15611381835E+04  0.10100000352E+00 0.  1.
</event>
<event>
 5   0  0.1273754E-06  0.3110340E+04  0.7818609E-02  0.8212906E-01
        1   -1    0    0  501    0  0.00000000000E+00  0.00000000000E+00  0.23909542715E+04  0.23909542715E+04  0.50400001928E-02 0. -1.
       -1   -1    0    0    0  501  0.00000000000E+00  0.00000000000E+00 -0.10115431674E+04  0.10115431675E+04  0.50400001928E-02 0.  1.
    10030    2    1    2    0    0  0.00000000000E+00  0.00000000000E+00  0.13794111041E+04  0.34024974390E+04  0.31103398252E+04 0.  0.
        2    1    3    3  502    0 -0.96243477718E+03  0.12211772035E+04  0.65512980954E+03  0.16872313208E+04  0.25500000920E-02 0.  1.
       -2    1    3    3    0  502  0.96243477718E+03 -0.12211772035E+04  0.72428129456E+03  0.17152661182E+04  0.25500000920E-02 0. -1.
</event>
<event>
 5   0  0.1306843E-06  0.3163607E+04  0.7818609E-02  0.8198495E-01
       -1   -1    0    0    0  501  0.00000000000E+00  0.00000000000E+00  0.14125458207E+04  0.14125458208E+04  0.50400001928E-02 0.  1.
        1   -1    0    0  501    0  0.00000000000E+00  0.00000000000E+00 -0.17713422365E+04  0.17713422365E+04  0.50400001928E-02 0. -1.
    10030    2    1    2    0    0  0.00000000000E+00  0.00000000000E+00 -0.35879641577E+03  0.31838880573E+04  0.31636068487E+04 0.  0.
        5    1    3    3  502    0 -0.46184722260E+03 -0.97420955451E+03  0.98547298649E+03  0.14606732045E+04  0.46999998093E+01 0.  1.
       -5    1    3    3    0  502  0.46184722260E+03  0.97420955451E+03 -0.13442694023E+04  0.17232148528E+04  0.46999998093E+01 0. -1.
</event>
<event>
 5   0  0.3497546E-06  0.3168117E+04  0.7818609E-02  0.8197289E-01
        2   -1    0    0  501    0  0.00000000000E+00  0.00000000000E+00  0.15767181019E+04  0.15767181019E+04  0.25500000920E-02 0.  1.
       -2   -1    0    0    0  501  0.00000000000E+00  0.00000000000E+00 -0.15914329545E+04  0.15914329545E+04  0.25500000920E-02 0. -1.
    10030    2    1    2    0    0  0.00000000000E+00  0.00000000000E+00 -0.14714852653E+02  0.31681510564E+04  0.31681168837E+04 0.  0.
        4    1    3    3  502    0 -0.50869629826E+03  0.71441689542E+03  0.13117762472E+04  0.15779486557E+04  0.12699999809E+01 0.  1.
       -4    1    3    3    0  502  0.50869629826E+03 -0.71441689542E+03 -0.13264910998E+04  0.15902024007E+04  0.12699999809E+01 0. -1.
</event>
<event>
 5   0  0.1268836E-06  0.3229688E+04  0.7818609E-02  0.8181020E-01
       -1   -1    0    0    0  501  0.00000000000E+00  0.00000000000E+00  0.19274915059E+04  0.19274915059E+04  0.50400001928E-02 0.  1.
        1   -1    0    0  501    0  0.00000000000E+00  0.00000000000E+00 -0.13529093176E+04  0.13529093176E+04  0.50400001928E-02 0. -1.
    10030    2    1    2    0    0  0.00000000000E+00  0.00000000000E+00  0.57458218836E+03  0.32804008235E+04  0.32296880456E+04 0.  0.
        1    1    3    3  502    0  0.25006333291E+02  0.36967152597E+03  0.18837340014E+04  0.19198271124E+04  0.50400001928E-02 0.  1.
       -1    1    3    3    0  502 -0.25006333291E+02 -0.36967152597E+03 -0.13091518130E+04  0.13605737111E+04  0.50400001928E-02 0. -1.
</event>
<event>
 5   0  0.1306843E-06  0.3138807E+04  0.7818609E-02  0.8205168E-01
        1   -1    0    0  501    0  0.00000000000E+00  0.00000000000E+00  0.19133347900E+04  0.19133347900E+04  0.50400001928E-02 0. -1.
       -1   -1    0    0    0  501  0.00000000000E+00  0.00000000000E+00 -0.12872958054E+04  0.12872958054E+04  0.50400001928E-02 0.  1.
    10030    2    1    2    0    0  0.00000000000E+00  0.00000000000E+00  0.62603898458E+03  0.32006305955E+04  0.31388073210E+04 0.  0.
        5    1    3    3  502    0 -0.12595582041E+04  0.63593616779E+03 -0.38761219086E+03  0.14632726949E+04  0.46999998093E+01 0.  1.
       -5    1    3    3    0  502  0.12595582041E+04 -0.63593616779E+03  0.10136511754E+04  0.17373579006E+04  0.46999998093E+01 0. -1.
</event>
<event>
 5   0  0.1268836E-06  0.3106001E+04  0.7818609E-02  0.8214093E-01
       -1   -1    0    0    0  501  0.00000000000E+00  0.00000000000E+00  0.93922140660E+03  0.93922140661E+03  0.50400001928E-02 0. -1.
        1   -1    0    0  501    0  0.00000000000E+00  0.00000000000E+00 -0.25678835383E+04  0.25678835383E+04  0.50400001928E-02 0.  1.
    10030    2    1    2    0    0  0.00000000000E+00  0.00000000000E+00 -0.16286621317E+04  0.35071049449E+04  0.31060014094E+04 0.  0.
        1    1    3    3  502    0 -0.48319293489E+02 -0.10321739007E+04 -0.21233979887E+04  0.23614691897E+04  0.50400001928E-02 0.  1.
       -1    1    3    3    0  502  0.48319293489E+02  0.10321739007E+04  0.49473585698E+03  0.11456357552E+04  0.50400001928E-02 0. -1.
</event>
<event>
 5   0  0.1273754E-06  0.3278811E+04  0.7818609E-02  0.8168308E-01
        1   -1    0    0  501    0  0.00000000000E+00  0.00000000000E+00  0.17003229111E+04  0.17003229111E+04  0.50400001928E-02 0.  1.
       -1   -1    0    0    0  501  0.00000000000E+00  0.00000000000E+00 -0.15806707627E+04  0.15806707627E+04  0.50400001928E-02 0. -1.
    10030    2    1    2    0    0  0.00000000000E+00  0.00000000000E+00  0.11965214841E+03  0.32809936738E+04  0.32788111947E+04 0.  0.
        2    1    3    3  502    0  0.48693746265E+03 -0.43373116461E+03  0.15649615412E+04  0.16953865167E+04  0.25500000920E-02 0.  1.
       -2    1    3    3    0  502 -0.48693746265E+03  0.43373116461E+03 -0.14453093928E+04  0.15856071570E+04  0.25500000920E-02 0. -1.
</event>
<event>
 5   0  0.3745943E-06  0.3176019E+04  0.7818609E-02  0.8195179E-01
        2   -1    0    0  501    0  0.00000000000E+00  0.00000000000E+00  0.16201554203E+04  0.16201554203E+04  0.25500000920E-02 0. -1.
       -2   -1    0    0    0  501  0.00000000000E+00  0.00000000000E+00 -0.15565013513E+04  0.15565013513E+04  0.25500000920E-02 0.  1.
    10030    2    1    2    0    0  0.00000000000E+00  0.00000000000E+00  0.63654069010E+02  0.31766567716E+04  0.31760189553E+04 0.  0.
        5    1    3    3  502    0  0.97318634405E+03 -0.42674876655E+03 -0.11484717440E+04  0.15646774769E+04  0.46999998093E+01 0.  1.
       -5    1    3    3    0  502 -0.97318634405E+03  0.42674876655E+03  0.12121258130E+04  0.16119792947E+04  0.46999998093E+01 0. -1.
</event>
<event>
 5   0  0.3497546E-06  0.3326793E+04  0.7818609E-02  0.8156111E-01
        2   -1    0    0  501    0  0.00000000000E+00  0.00000000000E+00  0.13841327377E+04  0.13841327377E+04  0.25500000920E-02 0.  1.
       -2   -1    0    0    0  501  0.00000000000E+00  0.00000000000E+00 -0.19990048643E+04  0.19990048643E+04  0.25500000920E-02 0. -1.
    10030    2    1    2    0    0  0.00000000000E+00  0.00000000000E+00 -0.61487212656E+03  0.33831376020E+04  0.33267930958E+04 0.  0.
        4    1    3    3  502    0 -0.52035629385E+03 -0.11618823282E+04  0.78127766495E+03  0.14936993071E+04  0.12699999809E+01 0.  1.
       -4    1    3    3    0  502  0.52035629385E+03  0.11618823282E+04 -0.13961497915E+04  0.18894382950E+04  0.12699999809E+01 0. -1.
</event>
<event>
 5   0  0.1240725E-06  0.3159095E+04  0.7818609E-02  0.8199704E-01
       -1   -1    0    0    0  501  0.00000000000E+00  0.00000000000E+00  0.18393730068E+04  0.18393730068E+04  0.50400001928E-02 0.  1.
        1   -1    0    0  501    0  0.00000000000E+00  0.00000000000E+00 -0.13564241018E+04  0.13564241018E+04  0.50400001928E-02 0. -1.
    10030    2    1    2    0    0  0.00000000000E+00  0.00000000000E+00  0.48294890500E+03  0.31957971087E+04  0.31590947303E+04 0.  0.
        3    1    3    3  502    0 -0.34710829844E+03 -0.14346551113E+04  0.81036942860E+03  0.16838699713E+04  0.10100000352E+00 0. -1.
       -3    1    3    3    0  502  0.34710829844E+03  0.14346551113E+04 -0.32742052360E+03  0.15119271374E+04  0.10100000352E+00 0.  1.
</event>
<event>
 5   0  0.1273754E-06  0.3194475E+04  0.7818609E-02  0.8190278E-01
        1   -1    0    0  501    0  0.00000000000E+00  0.00000000000E+00  0.17954465642E+04  0.17954465642E+04  0.50400001928E-02 0.  1.
       -1   -1    0    0    0  501  0.00000000000E+00  0.00000000000E+00 -0.14209101430E+04  0.14209101430E+04  0.50400001928E-02 0. -1.
    10030    2    1    2    0    0  0.00000000000E+00  0.00000000000E+00  0.37453642120E+03  0.32163567071E+04  0.31944753774E+04 0.  0.
        2    1    3    3  502    0 -0.28351974921E+03 -0.66660279960E+03 -0.12460082986E+04  0.14412770105E+04  0.25500000920E-02 0. -1.
       -2    1    3    3    0  502  0.28351974921E+03  0.66660279960E+03  0.16205447198E+04  0.17750796967E+04  0.25500000920E-02 0.  1.
</event>
<event>
 5   0  0.3497546E-06  0.3201011E+04  0.7818609E-02  0.8188550E-01
       -2   -1    0    0    0  501  0.00000000000E+00  0.00000000000E+00  0.11166339235E+04  0.11166339235E+04  0.25500000920E-02 0. -1.
        2   -1    0    0  501    0  0.00000000000E+00  0.00000000000E+00 -0.22940529289E+04  0.22940529289E+04  0.25500000920E-02 0.  1.
    10030    2    1    2    0    0  0.00000000000E+00  0.00000000000E+00 -0.11774190054E+04  0.34106868524E+04  0.32010106671E+04 0.  0.
        4    1    3    3  502    0 -0.36586444351E+03  0.11142651043E+04  0.57174627638E+03  0.13047371119E+04  0.12699999809E+01 0. -1.
       -4    1    3    3    0  502  0.36586444351E+03 -0.11142651043E+04 -0.17491652818E+04  0.21059497405E+04  0.12699999809E+01 0.  1.
</event>
<event>
 5   0  0.1268836E-06  0.3222804E+04  0.7818609E-02  0.8182821E-01
       -1   -1    0    0    0  501  0.00000000000E+00  0.00000000000E+00  0.14845265159E+04  0.14845265159E+04  0.50400001928E-02 0.  1.
        1   -1    0    0  501    0  0.00000000000E+00  0.00000000000E+00 -0.17491208979E+04  0.17491208979E+04  0.50400001928E-02 0. -1.
    10030    2    1    2    0    0  0.00000000000E+00  0.00000000000E+00 -0.26459438200E+03  0.32336474139E+04  0.32228039671E+04 0.  0.
        1    1    3    3  502    0  0.19148558371E+03 -0.39542491819E+03  0.14232702933E+04  0.14895388288E+04  0.50400001928E-02 0.  1.
       -1    1    3    3    0  502 -0.19148558371E+03  0.39542491819E+03 -0.16878646752E+04  0.17441085851E+04  0.50400001928E-02 0. -1.
</event>
<event>
 5   0  0.3531437E-06  0.3175387E+04  0.7818609E-02  0.8195348E-01
       -2   -1    0    0    0  501  0.00000000000E+00  0.00000000000E+00  0.11590250519E+04  0.11590250519E+04  0.25500000920E-02 0. -1.
        2   -1    0    0  501    0  0.00000000000E+00  0.00000000000E+00 -0.21749054193E+04  0.21749054193E+04  0.25500000920E-02 0.  1.
    10030    2    1    2    0    0  0.00000000000E+00  0.00000000000E+00 -0.10158803674E+04  0.33339304712E+04  0.31753865065E+04 0.  0.
        1    1    3    3  502    0 -0.14562492736E+04 -0.58344313602E+03 -0.76447982345E+03  0.17451353071E+04  0.50400001928E-02 0.  1.
       -1    1    3    3    0  502  0.14562492736E+04  0.58344313602E+03 -0.25140054399E+03  0.15887951640E+04  0.50400001928E-02 0. -1.
</event>
<event>
 5   0  0.1268836E-06  0.3174305E+04  0.7818609E-02  0.8195636E-01
        1   -1    0    0  501    0  0.00000000000E+00  0.00000000000E+00  0.17922450309E+04  0.17922450309E+04  0.50400001928E-02 0. -1.
       -1   -1    0    0    0  501  0.00000000000E+00  0.00000000000E+00 -0.14055292260E+04  0.14055292260E+04  0.50400001928E-02 0.  1.
    10030    2    1    2    0    0  0.00000000000E+00  0.00000000000E+00  0.38671580484E+03  0.31977742569E+04  0.31743048191E+04 0.  0.
        1    1    3    3  502    0  0.24979596965E+03 -0.12552011059E+04  0.11389806649E+04  0.17132439399E+04  0.50400001928E-02 0. -1.
       -1    1    3    3    0  502 -0.24979596965E+03  0.12552011059E+04 -0.75226486001E+03  0.14845303170E+04  0.50400001928E-02 0.  1.
</event>
<event>
 5   0  0.1268836E-06  0.3151943E+04  0.7818609E-02  0.8201625E-01
        1   -1    0    0  501    0  0.00000000000E+00  0.00000000000E+00  0.28473590316E+04  0.28473590316E+04  0.50400001928E-02 0.  1.
       -1   -1    0    0    0  501  0.00000000000E+00  0.00000000000E+00 -0.87227739132E+03  0.87227739133E+03  0.50400001928E-02 0. -1.
    10030    2    1    2    0    0  0.00000000000E+00  0.00000000000E+00  0.19750816403E+04  0.37196364229E+04  0.31519434692E+04 0.  0.
        1    1    3    3  502    0 -0.16785452812E+03 -0.14001794148E+04  0.15725277903E+03  0.14189453735E+04  0.50400001928E-02 0. -1.
       -1    1    3    3    0  502  0.16785452812E+03  0.14001794148E+04  0.18178288612E+04  0.23006910495E+04  0.50400001928E-02 0.  1.
</event>
<event>
 5   0  0.3656086E-06  0.3230303E+04  0.7818609E-02  0.8180860E-01
       -2   -1    0    0    0  501  0.00000000000E+00  0.00000000000E+00  0.16993384430E+04  0.16993384430E+04  0.25500000920E-02 0. -1.
        2   -1    0    0  501    0  0.00000000000E+00  0.00000000000E+00 -0.15351356598E+04  0.15351356598E+04  0.25500000920E-02 0.  1.
    10030    2    1    2    0    0  0.00000000000E+00  0.00000000000E+00  0.16420278322E+03  0.32344741028E+04  0.32303034173E+04 0.  0.
        3    1    3    3  502    0 -0.74574494839E+03 -0.25181239939E+02  0.15164121720E+04  0.16900519248E+04  0.10100000352E+00 0. -1.
       -3    1    3    3    0  502  0.74574494839E+03  0.25181239939E+02 -0.13522093888E+04  0.15444221781E+04  0.10100000352E+00 0.  1.
</event>
<event>
 5   0  0.1306843E-06  0.3164504E+04  0.7818609E-02  0.8198255E-01
        1   -1    0    0  501    0  0.00000000000E+00  0.00000000000E+00  0.15099798528E+04  0.15099798529E+04  0.50400001928E-02 0.  1.
       -1   -1    0    0    0  501  0.00000000000E+00  0.00000000000E+00 -0.16579829294E+04  0.16579829294E+04  0.50400001928E-02 0. -1.
    10030    2    1    2    0    0  0.00000000000E+00  0.00000000000E+00 -0.14800307658E+03  0.31679627823E+04  0.31645036387E+04 0.  0.
        5    1    3    3  502    0  0.99497964890E+03  0.23143976353E+03 -0.12836061735E+04  0.16404925372E+04  0.46999998093E+01 0. -1.
       -5    1    3    3    0  502 -0.99497964890E+03 -0.23143976353E+03  0.11356030969E+04  0.15274702451E+04  0.46999998093E+01 0.  1.
</event>
<event>
 5   0  0.3656086E-06  0.2557671E+04  0.7818609E-02  0.8382723E-01
       -2   -1    0    0    0  501  0.00000000000E+00  0.00000000000E+00  0.70606615269E+03  0.70606615269E+03  0.25500000920E-02 0.  1.
        2   -1    0    0  501    0  0.00000000000E+00  0.00000000000E+00 -0.23162418701E+04  0.23162418701E+04  0.25500000920E-02 0. -1.
    10030    2    1    2    0    0  0.00000000000E+00  0.00000000000E+00 -0.16101757174E+04  0.30223080227E+04  0.25576708044E+04 0.  0.
        3    1    3    3  502    0 -0.26629284025E+03 -0.60023376989E+03 -0.21018142563E+04  0.22020026415E+04  0.10100000352E+00 0. -1.
       -3    1    3    3    0  502  0.26629284025E+03  0.60023376989E+03  0.49163853891E+03  0.82030538120E+03  0.10100000352E+00 0.  1.
</event>
<event>
 5   0  0.3497546E-06  0.3273799E+04  0.7818609E-02  0.8169594E-01
        2   -1    0    0  501    0  0.00000000000E+00  0.00000000000E+00  0.17113527225E+04  0.17113527225E+04  0.25500000920E-02 0.  1.
       -2   -1    0    0    0  501  0.00000000000E+00  0.00000000000E+00 -0.15656857106E+04  0.15656857107E+04  0.25500000920E-02 0. -1.
    10030    2    1    2    0    0  0.00000000000E+00  0.00000000000E+00  0.14566701187E+03  0.32770384332E+04  0.32737993240E+04 0.  0.
        4    1    3    3  502    0  0.16144065063E+04  0.21933892104E+03  0.23117016238E+03  0.16455574092E+04  0.12699999809E+01 0. -1.
       -4    1    3    3    0  502 -0.16144065063E+04 -0.21933892104E+03 -0.85503150510E+02  0.16314810240E+04  0.12699999809E+01 0.  1.
</event>
<event>
 5   0  0.3656086E-06  0.2970827E+04  0.7818609E-02  0.8252111E-01
        2   -1    0    0  501    0  0.00000000000E+00  0.00000000000E+00  0.12991443382E+04  0.12991443382E+04  0.25500000920E-02 0. -1.
       -2   -1    0    0    0  501  0.00000000000E+00  0.00000000000E+00 -0.16983891903E+04  0.16983891903E+04  0.25500000920E-02 0.  1.
    10030    2    1    2    0    0  0.00000000000E+00  0.00000000000E+00 -0.39924485215E+03  0.29975335285E+04  0.29708266194E+04 0.  0.
        3    1    3    3  502    0  0.36492182947E+03 -0.83697161574E+03 -0.13818050376E+04  0.16562229920E+04  0.10100000352E+00 0.  1.
       -3    1    3    3    0  502 -0.36492182947E+03  0.83697161574E+03  0.98256018541E+03  0.13413105365E+04  0.10100000352E+00 0. -1.
</event>
<event>
 5   0  0.3531437E-06  0.3185244E+04  0.7818609E-02  0.8192725E-01
       -2   -1    0    0    0  501  0.00000000000E+00  0.00000000000E+00  0.13749783330E+04  0.13749783330E+04  0.25500000920E-02 0. -1.
        2   -1    0    0  501    0  0.00000000000E+00  0.00000000000E+00 -0.18447164608E+04  0.18447164608E+04  0.25500000920E-02 0.  1.
    10030    2    1    2    0    0  0.00000000000E+00  0.00000000000E+00 -0.46973812779E+03  0.32196947937E+04  0.31852442066E+04 0.  0.
        1    1    3    3  502    0  0.11046446437E+02 -0.15925258465E+04 -0.24860158757E+03  0.16118509066E+04  0.50400001928E-02 0.  1.
       -1    1    3    3    0  502 -0.11046446437E+02  0.15925258465E+04 -0.22113654022E+03  0.16078438871E+04  0.50400001928E-02 0. -1.
</event>
<event>
 5   0  0.1273754E-06  0.3194499E+04  0.7818609E-02  0.8190271E-01
       -1   -1    0    0    0  501  0.00000000000E+00  0.00000000000E+00  0.18412943329E+04  0.18412943329E+04  0.50400001928E-02 0. -1.
        1   -1    0    0  501    0  0.00000000000E+00  0.00000000000E+00 -0.13855505180E+04  0.13855505180E+04  0.50400001928E-02 0.  1.
    10030    2    1    2    0    0  0.00000000000E+00  0.00000000000E+00  0.45574381492E+03  0.32268448509E+04  0.31944992200E+04 0.  0.
        2    1    3    3  502    0 -0.60777684403E+03  0.12016258665E+04  0.10955860441E+04  0.17359741344E+04  0.25500000920E-02 0. -1.
       -2    1    3    3    0  502  0.60777684403E+03 -0.12016258665E+04 -0.63984222916E+03  0.14908707165E+04  0.25500000920E-02 0.  1.
</event>
<event>
 5   0  0.1273980E-06  0.3207407E+04  0.7818609E-02  0.8186864E-01
       -1   -1    0    0    0  501  0.00000000000E+00  0.00000000000E+00  0.14273890283E+04  0.14273890284E+04  0.50400001928E-02 0.  1.
        1   -1    0    0  501    0  0.00000000000E+00  0.00000000000E+00 -0.18017962924E+04  0.18017962924E+04  0.50400001928E-02 0. -1.
    10030    2    1    2    0    0  0.00000000000E+00  0.00000000000E+00 -0.37440726407E+03  0.32291853208E+04  0.32074065905E+04 0.  0.
        4    1    3    3  502    0 -0.83045955349E+03  0.93719134457E+03  0.82153374744E+03  0.14976348011E+04  0.12699999809E+01 0.  1.
       -4    1    3    3    0  502  0.83045955349E+03 -0.93719134457E+03 -0.11959410115E+04  0.17315505197E+04  0.12699999809E+01 0. -1.
</event>
<event>
 5   0  0.3745943E-06  0.3179489E+04  0.7818609E-02  0.8194255E-01
       -2   -1    0    0    0  501  0.00000000000E+00  0.00000000000E+00  0.14175086087E+04  0.14175086087E+04  0.25500000920E-02 0. -1.
        2   -1    0    0  501    0  0.00000000000E+00  0.00000000000E+00 -0.17829086435E+04  0.17829086435E+04  0.25500000920E-02 0.  1.
    10030    2    1    2    0    0  0.00000000000E+00  0.00000000000E+00 -0.36540003479E+03  0.32004172521E+04  0.31794894877E+04 0.  0.
        5    1    3    3  502    0 -0.12661524814E+04  0.85436221971E+03 -0.62626976180E+03  0.16508521476E+04  0.46999998093E+01 0.  1.
       -5    1    3    3    0  502  0.12661524814E+04 -0.85436221971E+03  0.26086972702E+03  0.15495651045E+04  0.46999998093E+01 0. -1.
</event>
<event>
 5   0  0.1268836E-06  0.3180693E+04  0.7818609E-02  0.8193935E-01
       -1   -1    0    0    0  501  0.00000000000E+00  0.00000000000E+00  0.16813192028E+04  0.16813192028E+04  0.50400001928E-02 0.  1.
        1   -1    0    0  501    0  0.00000000000E+00  0.00000000000E+00 -0.15042959845E+04  0.15042959845E+04  0.50400001928E-02 0. -1.
    10030    2    1    2    0    0  0.00000000000E+00  0.00000000000E+00  0.17702321827E+03  0.31856151873E+04  0.31806928336E+04 0.  0.
        1    1    3    3  502    0  0.43148872852E+02  0.60624613729E+02 -0.15025514662E+04  0.15043929266E+04  0.50400001928E-02 0. -1.
       -1    1    3    3    0  502 -0.43148872852E+02 -0.60624613729E+02  0.16795746845E+04  0.16812222607E+04  0.50400001928E-02 0.  1.
</event>
<event>
 5   0  0.1273980E-06  0.3189879E+04  0.7818609E-02  0.8191495E-01
        1   -1    0    0  501    0  0.00000000000E+00  0.00000000000E+00  0.24399912698E+04  0.24399912698E+04  0.50400001928E-02 0. -1.
       -1   -1    0    0    0  501  0.00000000000E+00  0.00000000000E+00 -0.10425576409E+04  0.10425576409E+04  0.50400001928E-02 0.  1.
    10030    2    1    2    0    0  0.00000000000E+00  0.00000000000E+00  0.13974336289E+04  0.34825489107E+04  0.31898787074E+04 0.  0.
        4    1    3    3  502    0 -0.50315886299E+03  0.14911766297E+04  0.98142168063E+03  0.18547147249E+04  0.12699999809E+01 0. -1.
       -4    1    3    3    0  502  0.50315886299E+03 -0.14911766297E+04  0.41601194825E+03  0.16278341858E+04  0.12699999809E+01 0.  1.
</event>
<event>
 5   0  0.1306843E-06  0.3207739E+04  0.7818609E-02  0.8186776E-01
        1   -1    0    0  501    0  0.00000000000E+00  0.00000000000E+00  0.13310647827E+04  0.13310647827E+04  0.50400001928E-02 0. -1.
       -1   -1    0    0    0  501  0.00000000000E+00  0.00000000000E+00 -0.19325855679E+04  0.19325855679E+04  0.50400001928E-02 0.  1.
    10030    2    1    2    0    0  0.00000000000E+00  0.00000000000E+00 -0.60152078517E+03  0.32636503506E+04  0.32077385111E+04 0.  0.
        5    1    3    3  502    0 -0.71566082120E+03 -0.21721524202E+03  0.11427798211E+04  0.13657674333E+04  0.46999998093E+01 0. -1.
       -5    1    3    3    0  502  0.71566082120E+03  0.21721524202E+03 -0.17443006063E+04  0.18978829172E+04  0.46999998093E+01 0.  1.
</event>
<event>
 5   0  0.3497546E-06  0.2465738E+04  0.7818609E-02  0.8415294E-01
        2   -1    0    0  501    0  0.00000000000E+00  0.00000000000E+00  0.18152220065E+04  0.18152220065E+04  0.25500000920E-02 0. -1.
       -2   -1    0    0    0  501  0.00000000000E+00  0.00000000000E+00 -0.83734411049E+03  0.83734411049E+03  0.25500000920E-02 0.  1.
    10030    2    1    2    0    0  0.00000000000E+00  0.00000000000E+00  0.97787789598E+03  0.26525661170E+04  0.24657375824E+04 0.  0.
        4    1    3    3  502    0  0.46990016934E+03  0.11284095615E+04  0.66189897222E+03  0.13900453841E+04  0.12699999809E+01 0. -1.
       -4    1    3    3    0  502 -0.46990016934E+03 -0.11284095615E+04  0.31597892376E+03  0.12625207328E+04  0.12699999809E+01 0.  1.
</event>
<event>
 5   0  0.1268836E-06  0.3252233E+04  0.7818609E-02  0.8175157E-01
        1   -1    0    0  501    0  0.00000000000E+00  0.00000000000E+00  0.15335696839E+04  0.15335696839E+04  0.50400001928E-02 0.  1.
       -1   -1    0    0    0  501  0.00000000000E+00  0.00000000000E+00 -0.17242478168E+04  0.17242478168E+04  0.50400001928E-02 0. -1.
    10030    2    1    2    0    0  0.00000000000E+00  0.00000000000E+00 -0.19067813291E+03  0.32578175007E+04  0.32522325743E+04 0.  0.
        1    1    3    3  502    0 -0.49146991035E+03  0.10499590987E+04  0.10469249694E+04  0.15620527114E+04  0.50400001928E-02 0.  1.
       -1    1    3    3    0  502  0.49146991035E+03 -0.10499590987E+04 -0.12376031023E+04  0.16957647893E+04  0.50400001928E-02 0. -1.
</event>
<event>
 5   0  0.3758062E-06  0.3077616E+04  0.7818609E-02  0.8221908E-01
        2   -1    0    0  501    0  0.00000000000E+00  0.00000000000E+00  0.26067359171E+04  0.26067359171E+04  0.25500000920E-02 0. -1.
       -2   -1    0    0    0  501  0.00000000000E+00  0.00000000000E+00 -0.90838904006E+03  0.90838904007E+03  0.25500000920E-02 0.  1.
    10030    2    1    2    0    0  0.00000000000E+00  0.00000000000E+00  0.16983468770E+04  0.35151249572E+04  0.30776161797E+04 0.  0.
        2    1    3    3  502    0  0.95254253931E+03 -0.34531471347E+03 -0.47363664694E+03  0.11184414217E+04  0.25500000920E-02 0.  1.
       -2    1    3    3    0  502 -0.95254253931E+03  0.34531471347E+03  0.21719835240E+04  0.23966835354E+04  0.25500000920E-02 0. -1.
</event>
<event>
 5   0  0.3745943E-06  0.3287309E+04  0.7818609E-02  0.8166132E-01
        2   -1    0    0  501    0  0.00000000000E+00  0.00000000000E+00  0.12049998028E+04  0.12049998028E+04  0.25500000920E-02 0.  1.
       -2   -1    0    0    0  501  0.00000000000E+00  0.00000000000E+00 -0.22419926272E+04  0.22419926272E+04  0.25500000920E-02 0. -1.
    10030    2    1    2    0    0  0.00000000000E+00  0.00000000000E+00 -0.10369928244E+04  0.34469924301E+04  0.32873093397E+04 0.  0.
        5    1    3    3  502    0 -0.14936953164E+04 -0.50898475890E+03 -0.10005988255E+04  0.18685318522E+04  0.46999998093E+01 0. -1.
       -5    1    3    3    0  502  0.14936953164E+04  0.50898475890E+03 -0.36393998879E+02  0.15784605779E+04  0.46999998093E+01 0.  1.
</event>
<event>
 5   0  0.1240725E-06  0.3202431E+04  0.7818609E-02  0.8188175E-01
        1   -1    0    0  501    0  0.00000000000E+00  0.00000000000E+00  0.19939555602E+04  0.19939555602E+04  0.50400001928E-02 0.  1.
       -1   -1    0    0    0  501  0.00000000000E+00  0.00000000000E+00 -0.12858317816E+04  0.12858317816E+04  0.50400001928E-02 0. -1.
    10030    2    1    2    0    0  0.00000000000E+00  0.00000000000E+00  0.70812377859E+03  0.32797873419E+04  0.32024312205E+04 0.  0.
        3    1    3    3  502    0  0.89531792262E+03  0.12778490146E+04  0.72247201544E+03  0.17194354044E+04  0.10100000352E+00 0.  1.
       -3    1    3    3    0  502 -0.89531792262E+03 -0.12778490146E+04 -0.14348236845E+02  0.15603519375E+04  0.10100000352E+00 0. -1.
</event>
<event>
 5   0  0.1306843E-06  0.3248027E+04  0.7818609E-02  0.8176247E-01
       -1   -1    0    0    0  501  0.00000000000E+00  0.00000000000E+00  0.15539076570E+04  0.15539076570E+04  0.50400001928E-02 0.  1.
        1   -1    0    0  501    0  0.00000000000E+00  0.00000000000E+00 -0.16972821338E+04  0.16972821338E+04  0.50400001928E-02 0. -1.
    10030    2    1    2    0    0  0.00000000000E+00  0.00000000000E+00 -0.14337447681E+03  0.32511897909E+04  0.32480269111E+04 0.  0.
        5    1    3    3  502    0 -0.11636626885E+04  0.82149130934E+03 -0.85247167977E+03  0.16600267705E+04  0.46999998093E+01 0. -1.
       -5    1    3    3    0  502  0.11636626885E+04 -0.82149130934E+03  0.70909720296E+03  0.15911630203E+04  0.46999998093E+01 0.  1.
</event>
<event>
 5   0  0.3758062E-06  0.2409686E+04  0.7818609E-02  0.8435886E-01
       -2   -1    0    0    0  501  0.00000000000E+00  0.00000000000E+00  0.94246477150E+03  0.94246477150E+03  0.25500000920E-02 0.  1.
        2   -1    0    0  501    0  0.00000000000E+00  0.00000000000E+00 -0.15402658505E+04  0.15402658505E+04  0.25500000920E-02 0. -1.
    10030    2    1    2    0    0  0.00000000000E+00  0.00000000000E+00 -0.59780107895E+03  0.24827306220E+04  0.24096857080E+04 0.  0.
        2    1    3    3  502    0 -0.15683607086E+03  0.21460662881E+03  0.91187850961E+03  0.94982944498E+03  0.25500000920E-02 0.  1.
       -2    1    3    3    0  502  0.15683607086E+03 -0.21460662881E+03 -0.15096795886E+04  0.15329011770E+04  0.25500000920E-02 0. -1.
</event>
<event>
 5   0  0.1273980E-06  0.3079796E+04  0.7818609E-02  0.8221305E-01
        1   -1    0    0  501    0  0.00000000000E+00  0.00000000000E+00  0.23996468401E+04  0.23996468401E+04  0.50400001928E-02 0.  1.
       -1   -1    0    0    0  501  0.00000000000E+00  0.00000000000E+00 -0.98818144778E+03  0.98818144779E+03  0.50400001928E-02 0. -1.
    10030    2    1    2    0    0  0.00000000000E+00  0.00000000000E+00  0.14114653923E+04  0.33878282879E+04  0.30797964144E+04 0.  0.
        4    1    3    3  502    0 -0.32959755633E+03  0.22791264282E+03  0.23412867095E+04  0.23753323537E+04  0.12699999809E+01 0.  1.
       -4    1    3    3    0  502  0.32959755633E+03 -0.22791264282E+03 -0.92982131716E+03  0.10124959341E+04  0.12699999809E+01 0. -1.
</event>
<event>
 5   0  0.3656086E-06  0.3141508E+04  0.7818609E-02  0.8204438E-01
        2   -1    0    0  501    0  0.00000000000E+00  0.00000000000E+00  0.14196630415E+04  0.14196630415E+04  0.25500000920E-02 0.  1.
       -2   -1    0    0    0  501  0.00000000000E+00  0.00000000000E+00 -0.17379255751E+04  0.17379255751E+04  0.25500000920E-02 0. -1.
    10030    2    1    2    0    0  0.00000000000E+00  0.00000000000E+00 -0.31826253361E+03  0.31575886167E+04  0.31415083689E+04 0.  0.
        3    1    3    3  502    0  0.66006759416E+02  0.15044885574E+04 -0.60798847198E+03  0.16240359306E+04  0.10100000352E+00 0.  1.
       -3    1    3    3    0  502 -0.66006759416E+02 -0.15044885574E+04  0.28972593837E+03  0.15335526861E+04  0.10100000352E+00 0. -1.
</event>
<event>
 5   0  0.3745943E-06  0.3193452E+04  0.7818609E-02  0.8190549E-01
        2   -1    0    0  501    0  0.00000000000E+00  0.00000000000E+00  0.24362737931E+04  0.24362737931E+04  0.25500000920E-02 0.  1.
       -2   -1    0    0    0  501  0.00000000000E+00  0.00000000000E+00 -0.10464887877E+04  0.10464887877E+04  0.25500000920E-02 0. -1.
    10030    2    1    2    0    0  0.00000000000E+00  0.00000000000E+00  0.13897850054E+04  0.34827625807E+04  0.31934515547E+04 0.  0.
        5    1    3    3  502    0 -0.86376792819E+03  0.43171809806E+03 -0.69193780404E+03  0.11879711969E+04  0.46999998093E+01 0. -1.
       -5    1    3    3    0  502  0.86376792819E+03 -0.43171809806E+03  0.20817228095E+04  0.22947913838E+04  0.46999998093E+01 0.  1.
</event>
<event>
 5   0  0.3531437E-06  0.3179241E+04  0.7818609E-02  0.8194321E-01
        2   -1    0    0  501    0  0.00000000000E+00  0.00000000000E+00  0.15599636479E+04  0.15599636479E+04  0.25500000920E-02 0. -1.
       -2   -1    0    0    0  501  0.00000000000E+00  0.00000000000E+00 -0.16198408288E+04  0.16198408288E+04  0.25500000920E-02 0.  1.
    10030    2    1    2    0    0  0.00000000000E+00  0.00000000000E+00 -0.59877180935E+02  0.31798044766E+04  0.31792406692E+04 0.  0.
        1    1    3    3  502    0 -0.12454564115E+04  0.78689261505E+03  0.56726959226E+03  0.15786565335E+04  0.50400001928E-02 0. -1.
       -1    1    3    3    0  502  0.12454564115E+04 -0.78689261505E+03 -0.62714677319E+03  0.16011479431E+04  0.50400001928E-02 0.  1.
</event>
<event>
 5   0  0.1273980E-06  0.3194329E+04  0.7818609E-02  0.8190316E-01
        1   -1    0    0  501    0  0.00000000000E+00  0.00000000000E+00  0.12015585480E+04  0.12015585480E+04  0.50400001928E-02 0. -1.
       -1   -1    0    0    0  501  0.00000000000E+00  0.00000000000E+00 -0.21230215132E+04  0.21230215132E+04  0.50400001928E-02 0.  1.
    10030    2    1    2    0    0  0.00000000000E+00  0.00000000000E+00 -0.92146296523E+03  0.33245800612E+04  0.31943291295E+04 0.  0.
        4    1    3    3  502    0 -0.67914562630E+02  0.14466642874E+04  0.24013885583E+03  0.14680320948E+04  0.12699999809E+01 0. -1.
       -4    1    3    3    0  502  0.67914562630E+02 -0.14466642874E+04 -0.11616018211E+04  0.18565479665E+04  0.12699999809E+01 0.  1.
</event>
<event>
 5   0  0.3531437E-06  0.3157777E+04  0.7818609E-02  0.8200058E-01
        2   -1    0    0  501    0  0.00000000000E+00  0.00000000000E+00  0.15786515265E+04  0.15786515265E+04  0.25500000920E-02 0. -1.
       -2   -1    0    0    0  501  0.00000000000E+00  0.00000000000E+00 -0.15791252264E+04  0.15791252264E+04  0.25500000920E-02 0.  1.
    10030    2    1    2    0    0  0.00000000000E+00  0.00000000000E+00 -0.47369989907E+00  0.31577767530E+04  0.31577767174E+04 0.  0.
        1    1    3    3  502    0 -0.97297974700E+03  0.12419612975E+04  0.60845035236E+02  0.15788792135E+04  0.50400001928E-02 0.  1.
       -1    1    3    3    0  502  0.97297974700E+03 -0.12419612975E+04 -0.61318735135E+02  0.15788975394E+04  0.50400001928E-02 0. -1.
</event>
<event>
 5   0  0.1268836E-06  0.3050619E+04  0.7818609E-02  0.8229422E-01
       -1   -1    0    0    0  501  0.00000000000E+00  0.00000000000E+00  0.15483146343E+04  0.15483146343E+04  0.50400001928E-02 0.  1.
        1   -1    0    0  501    0  0.00000000000E+00  0.00000000000E+00 -0.15026462532E+04  0.15026462532E+04  0.50400001928E-02 0. -1.
    10030    2    1    2    0    0  0.00000000000E+00  0.00000000000E+00  0.45668381037E+02  0.30509608875E+04  0.30506190742E+04 0.  0.
        1    1    3    3  502    0  0.69633894567E+03 -0.12136840431E+04  0.63006966209E+03  0.15345698624E+04  0.50400001928E-02 0.  1.
       -1    1    3    3    0  502 -0.69633894567E+03  0.12136840431E+04 -0.58440128105E+03  0.15163910251E+04  0.50400001928E-02 0. -1.
</event>
<event>
 5   0  0.3497546E-06  0.3117515E+04  0.7818609E-02  0.8210947E-01
        2   -1    0    0  501    0  0.00000000000E+00  0.00000000000E+00  0.15071161785E+04  0.15071161785E+04  0.25500000920E-02 0. -1.
       -2   -1    0    0    0  501  0.00000000000E+00  0.00000000000E+00 -0.16121682324E+04  0.16121682324E+04  0.25500000920E-02 0.  1.
    10030    2    1    2    0    0  0.00000000000E+00  0.00000000000E+00 -0.10505205394E+03  0.31192844109E+04  0.31175149241E+04 0.  0.
        4    1    3    3  502    0 -0.18509048141E+03  0.15309909874E+04  0.17460793609E+03  0.15519927301E+04  0.12699999809E+01 0.  1.
       -4    1    3    3    0  502  0.18509048141E+03 -0.15309909874E+04 -0.27965999002E+03  0.15672916808E+04  0.12699999809E+01 0. -1.
</event>
<event>
 5   0  0.1268836E-06  0.3373778E+04  0.7818609E-02  0.8144372E-01
        1   -1    0    0  501    0  0.00000000000E+00  0.00000000000E+00  0.20565233635E+04  0.20565233635E+04  0.50400001928E-02 0. -1.
       -1   -1    0    0    0  501  0.00000000000E+00  0.00000000000E+00 -0.13836915217E+04  0.13836915217E+04  0.50400001928E-02 0.  1.
    10030    2    1    2    0    0  0.00000000000E+00  0.00000000000E+00  0.67283184185E+03  0.34402148852E+04  0.33737776704E+04 0.  0.
        1    1    3    3  502    0  0.13966144361E+04 -0.56127924656E+03  0.11130089106E+04  0.18719922838E+04  0.50400001928E-02 0. -1.
       -1    1    3    3    0  502 -0.13966144361E+04  0.56127924656E+03 -0.44017706874E+03  0.15682226014E+04  0.50400001928E-02 0.  1.
</event>
<event>
 5   0  0.3745943E-06  0.3206044E+04  0.7818609E-02  0.8187223E-01
        2   -1    0    0  501    0  0.00000000000E+00  0.00000000000E+00  0.13835307516E+04  0.13835307516E+04  0.25500000920E-02 0. -1.
       -2   -1    0    0    0  501  0.00000000000E+00  0.00000000000E+00 -0.18573341536E+04  0.18573341536E+04  0.25500000920E-02 0.  1.
    10030    2    1    2    0    0  0.00000000000E+00  0.00000000000E+00 -0.47380340204E+03  0.32408649052E+04  0.32060436164E+04 0.  0.
        5    1    3    3  502    0  0.38106897664E+02 -0.15087907766E+04  0.30910845165E+03  0.15406076295E+04  0.46999998093E+01 0. -1.
       -5    1    3    3    0  502 -0.38106897664E+02  0.15087907766E+04 -0.78291185368E+03  0.17002572757E+04  0.46999998093E+01 0.  1.
</event>
<event>
 5   0  0.3745943E-06  0.3032531E+04  0.7818609E-02  0.8234502E-01
       -2   -1    0    0    0  501  0.00000000000E+00  0.00000000000E+00  0.18754113091E+04  0.18754113091E+04  0.25500000920E-02 0.  1.
        2   -1    0    0  501    0  0.00000000000E+00  0.00000000000E+00 -0.12258965867E+04  0.12258965867E+04  0.25500000920E-02 0. -1.
    10030    2    1    2    0    0  0.00000000000E+00  0.00000000000E+00  0.64951472239E+03  0.31013078958E+04  0.30325305094E+04 0.  0.
        5    1    3    3  502    0 -0.22132943511E+03 -0.12593738544E+04  0.11581184760E+04  0.17251868648E+04  0.46999998093E+01 0. -1.
       -5    1    3    3    0  502  0.22132943511E+03  0.12593738544E+04 -0.50860375359E+03  0.13761210311E+04  0.46999998093E+01 0.  1.
</event>
<event>
 5   0  0.3758062E-06  0.3098828E+04  0.7818609E-02  0.8216060E-01
        2   -1    0    0  501    0  0.00000000000E+00  0.00000000000E+00  0.75702284719E+03  0.75702284720E+03  0.25500000920E-02 0. -1.
       -2   -1    0    0    0  501  0.00000000000E+00  0.00000000000E+00 -0.31712170005E+04  0.31712170005E+04  0.25500000920E-02 0.  1.
    10030    2    1    2    0    0  0.00000000000E+00  0.00000000000E+00 -0.24141941533E+04  0.39282398477E+04  0.30988279867E+04 0.  0.
        2    1    3    3  502    0 -0.94383236324E+03 -0.10126728305E+04 -0.32486319004E+03  0.14219218979E+04  0.25500000920E-02 0. -1.
       -2    1    3    3    0  502  0.94383236324E+03  0.10126728305E+04 -0.20893309633E+04  0.25063179498E+04  0.25500000920E-02 0.  1.
</event>
<event>
 5   0  0.3758062E-06  0.3212086E+04  0.7818609E-02  0.8185633E-01
        2   -1    0    0  501    0  0.00000000000E+00  0.00000000000E+00  0.14065381692E+04  0.14065381692E+04  0.25500000920E-02 0.  1.
       -2   -1    0    0    0  501  0.00000000000E+00  0.00000000000E+00 -0.18338458962E+04  0.18338458962E+04  0.25500000920E-02 0. -1.
    10030    2    1    2    0    0  0.00000000000E+00  0.00000000000E+00 -0.42730772694E+03  0.32403840654E+04  0.32120860820E+04 0.  0.
        2    1    3    3  502    0  0.72401829860E+03 -0.86657001887E+03  0.93843531663E+03  0.14682666440E+04  0.25500000920E-02 0.  1.
       -2    1    3    3    0  502 -0.72401829860E+03  0.86657001887E+03 -0.13657430436E+04  0.17721174214E+04  0.25500000920E-02 0. -1.
</event>
<event>
 5   0  0.3531437E-06  0.3200909E+04  0.7818609E-02  0.8188577E-01
       -2   -1    0    0    0  501  0.00000000000E+00  0.00000000000E+00  0.14233352056E+04  0.14233352056E+04  0.25500000920E-02 0. -1.
        2   -1    0    0  501    0  0.00000000000E+00  0.00000000000E+00 -0.17996148673E+04  0.17996148673E+04  0.25500000920E-02 0.  1.
    10030    2    1    2    0    0  0.00000000000E+00  0.00000000000E+00 -0.37627966176E+03  0.32229500729E+04  0.32009093690E+04 0.  0.
        1    1    3    3  502    0 -0.94536403432E+03 -0.62920998276E+03  0.94738307703E+03  0.14789026521E+04  0.50400001928E-02 0. -1.
       -1    1    3    3    0  502  0.94536403432E+03  0.62920998276E+03 -0.13236627388E+04  0.17440474208E+04  0.50400001928E-02 0.  1.
</event>
<event>
 5   0  0.1306843E-06  0.2981586E+04  0.7818609E-02  0.8249009E-01
        1   -1    0    0  501    0  0.00000000000E+00  0.00000000000E+00  0.15528386934E+04  0.15528386935E+04  0.50400001928E-02 0. -1.
       -1   -1    0    0    0  501  0.00000000000E+00  0.00000000000E+00 -0.14312263385E+04  0.14312263385E+04  0.50400001928E-02 0.  1.
    10030    2    1    2    0    0  0.00000000000E+00  0.00000000000E+00  0.12161235496E+03  0.29840650319E+04  0.29815859119E+04 0.  0.
        5    1    3    3  502    0 -0.11196660626E+03 -0.67865324489E+03 -0.12629177637E+04  0.14380855731E+04  0.46999998093E+01 0.  1.
       -5    1    3    3    0  502  0.11196660626E+03  0.67865324489E+03  0.13845301187E+04  0.15459794588E+04  0.46999998093E+01 0. -1.
</event>
<event>
 5   0  0.1240725E-06  0.3196811E+04  0.7818609E-02  0.8189660E-01
        1   -1    0    0  501    0  0.00000000000E+00  0.00000000000E+00  0.17467289405E+04  0.17467289405E+04  0.50400001928E-02 0.  1.
       -1   -1    0    0    0  501  0.00000000000E+00  0.00000000000E+00 -0.14626765308E+04  0.14626765308E+04  0.50400001928E-02 0. -1.
    10030    2    1    2    0    0  0.00000000000E+00  0.00000000000E+00  0.28405240974E+03  0.32094054713E+04  0.31968105523E+04 0.  0.
        3    1    3    3  502    0  0.10808539991E+04 -0.31832552015E+03 -0.99616129917E+03  0.15039660396E+04  0.10100000352E+00 0. -1.
       -3    1    3    3    0  502 -0.10808539991E+04  0.31832552015E+03  0.12802137089E+04  0.17054394316E+04  0.10100000352E+00 0.  1.
</event>
<event>
 5   0  0.3656086E-06  0.3460864E+04  0.7818609E-02  0.8123128E-01
        2   -1    0    0  501    0  0.00000000000E+00  0.00000000000E+00  0.17689372988E+04  0.17689372988E+04  0.25500000920E-02 0. -1.
       -2   -1    0    0    0  501  0.00000000000E+00  0.00000000000E+00 -0.16927651915E+04  0.16927651915E+04  0.25500000920E-02 0.  1.
    10030    2    1    2    0    0  0.00000000000E+00  0.00000000000E+00  0.76172107345E+02  0.34617024903E+04  0.34608643344E+04 0.  0.
        3    1    3    3  502    0  0.90375529647E+03  0.82053850493E+03 -0.11887257224E+04  0.17038561933E+04  0.10100000352E+00 0.  1.
       -3    1    3    3    0  502 -0.90375529647E+03 -0.82053850493E+03  0.12648978298E+04  0.17578462970E+04  0.10100000352E+00 0. -1.
</event>
<event>
 5   0  0.1268836E-06  0.3188998E+04  0.7818609E-02  0.8191729E-01
        1   -1    0    0  501    0  0.00000000000E+00  0.00000000000E+00  0.17872818105E+04  0.17872818105E+04  0.50400001928E-02 0.  1.
       -1   -1    0    0    0  501  0.00000000000E+00  0.00000000000E+00 -0.14225107669E+04  0.14225107669E+04  0.50400001928E-02 0. -1.
    10030    2    1    2    0    0  0.00000000000E+00  0.00000000000E+00  0.36477104359E+03  0.32097925774E+04  0.31889983499E+04 0.  0.
        1    1    3    3  502    0 -0.65709262201E+03 -0.12742480917E+04  0.88475281840E+03  0.16847155436E+04  0.50400001928E-02 0. -1.
       -1    1    3    3    0  502  0.65709262201E+03  0.12742480917E+04 -0.51998177481E+03  0.15250770339E+04  0.50400001928E-02 0.  1.
</event>
<event>
 5   0  0.3758062E-06  0.3179451E+04  0.7818609E-02  0.8194265E-01
       -2   -1    0    0    0  501  0.00000000000E+00  0.00000000000E+00  0.93912087018E+03  0.93912087018E+03  0.25500000920E-02 0. -1.
        2   -1    0    0  501    0  0.00000000000E+00  0.00000000000E+00 -0.26910559878E+04  0.26910559878E+04  0.25500000920E-02 0.  1.
    10030    2    1    2    0    0  0.00000000000E+00  0.00000000000E+00 -0.17519351176E+04  0.36301768580E+04  0.31794507959E+04 0.  0.
        2    1    3    3  502    0 -0.98067860197E+03 -0.86181935734E+03 -0.19116181107E+04  0.23148967420E+04  0.25500000920E-02 0.  1.
       -2    1    3    3    0  502  0.98067860197E+03  0.86181935734E+03  0.15968299311E+03  0.13152801159E+04  0.25500000920E-02 0. -1.
</event>
<event>
 5   0  0.1273980E-06  0.3206577E+04  0.7818609E-02  0.8187082E-01
       -1   -1    0    0    0  501  0.00000000000E+00  0.00000000000E+00  0.18174155915E+04  0.18174155915E+04  0.50400001928E-02 0. -1.
        1   -1    0    0  501    0  0.00000000000E+00  0.00000000000E+00 -0.14143898955E+04  0.14143898955E+04  0.50400001928E-02 0.  1.
    10030    2    1    2    0    0  0.00000000000E+00  0.00000000000E+00  0.40302569599E+03  0.32318054870E+04  0.32065771461E+04 0.  0.
        4    1    3    3  502    0 -0.32423703515E+03 -0.15519405592E+04  0.44189189300E+03  0.16458794646E+04  0.12699999809E+01 0.  1.
       -4    1    3    3    0  502  0.32423703515E+03  0.15519405592E+04 -0.38866197016E+02  0.15859260223E+04  0.12699999809E+01 0. -1.
</event>
<event>
 5   0  0.1268836E-06  0.3171201E+04  0.7818609E-02  0.8196465E-01
        1   -1    0    0  501    0  0.00000000000E+00  0.00000000000E+00  0.19002158611E+04  0.19002158612E+04  0.50400001928E-02 0. -1.
       -1   -1    0    0    0  501  0.00000000000E+00  0.00000000000E+00 -0.13230756035E+04  0.13230756035E+04  0.50400001928E-02 0.  1.
    10030    2    1    2    0    0  0.00000000000E+00  0.00000000000E+00  0.57714025764E+03  0.32232914647E+04  0.31712011903E+04 0.  0.
        1    1    3    3  502    0  0.56533627243E+03  0.11557078684E+04 -0.65340155489E+03  0.14429828031E+04  0.50400001928E-02 0.  1.
       -1    1    3    3    0  502 -0.56533627243E+03 -0.11557078684E+04  0.12305418125E+04  0.17803086616E+04  0.50400001928E-02 0. -1.
</event>
<event>
 5   0  0.1273754E-06  0.3208410E+04  0.7818609E-02  0.8186600E-01
        1   -1    0    0  501    0  0.00000000000E+00  0.00000000000E+00  0.13272493738E+04  0.13272493739E+04  0.50400001928E-02 0. -1.
       -1   -1    0    0    0  501  0.00000000000E+00  0.00000000000E+00 -0.19389529570E+04  0.19389529571E+04  0.50400001928E-02 0.  1.
    10030    2    1    2    0    0  0.00000000000E+00  0.00000000000E+00 -0.61170358320E+03  0.32662023309E+04  0.32084102594E+04 0.  0.
        2    1    3    3  502    0  0.27883957153E+03 -0.11240390700E+04 -0.14359186675E+04  0.18447432767E+04  0.25500000920E-02 0.  1.
       -2    1    3    3    0  502 -0.27883957153E+03  0.11240390700E+04  0.82421508428E+03  0.14214590542E+04  0.25500000920E-02 0. -1.
</event>
<event>
 5   0  0.1240725E-06  0.3180197E+04  0.7818609E-02  0.8194067E-01
       -1   -1    0    0    0  501  0.00000000000E+00  0.00000000000E+00  0.10360940856E+04  0.10360940856E+04  0.50400001928E-02 0. -1.
        1   -1    0    0  501    0  0.00000000000E+00  0.00000000000E+00 -0.24403315533E+04  0.24403315533E+04  0.50400001928E-02 0.  1.
    10030    2    1    2    0    0  0.00000000000E+00  0.00000000000E+00 -0.14042374678E+04  0.34764256389E+04  0.31801969054E+04 0.  0.
        3    1    3    3  502    0  0.15560754682E+04  0.23506114934E+03 -0.45335017842E+03  0.16377273891E+04  0.10100000352E+00 0.  1.
       -3    1    3    3    0  502 -0.15560754682E+04 -0.23506114934E+03 -0.95088728935E+03  0.18386982498E+04  0.10100000352E+00 0. -1.
</event>
<event>
 5   0  0.3497546E-06  0.3181230E+04  0.7818609E-02  0.8193792E-01
        2   -1    0    0  501    0  0.00000000000E+00  0.00000000000E+00  0.21788171519E+04  0.21788171519E+04  0.25500000920E-02 0. -1.
       -2   -1    0    0    0  501  0.00000000000E+00  0.00000000000E+00 -0.11612060605E+04  0.11612060605E+04  0.25500000920E-02 0.  1.
    10030    2    1    2    0    0  0.00000000000E+00  0.00000000000E+00  0.10176110915E+04  0.33400232124E+04  0.31812297506E+04 0.  0.
        4    1    3    3  502    0 -0.14508014907E+04  0.42099600270E+03 -0.14039287172E+02  0.15107154974E+04  0.12699999809E+01 0.  1.
       -4    1    3    3    0  502  0.14508014907E+04 -0.42099600270E+03  0.10316503786E+04  0.18293077150E+04  0.12699999809E+01 0. -1.
</event>
<event>
 5   0  0.3497546E-06  0.3149164E+04  0.7818609E-02  0.8202373E-01
        2   -1    0    0  501    0  0.00000000000E+00  0.00000000000E+00  0.12224251301E+04  0.12224251301E+04  0.25500000920E-02 0.  1.
       -2   -1    0    0    0  501  0.00000000000E+00  0.00000000000E+00 -0.20281883443E+04  0.20281883443E+04  0.25500000920E-02 0. -1.
    10030    2    1    2    0    0  0.00000000000E+00  0.00000000000E+00 -0.80576321415E+03  0.32506134744E+04  0.31491639529E+04 0.  0.
        4    1    3    3  502    0  0.54920230112E+03 -0.12740720905E+04  0.36570186767E+03  0.14347899945E+04  0.12699999809E+01 0.  1.
       -4    1    3    3    0  502 -0.54920230112E+03  0.12740720905E+04 -0.11714650818E+04  0.18158234799E+04  0.12699999809E+01 0. -1.
</event>
<event>
 5   0  0.1273754E-06  0.3340062E+04  0.7818609E-02  0.8152776E-01
       -1   -1    0    0    0  501  0.00000000000E+00  0.00000000000E+00  0.12530069270E+04  0.12530069270E+04  0.50400001928E-02 0.  1.
        1   -1    0    0  501    0  0.00000000000E+00  0.00000000000E+00 -0.22258480501E+04  0.22258480501E+04  0.50400001928E-02 0. -1.
    10030    2    1    2    0    0  0.00000000000E+00  0.00000000000E+00 -0.97284112309E+03  0.34788549771E+04  0.33400616912E+04 0.  0.
        2    1    3    3  502    0  0.14061875204E+04 -0.88950343827E+03 -0.63526923360E+03  0.17810521352E+04  0.25500000920E-02 0.  1.
       -2    1    3    3    0  502 -0.14061875204E+04  0.88950343827E+03 -0.33757188949E+03  0.16978028419E+04  0.25500000920E-02 0. -1.
</event>
<event>
 5   0  0.3497546E-06  0.3357706E+04  0.7818609E-02  0.8148365E-01
       -2   -1    0    0    0  501  0.00000000000E+00  0.00000000000E+00  0.17580456182E+04  0.17580456182E+04  0.25500000920E-02 0. -1.
        2   -1    0    0  501    0  0.00000000000E+00  0.00000000000E+00 -0.16032278404E+04  0.16032278405E+04  0.25500000920E-02 0.  1.
    10030    2    1    2    0    0  0.00000000000E+00  0.00000000000E+00  0.15481777779E+03  0.33612734587E+04  0.33577061694E+04 0.  0.
        4    1    3    3  502    0  0.16537922624E+04 -0.11776227339E+02  0.36646909070E+03  0.16939506292E+04  0.12699999809E+01 0. -1.
       -4    1    3    3    0  502 -0.16537922624E+04  0.11776227339E+02 -0.21165131291E+03  0.16673228295E+04  0.12699999809E+01 0.  1.
</event>
<event>
 5   0  0.3531437E-06  0.3198546E+04  0.7818609E-02  0.8189201E-01
        2   -1    0    0  501    0  0.00000000000E+00  0.00000000000E+00  0.18944779867E+04  0.18944779867E+04  0.25500000920E-02 0. -1.
       -2   -1    0    0    0  501  0.00000000000E+00  0.00000000000E+00 -0.13500683580E+04  0.13500683580E+04  0.25500000920E-02 0.  1.
    10030    2    1    2    0    0  0.00000000000E+00  0.00000000000E+00  0.54440962866E+03  0.32445463447E+04  0.31985464103E+04 0.  0.
        1    1    3    3  502    0 -0.54830387875E+03 -0.46767474072E+03 -0.11760243627E+04  0.13792715861E+04  0.50400001928E-02 0.  1.
       -1    1    3    3    0  502  0.54830387875E+03  0.46767474072E+03  0.17204339913E+04  0.18652747586E+04  0.50400001928E-02 0. -1.
</event>
<event>
 5   0  0.3497546E-06  0.3211824E+04  0.7818609E-02  0.8185702E-01
        2   -1    0    0  501    0  0.00000000000E+00  0.00000000000E+00  0.14289297368E+04  0.14289297368E+04  0.25500000920E-02 0.  1.
       -2   -1    0    0    0  501  0.00000000000E+00  0.00000000000E+00 -0.18048141846E+04  0.18048141846E+04  0.25500000920E-02 0. -1.
    10030    2    1    2    0    0  0.00000000000E+00  0.00000000000E+00 -0.37588444780E+03  0.32337439213E+04  0.32118235678E+04 0.  0.
        4    1    3    3  502    0  0.14968389621E+04 -0.27142111592E+03 -0.70599716488E+03  0.16770897145E+04  0.12699999809E+01 0. -1.
       -4    1    3    3    0  502 -0.14968389621E+04  0.27142111592E+03  0.33011271709E+03  0.15566542068E+04  0.12699999809E+01 0.  1.
</event>
<event>
 5   0  0.1306843E-06  0.3220535E+04  0.7818609E-02  0.8183415E-01
        1   -1    0    0  501    0  0.00000000000E+00  0.00000000000E+00  0.20920686839E+04  0.20920686839E+04  0.50400001928E-02 0. -1.
       -1   -1    0    0    0  501  0.00000000000E+00  0.00000000000E+00 -0.12394243694E+04  0.12394243694E+04  0.50400001928E-02 0.  1.
    10030    2    1    2    0    0  0.00000000000E+00  0.00000000000E+00  0.85264431454E+03  0.33314930533E+04  0.32205346819E+04 0.  0.
        5    1    3    3  502    0 -0.70487128567E+03  0.85552682072E+03  0.16345394392E+04  0.19749711235E+04  0.46999998093E+01 0. -1.
       -5    1    3    3    0  502  0.70487128567E+03 -0.85552682072E+03 -0.78189512462E+03  0.13565219299E+04  0.46999998093E+01 0.  1.
</event>
<event>
 5   0  0.3745943E-06  0.3211258E+04  0.7818609E-02  0.8185850E-01
        2   -1    0    0  501    0  0.00000000000E+00  0.00000000000E+00  0.19079833552E+04  0.19079833552E+04  0.25500000920E-02 0. -1.
       -2   -1    0    0    0  501  0.00000000000E+00  0.00000000000E+00 -0.13511884154E+04  0.13511884154E+04  0.25500000920E-02 0.  1.
    10030    2    1    2    0    0  0.00000000000E+00  0.00000000000E+00  0.55679493977E+03  0.32591717707E+04  0.32112583244E+04 0.  0.
        5    1    3    3  502    0 -0.71121318734E+02 -0.45610417205E+03 -0.12823817999E+04  0.13629432961E+04  0.46999998093E+01 0.  1.
       -5    1    3    3    0  502  0.71121318734E+02  0.45610417205E+03  0.18391767397E+04  0.18962284745E+04  0.46999998093E+01 0. -1.
</event>
<event>
 5   0  0.1306843E-06  0.3196284E+04  0.7818609E-02  0.8189799E-01
       -1   -1    0    0    0  501  0.00000000000E+00  0.00000000000E+00  0.29421054482E+04  0.29421054482E+04  0.50400001928E-02 0.  1.
        1   -1    0    0  501    0  0.00000000000E+00  0.00000000000E+00 -0.86810545536E+03  0.86810545537E+03  0.50400001928E-02 0. -1.
    10030    2    1    2    0    0  0.00000000000E+00  0.00000000000E+00  0.20739999928E+04  0.38102109035E+04  0.31962839610E+04 0.  0.
        5    1    3    3  502    0  0.56592365978E+03  0.13291390543E+04  0.18517687892E+04  0.23486059595E+04  0.46999998093E+01 0.  1.
       -5    1    3    3    0  502 -0.56592365978E+03 -0.13291390543E+04  0.22223120360E+03  0.14616049440E+04  0.46999998093E+01 0. -1.
</event>
<event>
 5   0  0.1240725E-06  0.3206338E+04  0.7818609E-02  0.8187145E-01
        1   -1    0    0  501    0  0.00000000000E+00  0.00000000000E+00  0.21866847374E+04  0.21866847374E+04  0.50400001928E-02 0.  1.
       -1   -1    0    0    0  501  0.00000000000E+00  0.00000000000E+00 -0.11753644623E+04  0.11753644623E+04  0.50400001928E-02 0. -1.
    10030    2    1    2    0    0  0.00000000000E+00  0.00000000000E+00  0.10113202751E+04  0.33620491997E+04  0.32063384291E+04 0.  0.
        3    1    3    3  502    0 -0.31578405265E+03 -0.95274405227E+03 -0.80513252135E+03  0.12867319784E+04  0.10100000352E+00 0. -1.
       -3    1    3    3    0  502  0.31578405265E+03  0.95274405227E+03  0.18164527964E+04  0.20753172213E+04  0.10100000352E+00 0.  1.
</event>
<event>
 5   0  0.3656086E-06  0.3150683E+04  0.7818609E-02  0.8201964E-01
        2   -1    0    0  501    0  0.00000000000E+00  0.00000000000E+00  0.20943110720E+04  0.20943110720E+04  0.25500000920E-02 0.  1.
       -2   -1    0    0    0  501  0.00000000000E+00  0.00000000000E+00 -0.11849726256E+04  0.11849726256E+04  0.25500000920E-02 0. -1.
    10030    2    1    2    0    0  0.00000000000E+00  0.00000000000E+00  0.90933844644E+03  0.32792836976E+04  0.31506832845E+04 0.  0.
        3    1    3    3  502    0  0.87895160471E+02 -0.14699351561E+04 -0.12787797739E+03  0.14781027399E+04  0.10100000352E+00 0. -1.
       -3    1    3    3    0  502 -0.87895160471E+02  0.14699351561E+04  0.10372164238E+04  0.18011809577E+04  0.10100000352E+00 0.  1.
</event>
<event>
 5   0  0.1268836E-06  0.3164044E+04  0.7818609E-02  0.8198378E-01
       -1   -1    0    0    0  501  0.00000000000E+00  0.00000000000E+00  0.10654287873E+04  0.10654287873E+04  0.50400001928E-02 0.  1.
        1   -1    0    0  501    0  0.00000000000E+00  0.00000000000E+00 -0.23490947767E+04  0.23490947767E+04  0.50400001928E-02 0. -1.
    10030    2    1    2    0    0  0.00000000000E+00  0.00000000000E+00 -0.12836659895E+04  0.34145235640E+04  0.31640437413E+04 0.  0.
        1    1    3    3  502    0 -0.22878949486E+03 -0.12789075772E+03 -0.23254999038E+04  0.23402244511E+04  0.50400001928E-02 0. -1.
       -1    1    3    3    0  502  0.22878949486E+03  0.12789075772E+03  0.10418339143E+04  0.10742991129E+04  0.50400001928E-02 0.  1.
</event>
<event>
 5   0  0.1273980E-06  0.3205356E+04  0.7818609E-02  0.8187404E-01
        1   -1    0    0  501    0  0.00000000000E+00  0.00000000000E+00  0.17020694751E+04  0.17020694751E+04  0.50400001928E-02 0. -1.
       -1   -1    0    0    0  501  0.00000000000E+00  0.00000000000E+00 -0.15090907220E+04  0.15090907220E+04  0.50400001928E-02 0.  1.
    10030    2    1    2    0    0  0.00000000000E+00  0.00000000000E+00  0.19297875309E+03  0.32111601971E+04  0.32053563004E+04 0.  0.
        4    1    3    3  502    0 -0.69177935386E+03 -0.43449644504E+02 -0.13511631496E+04  0.15185815802E+04  0.12699999809E+01 0.  1.
       -4    1    3    3    0  502  0.69177935386E+03  0.43449644504E+02  0.15441419027E+04  0.16925786169E+04  0.12699999809E+01 0. -1.
</event>
<event>
 5   0  0.1306843E-06  0.2431906E+04  0.7818609E-02  0.8427654E-01
        1   -1    0    0  501    0  0.00000000000E+00  0.00000000000E+00  0.15741941245E+04  0.15741941245E+04  0.50400001928E-02 0.  1.
       -1   -1    0    0    0  501  0.00000000000E+00  0.00000000000E+00 -0.93923710962E+03  0.93923710963E+03  0.50400001928E-02 0. -1.
    10030    2    1    2    0    0  0.00000000000E+00  0.00000000000E+00  0.63495701488E+03  0.25134312341E+04  0.24319058695E+04 0.  0.
        5    1    3    3  502    0  0.94202444916E+03  0.69585508009E+03 -0.20430006142E+02  0.11713512840E+04  0.46999998093E+01 0.  1.
       -5    1    3    3    0  502 -0.94202444916E+03 -0.69585508009E+03  0.65538702102E+03  0.13420799502E+04  0.46999998093E+01 0. -1.
</event>
<event>
 5   0  0.1268836E-06  0.3153446E+04  0.7818609E-02  0.8201221E-01
       -1   -1    0    0    0  501  0.00000000000E+00  0.00000000000E+00  0.14843554506E+04  0.14843554506E+04  0.50400001928E-02 0. -1.
        1   -1    0    0  501    0  0.00000000000E+00  0.00000000000E+00 -0.16748386629E+04  0.16748386629E+04  0.50400001928E-02 0.  1.
    10030    2    1    2    0    0  0.00000000000E+00  0.00000000000E+00 -0.19048321227E+03  0.31591941135E+04  0.31534463041E+04 0.  0.
        1    1    3    3  502    0 -0.10130729829E+04 -0.84596732175E+03  0.76893040569E+03  0.15274919139E+04  0.50400001928E-02 0. -1.
       -1    1    3    3    0  502  0.10130729829E+04  0.84596732175E+03 -0.95941361796E+03  0.16317021997E+04  0.50400001928E-02 0.  1.
</event>
<event>
 5   0  0.1268836E-06  0.3344129E+04  0.7818609E-02  0.8151757E-01
        1   -1    0    0  501    0  0.00000000000E+00  0.00000000000E+00  0.13554875135E+04  0.13554875135E+04  0.50400001928E-02 0. -1.
       -1   -1    0    0    0  501  0.00000000000E+00  0.00000000000E+00 -0.20625787335E+04  0.20625787335E+04  0.50400001928E-02 0.  1.
    10030    2    1    2    0    0  0.00000000000E+00  0.00000000000E+00 -0.70709122005E+03  0.34180662470E+04  0.33441290160E+04 0.  0.
        1    1    3    3  502    0  0.32246479021E+03  0.58446669072E+03  0.12133903090E+04  0.13848829899E+04  0.50400001928E-02 0. -1.
       -1    1    3    3    0  502 -0.32246479021E+03 -0.58446669072E+03 -0.19204815291E+04  0.20331832571E+04  0.50400001928E-02 0.  1.
</event>
<event>
 5   0  0.3497546E-06  0.3312095E+04  0.7818609E-02  0.8159825E-01
       -2   -1    0    0    0  501  0.00000000000E+00  0.00000000000E+00  0.13482469085E+04  0.13482469085E+04  0.25500000920E-02 0.  1.
        2   -1    0    0  501    0  0.00000000000E+00  0.00000000000E+00 -0.20341185495E+04  0.20341185495E+04  0.25500000920E-02 0. -1.
    10030    2    1    2    0    0  0.00000000000E+00  0.00000000000E+00 -0.68587164102E+03  0.33823654580E+04  0.33120954369E+04 0.  0.
        4    1    3    3  502    0  0.15296052248E+04 -0.55867987502E+03 -0.35420705626E+02  0.16288252164E+04  0.12699999809E+01 0. -1.
       -4    1    3    3    0  502 -0.15296052248E+04  0.55867987502E+03 -0.65045093539E+03  0.17535402415E+04  0.12699999809E+01 0.  1.
</event>
<event>
 5   0  0.1273980E-06  0.3054116E+04  0.7818609E-02  0.8228444E-01
       -1   -1    0    0    0  501  0.00000000000E+00  0.00000000000E+00  0.10991100017E+04  0.10991100017E+04  0.50400001928E-02 0.  1.
        1   -1    0    0  501    0  0.00000000000E+00  0.00000000000E+00 -0.21216310035E+04  0.21216310035E+04  0.50400001928E-02 0. -1.
    10030    2    1    2    0    0  0.00000000000E+00  0.00000000000E+00 -0.10225210018E+04  0.32207410052E+04  0.30541158170E+04 0.  0.
        4    1    3    3  502    0 -0.14876921018E+04 -0.27209341803E+03 -0.73407338422E+03  0.16811091470E+04  0.12699999809E+01 0. -1.
       -4    1    3    3    0  502  0.14876921018E+04  0.27209341803E+03 -0.28844761753E+03  0.15396318582E+04  0.12699999809E+01 0.  1.
</event>
<event>
 5   0  0.1268836E-06  0.3188157E+04  0.7818609E-02  0.8191952E-01
        1   -1    0    0  501    0  0.00000000000E+00  0.00000000000E+00  0.10668543824E+04  0.10668543824E+04  0.50400001928E-02 0.  1.
       -1   -1    0    0    0  501  0.00000000000E+00  0.00000000000E+00 -0.23818494990E+04  0.23818494990E+04  0.50400001928E-02 0. -1.
    10030    2    1    2    0    0  0.00000000000E+00  0.00000000000E+00 -0.13149951166E+04  0.34487038814E+04  0.31881571958E+04 0.  0.
        1    1    3    3  502    0  0.27146589468E+03 -0.69524394623E+03 -0.21811648832E+04  0.23053282032E+04  0.50400001928E-02 0. -1.
       -1    1    3    3    0  502 -0.27146589468E+03  0.69524394623E+03  0.86616976666E+03  0.11433756782E+04  0.50400001928E-02 0.  1.
</event>
<event>
 5   0  0.1240725E-06  0.3192114E+04  0.7818609E-02  0.8190903E-01
        1   -1    0    0  501    0  0.00000000000E+00  0.00000000000E+00  0.13166149951E+04  0.13166149951E+04  0.50400001928E-02 0. -1.
       -1   -1    0    0    0  501  0.00000000000E+00  0.00000000000E+00 -0.19348089445E+04  0.19348089445E+04  0.50400001928E-02 0.  1.
    10030    2    1    2    0    0  0.00000000000E+00  0.00000000000E+00 -0.61819394940E+03  0.32514239395E+04  0.31921143268E+04 0.  0.
        3    1    3    3  502    0 -0.54529397272E+03  0.11968694039E+04  0.61189123105E+03  0.14506042795E+04  0.10100000352E+00 0. -1.
       -3    1    3    3    0  502  0.54529397272E+03 -0.11968694039E+04 -0.12300851804E+04  0.18008196601E+04  0.10100000352E+00 0.  1.
</event>
<event>
 5   0  0.1240725E-06  0.3220834E+04  0.7818609E-02  0.8183337E-01
       -1   -1    0    0    0  501  0.00000000000E+00  0.00000000000E+00  0.11174099199E+04  0.11174099199E+04  0.50400001928E-02 0.  1.
        1   -1    0    0  501    0  0.00000000000E+00  0.00000000000E+00 -0.23209411747E+04  0.23209411747E+04  0.50400001928E-02 0. -1.
    10030    2    1    2    0    0  0.00000000000E+00  0.00000000000E+00 -0.12035312548E+04  0.34383510946E+04  0.32208338623E+04 0.  0.
        3    1    3    3  502    0  0.51735103196E+03  0.10659506640E+03 -0.22258318826E+04  0.22876499248E+04  0.10100000352E+00 0. -1.
       -3    1    3    3    0  502 -0.51735103196E+03 -0.10659506640E+03  0.10223006278E+04  0.11507011698E+04  0.10100000352E+00 0.  1.
</event>
<event>
 5   0  0.3497546E-06  0.3178970E+04  0.7818609E-02  0.8194393E-01
       -2   -1    0    0    0  501  0.00000000000E+00  0.00000000000E+00  0.85589759528E+03  0.85589759528E+03  0.25500000920E-02 0.  1.
        2   -1    0    0  501    0  0.00000000000E+00  0.00000000000E+00 -0.29518277756E+04  0.29518277756E+04  0.25500000920E-02 0. -1.
    10030    2    1    2    0    0  0.00000000000E+00  0.00000000000E+00 -0.20959301803E+04  0.38077253709E+04  0.31789698299E+04 0.  0.
        4    1    3    3  502    0 -0.83430028794E+03  0.86048284396E+03  0.20254465017E+03  0.12155301902E+04  0.12699999809E+01 0.  1.
       -4    1    3    3    0  502  0.83430028794E+03 -0.86048284396E+03 -0.22984748305E+04  0.25921951806E+04  0.12699999809E+01 0. -1.
</event>
<event>
 5   0  0.1273754E-06  0.2566964E+04  0.7818609E-02  0.8379510E-01
        1   -1    0    0  501    0  0.00000000000E+00  0.00000000000E+00  0.22431731634E+04  0.22431731634E+04  0.50400001928E-02 0.  1.
       -1   -1    0    0    0  501  0.00000000000E+00  0.00000000000E+00 -0.73437288024E+03  0.73437288026E+03  0.50400001928E-02 0. -1.
    10030    2    1    2    0    0  0.00000000000E+00  0.00000000000E+00  0.15088002832E+04  0.29775460437E+04  0.25669636047E+04 0.  0.
        2    1    3    3  502    0 -0.13527055628E+03  0.12792203126E+03 -0.71862661384E+03  0.74235192436E+03  0.25500000920E-02 0. -1.
       -2    1    3    3    0  502  0.13527055628E+03 -0.12792203126E+03  0.22274268970E+04  0.22351941193E+04  0.25500000920E-02 0.  1.
</event>
<event>
 5   0  0.1273980E-06  0.3183980E+04  0.7818609E-02  0.8193061E-01
       -1   -1    0    0    0  501  0.00000000000E+00  0.00000000000E+00  0.14554584682E+04  0.14554584682E+04  0.50400001928E-02 0.  1.
        1   -1    0    0  501    0  0.00000000000E+00  0.00000000000E+00 -0.17413286473E+04  0.17413286473E+04  0.50400001928E-02 0. -1.
    10030    2    1    2    0    0  0.00000000000E+00  0.00000000000E+00 -0.28587017917E+03  0.31967871155E+04  0.31839796015E+04 0.  0.
        4    1    3    3  502    0 -0.75862620837E+03  0.13636715437E+04  0.17347716030E+03  0.15700986406E+04  0.12699999809E+01 0.  1.
       -4    1    3    3    0  502  0.75862620837E+03 -0.13636715437E+04 -0.45934733947E+03  0.16266884749E+04  0.12699999809E+01 0. -1.
</event>
<event>
 5   0  0.3497546E-06  0.3186459E+04  0.7818609E-02  0.8192403E-01
       -2   -1    0    0    0  501  0.00000000000E+00  0.00000000000E+00  0.12396137800E+04  0.12396137800E+04  0.25500000920E-02 0. -1.
        2   -1    0    0  501    0  0.00000000000E+00  0.00000000000E+00 -0.20477183307E+04  0.20477183307E+04  0.25500000920E-02 0.  1.
    10030    2    1    2    0    0  0.00000000000E+00  0.00000000000E+00 -0.80810455074E+03  0.32873321107E+04  0.31864587618E+04 0.  0.
        4    1    3    3  502    0 -0.36405157331E+03  0.10176566607E+04  0.80356792924E+03  0.13468042385E+04  0.12699999809E+01 0. -1.
       -4    1    3    3    0  502  0.36405157331E+03 -0.10176566607E+04 -0.16116724800E+04  0.19405278722E+04  0.12699999809E+01 0.  1.
</event>
<event>
 5   0  0.3745943E-06  0.3221736E+04  0.7818609E-02  0.8183100E-01
       -2   -1    0    0    0  501  0.00000000000E+00  0.00000000000E+00  0.24523113328E+04  0.24523113328E+04  0.25500000920E-02 0. -1.
        2   -1    0    0  501    0  0.00000000000E+00  0.00000000000E+00 -0.10581429377E+04  0.10581429377E+04  0.25500000920E-02 0.  1.
    10030    2    1    2    0    0  0.00000000000E+00  0.00000000000E+00  0.13941683951E+04  0.35104542705E+04  0.32217361269E+04 0.  0.
        5    1    3    3  502    0  0.85016797527E+02 -0.15947670204E+04  0.46758070411E+03  0.16640803797E+04  0.46999998093E+01 0.  1.
       -5    1    3    3    0  502 -0.85016797527E+02  0.15947670204E+04  0.92658769102E+03  0.18463738908E+04  0.46999998093E+01 0. -1.
</event>
<event>
 5   0  0.1273980E-06  0.3047445E+04  0.7818609E-02  0.8230311E-01
       -1   -1    0    0    0  501  0.00000000000E+00  0.00000000000E+00  0.10091152241E+04  0.10091152241E+04  0.50400001928E-02 0.  1.
        1   -1    0    0  501    0  0.00000000000E+00  0.00000000000E+00 -0.23007587275E+04  0.23007587275E+04  0.50400001928E-02 0. -1.
    10030    2    1    2    0    0  0.00000000000E+00  0.00000000000E+00 -0.12916435035E+04  0.33098739516E+04  0.30474452637E+04 0.  0.
        4    1    3    3  502    0 -0.12688902378E+04  0.31196979944E+03 -0.14971036187E+04  0.19871407724E+04  0.12699999809E+01 0. -1.
       -4    1    3    3    0  502  0.12688902378E+04 -0.31196979944E+03  0.20546011526E+03  0.13227331792E+04  0.12699999809E+01 0.  1.
</event>
<event>
 5   0  0.3497546E-06  0.3191409E+04  0.7818609E-02  0.8191090E-01
        2   -1    0    0  501    0  0.00000000000E+00  0.00000000000E+00  0.10451125475E+04  0.10451125475E+04  0.25500000920E-02 0. -1.
       -2   -1    0    0    0  501  0.00000000000E+00  0.00000000000E+00 -0.24363624147E+04  0.24363624148E+04  0.25500000920E-02 0.  1.
    10030    2    1    2    0    0  0.00000000000E+00  0.00000000000E+00 -0.13912498673E+04  0.34814749622E+04  0.31914090492E+04 0.  0.
        4    1    3    3  502    0  0.11250884593E+04 -0.11349809148E+03 -0.19238161925E+04  0.22315412193E+04  0.12699999809E+01 0.  1.
       -4    1    3    3    0  502 -0.11250884593E+04  0.11349809148E+03  0.53256632527E+03  0.12499337429E+04  0.12699999809E+01 0. -1.
</event>
<event>
 5   0  0.3656086E-06  0.3136256E+04  0.7818609E-02  0.8205858E-01
       -2   -1    0    0    0  501  0.00000000000E+00  0.00000000000E+00  0.10545026589E+04  0.10545026589E+04  0.25500000920E-02 0. -1.
        2   -1    0    0  501    0  0.00000000000E+00  0.00000000000E+00 -0.23319296845E+04  0.23319296845E+04  0.25500000920E-02 0.  1.
    10030    2    1    2    0    0  0.00000000000E+00  0.00000000000E+00 -0.12774270256E+04  0.33864323435E+04  0.31362564007E+04 0.  0.
        3    1    3    3  502    0  0.19644507479E+03 -0.75117792739E+03 -0.21098039679E+04  0.22481396174E+04  0.10100000352E+00 0.  1.
       -3    1    3    3    0  502 -0.19644507479E+03  0.75117792739E+03  0.83237694232E+03  0.11382927261E+04  0.10100000352E+00 0. -1.
</event>
<event>
 5   0  0.1306843E-06  0.3235813E+04  0.7818609E-02  0.8179423E-01
        1   -1    0    0  501    0  0.00000000000E+00  0.00000000000E+00  0.18870511736E+04  0.18870511736E+04  0.50400001928E-02 0. -1.
       -1   -1    0    0    0  501  0.00000000000E+00  0.00000000000E+00 -0.13871490865E+04  0.13871490865E+04  0.50400001928E-02 0.  1.
    10030    2    1    2    0    0  0.00000000000E+00  0.00000000000E+00  0.49990208710E+03  0.32742002601E+04  0.32358129189E+04 0.  0.
        5    1    3    3  502    0  0.15713058067E+04  0.35830616317E+03  0.10608850560E+03  0.16151353211E+04  0.46999998093E+01 0.  1.
       -5    1    3    3    0  502 -0.15713058067E+04 -0.35830616317E+03  0.39381358151E+03  0.16590649389E+04  0.46999998093E+01 0. -1.
</event>
<event>
 5   0  0.3758062E-06  0.3169997E+04  0.7818609E-02  0.8196786E-01
       -2   -1    0    0    0  501  0.00000000000E+00  0.00000000000E+00  0.11239553325E+04  0.11239553325E+04  0.25500000920E-02 0.  1.
        2   -1    0    0  501    0  0.00000000000E+00  0.00000000000E+00 -0.22351606032E+04  0.22351606032E+04  0.25500000920E-02 0. -1.
    10030    2    1    2    0    0  0.00000000000E+00  0.00000000000E+00 -0.11112052707E+04  0.33591159357E+04  0.31699972738E+04 0.  0.
        2    1    3    3  502    0 -0.83112839063E+03 -0.51343159493E+03  0.76699192402E+03  0.12420398608E+04  0.25500000920E-02 0.  1.
       -2    1    3    3    0  502  0.83112839063E+03  0.51343159493E+03 -0.18781971947E+04  0.21170760748E+04  0.25500000920E-02 0. -1.
</event>
<event>
 5   0  0.1185575E-06  0.3210145E+04  0.7818609E-02  0.8186143E-01
       -3   -1    0    0    0  501  0.00000000000E+00  0.00000000000E+00  0.11872234851E+04  0.11872234894E+04  0.10100000352E+00 0.  1.
        3   -1    0    0  501    0  0.00000000000E+00  0.00000000000E+00 -0.21699858887E+04  0.21699858910E+04  0.10100000352E+00 0. -1.
    10030    2    1    2    0    0  0.00000000000E+00  0.00000000000E+00 -0.98276240359E+03  0.33572093804E+04  0.32101453054E+04 0.  0.
        2    1    3    3  502    0  0.11878033799E+04  0.14032870110E+03  0.62802355448E+03  0.13509191680E+04  0.25500000920E-02 0.  1.
       -2    1    3    3    0  502 -0.11878033799E+04 -0.14032870110E+03 -0.16107859581E+04  0.20062902124E+04  0.25500000920E-02 0. -1.
</event>
<event>
 5   0  0.3758062E-06  0.3199946E+04  0.7818609E-02  0.8188832E-01
        2   -1    0    0  501    0  0.00000000000E+00  0.00000000000E+00  0.14579434062E+04  0.14579434062E+04  0.25500000920E-02 0.  1.
       -2   -1    0    0    0  501  0.00000000000E+00  0.00000000000E+00 -0.17558384362E+04  0.17558384362E+04  0.25500000920E-02 0. -1.
    10030    2    1    2    0    0  0.00000000000E+00  0.00000000000E+00 -0.29789503000E+03  0.32137818425E+04  0.31999456686E+04 0.  0.
        2    1    3    3  502    0  0.46331382940E+03  0.13005299294E+04 -0.96106945590E+03  0.16821689276E+04  0.25500000920E-02 0. -1.
       -2    1    3    3    0  502 -0.46331382940E+03 -0.13005299294E+04  0.66317442590E+03  0.15316129149E+04  0.25500000920E-02 0.  1.
</event>
<event>
 5   0  0.1240725E-06  0.3226434E+04  0.7818609E-02  0.8181871E-01
       -1   -1    0    0    0  501  0.00000000000E+00  0.00000000000E+00  0.10993847731E+04  0.10993847731E+04  0.50400001928E-02 0. -1.
        1   -1    0    0  501    0  0.00000000000E+00  0.00000000000E+00 -0.23672052876E+04  0.23672052876E+04  0.50400001928E-02 0.  1.
    10030    2    1    2    0    0  0.00000000000E+00  0.00000000000E+00 -0.12678205145E+04  0.34665900607E+04  0.32264342225E+04 0.  0.
        3    1    3    3  502    0 -0.47507048421E+03 -0.15350052236E+04 -0.47993809293E+03  0.16769834778E+04  0.10100000352E+00 0. -1.
       -3    1    3    3    0  502  0.47507048421E+03  0.15350052236E+04 -0.78788242161E+03  0.17896065830E+04  0.10100000352E+00 0.  1.
</event>
<event>
 5   0  0.3656086E-06  0.3099432E+04  0.7818609E-02  0.8215894E-01
        2   -1    0    0  501    0  0.00000000000E+00  0.00000000000E+00  0.22076936277E+04  0.22076936277E+04  0.25500000920E-02 0.  1.
       -2   -1    0    0    0  501  0.00000000000E+00  0.00000000000E+00 -0.10878409222E+04  0.10878409222E+04  0.25500000920E-02 0. -1.
    10030    2    1    2    0    0  0.00000000000E+00  0.00000000000E+00  0.11198527055E+04  0.32955345500E+04  0.30994318653E+04 0.  0.
        3    1    3    3  502    0  0.49869643168E+03 -0.12637515527E+04 -0.23280107862E+03  0.13783912617E+04  0.10100000352E+00 0. -1.
       -3    1    3    3    0  502 -0.49869643168E+03  0.12637515527E+04  0.13526537841E+04  0.19171432883E+04  0.10100000352E+00 0.  1.
</event>
<event>
 5   0  0.1273980E-06  0.2592902E+04  0.7818609E-02  0.8370616E-01
        1   -1    0    0  501    0  0.00000000000E+00  0.00000000000E+00  0.11210702433E+04  0.11210702433E+04  0.50400001928E-02 0.  1.
       -1   -1    0    0    0  501  0.00000000000E+00  0.00000000000E+00 -0.14992686655E+04  0.14992686655E+04  0.50400001928E-02 0. -1.
    10030    2    1    2    0    0  0.00000000000E+00  0.00000000000E+00 -0.37819842214E+03  0.26203389088E+04  0.25929022254E+04 0.  0.
        4    1    3    3  502    0  0.35024027332E+02 -0.10768798692E+04  0.53956221406E+03  0.12050003863E+04  0.12699999809E+01 0.  1.
       -4    1    3    3    0  502 -0.35024027332E+02  0.10768798692E+04 -0.91776063620E+03  0.14153385225E+04  0.12699999809E+01 0. -1.
</event>
<event>
 5   0  0.1268836E-06  0.3209256E+04  0.7818609E-02  0.8186377E-01
        1   -1    0    0  501    0  0.00000000000E+00  0.00000000000E+00  0.10744875409E+04  0.10744875409E+04  0.50400001928E-02 0.  1.
       -1   -1    0    0    0  501  0.00000000000E+00  0.00000000000E+00 -0.23963343043E+04  0.23963343043E+04  0.50400001928E-02 0. -1.
    10030    2    1    2    0    0  0.00000000000E+00  0.00000000000E+00 -0.13218467635E+04  0.34708218452E+04  0.32092562090E+04 0.  0.
        1    1    3    3  502    0  0.29966688648E+03  0.13068108846E+04 -0.16144123645E+04  0.20985428787E+04  0.50400001928E-02 0. -1.
       -1    1    3    3    0  502 -0.29966688648E+03 -0.13068108846E+04  0.29256560099E+03  0.13722789665E+04  0.50400001928E-02 0.  1.
</event>
<event>
 5   0  0.3758062E-06  0.3214479E+04  0.7818609E-02  0.8185004E-01
       -2   -1    0    0    0  501  0.00000000000E+00  0.00000000000E+00  0.17845089207E+04  0.17845089207E+04  0.25500000920E-02 0. -1.
        2   -1    0    0  501    0  0.00000000000E+00  0.00000000000E+00 -0.14475793481E+04  0.14475793481E+04  0.25500000920E-02 0.  1.
    10030    2    1    2    0    0  0.00000000000E+00  0.00000000000E+00  0.33692957263E+03  0.32320882688E+04  0.32144786577E+04 0.  0.
        2    1    3    3  502    0 -0.66293573197E+03  0.12821849018E+04 -0.54232820662E+03  0.15419474021E+04  0.25500000920E-02 0.  1.
       -2    1    3    3    0  502  0.66293573197E+03 -0.12821849018E+04  0.87925777925E+03  0.16901408667E+04  0.25500000920E-02 0. -1.
</event>
<event>
 5   0  0.1240725E-06  0.3261658E+04  0.7818609E-02  0.8172721E-01
       -1   -1    0    0    0  501  0.00000000000E+00  0.00000000000E+00  0.18351502533E+04  0.18351502534E+04  0.50400001928E-02 0. -1.
        1   -1    0    0  501    0  0.00000000000E+00  0.00000000000E+00 -0.14492564774E+04  0.14492564774E+04  0.50400001928E-02 0.  1.
    10030    2    1    2    0    0  0.00000000000E+00  0.00000000000E+00  0.38589377597E+03  0.32844067307E+04  0.32616581008E+04 0.  0.
        3    1    3    3  502    0 -0.19027770522E+03 -0.13989514577E+04  0.10149321445E+04  0.17387806228E+04  0.10100000352E+00 0.  1.
       -3    1    3    3    0  502  0.19027770522E+03  0.13989514577E+04 -0.62903836848E+03  0.15456261079E+04  0.10100000352E+00 0. -1.
</event>
<event>
 5   0  0.3497546E-06  0.3410099E+04  0.7818609E-02  0.8135432E-01
       -2   -1    0    0    0  501  0.00000000000E+00  0.00000000000E+00  0.17332670511E+04  0.17332670511E+04  0.25500000920E-02 0. -1.
        2   -1    0    0  501    0  0.00000000000E+00  0.00000000000E+00 -0.16772915340E+04  0.16772915340E+04  0.25500000920E-02 0.  1.
    10030    2    1    2    0    0  0.00000000000E+00  0.00000000000E+00  0.55975517107E+02  0.34105585852E+04  0.34100992074E+04 0.  0.
        4    1    3    3  502    0  0.14242152986E+04  0.72495601777E+03 -0.56643403716E+03  0.16955233929E+04  0.12699999809E+01 0.  1.
       -4    1    3    3    0  502 -0.14242152986E+04 -0.72495601777E+03  0.62240955426E+03  0.17150351923E+04  0.12699999809E+01 0. -1.
</event>
<event>
 5   0  0.3656086E-06  0.3122489E+04  0.7818609E-02  0.8209593E-01
       -2   -1    0    0    0  501  0.00000000000E+00  0.00000000000E+00  0.19576758493E+04  0.19576758493E+04  0.25500000920E-02 0.  1.
        2   -1    0    0  501    0  0.00000000000E+00  0.00000000000E+00 -0.12450911395E+04  0.12450911395E+04  0.25500000920E-02 0. -1.
    10030    2    1    2    0    0  0.00000000000E+00  0.00000000000E+00  0.71258470981E+03  0.32027669888E+04  0.31224892980E+04 0.  0.
        3    1    3    3  502    0  0.59653090473E+03  0.11067090424E+04 -0.59315726396E+03  0.13901401278E+04  0.10100000352E+00 0. -1.
       -3    1    3    3    0  502 -0.59653090473E+03 -0.11067090424E+04  0.13057419738E+04  0.18126268610E+04  0.10100000352E+00 0.  1.
</event>
<event>
 5   0  0.3745943E-06  0.3178166E+04  0.7818609E-02  0.8194607E-01
       -2   -1    0    0    0  501  0.00000000000E+00  0.00000000000E+00  0.15543901356E+04  0.15543901356E+04  0.25500000920E-02 0.  1.
        2   -1    0    0  501    0  0.00000000000E+00  0.00000000000E+00 -0.16245504061E+04  0.16245504061E+04  0.25500000920E-02 0. -1.
    10030    2    1    2    0    0  0.00000000000E+00  0.00000000000E+00 -0.70160270465E+02  0.31789405417E+04  0.31781662172E+04 0.  0.
        5    1    3    3  502    0  0.13644333911E+04 -0.33020592331E+03 -0.77987460942E+03  0.16059081316E+04  0.46999998093E+01 0. -1.
       -5    1    3    3    0  502 -0.13644333911E+04  0.33020592331E+03  0.70971433895E+03  0.15730324102E+04  0.46999998093E+01 0.  1.
</event>
<event>
 5   0  0.1273980E-06  0.3167331E+04  0.7818609E-02  0.8197499E-01
        1   -1    0    0  501    0  0.00000000000E+00  0.00000000000E+00  0.14586668608E+04  0.14586668608E+04  0.50400001928E-02 0.  1.
       -1   -1    0    0    0  501  0.00000000000E+00  0.00000000000E+00 -0.17193760048E+04  0.17193760048E+04  0.50400001928E-02 0. -1.
    10030    2    1    2    0    0  0.00000000000E+00  0.00000000000E+00 -0.26070914393E+03  0.31780428656E+04  0.31673312422E+04 0.  0.
        4    1    3    3  502    0  0.15265474575E+03  0.72871942887E+03  0.12721062115E+04  0.14739712696E+04  0.12699999809E+01 0.  1.
       -4    1    3    3    0  502 -0.15265474575E+03 -0.72871942887E+03 -0.15328153555E+04  0.17040715960E+04  0.12699999809E+01 0. -1.
</event>
<event>
 5   0  0.1240725E-06  0.3208279E+04  0.7818609E-02  0.8186634E-01
        1   -1    0    0  501    0  0.00000000000E+00  0.00000000000E+00  0.17072501592E+04  0.17072501592E+04  0.50400001928E-02 0. -1.
       -1   -1    0    0    0  501  0.00000000000E+00  0.00000000000E+00 -0.15072560533E+04  0.15072560534E+04  0.50400001928E-02 0.  1.
    10030    2    1    2    0    0  0.00000000000E+00  0.00000000000E+00  0.19999410584E+03  0.32145062125E+04  0.32082787516E+04 0.  0.
        3    1    3    3  502    0  0.13824268114E+04 -0.38002944768E+02 -0.71442450752E+03  0.15565829563E+04  0.10100000352E+00 0.  1.
       -3    1    3    3    0  502 -0.13824268114E+04  0.38002944768E+02  0.91441861336E+03  0.16579232562E+04  0.10100000352E+00 0. -1.
</event>
<event>
 5   0  0.1306843E-06  0.3259639E+04  0.7818609E-02  0.8173242E-01
       -1   -1    0    0    0  501  0.00000000000E+00  0.00000000000E+00  0.11090476446E+04  0.11090476446E+04  0.50400001928E-02 0. -1.
        1   -1    0    0  501    0  0.00000000000E+00  0.00000000000E+00 -0.23951282667E+04  0.23951282667E+04  0.50400001928E-02 0.  1.
    10030    2    1    2    0    0  0.00000000000E+00  0.00000000000E+00 -0.12860806221E+04  0.35041759113E+04  0.32596388528E+04 0.  0.
        5    1    3    3  502    0  0.70767700449E+03  0.13664004855E+04 -0.12203891780E+04  0.19639829086E+04  0.46999998093E+01 0.  1.
       -5    1    3    3    0  502 -0.70767700449E+03 -0.13664004855E+04 -0.65691444083E+02  0.15401930026E+04  0.46999998093E+01 0. -1.
</event>
<event>
 5   0  0.3497546E-06  0.3217330E+04  0.7818609E-02  0.8184255E-01
        2   -1    0    0  501    0  0.00000000000E+00  0.00000000000E+00  0.14946280475E+04  0.14946280475E+04  0.25500000920E-02 0. -1.
       -2   -1    0    0    0  501  0.00000000000E+00  0.00000000000E+00 -0.17314022237E+04  0.17314022237E+04  0.25500000920E-02 0.  1.
    10030    2    1    2    0    0  0.00000000000E+00  0.00000000000E+00 -0.23677417622E+03  0.32260302711E+04  0.32173295293E+04 0.  0.
        4    1    3    3  502    0 -0.52837935722E+03 -0.28047187236E+03  0.13789535155E+04  0.15031179684E+04  0.12699999809E+01 0. -1.
       -4    1    3    3    0  502  0.52837935722E+03  0.28047187236E+03 -0.16157276917E+04  0.17229123027E+04  0.12699999809E+01 0.  1.
</event>
<event>
 5   0  0.3531437E-06  0.3033667E+04  0.7818609E-02  0.8234182E-01
       -2   -1    0    0    0  501  0.00000000000E+00  0.00000000000E+00  0.17851078041E+04  0.17851078041E+04  0.25500000920E-02 0. -1.
        2   -1    0    0  501    0  0.00000000000E+00  0.00000000000E+00 -0.12888764298E+04  0.12888764298E+04  0.25500000920E-02 0.  1.
    10030    2    1    2    0    0  0.00000000000E+00  0.00000000000E+00  0.49623137435E+03  0.30739842339E+04  0.30336666747E+04 0.  0.
        1    1    3    3  502    0  0.65925638907E+03  0.24305752503E+03  0.16102607386E+04  0.17568823504E+04  0.50400001928E-02 0. -1.
       -1    1    3    3    0  502 -0.65925638907E+03 -0.24305752503E+03 -0.11140293642E+04  0.13171018835E+04  0.50400001928E-02 0.  1.
</event>
<event>
 5   0  0.3745943E-06  0.3151927E+04  0.7818609E-02  0.8201630E-01
       -2   -1    0    0    0  501  0.00000000000E+00  0.00000000000E+00  0.30285471887E+04  0.30285471887E+04  0.25500000920E-02 0.  1.
        2   -1    0    0  501    0  0.00000000000E+00  0.00000000000E+00 -0.82008336655E+03  0.82008336656E+03  0.25500000920E-02 0. -1.
    10030    2    1    2    0    0  0.00000000000E+00  0.00000000000E+00  0.22084638222E+04  0.38486305553E+04  0.31519271402E+04 0.  0.
        5    1    3    3  502    0  0.89415660608E+03 -0.80158306697E+03  0.23504038323E+04  0.26394074551E+04  0.46999998093E+01 0.  1.
       -5    1    3    3    0  502 -0.89415660608E+03  0.80158306697E+03 -0.14194001010E+03  0.12092231001E+04  0.46999998093E+01 0. -1.
</event>
<event>
 5   0  0.3497546E-06  0.3165029E+04  0.7818609E-02  0.8198114E-01
        2   -1    0    0  501    0  0.00000000000E+00  0.00000000000E+00  0.17665651989E+04  0.17665651989E+04  0.25500000920E-02 0.  1.
       -2   -1    0    0    0  501  0.00000000000E+00  0.00000000000E+00 -0.14176394216E+04  0.14176394216E+04  0.25500000920E-02 0. -1.
    10030    2    1    2    0    0  0.00000000000E+00  0.00000000000E+00  0.34892577723E+03  0.31842046205E+04  0.31650292048E+04 0.  0.
        4    1    3    3  502    0  0.97086095643E+03 -0.74096052867E+03 -0.83799262263E+03  0.14811572335E+04  0.12699999809E+01 0. -1.
       -4    1    3    3    0  502 -0.97086095643E+03  0.74096052867E+03  0.11869183999E+04  0.17030473871E+04  0.12699999809E+01 0.  1.
</event>
<event>
 5   0  0.3758062E-06  0.3214430E+04  0.7818609E-02  0.8185017E-01
        2   -1    0    0  501    0  0.00000000000E+00  0.00000000000E+00  0.87694646885E+03  0.87694646886E+03  0.25500000920E-02 0.  1.
       -2   -1    0    0    0  501  0.00000000000E+00  0.00000000000E+00 -0.29456065733E+04  0.29456065733E+04  0.25500000920E-02 0. -1.
    10030    2    1    2    0    0  0.00000000000E+00  0.00000000000E+00 -0.20686601045E+04  0.38225530422E+04  0.32144295190E+04 0.  0.
        2    1    3    3  502    0  0.22734110032E+02 -0.15998651401E+04 -0.12148904650E+04  0.20089908283E+04  0.25500000920E-02 0. -1.
       -2    1    3    3    0  502 -0.22734110032E+02  0.15998651401E+04 -0.85376963951E+03  0.18135622139E+04  0.25500000920E-02 0.  1.
</event>
<event>
 5   0  0.3745943E-06  0.3202536E+04  0.7818609E-02  0.8188148E-01
        2   -1    0    0  501    0  0.00000000000E+00  0.00000000000E+00  0.17715344335E+04  0.17715344335E+04  0.25500000920E-02 0. -1.
       -2   -1    0    0    0  501  0.00000000000E+00  0.00000000000E+00 -0.14473663871E+04  0.14473663871E+04  0.25500000920E-02 0.  1.
    10030    2    1    2    0    0  0.00000000000E+00  0.00000000000E+00  0.32416804643E+03  0.32189008207E+04  0.32025361155E+04 0.  0.
        5    1    3    3  502    0 -0.92037045174E+03  0.54910008878E+03 -0.10337199762E+04  0.14890237591E+04  0.46999998093E+01 0.  1.
       -5    1    3    3    0  502  0.92037045174E+03 -0.54910008878E+03  0.13578880227E+04  0.17298770615E+04  0.46999998093E+01 0. -1.
</event>
<event>
 5   0  0.3745943E-06  0.3177824E+04  0.7818609E-02  0.8194699E-01
        2   -1    0    0  501    0  0.00000000000E+00  0.00000000000E+00  0.17569165418E+04  0.17569165418E+04  0.25500000920E-02 0. -1.
       -2   -1    0    0    0  501  0.00000000000E+00  0.00000000000E+00 -0.14369725504E+04  0.14369725504E+04  0.25500000920E-02 0.  1.
    10030    2    1    2    0    0  0.00000000000E+00  0.00000000000E+00  0.31994399138E+03  0.31938890922E+04  0.31778236854E+04 0.  0.
        5    1    3    3  502    0  0.30136577234E+03  0.35182306489E+03  0.16875300042E+04  0.17499658290E+04  0.46999998093E+01 0. -1.
       -5    1    3    3    0  502 -0.30136577234E+03 -0.35182306489E+03 -0.13675860128E+04  0.14439232632E+04  0.46999998093E+01 0.  1.
</event>
<event>
 5   0  0.1273754E-06  0.3208059E+04  0.7818609E-02  0.8186692E-01
       -1   -1    0    0    0  501  0.00000000000E+00  0.00000000000E+00  0.20415507402E+04  0.20415507402E+04  0.50400001928E-02 0. -1.
        1   -1    0    0  501    0  0.00000000000E+00  0.00000000000E+00 -0.12602724183E+04  0.12602724183E+04  0.50400001928E-02 0.  1.
    10030    2    1    2    0    0  0.00000000000E+00  0.00000000000E+00  0.78127832192E+03  0.33018231585E+04  0.32080586581E+04 0.  0.
        2    1    3    3  502    0 -0.13079856248E+04  0.49602132491E+03 -0.41718766276E+03  0.14597633696E+04  0.25500000920E-02 0.  1.
       -2    1    3    3    0  502  0.13079856248E+04 -0.49602132491E+03  0.11984659847E+04  0.18420597889E+04  0.25500000920E-02 0. -1.
</event>
<event>
 5   0  0.1273754E-06  0.3041320E+04  0.7818609E-02  0.8232029E-01
       -1   -1    0    0    0  501  0.00000000000E+00  0.00000000000E+00  0.78303585072E+03  0.78303585074E+03  0.50400001928E-02 0.  1.
        1   -1    0    0  501    0  0.00000000000E+00  0.00000000000E+00 -0.29531305867E+04  0.29531305867E+04  0.50400001928E-02 0. -1.
    10030    2    1    2    0    0  0.00000000000E+00  0.00000000000E+00 -0.21700947360E+04  0.37361664374E+04  0.30413201879E+04 0.  0.
        2    1    3    3  502    0 -0.10579438102E+04  0.16354609912E+03 -0.24118018401E+04  0.26387081210E+04  0.25500000920E-02 0. -1.
       -2    1    3    3    0  502  0.10579438102E+04 -0.16354609912E+03  0.24170710411E+03  0.10974583164E+04  0.25500000920E-02 0.  1.
</event>
<event>
 5   0  0.1273754E-06  0.3162829E+04  0.7818609E-02  0.8198703E-01
        1   -1    0    0  501    0  0.00000000000E+00  0.00000000000E+00  0.13110708226E+04  0.13110708226E+04  0.50400001928E-02 0. -1.
       -1   -1    0    0    0  501  0.00000000000E+00  0.00000000000E+00 -0.19075036668E+04  0.19075036668E+04  0.50400001928E-02 0.  1.
    10030    2    1    2    0    0  0.00000000000E+00  0.00000000000E+00 -0.59643284425E+03  0.32185744894E+04  0.31628293672E+04 0.  0.
        2    1    3    3  502    0 -0.26888409841E+03  0.39384469511E+03 -0.18325912685E+04  0.18936216781E+04  0.25500000920E-02 0.  1.
       -2    1    3    3    0  502  0.26888409841E+03 -0.39384469511E+03  0.12361584243E+04  0.13249528113E+04  0.25500000920E-02 0. -1.
</event>
<event>
 5   0  0.1306843E-06  0.3197402E+04  0.7818609E-02  0.8189504E-01
       -1   -1    0    0    0  501  0.00000000000E+00  0.00000000000E+00  0.11433121328E+04  0.11433121328E+04  0.50400001928E-02 0. -1.
        1   -1    0    0  501    0  0.00000000000E+00  0.00000000000E+00 -0.22354737360E+04  0.22354737360E+04  0.50400001928E-02 0.  1.
    10030    2    1    2    0    0  0.00000000000E+00  0.00000000000E+00 -0.10921616032E+04  0.33787858688E+04  0.31974015982E+04 0.  0.
        5    1    3    3  502    0 -0.10818381479E+04  0.69185300027E+03 -0.15523549517E+04  0.20146618421E+04  0.46999998093E+01 0.  1.
       -5    1    3    3    0  502  0.10818381479E+04 -0.69185300027E+03  0.46019334853E+03  0.13641240267E+04  0.46999998093E+01 0. -1.
</event>
<event>
 5   0  0.3656086E-06  0.3178322E+04  0.7818609E-02  0.8194566E-01
       -2   -1    0    0    0  501  0.00000000000E+00  0.00000000000E+00  0.13681571548E+04  0.13681571548E+04  0.25500000920E-02 0.  1.
        2   -1    0    0  501    0  0.00000000000E+00  0.00000000000E+00 -0.18458645720E+04  0.18458645720E+04  0.25500000920E-02 0. -1.
    10030    2    1    2    0    0  0.00000000000E+00  0.00000000000E+00 -0.47770741724E+03  0.32140217268E+04  0.31783220862E+04 0.  0.
        3    1    3    3  502    0 -0.44570538060E+02 -0.95877374299E+02  0.13645964341E+04  0.13686863928E+04  0.10100000352E+00 0.  1.
       -3    1    3    3    0  502  0.44570538060E+02  0.95877374299E+02 -0.18423038513E+04  0.18453353339E+04  0.10100000352E+00 0. -1.
</event>
<event>
 5   0  0.1268836E-06  0.2292362E+04  0.7818609E-02  0.8480939E-01
        1   -1    0    0  501    0  0.00000000000E+00  0.00000000000E+00  0.18246971769E+04  0.18246971770E+04  0.50400001928E-02 0.  1.
       -1   -1    0    0    0  501  0.00000000000E+00  0.00000000000E+00 -0.71997186168E+03  0.71997186170E+03  0.50400001928E-02 0. -1.
    10030    2    1    2    0    0  0.00000000000E+00  0.00000000000E+00  0.11047253153E+04  0.25446690386E+04  0.22923617721E+04 0.  0.
        1    1    3    3  502    0 -0.73431991400E+03  0.87428786456E+03  0.44066118413E+03  0.12238412011E+04  0.50400001928E-02 0. -1.
       -1    1    3    3    0  502  0.73431991400E+03 -0.87428786456E+03  0.66406413113E+03  0.13208278376E+04  0.50400001928E-02 0.  1.
</event>
<event>
 5   0  0.1273754E-06  0.3195031E+04  0.7818609E-02  0.8190131E-01
        1   -1    0    0  501    0  0.00000000000E+00  0.00000000000E+00  0.18249959076E+04  0.18249959076E+04  0.50400001928E-02 0. -1.
       -1   -1    0    0    0  501  0.00000000000E+00  0.00000000000E+00 -0.13983901689E+04  0.13983901689E+04  0.50400001928E-02 0.  1.
    10030    2    1    2    0    0  0.00000000000E+00  0.00000000000E+00  0.42660573868E+03  0.32233860765E+04  0.31950313523E+04 0.  0.
        2    1    3    3  502    0  0.12843879224E+04 -0.47772216604E+03  0.10416777400E+04  0.17213260345E+04  0.25500000920E-02 0. -1.
       -2    1    3    3    0  502 -0.12843879224E+04  0.47772216604E+03 -0.61507200127E+03  0.15020600420E+04  0.25500000920E-02 0.  1.
</event>
<event>
 5   0  0.1306843E-06  0.3212177E+04  0.7818609E-02  0.8185609E-01
        1   -1    0    0  501    0  0.00000000000E+00  0.00000000000E+00  0.18216068987E+04  0.18216068987E+04  0.50400001928E-02 0. -1.
       -1   -1    0    0    0  501  0.00000000000E+00  0.00000000000E+00 -0.14160689752E+04  0.14160689752E+04  0.50400001928E-02 0.  1.
    10030    2    1    2    0    0  0.00000000000E+00  0.00000000000E+00  0.40553792349E+03  0.32376758739E+04  0.32121774635E+04 0.  0.
        5    1    3    3  502    0  0.69599658222E+03  0.41797654174E+03 -0.11940103623E+04  0.14438831210E+04  0.46999998093E+01 0.  1.
       -5    1    3    3    0  502 -0.69599658222E+03 -0.41797654174E+03  0.15995482858E+04  0.17937927529E+04  0.46999998093E+01 0. -1.
</event>
<event>
 5   0  0.3758062E-06  0.3235958E+04  0.7818609E-02  0.8179385E-01
       -2   -1    0    0    0  501  0.00000000000E+00  0.00000000000E+00  0.98737216386E+03  0.98737216386E+03  0.25500000920E-02 0.  1.
        2   -1    0    0  501    0  0.00000000000E+00  0.00000000000E+00 -0.26513373558E+04  0.26513373558E+04  0.25500000920E-02 0. -1.
    10030    2    1    2    0    0  0.00000000000E+00  0.00000000000E+00 -0.16639651920E+04  0.36387095197E+04  0.32359584065E+04 0.  0.
        2    1    3    3  502    0  0.58252154246E+03 -0.70514837333E+03 -0.23327448856E+04  0.25056464789E+04  0.25500000920E-02 0. -1.
       -2    1    3    3    0  502 -0.58252154246E+03  0.70514837333E+03  0.66877969362E+03  0.11330630408E+04  0.25500000920E-02 0.  1.
</event>
<event>
 5   0  0.3497546E-06  0.3190940E+04  0.7818609E-02  0.8191214E-01
        2   -1    0    0  501    0  0.00000000000E+00  0.00000000000E+00  0.16819631723E+04  0.16819631723E+04  0.25500000920E-02 0. -1.
       -2   -1    0    0    0  501  0.00000000000E+00  0.00000000000E+00 -0.15134250187E+04  0.15134250187E+04  0.25500000920E-02 0.  1.
    10030    2    1    2    0    0  0.00000000000E+00  0.00000000000E+00  0.16853815355E+03  0.31953881910E+04  0.31909403915E+04 0.  0.
        4    1    3    3  502    0  0.48906898666E+03 -0.15181435788E+04  0.44525809500E+02  0.15955978692E+04  0.12699999809E+01 0.  1.
       -4    1    3    3    0  502 -0.48906898666E+03  0.15181435788E+04  0.12401234405E+03  0.15997903218E+04  0.12699999809E+01 0. -1.
</event>
<event>
 5   0  0.1240725E-06  0.3217374E+04  0.7818609E-02  0.8184244E-01
       -1   -1    0    0    0  501  0.00000000000E+00  0.00000000000E+00  0.14059138265E+04  0.14059138265E+04  0.50400001928E-02 0. -1.
        1   -1    0    0  501    0  0.00000000000E+00  0.00000000000E+00 -0.18407054048E+04  0.18407054048E+04  0.50400001928E-02 0.  1.
    10030    2    1    2    0    0  0.00000000000E+00  0.00000000000E+00 -0.43479157823E+03  0.32466192313E+04  0.32173735743E+04 0.  0.
        3    1    3    3  502    0 -0.13502079015E+04 -0.24468930810E+03 -0.10646341576E+04  0.17367729081E+04  0.10100000352E+00 0.  1.
       -3    1    3    3    0  502  0.13502079015E+04  0.24468930810E+03  0.62984257932E+03  0.15098463232E+04  0.10100000352E+00 0. -1.
</event>
<event>
 5   0  0.3758062E-06  0.3089452E+04  0.7818609E-02  0.8218639E-01
        2   -1    0    0  501    0  0.00000000000E+00  0.00000000000E+00  0.17921560843E+04  0.17921560844E+04  0.25500000920E-02 0.  1.
       -2   -1    0    0    0  501  0.00000000000E+00  0.00000000000E+00 -0.13314567294E+04  0.13314567294E+04  0.25500000920E-02 0. -1.
    10030    2    1    2    0    0  0.00000000000E+00  0.00000000000E+00  0.46069935492E+03  0.31236128138E+04  0.30894519117E+04 0.  0.
        2    1    3    3  502    0 -0.88066841070E+02 -0.10468305978E+04  0.13753773737E+04  0.17306856991E+04  0.25500000920E-02 0. -1.
       -2    1    3    3    0  502  0.88066841070E+02  0.10468305978E+04 -0.91467801874E+03  0.13929271147E+04  0.25500000920E-02 0.  1.
</event>
<event>
 5   0  0.1306843E-06  0.3122391E+04  0.7818609E-02  0.8209620E-01
       -1   -1    0    0    0  501  0.00000000000E+00  0.00000000000E+00  0.13929305819E+04  0.13929305819E+04  0.50400001928E-02 0.  1.
        1   -1    0    0  501    0  0.00000000000E+00  0.00000000000E+00 -0.17497867445E+04  0.17497867445E+04  0.50400001928E-02 0. -1.
    10030    2    1    2    0    0  0.00000000000E+00  0.00000000000E+00 -0.35685616263E+03  0.31427173264E+04  0.31223910506E+04 0.  0.
        5    1    3    3  502    0  0.16268526375E+03  0.11466944256E+04 -0.12321120699E+04  0.16910046847E+04  0.46999998093E+01 0. -1.
       -5    1    3    3    0  502 -0.16268526375E+03 -0.11466944256E+04  0.87525590731E+03  0.14517126417E+04  0.46999998093E+01 0.  1.
</event>
<event>
 5   0  0.1273980E-06  0.3285482E+04  0.7818609E-02  0.8166599E-01
       -1   -1    0    0    0  501  0.00000000000E+00  0.00000000000E+00  0.17773375778E+04  0.17773375778E+04  0.50400001928E-02 0.  1.
        1   -1    0    0  501    0  0.00000000000E+00  0.00000000000E+00 -0.15183370902E+04  0.15183370902E+04  0.50400001928E-02 0. -1.
    10030    2    1    2    0    0  0.00000000000E+00  0.00000000000E+00  0.25900048760E+03  0.32956746680E+04  0.32854817401E+04 0.  0.
        4    1    3    3  502    0  0.35388430173E+03  0.15075977502E+04 -0.42038918982E+03  0.16046226221E+04  0.12699999809E+01 0.  1.
       -4    1    3    3    0  502 -0.35388430173E+03 -0.15075977502E+04  0.67938967743E+03  0.16910520459E+04  0.12699999809E+01 0. -1.
</event>
<event>
 5   0  0.1273754E-06  0.3194486E+04  0.7818609E-02  0.8190275E-01
       -1   -1    0    0    0  501  0.00000000000E+00  0.00000000000E+00  0.12260738258E+04  0.12260738258E+04  0.50400001928E-02 0. -1.
        1   -1    0    0  501    0  0.00000000000E+00  0.00000000000E+00 -0.20807760725E+04  0.20807760725E+04  0.50400001928E-02 0.  1.
    10030    2    1    2    0    0  0.00000000000E+00  0.00000000000E+00 -0.85470224678E+03  0.33068498983E+04  0.31944859241E+04 0.  0.
        2    1    3    3  502    0  0.24294047054E+03 -0.56539993203E+03  0.10984298292E+04  0.12590652267E+04  0.25500000920E-02 0. -1.
       -2    1    3    3    0  502 -0.24294047054E+03  0.56539993203E+03 -0.19531320759E+04  0.20477846717E+04  0.25500000920E-02 0.  1.
</event>
<event>
 5   0  0.1306843E-06  0.3132053E+04  0.7818609E-02  0.8206996E-01
        1   -1    0    0  501    0  0.00000000000E+00  0.00000000000E+00  0.28720904658E+04  0.28720904658E+04  0.50400001928E-02 0.  1.
       -1   -1    0    0    0  501  0.00000000000E+00  0.00000000000E+00 -0.85388618900E+03  0.85388618901E+03  0.50400001928E-02 0. -1.
    10030    2    1    2    0    0  0.00000000000E+00  0.00000000000E+00  0.20182042768E+04  0.37259766548E+04  0.31320526064E+04 0.  0.
        5    1    3    3  502    0  0.88948742718E+03  0.10250115565E+04  0.19386725009E+04  0.23664973547E+04  0.46999998093E+01 0.  1.
       -5    1    3    3    0  502 -0.88948742718E+03 -0.10250115565E+04  0.79531775852E+02  0.13594793001E+04  0.46999998093E+01 0. -1.
</event>
<event>
 5   0  0.1268836E-06  0.3202427E+04  0.7818609E-02  0.8188176E-01
       -1   -1    0    0    0  501  0.00000000000E+00  0.00000000000E+00  0.14678978317E+04  0.14678978317E+04  0.50400001928E-02 0. -1.
        1   -1    0    0  501    0  0.00000000000E+00  0.00000000000E+00 -0.17466372636E+04  0.17466372636E+04  0.50400001928E-02 0.  1.
    10030    2    1    2    0    0  0.00000000000E+00  0.00000000000E+00 -0.27873943189E+03  0.32145350953E+04  0.32024272370E+04 0.  0.
        1    1    3    3  502    0 -0.28704200910E+03 -0.43313616422E+03 -0.16596537044E+04  0.17390947272E+04  0.50400001928E-02 0.  1.
       -1    1    3    3    0  502  0.28704200910E+03  0.43313616422E+03  0.13809142725E+04  0.14754403681E+04  0.50400001928E-02 0. -1.
</event>
<event>
 5   0  0.3656086E-06  0.3214992E+04  0.7818609E-02  0.8184869E-01
        2   -1    0    0  501    0  0.00000000000E+00  0.00000000000E+00  0.18839485591E+04  0.18839485591E+04  0.25500000920E-02 0.  1.
       -2   -1    0    0    0  501  0.00000000000E+00  0.00000000000E+00 -0.13716107623E+04  0.13716107623E+04  0.25500000920E-02 0. -1.
    10030    2    1    2    0    0  0.00000000000E+00  0.00000000000E+00  0.51233779683E+03  0.32555593215E+04  0.32149924537E+04 0.  0.
        3    1    3    3  502    0  0.11117592396E+04 -0.60417845932E+03  0.12601447663E+04  0.17857785584E+04  0.10100000352E+00 0. -1.
       -3    1    3    3    0  502 -0.11117592396E+04  0.60417845932E+03 -0.74780696947E+03  0.14697807630E+04  0.10100000352E+00 0.  1.
</event>
<event>
 5   0  0.3656086E-06  0.3164389E+04  0.7818609E-02  0.8198286E-01
       -2   -1    0    0    0  501  0.00000000000E+00  0.00000000000E+00  0.90563056866E+03  0.90563056866E+03  0.25500000920E-02 0. -1.
        2   -1    0    0  501    0  0.00000000000E+00  0.00000000000E+00 -0.27641942120E+04  0.27641942120E+04  0.25500000920E-02 0.  1.
    10030    2    1    2    0    0  0.00000000000E+00  0.00000000000E+00 -0.18585636433E+04  0.36698247807E+04  0.31643885830E+04 0.  0.
        3    1    3    3  502    0  0.29588933989E+03  0.91657741172E+03 -0.23850382615E+04  0.25721726560E+04  0.10100000352E+00 0.  1.
       -3    1    3    3    0  502 -0.29588933989E+03 -0.91657741172E+03  0.52647461813E+03  0.10976521247E+04  0.10100000352E+00 0. -1.
</event>
<event>
 5   0  0.1306843E-06  0.3201281E+04  0.7818609E-02  0.8188479E-01
       -1   -1    0    0    0  501  0.00000000000E+00  0.00000000000E+00  0.10584236144E+04  0.10584236144E+04  0.50400001928E-02 0.  1.
        1   -1    0    0  501    0  0.00000000000E+00  0.00000000000E+00 -0.24206283151E+04  0.24206283151E+04  0.50400001928E-02 0. -1.
    10030    2    1    2    0    0  0.00000000000E+00  0.00000000000E+00 -0.13622047007E+04  0.34790519295E+04  0.32012811000E+04 0.  0.
        5    1    3    3  502    0  0.84400198525E+03 -0.30172404604E+03  0.76010667422E+03  0.11752280618E+04  0.46999998093E+01 0.  1.
       -5    1    3    3    0  502 -0.84400198525E+03  0.30172404604E+03 -0.21223113750E+04  0.23038238677E+04  0.46999998093E+01 0. -1.
</event>
<event>
 5   0  0.1240725E-06  0.3220181E+04  0.7818609E-02  0.8183508E-01
       -1   -1    0    0    0  501  0.00000000000E+00  0.00000000000E+00  0.12958280724E+04  0.12958280724E+04  0.50400001928E-02 0. -1.
        1   -1    0    0  501    0  0.00000000000E+00  0.00000000000E+00 -0.20005677785E+04  0.20005677785E+04  0.50400001928E-02 0.  1.
    10030    2    1    2    0    0  0.00000000000E+00  0.00000000000E+00 -0.70473970616E+03  0.32963958509E+04  0.32201812918E+04 0.  0.
        3    1    3    3  502    0 -0.12618464141E+04  0.98370732231E+03 -0.16795216195E+03  0.16087710862E+04  0.10100000352E+00 0. -1.
       -3    1    3    3    0  502  0.12618464141E+04 -0.98370732231E+03 -0.53678754421E+03  0.16876247647E+04  0.10100000352E+00 0.  1.
</event>
<event>
 5   0  0.1240725E-06  0.3139869E+04  0.7818609E-02  0.8204881E-01
       -1   -1    0    0    0  501  0.00000000000E+00  0.00000000000E+00  0.10733354690E+04  0.10733354690E+04  0.50400001928E-02 0.  1.
        1   -1    0    0  501    0  0.00000000000E+00  0.00000000000E+00 -0.22962945943E+04  0.22962945943E+04  0.50400001928E-02 0. -1.
    10030    2    1    2    0    0  0.00000000000E+00  0.00000000000E+00 -0.12229591253E+04  0.33696300634E+04  0.31398690644E+04 0.  0.
        3    1    3    3  502    0  0.65428181422E+03 -0.38275636143E+03 -0.20868936169E+04  0.22202954991E+04  0.10100000352E+00 0. -1.
       -3    1    3    3    0  502 -0.65428181422E+03  0.38275636143E+03  0.86393449162E+03  0.11493345643E+04  0.10100000352E+00 0.  1.
</event>
<event>
 5   0  0.3758062E-06  0.3394032E+04  0.7818609E-02  0.8139372E-01
        2   -1    0    0  501    0  0.00000000000E+00  0.00000000000E+00  0.15159128040E+04  0.15159128040E+04  0.25500000920E-02 0.  1.
       -2   -1    0    0    0  501  0.00000000000E+00  0.00000000000E+00 -0.18997557951E+04  0.18997557951E+04  0.25500000920E-02 0. -1.
    10030    2    1    2    0    0  0.00000000000E+00  0.00000000000E+00 -0.38384299115E+03  0.34156685991E+04  0.33940324891E+04 0.  0.
        2    1    3    3  502    0 -0.11752992404E+04 -0.32291869733E+03 -0.13802363168E+04  0.18413736937E+04  0.25500000920E-02 0. -1.
       -2    1    3    3    0  502  0.11752992404E+04  0.32291869733E+03  0.99639332567E+03  0.15742949054E+04  0.25500000920E-02 0.  1.
</event>
<event>
 5   0  0.3758062E-06  0.3315780E+04  0.7818609E-02  0.8158892E-01
       -2   -1    0    0    0  501  0.00000000000E+00  0.00000000000E+00  0.13834227519E+04  0.13834227519E+04  0.25500000920E-02 0. -1.
        2   -1    0    0  501    0  0.00000000000E+00  0.00000000000E+00 -0.19868110474E+04  0.19868110474E+04  0.25500000920E-02 0.  1.
    10030    2    1    2    0    0  0.00000000000E+00  0.00000000000E+00 -0.60338829547E+03  0.33702337993E+04  0.33157802139E+04 0.  0.
        2    1    3    3  502    0  0.96821172026E+03 -0.60561749865E+03  0.91987202857E+03  0.14664143476E+04  0.25500000920E-02 0. -1.
       -2    1    3    3    0  502 -0.96821172026E+03  0.60561749865E+03 -0.15232603240E+04  0.19038194517E+04  0.25500000920E-02 0.  1.
</event>
<event>
 5   0  0.1273980E-06  0.3185435E+04  0.7818609E-02  0.8192674E-01
        1   -1    0    0  501    0  0.00000000000E+00  0.00000000000E+00  0.14465508790E+04  0.14465508790E+04  0.50400001928E-02 0.  1.
       -1   -1    0    0    0  501  0.00000000000E+00  0.00000000000E+00 -0.17536534654E+04  0.17536534654E+04  0.50400001928E-02 0. -1.
    10030    2    1    2    0    0  0.00000000000E+00  0.00000000000E+00 -0.30710258638E+03  0.32002043445E+04  0.31854349542E+04 0.  0.
        4    1    3    3  502    0  0.75806195197E+03 -0.34994737532E+03 -0.15161681880E+04  0.17308635636E+04  0.12699999809E+01 0. -1.
       -4    1    3    3    0  502 -0.75806195197E+03  0.34994737532E+03  0.12090656016E+04  0.14693407809E+04  0.12699999809E+01 0.  1.
</event>
<event>
 5   0  0.3531437E-06  0.3204788E+04  0.7818609E-02  0.8187554E-01
        2   -1    0    0  501    0  0.00000000000E+00  0.00000000000E+00  0.24721442614E+04  0.24721442614E+04  0.25500000920E-02 0. -1.
       -2   -1    0    0    0  501  0.00000000000E+00  0.00000000000E+00 -0.10386394209E+04  0.10386394209E+04  0.25500000920E-02 0.  1.
    10030    2    1    2    0    0  0.00000000000E+00  0.00000000000E+00  0.14335048406E+04  0.35107836823E+04  0.32047879705E+04 0.  0.
        1    1    3    3  502    0 -0.26650361240E+03 -0.91501257210E+02  0.24447912862E+04  0.24609756376E+04  0.50400001928E-02 0. -1.
       -1    1    3    3    0  502  0.26650361240E+03  0.91501257210E+02 -0.10112864457E+04  0.10498080447E+04  0.50400001928E-02 0.  1.
</event>
<event>
 5   0  0.3745943E-06  0.3193403E+04  0.7818609E-02  0.8190562E-01
       -2   -1    0    0    0  501  0.00000000000E+00  0.00000000000E+00  0.11544185511E+04  0.11544185511E+04  0.25500000920E-02 0. -1.
        2   -1    0    0  501    0  0.00000000000E+00  0.00000000000E+00 -0.22084328396E+04  0.22084328396E+04  0.25500000920E-02 0.  1.
    10030    2    1    2    0    0  0.00000000000E+00  0.00000000000E+00 -0.10540142885E+04  0.33628513908E+04  0.31934030995E+04 0.  0.
        5    1    3    3  502    0 -0.19249632503E+03 -0.13964537469E+04  0.26264600368E+03  0.14339257008E+04  0.46999998093E+01 0. -1.
       -5    1    3    3    0  502  0.19249632503E+03  0.13964537469E+04 -0.13166602922E+04  0.19289256899E+04  0.46999998093E+01 0.  1.
</event>
<event>
 5   0  0.3745943E-06  0.3174616E+04  0.7818609E-02  0.8195553E-01
       -2   -1    0    0    0  501  0.00000000000E+00  0.00000000000E+00  0.14285932699E+04  0.14285932699E+04  0.25500000920E-02 0. -1.
        2   -1    0    0  501    0  0.00000000000E+00  0.00000000000E+00 -0.17636560225E+04  0.17636560225E+04  0.25500000920E-02 0.  1.
    10030    2    1    2    0    0  0.00000000000E+00  0.00000000000E+00 -0.33506275264E+03  0.31922492924E+04  0.31746162755E+04 0.  0.
        5    1    3    3  502    0  0.96010698003E+02  0.77054027136E+03 -0.15596249640E+04  0.17422406499E+04  0.46999998093E+01 0.  1.
       -5    1    3    3    0  502 -0.96010698003E+02 -0.77054027136E+03  0.12245622113E+04  0.14500086425E+04  0.46999998093E+01 0. -1.
</event>
<event>
 5   0  0.3758062E-06  0.3194393E+04  0.7818609E-02  0.8190299E-01
        2   -1    0    0  501    0  0.00000000000E+00  0.00000000000E+00  0.18248844566E+04  0.18248844566E+04  0.25500000920E-02 0. -1.
       -2   -1    0    0    0  501  0.00000000000E+00  0.00000000000E+00 -0.13979169568E+04  0.13979169568E+04  0.25500000920E-02 0.  1.
    10030    2    1    2    0    0  0.00000000000E+00  0.00000000000E+00  0.42696749979E+03  0.32228014133E+04  0.31943931668E+04 0.  0.
        2    1    3    3  502    0 -0.55538886458E+03 -0.48688608253E+03 -0.12152749927E+04  0.14221139744E+04  0.25500000920E-02 0.  1.
       -2    1    3    3    0  502  0.55538886458E+03  0.48688608253E+03  0.16422424925E+04  0.18006874389E+04  0.25500000920E-02 0. -1.
</event>
<event>
 5   0  0.1306843E-06  0.3201833E+04  0.7818609E-02  0.8188333E-01
        1   -1    0    0  501    0  0.00000000000E+00  0.00000000000E+00  0.23539495057E+04  0.23539495057E+04  0.50400001928E-02 0. -1.
       -1   -1    0    0    0  501  0.00000000000E+00  0.00000000000E+00 -0.10887804510E+04  0.10887804510E+04  0.50400001928E-02 0.  1.
    10030    2    1    2    0    0  0.00000000000E+00  0.00000000000E+00  0.12651690547E+04  0.34427299567E+04  0.32018333526E+04 0.  0.
        5    1    3    3  502    0 -0.44671890001E+03  0.48878437669E+02  0.22847328378E+04  0.23285130679E+04  0.46999998093E+01 0. -1.
       -5    1    3    3    0  502  0.44671890001E+03 -0.48878437669E+02 -0.10195637832E+04  0.11142168888E+04  0.46999998093E+01 0.  1.
</event>
<event>
 5   0  0.3656086E-06  0.3213071E+04  0.7818609E-02  0.8185374E-01
        2   -1    0    0  501    0  0.00000000000E+00  0.00000000000E+00  0.14370425652E+04  0.14370425653E+04  0.25500000920E-02 0.  1.
       -2   -1    0    0    0  501  0.00000000000E+00  0.00000000000E+00 -0.17960199165E+04  0.17960199165E+04  0.25500000920E-02 0. -1.
    10030    2    1    2    0    0  0.00000000000E+00  0.00000000000E+00 -0.35897735128E+03  0.32330624818E+04  0.32130714702E+04 0.  0.
        3    1    3    3  502    0 -0.81635992280E+03  0.12412075676E+04  0.43580364716E+03  0.15482133505E+04  0.10100000352E+00 0.  1.
       -3    1    3    3    0  502  0.81635992280E+03 -0.12412075676E+04 -0.79478099844E+03  0.16848491313E+04  0.10100000352E+00 0. -1.
</event>
<event>
 5   0  0.1240725E-06  0.3184506E+04  0.7818609E-02  0.8192921E-01
        1   -1    0    0  501    0  0.00000000000E+00  0.00000000000E+00  0.20677060301E+04  0.20677060301E+04  0.50400001928E-02 0. -1.
       -1   -1    0    0    0  501  0.00000000000E+00  0.00000000000E+00 -0.12261264862E+04  0.12261264862E+04  0.50400001928E-02 0.  1.
    10030    2    1    2    0    0  0.00000000000E+00  0.00000000000E+00  0.84157954396E+03  0.32938325163E+04  0.31845056943E+04 0.  0.
        3    1    3    3  502    0  0.21272495728E+03  0.81369595187E+03 -0.97763018407E+03  0.12896176939E+04  0.10100000352E+00 0.  1.
       -3    1    3    3    0  502 -0.21272495728E+03 -0.81369595187E+03  0.18192097280E+04  0.20042148224E+04  0.10100000352E+00 0. -1.
</event>
<event>
 5   0  0.3497546E-06  0.3231576E+04  0.7818609E-02  0.8180528E-01
       -2   -1    0    0    0  501  0.00000000000E+00  0.00000000000E+00  0.12187933563E+04  0.12187933563E+04  0.25500000920E-02 0. -1.
        2   -1    0    0  501    0  0.00000000000E+00  0.00000000000E+00 -0.21420943395E+04  0.21420943395E+04  0.25500000920E-02 0.  1.
    10030    2    1    2    0    0  0.00000000000E+00  0.00000000000E+00 -0.92330098321E+03  0.33608876958E+04  0.32315756835E+04 0.  0.
        4    1    3    3  502    0  0.10637191703E+03 -0.86194886869E+03 -0.18787061230E+04  0.20697364920E+04  0.12699999809E+01 0.  1.
       -4    1    3    3    0  502 -0.10637191703E+03  0.86194886869E+03  0.95540513979E+03  0.12911512038E+04  0.12699999809E+01 0. -1.
</event>
<event>
 5   0  0.1273754E-06  0.3405597E+04  0.7818609E-02  0.8136534E-01
       -1   -1    0    0    0  501  0.00000000000E+00  0.00000000000E+00  0.12781849363E+04  0.12781849363E+04  0.50400001928E-02 0. -1.
        1   -1    0    0  501    0  0.00000000000E+00  0.00000000000E+00 -0.22684686091E+04  0.22684686091E+04  0.50400001928E-02 0.  1.
    10030    2    1    2    0    0  0.00000000000E+00  0.00000000000E+00 -0.99028367277E+03  0.35466535454E+04  0.34055968079E+04 0.  0.
        2    1    3    3  502    0  0.15030759397E+03  0.14343767467E+04 -0.14378955706E+04  0.20365590333E+04  0.25500000920E-02 0.  1.
       -2    1    3    3    0  502 -0.15030759397E+03 -0.14343767467E+04  0.44761189785E+03  0.15100945120E+04  0.25500000920E-02 0. -1.
</event>
<event>
 5   0  0.1268836E-06  0.3130688E+04  0.7818609E-02  0.8207366E-01
        1   -1    0    0  501    0  0.00000000000E+00  0.00000000000E+00  0.22738484802E+04  0.22738484802E+04  0.50400001928E-02 0.  1.
       -1   -1    0    0    0  501  0.00000000000E+00  0.00000000000E+00 -0.10776008753E+04  0.10776008753E+04  0.50400001928E-02 0. -1.
    10030    2    1    2    0    0  0.00000000000E+00  0.00000000000E+00  0.11962476049E+04  0.33514493555E+04  0.31306875364E+04 0.  0.
        1    1    3    3  502    0  0.44089641417E+03  0.10929969865E+03  0.22017420155E+04  0.22481112016E+04  0.50400001928E-02 0.  1.
       -1    1    3    3    0  502 -0.44089641417E+03 -0.10929969865E+03 -0.10054944106E+04  0.11033381539E+04  0.50400001928E-02 0. -1.
</event>
<event>
 5   0  0.3745943E-06  0.3052808E+04  0.7818609E-02  0.8228810E-01
        2   -1    0    0  501    0  0.00000000000E+00  0.00000000000E+00  0.21729596599E+04  0.21729596599E+04  0.25500000920E-02 0.  1.
       -2   -1    0    0    0  501  0.00000000000E+00  0.00000000000E+00 -0.10722287456E+04  0.10722287456E+04  0.25500000920E-02 0. -1.
    10030    2    1    2    0    0  0.00000000000E+00  0.00000000000E+00  0.11007309143E+04  0.32451884056E+04  0.30528084188E+04 0.  0.
        5    1    3    3  502    0  0.35322954678E+03  0.65075080666E+03 -0.86852981528E+03  0.11413211008E+04  0.46999998093E+01 0. -1.
       -5    1    3    3    0  502 -0.35322954678E+03 -0.65075080666E+03  0.19692607296E+04  0.21038673048E+04  0.46999998093E+01 0.  1.
</event>
<event>
 5   0  0.1306843E-06  0.3272793E+04  0.7818609E-02  0.8169853E-01
       -1   -1    0    0    0  501  0.00000000000E+00  0.00000000000E+00  0.21007412910E+04  0.21007412910E+04  0.50400001928E-02 0. -1.
        1   -1    0    0  501    0  0.00000000000E+00  0.00000000000E+00 -0.12746900581E+04  0.12746900581E+04  0.50400001928E-02 0.  1.
    10030    2    1    2    0    0  0.00000000000E+00  0.00000000000E+00  0.82605123292E+03  0.33754313491E+04  0.32727933258E+04 0.  0.
        5    1    3    3  502    0 -0.42351163623E+03  0.15209303784E+04  0.85684725552E+03  0.17963297669E+04  0.46999998093E+01 0. -1.
       -5    1    3    3    0  502  0.42351163623E+03 -0.15209303784E+04 -0.30796022594E+02  0.15791015823E+04  0.46999998093E+01 0.  1.
</event>
<event>
 5   0  0.3656086E-06  0.3105211E+04  0.7818609E-02  0.8214309E-01
        2   -1    0    0  501    0  0.00000000000E+00  0.00000000000E+00  0.24416248405E+04  0.24416248405E+04  0.25500000920E-02 0. -1.
       -2   -1    0    0    0  501  0.00000000000E+00  0.00000000000E+00 -0.98728696756E+03  0.98728696756E+03  0.25500000920E-02 0.  1.
    10030    2    1    2    0    0  0.00000000000E+00  0.00000000000E+00  0.14543378730E+04  0.34289118081E+04  0.31052113517E+04 0.  0.
        3    1    3    3  502    0 -0.12545115402E+04 -0.74941907752E+03  0.14793391199E+03  0.14687792927E+04  0.10100000352E+00 0.  1.
       -3    1    3    3    0  502  0.12545115402E+04  0.74941907752E+03  0.13064039610E+04  0.19601325154E+04  0.10100000352E+00 0. -1.
</event>
<event>
 5   0  0.3531437E-06  0.2611749E+04  0.7818609E-02  0.8364221E-01
       -2   -1    0    0    0  501  0.00000000000E+00  0.00000000000E+00  0.94297726533E+03  0.94297726533E+03  0.25500000920E-02 0.  1.
        2   -1    0    0  501    0  0.00000000000E+00  0.00000000000E+00 -0.18084291627E+04  0.18084291627E+04  0.25500000920E-02 0. -1.
    10030    2    1    2    0    0  0.00000000000E+00  0.00000000000E+00 -0.86545189740E+03  0.27514064281E+04  0.26117485227E+04 0.  0.
        1    1    3    3  502    0  0.11820981613E+03 -0.54771111664E+02 -0.18015656491E+04  0.18062702520E+04  0.50400001928E-02 0. -1.
       -1    1    3    3    0  502 -0.11820981613E+03  0.54771111664E+02  0.93611375165E+03  0.94513617609E+03  0.50400001928E-02 0.  1.
</event>
<event>
 5   0  0.1273754E-06  0.3143560E+04  0.7818609E-02  0.8203884E-01
       -1   -1    0    0    0  501  0.00000000000E+00  0.00000000000E+00  0.13362808899E+04  0.13362808899E+04  0.50400001928E-02 0. -1.
        1   -1    0    0  501    0  0.00000000000E+00  0.00000000000E+00 -0.18487824078E+04  0.18487824078E+04  0.50400001928E-02 0.  1.
    10030    2    1    2    0    0  0.00000000000E+00  0.00000000000E+00 -0.51250151792E+03  0.31850632977E+04  0.31435601481E+04 0.  0.
        2    1    3    3  502    0  0.15022038492E+04  0.45980763836E+03 -0.20606773965E+03  0.15844568098E+04  0.25500000920E-02 0.  1.
       -2    1    3    3    0  502 -0.15022038492E+04 -0.45980763836E+03 -0.30643377827E+03  0.16006064879E+04  0.25500000920E-02 0. -1.
</event>
<event>
 5   0  0.1273754E-06  0.3225041E+04  0.7818609E-02  0.8182235E-01
       -1   -1    0    0    0  501  0.00000000000E+00  0.00000000000E+00  0.98467536949E+03  0.98467536951E+03  0.50400001928E-02 0. -1.
        1   -1    0    0  501    0  0.00000000000E+00  0.00000000000E+00 -0.26406905508E+04  0.26406905508E+04  0.50400001928E-02 0.  1.
    10030    2    1    2    0    0  0.00000000000E+00  0.00000000000E+00 -0.16560151813E+04  0.36253659203E+04  0.32250413603E+04 0.  0.
        2    1    3    3  502    0 -0.13787939355E+04  0.66818525748E+03 -0.13930757898E+04  0.20707980131E+04  0.25500000920E-02 0. -1.
       -2    1    3    3    0  502  0.13787939355E+04 -0.66818525748E+03 -0.26293939155E+03  0.15545679073E+04  0.25500000920E-02 0.  1.
</event>
<event>
 5   0  0.3656086E-06  0.3153096E+04  0.7818609E-02  0.8201315E-01
       -2   -1    0    0    0  501  0.00000000000E+00  0.00000000000E+00  0.16715130136E+04  0.16715130136E+04  0.25500000920E-02 0.  1.
        2   -1    0    0  501    0  0.00000000000E+00  0.00000000000E+00 -0.14869786137E+04  0.14869786137E+04  0.25500000920E-02 0. -1.
    10030    2    1    2    0    0  0.00000000000E+00  0.00000000000E+00  0.18453439986E+03  0.31584916273E+04  0.31530963218E+04 0.  0.
        3    1    3    3  502    0 -0.74577401146E+03  0.13075957281E+04  0.56159705671E+03  0.16066663402E+04  0.10100000352E+00 0.  1.
       -3    1    3    3    0  502  0.74577401146E+03 -0.13075957281E+04 -0.37706265685E+03  0.15518252871E+04  0.10100000352E+00 0. -1.
</event>
<event>
 5   0  0.3656086E-06  0.3253448E+04  0.7818609E-02  0.8174842E-01
        2   -1    0    0  501    0  0.00000000000E+00  0.00000000000E+00  0.23793049914E+04  0.23793049914E+04  0.25500000920E-02 0.  1.
       -2   -1    0    0    0  501  0.00000000000E+00  0.00000000000E+00 -0.11121868678E+04  0.11121868678E+04  0.25500000920E-02 0. -1.
    10030    2    1    2    0    0  0.00000000000E+00  0.00000000000E+00  0.12671181236E+04  0.34914918591E+04  0.32534484879E+04 0.  0.
        3    1    3    3  502    0  0.95092856837E+03 -0.54782244835E+03  0.19221890117E+04  0.22134103063E+04  0.10100000352E+00 0.  1.
       -3    1    3    3    0  502 -0.95092856837E+03  0.54782244835E+03 -0.65507088810E+03  0.12780815528E+04  0.10100000352E+00 0. -1.
</event>
<event>
 5   0  0.1273980E-06  0.3187394E+04  0.7818609E-02  0.8192154E-01
        1   -1    0    0  501    0  0.00000000000E+00  0.00000000000E+00  0.13445868730E+04  0.13445868730E+04  0.50400001928E-02 0.  1.
       -1   -1    0    0    0  501  0.00000000000E+00  0.00000000000E+00 -0.18889598090E+04  0.18889598090E+04  0.50400001928E-02 0. -1.
    10030    2    1    2    0    0  0.00000000000E+00  0.00000000000E+00 -0.54437293602E+03  0.32335466821E+04  0.31873942730E+04 0.  0.
        4    1    3    3  502    0 -0.49149947766E+03  0.14257133100E+04 -0.79505087438E+03  0.17047984293E+04  0.12699999809E+01 0. -1.
       -4    1    3    3    0  502  0.49149947766E+03 -0.14257133100E+04  0.25067793836E+03  0.15287482528E+04  0.12699999809E+01 0.  1.
</event>
<event>
 5   0  0.1273980E-06  0.3212407E+04  0.7818609E-02  0.8185548E-01
       -1   -1    0    0    0  501  0.00000000000E+00  0.00000000000E+00  0.17555166098E+04  0.17555166098E+04  0.50400001928E-02 0. -1.
        1   -1    0    0  501    0  0.00000000000E+00  0.00000000000E+00 -0.14695902289E+04  0.14695902290E+04  0.50400001928E-02 0.  1.
    10030    2    1    2    0    0  0.00000000000E+00  0.00000000000E+00  0.28592638083E+03  0.32251068387E+04  0.32124072323E+04 0.  0.
        4    1    3    3  502    0  0.98623801755E+03 -0.10541379231E+04 -0.56410527067E+03  0.15498672709E+04  0.12699999809E+01 0.  1.
       -4    1    3    3    0  502 -0.98623801755E+03  0.10541379231E+04  0.85003165150E+03  0.16752395678E+04  0.12699999809E+01 0. -1.
</event>
<event>
 5   0  0.1268836E-06  0.3185700E+04  0.7818609E-02  0.8192604E-01
        1   -1    0    0  501    0  0.00000000000E+00  0.00000000000E+00  0.24982011270E+04  0.24982011270E+04  0.50400001928E-02 0.  1.
       -1   -1    0    0    0  501  0.00000000000E+00  0.00000000000E+00 -0.10155993887E+04  0.10155993887E+04  0.50400001928E-02 0. -1.
    10030    2    1    2    0    0  0.00000000000E+00  0.00000000000E+00  0.14826017383E+04  0.35138005158E+04  0.31857002606E+04 0.  0.
        1    1    3    3  502    0 -0.10854554911E+04  0.61605829164E+03 -0.35028753504E+03  0.12963189419E+04  0.50400001928E-02 0. -1.
       -1    1    3    3    0  502  0.10854554911E+04 -0.61605829164E+03  0.18328892734E+04  0.22174815739E+04  0.50400001928E-02 0.  1.
</event>
<event>
 5   0  0.1268836E-06  0.3232465E+04  0.7818609E-02  0.8180296E-01
        1   -1    0    0  501    0  0.00000000000E+00  0.00000000000E+00  0.19812559251E+04  0.19812559251E+04  0.50400001928E-02 0. -1.
       -1   -1    0    0    0  501  0.00000000000E+00  0.00000000000E+00 -0.13184601255E+04  0.13184601255E+04  0.50400001928E-02 0.  1.
    10030    2    1    2    0    0  0.00000000000E+00  0.00000000000E+00  0.66279579958E+03  0.32997160506E+04  0.32324646545E+04 0.  0.
        1    1    3    3  502    0  0.57901740058E+03 -0.37724335778E+03 -0.11600373999E+04  0.13502816263E+04  0.50400001928E-02 0.  1.
       -1    1    3    3    0  502 -0.57901740058E+03  0.37724335778E+03  0.18228331995E+04  0.19494344243E+04  0.50400001928E-02 0. -1.
</event>
<event>
 5   0  0.1273754E-06  0.3197704E+04  0.7818609E-02  0.8189424E-01
        1   -1    0    0  501    0  0.00000000000E+00  0.00000000000E+00  0.14830677767E+04  0.14830677767E+04  0.50400001928E-02 0. -1.
       -1   -1    0    0    0  501  0.00000000000E+00  0.00000000000E+00 -0.17236755401E+04  0.17236755401E+04  0.50400001928E-02 0.  1.
    10030    2    1    2    0    0  0.00000000000E+00  0.00000000000E+00 -0.24060776339E+03  0.32067433168E+04  0.31977039581E+04 0.  0.
        2    1    3    3  502    0 -0.12739519266E+03  0.93433093527E+03  0.11745175289E+04  0.15062188610E+04  0.25500000920E-02 0. -1.
       -2    1    3    3    0  502  0.12739519266E+03 -0.93433093527E+03 -0.14151252923E+04  0.17005244557E+04  0.25500000920E-02 0.  1.
</event>
<event>
 5   0  0.1306843E-06  0.3170702E+04  0.7818609E-02  0.8196598E-01
        1   -1    0    0  501    0  0.00000000000E+00  0.00000000000E+00  0.21743092777E+04  0.21743092777E+04  0.50400001928E-02 0.  1.
       -1   -1    0    0    0  501  0.00000000000E+00  0.00000000000E+00 -0.11559247875E+04  0.11559247875E+04  0.50400001928E-02 0. -1.
    10030    2    1    2    0    0  0.00000000000E+00  0.00000000000E+00  0.10183844902E+04  0.33302340652E+04  0.31707021240E+04 0.  0.
        5    1    3    3  502    0  0.15160593421E+04  0.44622394732E+03  0.37731959567E+03  0.16247904194E+04  0.46999998093E+01 0.  1.
       -5    1    3    3    0  502 -0.15160593421E+04 -0.44622394732E+03  0.64106489452E+03  0.17054436457E+04  0.46999998093E+01 0. -1.
</event>
<event>
 5   0  0.1273754E-06  0.3213553E+04  0.7818609E-02  0.8185247E-01
        1   -1    0    0  501    0  0.00000000000E+00  0.00000000000E+00  0.19245392027E+04  0.19245392027E+04  0.50400001928E-02 0.  1.
       -1   -1    0    0    0  501  0.00000000000E+00  0.00000000000E+00 -0.13414799525E+04  0.13414799525E+04  0.50400001928E-02 0. -1.
    10030    2    1    2    0    0  0.00000000000E+00  0.00000000000E+00  0.58305925018E+03  0.32660191552E+04  0.32135530232E+04 0.  0.
        2    1    3    3  502    0 -0.12260559313E+04 -0.10288098831E+04  0.14755580457E+03  0.16073069519E+04  0.25500000920E-02 0. -1.
       -2    1    3    3    0  502  0.12260559313E+04  0.10288098831E+04  0.43550344561E+03  0.16587122033E+04  0.25500000920E-02 0.  1.
</event>
<event>
 5   0  0.3531437E-06  0.3208154E+04  0.7818609E-02  0.8186667E-01
        2   -1    0    0  501    0  0.00000000000E+00  0.00000000000E+00  0.17926710156E+04  0.17926710156E+04  0.25500000920E-02 0.  1.
       -2   -1    0    0    0  501  0.00000000000E+00  0.00000000000E+00 -0.14353239790E+04  0.14353239790E+04  0.25500000920E-02 0. -1.
    10030    2    1    2    0    0  0.00000000000E+00  0.00000000000E+00  0.35734703668E+03  0.32279949946E+04  0.32081544197E+04 0.  0.
        1    1    3    3  502    0 -0.61862184315E+03  0.30743682028E+03  0.16353329662E+04  0.17752533041E+04  0.50400001928E-02 0.  1.
       -1    1    3    3    0  502  0.61862184315E+03 -0.30743682028E+03 -0.12779859295E+04  0.14527416905E+04  0.50400001928E-02 0. -1.
</event>
<event>
 5   0  0.3531437E-06  0.3188770E+04  0.7818609E-02  0.8191789E-01
       -2   -1    0    0    0  501  0.00000000000E+00  0.00000000000E+00  0.10207750899E+04  0.10207750899E+04  0.25500000920E-02 0.  1.
        2   -1    0    0  501    0  0.00000000000E+00  0.00000000000E+00 -0.24903271595E+04  0.24903271595E+04  0.25500000920E-02 0. -1.
    10030    2    1    2    0    0  0.00000000000E+00  0.00000000000E+00 -0.14695520696E+04  0.35111022495E+04  0.31887702521E+04 0.  0.
        1    1    3    3  502    0 -0.68636052148E+03 -0.84351824076E+03  0.54903732104E+03  0.12182182760E+04  0.50400001928E-02 0.  1.
       -1    1    3    3    0  502  0.68636052148E+03  0.84351824076E+03 -0.20185893906E+04  0.22928839735E+04  0.50400001928E-02 0. -1.
</event>
<event>
 5   0  0.3758062E-06  0.3203257E+04  0.7818609E-02  0.8187958E-01
        2   -1    0    0  501    0  0.00000000000E+00  0.00000000000E+00  0.28867643829E+04  0.28867643829E+04  0.25500000920E-02 0.  1.
       -2   -1    0    0    0  501  0.00000000000E+00  0.00000000000E+00 -0.88861196422E+03  0.88861196423E+03  0.25500000920E-02 0. -1.
    10030    2    1    2    0    0  0.00000000000E+00  0.00000000000E+00  0.19981524186E+04  0.37753763471E+04  0.32032566981E+04 0.  0.
        2    1    3    3  502    0  0.54659682218E+03  0.12343489762E+04 -0.16734079990E+02  0.13500612988E+04  0.25500000920E-02 0.  1.
       -2    1    3    3    0  502 -0.54659682218E+03 -0.12343489762E+04  0.20148864986E+04  0.24253150483E+04  0.25500000920E-02 0. -1.
</event>
<event>
 5   0  0.1273980E-06  0.3209612E+04  0.7818609E-02  0.8186283E-01
        1   -1    0    0  501    0  0.00000000000E+00  0.00000000000E+00  0.14154851342E+04  0.14154851342E+04  0.50400001928E-02 0. -1.
       -1   -1    0    0    0  501  0.00000000000E+00  0.00000000000E+00 -0.18194480814E+04  0.18194480814E+04  0.50400001928E-02 0.  1.
    10030    2    1    2    0    0  0.00000000000E+00  0.00000000000E+00 -0.40396294721E+03  0.32349332157E+04  0.32096116349E+04 0.  0.
        4    1    3    3  502    0  0.25420275166E+03  0.64751811881E+02 -0.17976928247E+04  0.18167313893E+04  0.12699999809E+01 0.  1.
       -4    1    3    3    0  502 -0.25420275166E+03 -0.64751811881E+02  0.13937298775E+04  0.14182018264E+04  0.12699999809E+01 0. -1.
</event>
<event>
 5   0  0.1273980E-06  0.3243338E+04  0.7818609E-02  0.8177465E-01
        1   -1    0    0  501    0  0.00000000000E+00  0.00000000000E+00  0.22406476741E+04  0.22406476741E+04  0.50400001928E-02 0. -1.
       -1   -1    0    0    0  501  0.00000000000E+00  0.00000000000E+00 -0.11736829452E+04  0.11736829452E+04  0.50400001928E-02 0.  1.
    10030    2    1    2    0    0  0.00000000000E+00  0.00000000000E+00  0.10669647288E+04  0.34143306193E+04  0.32433377631E+04 0.  0.
        4    1    3    3  502    0  0.83444771720E+03 -0.12292447866E+04 -0.15075617682E+03  0.14933434889E+04  0.12699999809E+01 0.  1.
       -4    1    3    3    0  502 -0.83444771720E+03  0.12292447866E+04  0.12177209057E+04  0.19209871304E+04  0.12699999809E+01 0. -1.
</event>
<event>
 5   0  0.1268836E-06  0.3191778E+04  0.7818609E-02  0.8190992E-01
        1   -1    0    0  501    0  0.00000000000E+00  0.00000000000E+00  0.28322633143E+04  0.28322633143E+04  0.50400001928E-02 0. -1.
       -1   -1    0    0    0  501  0.00000000000E+00  0.00000000000E+00 -0.89923172104E+03  0.89923172105E+03  0.50400001928E-02 0.  1.
    10030    2    1    2    0    0  0.00000000000E+00  0.00000000000E+00  0.19330315932E+04  0.37314950353E+04  0.31917775703E+04 0.  0.
        1    1    3    3  502    0  0.95234289098E+03 -0.43846587674E+03 -0.44012203343E+03  0.11370649548E+04  0.50400001928E-02 0.  1.
       -1    1    3    3    0  502 -0.95234289098E+03  0.43846587674E+03  0.23731536266E+04  0.25944300805E+04  0.50400001928E-02 0. -1.
</event>
<event>
 5   0  0.1273754E-06  0.3249017E+04  0.7818609E-02  0.8175990E-01
        1   -1    0    0  501    0  0.00000000000E+00  0.00000000000E+00  0.20257072762E+04  0.20257072762E+04  0.50400001928E-02 0. -1.
       -1   -1    0    0    0  501  0.00000000000E+00  0.00000000000E+00 -0.13027688981E+04  0.13027688981E+04  0.50400001928E-02 0.  1.
    10030    2    1    2    0    0  0.00000000000E+00  0.00000000000E+00  0.72293837811E+03  0.33284761742E+04  0.32490173505E+04 0.  0.
        2    1    3    3  502    0  0.69644624359E+03  0.72911979483E+03  0.16663447490E+04  0.19476544529E+04  0.25500000920E-02 0. -1.
       -2    1    3    3    0  502 -0.69644624359E+03 -0.72911979483E+03 -0.94340637089E+03  0.13808217213E+04  0.25500000920E-02 0.  1.
</event>
<event>
 5   0  0.1273754E-06  0.3190511E+04  0.7818609E-02  0.8191328E-01
        1   -1    0    0  501    0  0.00000000000E+00  0.00000000000E+00  0.18472408572E+04  0.18472408572E+04  0.50400001928E-02 0.  1.
       -1   -1    0    0    0  501  0.00000000000E+00  0.00000000000E+00 -0.13776435284E+04  0.13776435284E+04  0.50400001928E-02 0. -1.
    10030    2    1    2    0    0  0.00000000000E+00  0.00000000000E+00  0.46959732877E+03  0.32248843856E+04  0.31905105625E+04 0.  0.
        2    1    3    3  502    0  0.11912311880E+03  0.48969735766E+03 -0.12950619770E+04  0.13896687893E+04  0.25500000920E-02 0. -1.
       -2    1    3    3    0  502 -0.11912311880E+03 -0.48969735766E+03  0.17646593058E+04  0.18352155963E+04  0.25500000920E-02 0.  1.
</event>
<event>
 5   0  0.3656086E-06  0.2980264E+04  0.7818609E-02  0.8249389E-01
       -2   -1    0    0    0  501  0.00000000000E+00  0.00000000000E+00  0.78196684935E+03  0.78196684936E+03  0.25500000920E-02 0.  1.
        2   -1    0    0  501    0  0.00000000000E+00  0.00000000000E+00 -0.28396250313E+04  0.28396250313E+04  0.25500000920E-02 0. -1.
    10030    2    1    2    0    0  0.00000000000E+00  0.00000000000E+00 -0.20576581820E+04  0.36215918807E+04  0.29802635045E+04 0.  0.
        3    1    3    3  502    0 -0.19586427972E+03  0.33187589907E+03 -0.27780251178E+04  0.28046261771E+04  0.10100000352E+00 0. -1.
       -3    1    3    3    0  502  0.19586427972E+03 -0.33187589907E+03  0.72036693576E+03  0.81696570356E+03  0.10100000352E+00 0.  1.
</event>
<event>
 5   0  0.3531437E-06  0.3212468E+04  0.7818609E-02  0.8185532E-01
        2   -1    0    0  501    0  0.00000000000E+00  0.00000000000E+00  0.19806842082E+04  0.19806842082E+04  0.25500000920E-02 0. -1.
       -2   -1    0    0    0  501  0.00000000000E+00  0.00000000000E+00 -0.13025738121E+04  0.13025738121E+04  0.25500000920E-02 0.  1.
    10030    2    1    2    0    0  0.00000000000E+00  0.00000000000E+00  0.67811039608E+03  0.32832580203E+04  0.32124678237E+04 0.  0.
        1    1    3    3  502    0 -0.36575846506E+03  0.34198762764E+03 -0.12207649317E+04  0.13194702765E+04  0.50400001928E-02 0.  1.
       -1    1    3    3    0  502  0.36575846506E+03 -0.34198762764E+03  0.18988753278E+04  0.19637877438E+04  0.50400001928E-02 0. -1.
</event>
<event>
 5   0  0.3656086E-06  0.3189154E+04  0.7818609E-02  0.8191687E-01
       -2   -1    0    0    0  501  0.00000000000E+00  0.00000000000E+00  0.19613664379E+04  0.19613664379E+04  0.25500000920E-02 0.  1.
        2   -1    0    0  501    0  0.00000000000E+00  0.00000000000E+00 -0.12963801197E+04  0.12963801197E+04  0.25500000920E-02 0. -1.
    10030    2    1    2    0    0  0.00000000000E+00  0.00000000000E+00  0.66498631823E+03  0.32577465575E+04  0.31891544067E+04 0.  0.
        3    1    3    3  502    0  0.40437899390E+03  0.64364537015E+03 -0.10993952705E+04  0.13365895796E+04  0.10100000352E+00 0. -1.
       -3    1    3    3    0  502 -0.40437899390E+03 -0.64364537015E+03  0.17643815887E+04  0.19211569780E+04  0.10100000352E+00 0.  1.
</event>
<event>
 5   0  0.1268836E-06  0.3232487E+04  0.7818609E-02  0.8180290E-01
       -1   -1    0    0    0  501  0.00000000000E+00  0.00000000000E+00  0.10299530963E+04  0.10299530963E+04  0.50400001928E-02 0. -1.
        1   -1    0    0  501    0  0.00000000000E+00  0.00000000000E+00 -0.25362737445E+04  0.25362737445E+04  0.50400001928E-02 0.  1.
    10030    2    1    2    0    0  0.00000000000E+00  0.00000000000E+00 -0.15063206482E+04  0.35662268409E+04  0.32324869660E+04 0.  0.
        1    1    3    3  502    0 -0.34201007867E+03 -0.66127273804E+03 -0.23358430469E+04  0.24516148286E+04  0.50400001928E-02 0.  1.
       -1    1    3    3    0  502  0.34201007867E+03  0.66127273804E+03  0.82952239869E+03  0.11146120123E+04  0.50400001928E-02 0. -1.
</event>
<event>
 5   0  0.3758062E-06  0.3198633E+04  0.7818609E-02  0.8189178E-01
        2   -1    0    0  501    0  0.00000000000E+00  0.00000000000E+00  0.13299309773E+04  0.13299309773E+04  0.25500000920E-02 0.  1.
       -2   -1    0    0    0  501  0.00000000000E+00  0.00000000000E+00 -0.19232671542E+04  0.19232671542E+04  0.25500000920E-02 0. -1.
    10030    2    1    2    0    0  0.00000000000E+00  0.00000000000E+00 -0.59333617694E+03  0.32531981316E+04  0.31986325616E+04 0.  0.
        2    1    3    3  502    0  0.13050266073E+04 -0.22301271424E+03 -0.12091822980E+04  0.17930284287E+04  0.25500000920E-02 0. -1.
       -2    1    3    3    0  502 -0.13050266073E+04  0.22301271424E+03  0.61584612104E+03  0.14601697029E+04  0.25500000920E-02 0.  1.
</event>
<event>
 5   0  0.3758062E-06  0.2724178E+04  0.7818609E-02  0.8327202E-01
        2   -1    0    0  501    0  0.00000000000E+00  0.00000000000E+00  0.12076952182E+04  0.12076952182E+04  0.25500000920E-02 0. -1.
       -2   -1    0    0    0  501  0.00000000000E+00  0.00000000000E+00 -0.15362207008E+04  0.15362207008E+04  0.25500000920E-02 0.  1.
    10030    2    1    2    0    0  0.00000000000E+00  0.00000000000E+00 -0.32852548260E+03  0.27439159191E+04  0.27241779638E+04 0.  0.
        2    1    3    3  502    0 -0.13319446365E+04  0.93731349331E+02  0.10680480164E+03  0.13395033953E+04  0.25500000920E-02 0. -1.
       -2    1    3    3    0  502  0.13319446365E+04 -0.93731349331E+02 -0.43533028424E+03  0.14044125237E+04  0.25500000920E-02 0.  1.
</event>
<event>
 5   0  0.1268836E-06  0.3228254E+04  0.7818609E-02  0.8181395E-01
       -1   -1    0    0    0  501  0.00000000000E+00  0.00000000000E+00  0.15157806819E+04  0.15157806819E+04  0.50400001928E-02 0. -1.
        1   -1    0    0  501    0  0.00000000000E+00  0.00000000000E+00 -0.17188539843E+04  0.17188539843E+04  0.50400001928E-02 0.  1.
    10030    2    1    2    0    0  0.00000000000E+00  0.00000000000E+00 -0.20307330238E+03  0.32346346663E+04  0.32282538094E+04 0.  0.
        1    1    3    3  502    0  0.91684028852E+03 -0.11844976528E+04  0.50112944000E+03  0.15794814085E+04  0.50400001928E-02 0. -1.
       -1    1    3    3    0  502 -0.91684028852E+03  0.11844976528E+04 -0.70420274238E+03  0.16551532577E+04  0.50400001928E-02 0.  1.
</event>
<event>
 5   0  0.1273980E-06  0.2651742E+04  0.7818609E-02  0.8350835E-01
        1   -1    0    0  501    0  0.00000000000E+00  0.00000000000E+00  0.21937386041E+04  0.21937386041E+04  0.50400001928E-02 0. -1.
       -1   -1    0    0    0  501  0.00000000000E+00  0.00000000000E+00 -0.80134150420E+03  0.80134150422E+03  0.50400001928E-02 0.  1.
    10030    2    1    2    0    0  0.00000000000E+00  0.00000000000E+00  0.13923970999E+04  0.29950801084E+04  0.26517419127E+04 0.  0.
        4    1    3    3  502    0 -0.12381149254E+04 -0.14842534422E+03  0.18734021713E+03  0.12609744729E+04  0.12699999809E+01 0.  1.
       -4    1    3    3    0  502  0.12381149254E+04  0.14842534422E+03  0.12050568828E+04  0.17341056355E+04  0.12699999809E+01 0. -1.
</event>
<event>
 5   0  0.1306843E-06  0.3218724E+04  0.7818609E-02  0.8183890E-01
        1   -1    0    0  501    0  0.00000000000E+00  0.00000000000E+00  0.18357121765E+04  0.18357121765E+04  0.50400001928E-02 0.  1.
       -1   -1    0    0    0  501  0.00000000000E+00  0.00000000000E+00 -0.14109220672E+04  0.14109220672E+04  0.50400001928E-02 0. -1.
    10030    2    1    2    0    0  0.00000000000E+00  0.00000000000E+00  0.42479010934E+03  0.32466342437E+04  0.32187244795E+04 0.  0.
        5    1    3    3  502    0 -0.55393525470E+03 -0.53323320331E+03  0.16384586180E+04  0.18099034914E+04  0.46999998093E+01 0.  1.
       -5    1    3    3    0  502  0.55393525470E+03  0.53323320331E+03 -0.12136685086E+04  0.14367307522E+04  0.46999998093E+01 0. -1.
</event>
<event>
 5   0  0.3497546E-06  0.3145468E+04  0.7818609E-02  0.8203369E-01
        2   -1    0    0  501    0  0.00000000000E+00  0.00000000000E+00  0.24912710831E+04  0.24912710831E+04  0.25500000920E-02 0. -1.
       -2   -1    0    0    0  501  0.00000000000E+00  0.00000000000E+00 -0.99286324904E+03  0.99286324905E+03  0.25500000920E-02 0.  1.
    10030    2    1    2    0    0  0.00000000000E+00  0.00000000000E+00  0.14984078341E+04  0.34841343322E+04  0.31454675340E+04 0.  0.
        4    1    3    3  502    0  0.82011297936E+03  0.87514201052E+03  0.18761064981E+04  0.22267096898E+04  0.12699999809E+01 0. -1.
       -4    1    3    3    0  502 -0.82011297936E+03 -0.87514201052E+03 -0.37769866405E+03  0.12574246424E+04  0.12699999809E+01 0.  1.
</event>
<event>
 5   0  0.1306843E-06  0.3213804E+04  0.7818609E-02  0.8185181E-01
        1   -1    0    0  501    0  0.00000000000E+00  0.00000000000E+00  0.18548257588E+04  0.18548257588E+04  0.50400001928E-02 0. -1.
       -1   -1    0    0    0  501  0.00000000000E+00  0.00000000000E+00 -0.13921169686E+04  0.13921169686E+04  0.50400001928E-02 0.  1.
    10030    2    1    2    0    0  0.00000000000E+00  0.00000000000E+00  0.46270879016E+03  0.32469427274E+04  0.32138042333E+04 0.  0.
        5    1    3    3  502    0  0.22207611588E+03 -0.10654203599E+04  0.14257773726E+04  0.17936837934E+04  0.46999998093E+01 0. -1.
       -5    1    3    3    0  502 -0.22207611588E+03  0.10654203599E+04 -0.96306858243E+03  0.14532589339E+04  0.46999998093E+01 0.  1.
</event>
<event>
 5   0  0.3531437E-06  0.3208705E+04  0.7818609E-02  0.8186522E-01
        2   -1    0    0  501    0  0.00000000000E+00  0.00000000000E+00  0.22729723540E+04  0.22729723540E+04  0.25500000920E-02 0. -1.
       -2   -1    0    0    0  501  0.00000000000E+00  0.00000000000E+00 -0.11324144069E+04  0.11324144069E+04  0.25500000920E-02 0.  1.
    10030    2    1    2    0    0  0.00000000000E+00  0.00000000000E+00  0.11405579471E+04  0.34053867609E+04  0.32087048104E+04 0.  0.
        1    1    3    3  502    0 -0.15477641243E+04 -0.39022942185E+03  0.39884148619E+03  0.16452742377E+04  0.50400001928E-02 0.  1.
       -1    1    3    3    0  502  0.15477641243E+04  0.39022942185E+03  0.74171646087E+03  0.17601125232E+04  0.50400001928E-02 0. -1.
</event>
<event>
 5   0  0.1306843E-06  0.3191530E+04  0.7818609E-02  0.8191058E-01
        1   -1    0    0  501    0  0.00000000000E+00  0.00000000000E+00  0.15406937390E+04  0.15406937390E+04  0.50400001928E-02 0.  1.
       -1   -1    0    0    0  501  0.00000000000E+00  0.00000000000E+00 -0.16528044969E+04  0.16528044969E+04  0.50400001928E-02 0. -1.
    10030    2    1    2    0    0  0.00000000000E+00  0.00000000000E+00 -0.11211075782E+03  0.31934982359E+04  0.31915297524E+04 0.  0.
        5    1    3    3  502    0  0.31662727223E+03  0.15344224017E+04  0.24701509860E+03  0.15861095439E+04  0.46999998093E+01 0. -1.
       -5    1    3    3    0  502 -0.31662727223E+03 -0.15344224017E+04 -0.35912585642E+03  0.16073886920E+04  0.46999998093E+01 0.  1.
</event>
<event>
 5   0  0.1240725E-06  0.3188829E+04  0.7818609E-02  0.8191774E-01
        1   -1    0    0  501    0  0.00000000000E+00  0.00000000000E+00  0.12535634437E+04  0.12535634437E+04  0.50400001928E-02 0.  1.
       -1   -1    0    0    0  501  0.00000000000E+00  0.00000000000E+00 -0.20279449848E+04  0.20279449849E+04  0.50400001928E-02 0. -1.
    10030    2    1    2    0    0  0.00000000000E+00  0.00000000000E+00 -0.77438154117E+03  0.32815084285E+04  0.31888290634E+04 0.  0.
        3    1    3    3  502    0 -0.84496968168E+02 -0.45847109968E+03 -0.19562421200E+04  0.20110242985E+04  0.10100000352E+00 0. -1.
       -3    1    3    3    0  502  0.84496968168E+02  0.45847109968E+03  0.11818605788E+04  0.12704841301E+04  0.10100000352E+00 0.  1.
</event>
<event>
 5   0  0.1240725E-06  0.2299719E+04  0.7818609E-02  0.8478032E-01
        1   -1    0    0  501    0  0.00000000000E+00  0.00000000000E+00  0.11001381652E+04  0.11001381652E+04  0.50400001928E-02 0. -1.
       -1   -1    0    0    0  501  0.00000000000E+00  0.00000000000E+00 -0.12018275155E+04  0.12018275155E+04  0.50400001928E-02 0.  1.
    10030    2    1    2    0    0  0.00000000000E+00  0.00000000000E+00 -0.10168935036E+03  0.23019656807E+04  0.22997185200E+04 0.  0.
        3    1    3    3  502    0  0.46168771007E+03 -0.72748152165E+03  0.71133970992E+03  0.11173133397E+04  0.10100000352E+00 0. -1.
       -3    1    3    3    0  502 -0.46168771007E+03  0.72748152165E+03 -0.81302906028E+03  0.11846523410E+04  0.10100000352E+00 0.  1.
</event>
<event>
 5   0  0.1306843E-06  0.3035834E+04  0.7818609E-02  0.8233572E-01
        1   -1    0    0  501    0  0.00000000000E+00  0.00000000000E+00  0.93920848365E+03  0.93920848366E+03  0.50400001928E-02 0.  1.
       -1   -1    0    0    0  501  0.00000000000E+00  0.00000000000E+00 -0.24532055022E+04  0.24532055022E+04  0.50400001928E-02 0. -1.
    10030    2    1    2    0    0  0.00000000000E+00  0.00000000000E+00 -0.15139970186E+04  0.33924139859E+04  0.30358336053E+04 0.  0.
        5    1    3    3  502    0 -0.90922633748E+03 -0.89613894845E+03 -0.16746014871E+04  0.21057231011E+04  0.46999998093E+01 0. -1.
       -5    1    3    3    0  502  0.90922633748E+03  0.89613894845E+03  0.16060446857E+03  0.12866908848E+04  0.46999998093E+01 0.  1.
</event>
<event>
 5   0  0.3497546E-06  0.3218060E+04  0.7818609E-02  0.8184064E-01
        2   -1    0    0  501    0  0.00000000000E+00  0.00000000000E+00  0.14015057613E+04  0.14015057613E+04  0.25500000920E-02 0.  1.
       -2   -1    0    0    0  501  0.00000000000E+00  0.00000000000E+00 -0.18472825447E+04  0.18472825447E+04  0.25500000920E-02 0. -1.
    10030    2    1    2    0    0  0.00000000000E+00  0.00000000000E+00 -0.44577678335E+03  0.32487883060E+04  0.32180597441E+04 0.  0.
        4    1    3    3  502    0 -0.16227081832E+03  0.15991584209E+04 -0.14914264869E+03  0.16142752603E+04  0.12699999809E+01 0.  1.
       -4    1    3    3    0  502  0.16227081832E+03 -0.15991584209E+04 -0.29663413466E+03  0.16345130456E+04  0.12699999809E+01 0. -1.
</event>
<event>
 5   0  0.3656086E-06  0.3189213E+04  0.7818609E-02  0.8191672E-01
       -2   -1    0    0    0  501  0.00000000000E+00  0.00000000000E+00  0.23348313635E+04  0.23348313635E+04  0.25500000920E-02 0. -1.
        2   -1    0    0  501    0  0.00000000000E+00  0.00000000000E+00 -0.10890593150E+04  0.10890593150E+04  0.25500000920E-02 0.  1.
    10030    2    1    2    0    0  0.00000000000E+00  0.00000000000E+00  0.12457720485E+04  0.34238906786E+04  0.31892129722E+04 0.  0.
        3    1    3    3  502    0  0.19972444193E+02  0.34983383920E+03 -0.10472156219E+04  0.11042840136E+04  0.10100000352E+00 0.  1.
       -3    1    3    3    0  502 -0.19972444193E+02 -0.34983383920E+03  0.22929876704E+04  0.23196066650E+04  0.10100000352E+00 0. -1.
</event>
<event>
 5   0  0.3758062E-06  0.3204287E+04  0.7818609E-02  0.8187686E-01
       -2   -1    0    0    0  501  0.00000000000E+00  0.00000000000E+00  0.11995700759E+04  0.11995700759E+04  0.25500000920E-02 0. -1.
        2   -1    0    0  501    0  0.00000000000E+00  0.00000000000E+00 -0.21398198655E+04  0.21398198655E+04  0.25500000920E-02 0.  1.
    10030    2    1    2    0    0  0.00000000000E+00  0.00000000000E+00 -0.94024978963E+03  0.33393899415E+04  0.32042870524E+04 0.  0.
        2    1    3    3  502    0  0.52855835860E+03  0.61538566782E+02  0.11047843260E+04  0.12262582684E+04  0.25500000920E-02 0. -1.
       -2    1    3    3    0  502 -0.52855835860E+03 -0.61538566782E+02 -0.20450341157E+04  0.21131316731E+04  0.25500000920E-02 0.  1.
</event>
<event>
 5   0  0.3531437E-06  0.3235471E+04  0.7818609E-02  0.8179512E-01
        2   -1    0    0  501    0  0.00000000000E+00  0.00000000000E+00  0.30205521616E+04  0.30205521616E+04  0.25500000920E-02 0. -1.
       -2   -1    0    0    0  501  0.00000000000E+00  0.00000000000E+00 -0.86642025002E+03  0.86642025003E+03  0.25500000920E-02 0.  1.
    10030    2    1    2    0    0  0.00000000000E+00  0.00000000000E+00  0.21541319116E+04  0.38869724116E+04  0.32354706360E+04 0.  0.
        1    1    3    3  502    0 -0.54328226764E+03 -0.79051495429E+03  0.26420671250E+04  0.28107985001E+04  0.50400001928E-02 0. -1.
       -1    1    3    3    0  502  0.54328226764E+03  0.79051495429E+03 -0.48793521342E+03  0.10761739115E+04  0.50400001928E-02 0.  1.
</event>
<event>
 5   0  0.3745943E-06  0.3223429E+04  0.7818609E-02  0.8182657E-01
        2   -1    0    0  501    0  0.00000000000E+00  0.00000000000E+00  0.22527551093E+04  0.22527551093E+04  0.25500000920E-02 0.  1.
       -2   -1    0    0    0  501  0.00000000000E+00  0.00000000000E+00 -0.11530877507E+04  0.11530877507E+04  0.25500000920E-02 0. -1.
    10030    2    1    2    0    0  0.00000000000E+00  0.00000000000E+00  0.10996673586E+04  0.34058428600E+04  0.32234294296E+04 0.  0.
        5    1    3    3  502    0 -0.80483825907E+03  0.14674968468E+02 -0.92547085271E+03  0.12265799473E+04  0.46999998093E+01 0. -1.
       -5    1    3    3    0  502  0.80483825907E+03 -0.14674968468E+02  0.20251382113E+04  0.21792629127E+04  0.46999998093E+01 0.  1.
</event>
<event>
 5   0  0.3656086E-06  0.3182140E+04  0.7818609E-02  0.8193550E-01
        2   -1    0    0  501    0  0.00000000000E+00  0.00000000000E+00  0.17920734187E+04  0.17920734187E+04  0.25500000920E-02 0.  1.
       -2   -1    0    0    0  501  0.00000000000E+00  0.00000000000E+00 -0.14126118224E+04  0.14126118224E+04  0.25500000920E-02 0. -1.
    10030    2    1    2    0    0  0.00000000000E+00  0.00000000000E+00  0.37946159626E+03  0.32046852411E+04  0.31821402218E+04 0.  0.
        3    1    3    3  502    0 -0.39291179918E+03  0.11313107962E+04 -0.86519253434E+03  0.14774308549E+04  0.10100000352E+00 0. -1.
       -3    1    3    3    0  502  0.39291179918E+03 -0.11313107962E+04  0.12446541306E+04  0.17272543861E+04  0.10100000352E+00 0.  1.
</event>
<event>
 5   0  0.1268836E-06  0.3226092E+04  0.7818609E-02  0.8181960E-01
       -1   -1    0    0    0  501  0.00000000000E+00  0.00000000000E+00  0.13712212185E+04  0.13712212185E+04  0.50400001928E-02 0. -1.
        1   -1    0    0  501    0  0.00000000000E+00  0.00000000000E+00 -0.18975179896E+04  0.18975179896E+04  0.50400001928E-02 0.  1.
    10030    2    1    2    0    0  0.00000000000E+00  0.00000000000E+00 -0.52629677103E+03  0.32687392081E+04  0.32260917097E+04 0.  0.
        1    1    3    3  502    0 -0.11845724483E+04  0.44757210906E+03 -0.12755490562E+04  0.17973753289E+04  0.50400001928E-02 0.  1.
       -1    1    3    3    0  502  0.11845724483E+04 -0.44757210906E+03  0.74925228516E+03  0.14713638792E+04  0.50400001928E-02 0. -1.
</event>
<event>
 5   0  0.1240725E-06  0.3088429E+04  0.7818609E-02  0.8218921E-01
        1   -1    0    0  501    0  0.00000000000E+00  0.00000000000E+00  0.24574563326E+04  0.24574563326E+04  0.50400001928E-02 0. -1.
       -1   -1    0    0    0  501  0.00000000000E+00  0.00000000000E+00 -0.97035228919E+03  0.97035228921E+03  0.50400001928E-02 0.  1.
    10030    2    1    2    0    0  0.00000000000E+00  0.00000000000E+00  0.14871040434E+04  0.34278086218E+04  0.30884289715E+04 0.  0.
        3    1    3    3  502    0 -0.63445485834E+03 -0.12699724957E+03  0.22997460993E+04  0.23890360818E+04  0.10100000352E+00 0. -1.
       -3    1    3    3    0  502  0.63445485834E+03  0.12699724957E+03 -0.81264205590E+03  0.10387725400E+04  0.10100000352E+00 0.  1.
</event>
<event>
 5   0  0.1306843E-06  0.2342415E+04  0.7818609E-02  0.8461383E-01
        1   -1    0    0  501    0  0.00000000000E+00  0.00000000000E+00  0.13688468207E+04  0.13688468207E+04  0.50400001928E-02 0. -1.
       -1   -1    0    0    0  501  0.00000000000E+00  0.00000000000E+00 -0.10021042657E+04  0.10021042657E+04  0.50400001928E-02 0.  1.
    10030    2    1    2    0    0  0.00000000000E+00  0.00000000000E+00  0.36674255501E+03  0.23709510864E+04  0.23424151964E+04 0.  0.
        5    1    3    3  502    0  0.90465716630E+03  0.27840272954E+03  0.88155143885E+03  0.12934711816E+04  0.46999998093E+01 0. -1.
       -5    1    3    3    0  502 -0.90465716630E+03 -0.27840272954E+03 -0.51480888383E+03  0.10774799048E+04  0.46999998093E+01 0.  1.
</event>
<event>
 5   0  0.1240725E-06  0.3099088E+04  0.7818609E-02  0.8215988E-01
        1   -1    0    0  501    0  0.00000000000E+00  0.00000000000E+00  0.17744759000E+04  0.17744759000E+04  0.50400001928E-02 0.  1.
       -1   -1    0    0    0  501  0.00000000000E+00  0.00000000000E+00 -0.13531240694E+04  0.13531240695E+04  0.50400001928E-02 0. -1.
    10030    2    1    2    0    0  0.00000000000E+00  0.00000000000E+00  0.42135183055E+03  0.31275999695E+04  0.30990876406E+04 0.  0.
        3    1    3    3  502    0 -0.47447683426E+03 -0.48162646571E+03 -0.11964234632E+04  0.13742348534E+04  0.10100000352E+00 0. -1.
       -3    1    3    3    0  502  0.47447683426E+03  0.48162646571E+03  0.16177752938E+04  0.17533651160E+04  0.10100000352E+00 0.  1.
</event>
<event>
 5   0  0.3758062E-06  0.3105761E+04  0.7818609E-02  0.8214159E-01
       -2   -1    0    0    0  501  0.00000000000E+00  0.00000000000E+00  0.13080353565E+04  0.13080353565E+04  0.25500000920E-02 0. -1.
        2   -1    0    0  501    0  0.00000000000E+00  0.00000000000E+00 -0.18435570303E+04  0.18435570303E+04  0.25500000920E-02 0.  1.
    10030    2    1    2    0    0  0.00000000000E+00  0.00000000000E+00 -0.53552167379E+03  0.31515923868E+04  0.31057609550E+04 0.  0.
        2    1    3    3  502    0  0.25198726511E+03  0.63744573950E+03 -0.16817375205E+04  0.18160605003E+04  0.25500000920E-02 0.  1.
       -2    1    3    3    0  502 -0.25198726511E+03 -0.63744573950E+03  0.11462158468E+04  0.13355318865E+04  0.25500000920E-02 0. -1.
</event>
<event>
 5   0  0.3656086E-06  0.3154923E+04  0.7818609E-02  0.8200824E-01
        2   -1    0    0  501    0  0.00000000000E+00  0.00000000000E+00  0.15307332040E+04  0.15307332040E+04  0.25500000920E-02 0. -1.
       -2   -1    0    0    0  501  0.00000000000E+00  0.00000000000E+00 -0.16256167611E+04  0.16256167611E+04  0.25500000920E-02 0.  1.
    10030    2    1    2    0    0  0.00000000000E+00  0.00000000000E+00 -0.94883557053E+02  0.31563499651E+04  0.31549234877E+04 0.  0.
        3    1    3    3  502    0  0.26446184761E+03  0.17520316067E+03  0.14984912810E+04  0.15317024338E+04  0.10100000352E+00 0. -1.
       -3    1    3    3    0  502 -0.26446184761E+03 -0.17520316067E+03 -0.15933748380E+04  0.16246475313E+04  0.10100000352E+00 0.  1.
</event>
<event>
 5   0  0.1240725E-06  0.2916341E+04  0.7818609E-02  0.8268032E-01
       -1   -1    0    0    0  501  0.00000000000E+00  0.00000000000E+00  0.78113820679E+03  0.78113820681E+03  0.50400001928E-02 0. -1.
        1   -1    0    0  501    0  0.00000000000E+00  0.00000000000E+00 -0.27220046124E+04  0.27220046124E+04  0.50400001928E-02 0.  1.
    10030    2    1    2    0    0  0.00000000000E+00  0.00000000000E+00 -0.19408664056E+04  0.35031428192E+04  0.29163414079E+04 0.  0.
        3    1    3    3  502    0 -0.12762168934E+03  0.11130563481E+04 -0.20915439500E+04  0.23727068581E+04  0.10100000352E+00 0.  1.
       -3    1    3    3    0  502  0.12762168934E+03 -0.11130563481E+04  0.15067754440E+03  0.11304359611E+04  0.10100000352E+00 0. -1.
</event>
<event>
 5   0  0.1273754E-06  0.3206007E+04  0.7818609E-02  0.8187233E-01
       -1   -1    0    0    0  501  0.00000000000E+00  0.00000000000E+00  0.25230037130E+04  0.25230037130E+04  0.50400001928E-02 0. -1.
        1   -1    0    0  501    0  0.00000000000E+00  0.00000000000E+00 -0.10184764426E+04  0.10184764427E+04  0.50400001928E-02 0.  1.
    10030    2    1    2    0    0  0.00000000000E+00  0.00000000000E+00  0.15045272703E+04  0.35414801556E+04  0.32060067663E+04 0.  0.
        2    1    3    3  502    0 -0.14849344440E+04  0.49080074887E+03  0.11407828881E+04  0.19357947401E+04  0.25500000920E-02 0. -1.
       -2    1    3    3    0  502  0.14849344440E+04 -0.49080074887E+03  0.36374438227E+03  0.16056854155E+04  0.25500000920E-02 0.  1.
</event>
<event>
 5   0  0.3758062E-06  0.3061670E+04  0.7818609E-02  0.8226337E-01
        2   -1    0    0  501    0  0.00000000000E+00  0.00000000000E+00  0.23451359569E+04  0.23451359569E+04  0.25500000920E-02 0. -1.
       -2   -1    0    0    0  501  0.00000000000E+00  0.00000000000E+00 -0.99928344898E+03  0.99928344898E+03  0.25500000920E-02 0.  1.
    10030    2    1    2    0    0  0.00000000000E+00  0.00000000000E+00  0.13458525079E+04  0.33444194059E+04  0.30616698368E+04 0.  0.
        2    1    3    3  502    0 -0.73046010411E+02  0.70230826940E+03  0.21566286038E+04  0.22692773210E+04  0.25500000920E-02 0. -1.
       -2    1    3    3    0  502  0.73046010411E+02 -0.70230826940E+03 -0.81077609591E+03  0.10751420848E+04  0.25500000920E-02 0.  1.
</event>
<event>
 5   0  0.1273980E-06  0.3242721E+04  0.7818609E-02  0.8177625E-01
       -1   -1    0    0    0  501  0.00000000000E+00  0.00000000000E+00  0.14635353477E+04  0.14635353477E+04  0.50400001928E-02 0. -1.
        1   -1    0    0  501    0  0.00000000000E+00  0.00000000000E+00 -0.17962057905E+04  0.17962057905E+04  0.50400001928E-02 0.  1.
    10030    2    1    2    0    0  0.00000000000E+00  0.00000000000E+00 -0.33267044286E+03  0.32597411382E+04  0.32427214905E+04 0.  0.
        4    1    3    3  502    0  0.15228714879E+04 -0.48908227041E+03  0.10051996792E+03  0.16026368624E+04  0.12699999809E+01 0.  1.
       -4    1    3    3    0  502 -0.15228714879E+04  0.48908227041E+03 -0.43319041079E+03  0.16571042758E+04  0.12699999809E+01 0. -1.
</event>
<event>
 5   0  0.3531437E-06  0.3217999E+04  0.7818609E-02  0.8184080E-01
       -2   -1    0    0    0  501  0.00000000000E+00  0.00000000000E+00  0.14161905711E+04  0.14161905711E+04  0.25500000920E-02 0. -1.
        2   -1    0    0  501    0  0.00000000000E+00  0.00000000000E+00 -0.18280581425E+04  0.18280581425E+04  0.25500000920E-02 0.  1.
    10030    2    1    2    0    0  0.00000000000E+00  0.00000000000E+00 -0.41186757141E+03  0.32442487137E+04  0.32179985736E+04 0.  0.
        1    1    3    3  502    0 -0.63260761910E+03  0.60727409101E+03 -0.15659766348E+04  0.17947860714E+04  0.50400001928E-02 0. -1.
       -1    1    3    3    0  502  0.63260761910E+03 -0.60727409101E+03  0.11541090633E+04  0.14494626423E+04  0.50400001928E-02 0.  1.
</event>
<event>
 5   0  0.1273980E-06  0.3235736E+04  0.7818609E-02  0.8179443E-01
       -1   -1    0    0    0  501  0.00000000000E+00  0.00000000000E+00  0.26063482063E+04  0.26063482063E+04  0.50400001928E-02 0. -1.
        1   -1    0    0  501    0  0.00000000000E+00  0.00000000000E+00 -0.10042773409E+04  0.10042773409E+04  0.50400001928E-02 0.  1.
    10030    2    1    2    0    0  0.00000000000E+00  0.00000000000E+00  0.16020708653E+04  0.36106255472E+04  0.32357357409E+04 0.  0.
        4    1    3    3  502    0 -0.10495422125E+03  0.12101070662E+04 -0.39148364724E+03  0.12761800654E+04  0.12699999809E+01 0.  1.
       -4    1    3    3    0  502  0.10495422125E+03 -0.12101070662E+04  0.19935545126E+04  0.23344454819E+04  0.12699999809E+01 0. -1.
</event>
<event>
 5   0  0.1240725E-06  0.3188913E+04  0.7818609E-02  0.8191751E-01
        1   -1    0    0  501    0  0.00000000000E+00  0.00000000000E+00  0.21498401247E+04  0.21498401247E+04  0.50400001928E-02 0.  1.
       -1   -1    0    0    0  501  0.00000000000E+00  0.00000000000E+00 -0.11825493167E+04  0.11825493167E+04  0.50400001928E-02 0. -1.
    10030    2    1    2    0    0  0.00000000000E+00  0.00000000000E+00  0.96729080799E+03  0.33323894415E+04  0.31889132761E+04 0.  0.
        3    1    3    3  502    0  0.13749010842E+04 -0.12113155976E+03 -0.35056087462E+03  0.14240501337E+04  0.10100000352E+00 0.  1.
       -3    1    3    3    0  502 -0.13749010842E+04  0.12113155976E+03  0.13178516826E+04  0.19083393078E+04  0.10100000352E+00 0. -1.
</event>
<event>
 5   0  0.1273754E-06  0.3164944E+04  0.7818609E-02  0.8198137E-01
       -1   -1    0    0    0  501  0.00000000000E+00  0.00000000000E+00  0.15698766680E+04  0.15698766680E+04  0.50400001928E-02 0.  1.
        1   -1    0    0  501    0  0.00000000000E+00  0.00000000000E+00 -0.15951687583E+04  0.15951687583E+04  0.50400001928E-02 0. -1.
    10030    2    1    2    0    0  0.00000000000E+00  0.00000000000E+00 -0.25292090308E+02  0.31650454264E+04  0.31649443693E+04 0.  0.
        2    1    3    3  502    0 -0.35925125896E+03 -0.94465582709E+03 -0.12303803384E+04  0.15922537096E+04  0.25500000920E-02 0. -1.
       -2    1    3    3    0  502  0.35925125896E+03  0.94465582709E+03  0.12050882480E+04  0.15727917168E+04  0.25500000920E-02 0.  1.
</event>
<event>
 5   0  0.3531437E-06  0.3166342E+04  0.7818609E-02  0.8197763E-01
       -2   -1    0    0    0  501  0.00000000000E+00  0.00000000000E+00  0.10268195009E+04  0.10268195009E+04  0.25500000920E-02 0. -1.
        2   -1    0    0  501    0  0.00000000000E+00  0.00000000000E+00 -0.24409653538E+04  0.24409653538E+04  0.25500000920E-02 0.  1.
    10030    2    1    2    0    0  0.00000000000E+00  0.00000000000E+00 -0.14141458529E+04  0.34677848548E+04  0.31663422597E+04 0.  0.
        1    1    3    3  502    0 -0.26460869916E+03  0.10599692856E+04 -0.19619653661E+04  0.22456314809E+04  0.50400001928E-02 0.  1.
       -1    1    3    3    0  502  0.26460869916E+03 -0.10599692856E+04  0.54781951318E+03  0.12221533739E+04  0.50400001928E-02 0. -1.
</event>
<event>
 5   0  0.3745943E-06  0.3192464E+04  0.7818609E-02  0.8190810E-01
       -2   -1    0    0    0  501  0.00000000000E+00  0.00000000000E+00  0.17342457783E+04  0.17342457783E+04  0.25500000920E-02 0. -1.
        2   -1    0    0  501    0  0.00000000000E+00  0.00000000000E+00 -0.14692012536E+04  0.14692012536E+04  0.25500000920E-02 0.  1.
    10030    2    1    2    0    0  0.00000000000E+00  0.00000000000E+00  0.26504452463E+03  0.32034470319E+04  0.31924636703E+04 0.  0.
        5    1    3    3  502    0  0.33947341734E+03 -0.10237980697E+03 -0.14291773195E+04  0.14725127255E+04  0.46999998093E+01 0.  1.
       -5    1    3    3    0  502 -0.33947341734E+03  0.10237980697E+03  0.16942218442E+04  0.17309343064E+04  0.46999998093E+01 0. -1.
</event>
<event>
 5   0  0.1306843E-06  0.3045131E+04  0.7818609E-02  0.8230960E-01
       -1   -1    0    0    0  501  0.00000000000E+00  0.00000000000E+00  0.10026734449E+04  0.10026734449E+04  0.50400001928E-02 0.  1.
        1   -1    0    0  501    0  0.00000000000E+00  0.00000000000E+00 -0.23120241069E+04  0.23120241069E+04  0.50400001928E-02 0. -1.
    10030    2    1    2    0    0  0.00000000000E+00  0.00000000000E+00 -0.13093506620E+04  0.33146975519E+04  0.30451306547E+04 0.  0.
        5    1    3    3  502    0  0.46990755085E+03  0.28509547167E+03 -0.22002606841E+04  0.22678760333E+04  0.46999998093E+01 0. -1.
       -5    1    3    3    0  502 -0.46990755085E+03 -0.28509547167E+03  0.89091002209E+03  0.10468215186E+04  0.46999998093E+01 0.  1.
</event>
<event>
 5   0  0.3497546E-06  0.2959279E+04  0.7818609E-02  0.8255455E-01
       -2   -1    0    0    0  501  0.00000000000E+00  0.00000000000E+00  0.79847917512E+03  0.79847917512E+03  0.25500000920E-02 0.  1.
        2   -1    0    0  501    0  0.00000000000E+00  0.00000000000E+00 -0.27418793243E+04  0.27418793243E+04  0.25500000920E-02 0. -1.
    10030    2    1    2    0    0  0.00000000000E+00  0.00000000000E+00 -0.19434001492E+04  0.35403584995E+04  0.29592793320E+04 0.  0.
        4    1    3    3  502    0 -0.87636118895E+03  0.10781631652E+04 -0.36298149720E+03  0.14360368813E+04  0.12699999809E+01 0.  1.
       -4    1    3    3    0  502  0.87636118895E+03 -0.10781631652E+04 -0.15804186520E+04  0.21043216182E+04  0.12699999809E+01 0. -1.
</event>
<event>
 5   0  0.1268836E-06  0.3193959E+04  0.7818609E-02  0.8190414E-01
       -1   -1    0    0    0  501  0.00000000000E+00  0.00000000000E+00  0.11941110719E+04  0.11941110719E+04  0.50400001928E-02 0.  1.
        1   -1    0    0  501    0  0.00000000000E+00  0.00000000000E+00 -0.21357675809E+04  0.21357675809E+04  0.50400001928E-02 0. -1.
    10030    2    1    2    0    0  0.00000000000E+00  0.00000000000E+00 -0.94165650906E+03  0.33298786528E+04  0.31939591202E+04 0.  0.
        1    1    3    3  502    0 -0.21703976957E+03  0.14691899392E+04 -0.10829407875E+04  0.18380386526E+04  0.50400001928E-02 0. -1.
       -1    1    3    3    0  502  0.21703976957E+03 -0.14691899392E+04  0.14128427848E+03  0.14918400003E+04  0.50400001928E-02 0.  1.
</event>
<event>
 5   0  0.1306843E-06  0.2943540E+04  0.7818609E-02  0.8260040E-01
        1   -1    0    0  501    0  0.00000000000E+00  0.00000000000E+00  0.14350784749E+04  0.14350784749E+04  0.50400001928E-02 0.  1.
       -1   -1    0    0    0  501  0.00000000000E+00  0.00000000000E+00 -0.15093995598E+04  0.15093995598E+04  0.50400001928E-02 0. -1.
    10030    2    1    2    0    0  0.00000000000E+00  0.00000000000E+00 -0.74321084954E+02  0.29444780347E+04  0.29435399222E+04 0.  0.
        5    1    3    3  502    0 -0.11329649419E+04 -0.93857322124E+03 -0.76612649341E+02  0.14732348215E+04  0.46999998093E+01 0.  1.
       -5    1    3    3    0  502  0.11329649419E+04  0.93857322124E+03  0.22915643866E+01  0.14712432132E+04  0.46999998093E+01 0. -1.
</event>
<event>
 5   0  0.1273754E-06  0.3193541E+04  0.7818609E-02  0.8190525E-01
        1   -1    0    0  501    0  0.00000000000E+00  0.00000000000E+00  0.15331188465E+04  0.15331188465E+04  0.50400001928E-02 0. -1.
       -1   -1    0    0    0  501  0.00000000000E+00  0.00000000000E+00 -0.16630646550E+04  0.16630646550E+04  0.50400001928E-02 0.  1.
    10030    2    1    2    0    0  0.00000000000E+00  0.00000000000E+00 -0.12994580851E+03  0.31961835015E+04  0.31935408346E+04 0.  0.
        2    1    3    3  502    0 -0.12608592075E+04  0.64510011384E+03  0.67303519833E+03  0.15680868842E+04  0.25500000920E-02 0. -1.
       -2    1    3    3    0  502  0.12608592075E+04 -0.64510011384E+03 -0.80298100685E+03  0.16280966173E+04  0.25500000920E-02 0.  1.
</event>
<event>
 5   0  0.1273754E-06  0.3188475E+04  0.7818609E-02  0.8191868E-01
       -1   -1    0    0    0  501  0.00000000000E+00  0.00000000000E+00  0.20671615552E+04  0.20671615552E+04  0.50400001928E-02 0.  1.
        1   -1    0    0  501    0  0.00000000000E+00  0.00000000000E+00 -0.12295083687E+04  0.12295083687E+04  0.50400001928E-02 0. -1.
    10030    2    1    2    0    0  0.00000000000E+00  0.00000000000E+00  0.83765318646E+03  0.32966699239E+04  0.31884745140E+04 0.  0.
        2    1    3    3  502    0 -0.10472738885E+04  0.99440124330E+03  0.11170003316E+04  0.18257344196E+04  0.25500000920E-02 0.  1.
       -2    1    3    3    0  502  0.10472738885E+04 -0.99440124330E+03 -0.27934714510E+03  0.14709355043E+04  0.25500000920E-02 0. -1.
</event>
<event>
 5   0  0.1306843E-06  0.3358112E+04  0.7818609E-02  0.8148264E-01
        1   -1    0    0  501    0  0.00000000000E+00  0.00000000000E+00  0.13183309508E+04  0.13183309508E+04  0.50400001928E-02 0.  1.
       -1   -1    0    0    0  501  0.00000000000E+00  0.00000000000E+00 -0.21384830788E+04  0.21384830788E+04  0.50400001928E-02 0. -1.
    10030    2    1    2    0    0  0.00000000000E+00  0.00000000000E+00 -0.82015212792E+03  0.34568140296E+04  0.33581116304E+04 0.  0.
        5    1    3    3  502    0 -0.43962328385E+03  0.15847879072E+04 -0.75822528001E+03  0.18110077327E+04  0.46999998093E+01 0.  1.
       -5    1    3    3    0  502  0.43962328385E+03 -0.15847879072E+04 -0.61926847907E+02  0.16458062969E+04  0.46999998093E+01 0. -1.
</event>
<event>
 5   0  0.1306843E-06  0.3148293E+04  0.7818609E-02  0.8202608E-01
        1   -1    0    0  501    0  0.00000000000E+00  0.00000000000E+00  0.13425398639E+04  0.13425398639E+04  0.50400001928E-02 0.  1.
       -1   -1    0    0    0  501  0.00000000000E+00  0.00000000000E+00 -0.18457088268E+04  0.18457088268E+04  0.50400001928E-02 0. -1.
    10030    2    1    2    0    0  0.00000000000E+00  0.00000000000E+00 -0.50316896290E+03  0.31882486907E+04  0.31482933009E+04 0.  0.
        5    1    3    3  502    0 -0.29968630912E+03 -0.96125477735E+03  0.97376883452E+03  0.14007392562E+04  0.46999998093E+01 0.  1.
       -5    1    3    3    0  502  0.29968630912E+03  0.96125477735E+03 -0.14769377974E+04  0.17875094345E+04  0.46999998093E+01 0. -1.
</event>
<event>
 5   0  0.1273754E-06  0.3249317E+04  0.7818609E-02  0.8175913E-01
        1   -1    0    0  501    0  0.00000000000E+00  0.00000000000E+00  0.22406353725E+04  0.22406353725E+04  0.50400001928E-02 0. -1.
       -1   -1    0    0    0  501  0.00000000000E+00  0.00000000000E+00 -0.11780211679E+04  0.11780211679E+04  0.50400001928E-02 0.  1.
    10030    2    1    2    0    0  0.00000000000E+00  0.00000000000E+00  0.10626142046E+04  0.34186565405E+04  0.32493174043E+04 0.  0.
        2    1    3    3  502    0 -0.13912731614E+04 -0.77468122456E+03  0.19242814943E+03  0.16039952001E+04  0.25500000920E-02 0.  1.
       -2    1    3    3    0  502  0.13912731614E+04  0.77468122456E+03  0.87018605521E+03  0.18146613403E+04  0.25500000920E-02 0. -1.
</event>
<event>
 5   0  0.1273754E-06  0.3156003E+04  0.7818609E-02  0.8200534E-01
        1   -1    0    0  501    0  0.00000000000E+00  0.00000000000E+00  0.18152840342E+04  0.18152840342E+04  0.50400001928E-02 0. -1.
       -1   -1    0    0    0  501  0.00000000000E+00  0.00000000000E+00 -0.13717350001E+04  0.13717350001E+04  0.50400001928E-02 0.  1.
    10030    2    1    2    0    0  0.00000000000E+00  0.00000000000E+00  0.44354903413E+03  0.31870190343E+04  0.31560029434E+04 0.  0.
        2    1    3    3  502    0 -0.13477219385E+04  0.76367552380E+03  0.52562008780E+03  0.16357968107E+04  0.25500000920E-02 0. -1.
       -2    1    3    3    0  502  0.13477219385E+04 -0.76367552380E+03 -0.82071053672E+02  0.15512222236E+04  0.25500000920E-02 0.  1.
</event>
<event>
 5   0  0.1273754E-06  0.3187637E+04  0.7818609E-02  0.8192090E-01
       -1   -1    0    0    0  501  0.00000000000E+00  0.00000000000E+00  0.16240187147E+04  0.16240187147E+04  0.50400001928E-02 0. -1.
        1   -1    0    0  501    0  0.00000000000E+00  0.00000000000E+00 -0.15641795228E+04  0.15641795228E+04  0.50400001928E-02 0.  1.
    10030    2    1    2    0    0  0.00000000000E+00  0.00000000000E+00  0.59839191914E+02  0.31881982376E+04  0.31876366282E+04 0.  0.
        2    1    3    3  502    0  0.51895242422E+03  0.12325996080E+04  0.89704604804E+03  0.16103741877E+04  0.25500000920E-02 0. -1.
       -2    1    3    3    0  502 -0.51895242422E+03 -0.12325996080E+04 -0.83720685613E+03  0.15778240498E+04  0.25500000920E-02 0.  1.
</event>
<event>
 5   0  0.3531437E-06  0.3228581E+04  0.7818609E-02  0.8181310E-01
       -2   -1    0    0    0  501  0.00000000000E+00  0.00000000000E+00  0.13499805487E+04  0.13499805487E+04  0.25500000920E-02 0.  1.
        2   -1    0    0  501    0  0.00000000000E+00  0.00000000000E+00 -0.19303489433E+04  0.19303489433E+04  0.25500000920E-02 0. -1.
    10030    2    1    2    0    0  0.00000000000E+00  0.00000000000E+00 -0.58036839460E+03  0.32803294921E+04  0.32285808187E+04 0.  0.
        1    1    3    3  502    0  0.12267865040E+04 -0.93048847710E+03  0.20247910910E+03  0.15530008764E+04  0.50400001928E-02 0. -1.
       -1    1    3    3    0  502 -0.12267865040E+04  0.93048847710E+03 -0.78284750370E+03  0.17273286157E+04  0.50400001928E-02 0.  1.
</event>
<event>
 5   0  0.1306843E-06  0.3209189E+04  0.7818609E-02  0.8186394E-01
        1   -1    0    0  501    0  0.00000000000E+00  0.00000000000E+00  0.16720656458E+04  0.16720656459E+04  0.50400001928E-02 0. -1.
       -1   -1    0    0    0  501  0.00000000000E+00  0.00000000000E+00 -0.15398463733E+04  0.15398463733E+04  0.50400001928E-02 0.  1.
    10030    2    1    2    0    0  0.00000000000E+00  0.00000000000E+00  0.13221927252E+03  0.32119120192E+04  0.32091894433E+04 0.  0.
        5    1    3    3  502    0 -0.11369849946E+04  0.19605280142E+03 -0.10499734214E+04  0.15600121328E+04  0.46999998093E+01 0. -1.
       -5    1    3    3    0  502  0.11369849946E+04 -0.19605280142E+03  0.11821926939E+04  0.16518998863E+04  0.46999998093E+01 0.  1.
</event>
<event>
 5   0  0.1273754E-06  0.3149139E+04  0.7818609E-02  0.8202380E-01
        1   -1    0    0  501    0  0.00000000000E+00  0.00000000000E+00  0.22725427546E+04  0.22725427546E+04  0.50400001928E-02 0. -1.
       -1   -1    0    0    0  501  0.00000000000E+00  0.00000000000E+00 -0.10909669314E+04  0.10909669315E+04  0.50400001928E-02 0.  1.
    10030    2    1    2    0    0  0.00000000000E+00  0.00000000000E+00  0.11815758231E+04  0.33635096860E+04  0.31491389271E+04 0.  0.
        2    1    3    3  502    0 -0.66077704242E+03 -0.31705392113E+02 -0.93533733010E+03  0.11456384477E+04  0.25500000920E-02 0.  1.
       -2    1    3    3    0  502  0.66077704242E+03  0.31705392113E+02  0.21169131532E+04  0.22178712384E+04  0.25500000920E-02 0. -1.
</event>
<event>
 5   0  0.1268836E-06  0.3237734E+04  0.7818609E-02  0.8178922E-01
       -1   -1    0    0    0  501  0.00000000000E+00  0.00000000000E+00  0.10940879992E+04  0.10940879992E+04  0.50400001928E-02 0. -1.
        1   -1    0    0  501    0  0.00000000000E+00  0.00000000000E+00 -0.23953565250E+04  0.23953565250E+04  0.50400001928E-02 0.  1.
    10030    2    1    2    0    0  0.00000000000E+00  0.00000000000E+00 -0.13012685258E+04  0.34894445243E+04  0.32377342868E+04 0.  0.
        1    1    3    3  502    0  0.10580050850E+03  0.99324269456E+03  0.72238035360E+03  0.12327036031E+04  0.50400001928E-02 0. -1.
       -1    1    3    3    0  502 -0.10580050850E+03 -0.99324269456E+03 -0.20236488794E+04  0.22567409211E+04  0.50400001928E-02 0.  1.
</event>
<event>
 5   0  0.3745943E-06  0.3083530E+04  0.7818609E-02  0.8220273E-01
        2   -1    0    0  501    0  0.00000000000E+00  0.00000000000E+00  0.19195245974E+04  0.19195245974E+04  0.25500000920E-02 0.  1.
       -2   -1    0    0    0  501  0.00000000000E+00  0.00000000000E+00 -0.12383478735E+04  0.12383478735E+04  0.25500000920E-02 0. -1.
    10030    2    1    2    0    0  0.00000000000E+00  0.00000000000E+00  0.68117672382E+03  0.31578724709E+04  0.30835299275E+04 0.  0.
        5    1    3    3  502    0 -0.39622460189E+03  0.12289410025E+04 -0.52217588865E+03  0.13928315301E+04  0.46999998093E+01 0. -1.
       -5    1    3    3    0  502  0.39622460189E+03 -0.12289410025E+04  0.12033526125E+04  0.17650409408E+04  0.46999998093E+01 0.  1.
</event>
<event>
 5   0  0.3745943E-06  0.3410840E+04  0.7818609E-02  0.8135251E-01
        2   -1    0    0  501    0  0.00000000000E+00  0.00000000000E+00  0.20447733048E+04  0.20447733048E+04  0.25500000920E-02 0. -1.
       -2   -1    0    0    0  501  0.00000000000E+00  0.00000000000E+00 -0.14223865325E+04  0.14223865325E+04  0.25500000920E-02 0.  1.
    10030    2    1    2    0    0  0.00000000000E+00  0.00000000000E+00  0.62238677225E+03  0.34671598373E+04  0.34108403720E+04 0.  0.
        5    1    3    3  502    0 -0.12308335890E+04 -0.10971427839E+04  0.75400341284E+03  0.18130683519E+04  0.46999998093E+01 0. -1.
       -5    1    3    3    0  502  0.12308335890E+04  0.10971427839E+04 -0.13161664059E+03  0.16540914854E+04  0.46999998093E+01 0.  1.
</event>
<event>
 5   0  0.3497546E-06  0.3167720E+04  0.7818609E-02  0.8197395E-01
        2   -1    0    0  501    0  0.00000000000E+00  0.00000000000E+00  0.13096266218E+04  0.13096266218E+04  0.25500000920E-02 0. -1.
       -2   -1    0    0    0  501  0.00000000000E+00  0.00000000000E+00 -0.19155177775E+04  0.19155177775E+04  0.25500000920E-02 0.  1.
    10030    2    1    2    0    0  0.00000000000E+00  0.00000000000E+00 -0.60589115566E+03  0.32251443993E+04  0.31677203639E+04 0.  0.
        4    1    3    3  502    0  0.68489371490E+02  0.65554920242E+03 -0.17692532967E+04  0.18880398279E+04  0.12699999809E+01 0.  1.
       -4    1    3    3    0  502 -0.68489371490E+02 -0.65554920242E+03  0.11633621411E+04  0.13371045715E+04  0.12699999809E+01 0. -1.
</event>
<event>
 5   0  0.1306843E-06  0.3259748E+04  0.7818609E-02  0.8173214E-01
       -1   -1    0    0    0  501  0.00000000000E+00  0.00000000000E+00  0.21816336181E+04  0.21816336181E+04  0.50400001928E-02 0. -1.
        1   -1    0    0  501    0  0.00000000000E+00  0.00000000000E+00 -0.12176606009E+04  0.12176606009E+04  0.50400001928E-02 0.  1.
    10030    2    1    2    0    0  0.00000000000E+00  0.00000000000E+00  0.96397301714E+03  0.33992942190E+04  0.32597480285E+04 0.  0.
        5    1    3    3  502    0 -0.63524784331E+03 -0.10402600015E+04  0.16103358531E+04  0.20196248025E+04  0.46999998093E+01 0. -1.
       -5    1    3    3    0  502  0.63524784331E+03  0.10402600015E+04 -0.64636283593E+03  0.13796694165E+04  0.46999998093E+01 0.  1.
</event>
<event>
 5   0  0.3758062E-06  0.3237197E+04  0.7818609E-02  0.8179062E-01
        2   -1    0    0  501    0  0.00000000000E+00  0.00000000000E+00  0.18334799934E+04  0.18334799934E+04  0.25500000920E-02 0.  1.
       -2   -1    0    0    0  501  0.00000000000E+00  0.00000000000E+00 -0.14289012405E+04  0.14289012405E+04  0.25500000920E-02 0. -1.
    10030    2    1    2    0    0  0.00000000000E+00  0.00000000000E+00  0.40457875297E+03  0.32623812339E+04  0.32371974527E+04 0.  0.
        2    1    3    3  502    0 -0.10163427725E+04  0.10363303519E+04  0.92405132313E+03  0.17206987177E+04  0.25500000920E-02 0. -1.
       -2    1    3    3    0  502  0.10163427725E+04 -0.10363303519E+04 -0.51947257016E+03  0.15416825162E+04  0.25500000920E-02 0.  1.
</event>
<event>
 5   0  0.1273754E-06  0.3249791E+04  0.7818609E-02  0.8175790E-01
       -1   -1    0    0    0  501  0.00000000000E+00  0.00000000000E+00  0.15673732245E+04  0.15673732245E+04  0.50400001928E-02 0. -1.
        1   -1    0    0  501    0  0.00000000000E+00  0.00000000000E+00 -0.16845293253E+04  0.16845293253E+04  0.50400001928E-02 0.  1.
    10030    2    1    2    0    0  0.00000000000E+00  0.00000000000E+00 -0.11715610076E+03  0.32519025498E+04  0.32497914766E+04 0.  0.
        2    1    3    3  502    0  0.80584657490E+03 -0.10532838940E+03 -0.14665469403E+04  0.16766760868E+04  0.25500000920E-02 0.  1.
       -2    1    3    3    0  502 -0.80584657490E+03  0.10532838940E+03  0.13493908396E+04  0.15752264630E+04  0.25500000920E-02 0. -1.
</event>
<event>
 5   0  0.3758062E-06  0.3192846E+04  0.7818609E-02  0.8190709E-01
        2   -1    0    0  501    0  0.00000000000E+00  0.00000000000E+00  0.21906605377E+04  0.21906605377E+04  0.25500000920E-02 0. -1.
       -2   -1    0    0    0  501  0.00000000000E+00  0.00000000000E+00 -0.11633782332E+04  0.11633782332E+04  0.25500000920E-02 0.  1.
    10030    2    1    2    0    0  0.00000000000E+00  0.00000000000E+00  0.10272823045E+04  0.33540387710E+04  0.31928462450E+04 0.  0.
        2    1    3    3  502    0  0.13618799841E+04  0.81744601342E+03  0.34545940335E+03  0.16255083129E+04  0.25500000920E-02 0. -1.
       -2    1    3    3    0  502 -0.13618799841E+04 -0.81744601342E+03  0.68182290111E+03  0.17285304581E+04  0.25500000920E-02 0.  1.
</event>
<event>
 5   0  0.1306843E-06  0.3236224E+04  0.7818609E-02  0.8179316E-01
       -1   -1    0    0    0  501  0.00000000000E+00  0.00000000000E+00  0.92727856495E+03  0.92727856496E+03  0.50400001928E-02 0. -1.
        1   -1    0    0  501    0  0.00000000000E+00  0.00000000000E+00 -0.28236241148E+04  0.28236241148E+04  0.50400001928E-02 0.  1.
    10030    2    1    2    0    0  0.00000000000E+00  0.00000000000E+00 -0.18963455499E+04  0.37509026798E+04  0.32362237977E+04 0.  0.
        5    1    3    3  502    0  0.10178481574E+04  0.11539630596E+04 -0.36793802277E+03  0.15821017960E+04  0.46999998093E+01 0. -1.
       -5    1    3    3    0  502 -0.10178481574E+04 -0.11539630596E+04 -0.15284075271E+04  0.21688008837E+04  0.46999998093E+01 0.  1.
</event>
<event>
 5   0  0.3497546E-06  0.3150184E+04  0.7818609E-02  0.8202099E-01
        2   -1    0    0  501    0  0.00000000000E+00  0.00000000000E+00  0.21009439395E+04  0.21009439395E+04  0.25500000920E-02 0. -1.
       -2   -1    0    0    0  501  0.00000000000E+00  0.00000000000E+00 -0.11808575002E+04  0.11808575002E+04  0.25500000920E-02 0.  1.
    10030    2    1    2    0    0  0.00000000000E+00  0.00000000000E+00  0.92008643926E+03  0.32818014397E+04  0.31501843810E+04 0.  0.
        4    1    3    3  502    0  0.14134256202E+04 -0.35839538305E+03 -0.16040221299E+03  0.14669525273E+04  0.12699999809E+01 0.  1.
       -4    1    3    3    0  502 -0.14134256202E+04  0.35839538305E+03  0.10804886523E+04  0.18148489125E+04  0.12699999809E+01 0. -1.
</event>
<event>
 5   0  0.1268836E-06  0.3008585E+04  0.7818609E-02  0.8241284E-01
        1   -1    0    0  501    0  0.00000000000E+00  0.00000000000E+00  0.11348600356E+04  0.11348600356E+04  0.50400001928E-02 0. -1.
       -1   -1    0    0    0  501  0.00000000000E+00  0.00000000000E+00 -0.19939872978E+04  0.19939872978E+04  0.50400001928E-02 0.  1.
    10030    2    1    2    0    0  0.00000000000E+00  0.00000000000E+00 -0.85912726224E+03  0.31288473334E+04  0.30085853790E+04 0.  0.
        1    1    3    3  502    0  0.51130336813E+03  0.49277366586E+03  0.94958299436E+03  0.11857339007E+04  0.50400001928E-02 0. -1.
       -1    1    3    3    0  502 -0.51130336813E+03 -0.49277366586E+03 -0.18087102566E+04  0.19431134327E+04  0.50400001928E-02 0.  1.
</event>
<event>
 5   0  0.1306843E-06  0.3259482E+04  0.7818609E-02  0.8173282E-01
       -1   -1    0    0    0  501  0.00000000000E+00  0.00000000000E+00  0.16465559546E+04  0.16465559546E+04  0.50400001928E-02 0.  1.
        1   -1    0    0  501    0  0.00000000000E+00  0.00000000000E+00 -0.16130981292E+04  0.16130981292E+04  0.50400001928E-02 0. -1.
    10030    2    1    2    0    0  0.00000000000E+00  0.00000000000E+00  0.33457825411E+02  0.32596540838E+04  0.32594823700E+04 0.  0.
        5    1    3    3  502    0  0.36672942498E+03 -0.65546223387E+03 -0.14296919957E+04  0.16149806512E+04  0.46999998093E+01 0. -1.
       -5    1    3    3    0  502 -0.36672942498E+03  0.65546223387E+03  0.14631498211E+04  0.16446734327E+04  0.46999998093E+01 0.  1.
</event>
<event>
 5   0  0.1268836E-06  0.3225861E+04  0.7818609E-02  0.8182021E-01
        1   -1    0    0  501    0  0.00000000000E+00  0.00000000000E+00  0.17057563245E+04  0.17057563245E+04  0.50400001928E-02 0.  1.
       -1   -1    0    0    0  501  0.00000000000E+00  0.00000000000E+00 -0.15251557651E+04  0.15251557651E+04  0.50400001928E-02 0. -1.
    10030    2    1    2    0    0  0.00000000000E+00  0.00000000000E+00  0.18060055941E+03  0.32309120896E+04  0.32258605625E+04 0.  0.
        1    1    3    3  502    0 -0.96599049785E+03  0.72143429275E+03 -0.98279666372E+03  0.15554723922E+04  0.50400001928E-02 0. -1.
       -1    1    3    3    0  502  0.96599049785E+03 -0.72143429275E+03  0.11633972231E+04  0.16754396974E+04  0.50400001928E-02 0.  1.
</event>
<event>
 5   0  0.3758062E-06  0.3156017E+04  0.7818609E-02  0.8200530E-01
        2   -1    0    0  501    0  0.00000000000E+00  0.00000000000E+00  0.88488609718E+03  0.88488609718E+03  0.25500000920E-02 0. -1.
       -2   -1    0    0    0  501  0.00000000000E+00  0.00000000000E+00 -0.28140468053E+04  0.28140468053E+04  0.25500000920E-02 0.  1.
    10030    2    1    2    0    0  0.00000000000E+00  0.00000000000E+00 -0.19291607081E+04  0.36989329025E+04  0.31560170436E+04 0.  0.
        2    1    3    3  502    0  0.12377510514E+04  0.26365839398E+03  0.14021622583E+03  0.12732650957E+04  0.25500000920E-02 0. -1.
       -2    1    3    3    0  502 -0.12377510514E+04 -0.26365839398E+03 -0.20693769339E+04  0.24256678068E+04  0.25500000920E-02 0.  1.
</event>
<event>
 5   0  0.3656086E-06  0.3200736E+04  0.7818609E-02  0.8188623E-01
       -2   -1    0    0    0  501  0.00000000000E+00  0.00000000000E+00  0.15793241717E+04  0.15793241717E+04  0.25500000920E-02 0.  1.
        2   -1    0    0  501    0  0.00000000000E+00  0.00000000000E+00 -0.16216917835E+04  0.16216917835E+04  0.25500000920E-02 0. -1.
    10030    2    1    2    0    0  0.00000000000E+00  0.00000000000E+00 -0.42367611737E+02  0.32010159552E+04  0.32007355609E+04 0.  0.
        3    1    3    3  502    0  0.32580696564E+03 -0.14864428016E+04  0.47435394124E+03  0.15939492003E+04  0.10100000352E+00 0.  1.
       -3    1    3    3    0  502 -0.32580696564E+03  0.14864428016E+04 -0.51672155298E+03  0.16070667549E+04  0.10100000352E+00 0. -1.
</event>
<event>
 5   0  0.1306843E-06  0.3218944E+04  0.7818609E-02  0.8183832E-01
        1   -1    0    0  501    0  0.00000000000E+00  0.00000000000E+00  0.20692031657E+04  0.20692031657E+04  0.50400001928E-02 0.  1.
       -1   -1    0    0    0  501  0.00000000000E+00  0.00000000000E+00 -0.12518831072E+04  0.12518831072E+04  0.50400001928E-02 0. -1.
    10030    2    1    2    0    0  0.00000000000E+00  0.00000000000E+00  0.81732005859E+03  0.33210862729E+04  0.32189442297E+04 0.  0.
        5    1    3    3  502    0  0.12578893978E+04  0.73343658566E+03 -0.29878244521E+03  0.14864413887E+04  0.46999998093E+01 0. -1.
       -5    1    3    3    0  502 -0.12578893978E+04 -0.73343658566E+03  0.11161025038E+04  0.18346448843E+04  0.46999998093E+01 0.  1.
</event>
<event>
 5   0  0.3745943E-06  0.2924201E+04  0.7818609E-02  0.8265713E-01
        2   -1    0    0  501    0  0.00000000000E+00  0.00000000000E+00  0.16633526341E+04  0.16633526341E+04  0.25500000920E-02 0. -1.
       -2   -1    0    0    0  501  0.00000000000E+00  0.00000000000E+00 -0.12851984752E+04  0.12851984752E+04  0.25500000920E-02 0.  1.
    10030    2    1    2    0    0  0.00000000000E+00  0.00000000000E+00  0.37815415883E+03  0.29485511093E+04  0.29242012715E+04 0.  0.
        5    1    3    3  502    0 -0.74071406678E+03 -0.24846685058E+03 -0.10570629731E+04  0.13144570452E+04  0.46999998093E+01 0.  1.
       -5    1    3    3    0  502  0.74071406678E+03  0.24846685058E+03  0.14352171319E+04  0.16340940641E+04  0.46999998093E+01 0. -1.
</event>
<event>
 5   0  0.3745943E-06  0.3004679E+04  0.7818609E-02  0.8242396E-01
       -2   -1    0    0    0  501  0.00000000000E+00  0.00000000000E+00  0.12541095722E+04  0.12541095722E+04  0.25500000920E-02 0.  1.
        2   -1    0    0  501    0  0.00000000000E+00  0.00000000000E+00 -0.17997021442E+04  0.17997021442E+04  0.25500000920E-02 0. -1.
    10030    2    1    2    0    0  0.00000000000E+00  0.00000000000E+00 -0.54559257202E+03  0.30538117164E+04  0.30046788088E+04 0.  0.
        5    1    3    3  502    0 -0.12034586497E+04  0.73177815262E+03  0.25842600687E+03  0.14319979320E+04  0.46999998093E+01 0.  1.
       -5    1    3    3    0  502  0.12034586497E+04 -0.73177815262E+03 -0.80401857889E+03  0.16218137844E+04  0.46999998093E+01 0. -1.
</event>
<event>
 5   0  0.3745943E-06  0.3056507E+04  0.7818609E-02  0.8227777E-01
        2   -1    0    0  501    0  0.00000000000E+00  0.00000000000E+00  0.17927795265E+04  0.17927795265E+04  0.25500000920E-02 0. -1.
       -2   -1    0    0    0  501  0.00000000000E+00  0.00000000000E+00 -0.13027584969E+04  0.13027584969E+04  0.25500000920E-02 0.  1.
    10030    2    1    2    0    0  0.00000000000E+00  0.00000000000E+00  0.49002102957E+03  0.30955380234E+04  0.30565070006E+04 0.  0.
        5    1    3    3  502    0 -0.95188222733E+02 -0.13671829992E+04  0.92987547636E+03  0.16561825511E+04  0.46999998093E+01 0. -1.
       -5    1    3    3    0  502  0.95188222733E+02  0.13671829992E+04 -0.43985444679E+03  0.14393554723E+04  0.46999998093E+01 0.  1.
</event>
<event>
 5   0  0.1268836E-06  0.3166798E+04  0.7818609E-02  0.8197641E-01
       -1   -1    0    0    0  501  0.00000000000E+00  0.00000000000E+00  0.15089777029E+04  0.15089777029E+04  0.50400001928E-02 0. -1.
        1   -1    0    0  501    0  0.00000000000E+00  0.00000000000E+00 -0.16614907153E+04  0.16614907153E+04  0.50400001928E-02 0.  1.
    10030    2    1    2    0    0  0.00000000000E+00  0.00000000000E+00 -0.15251301233E+03  0.31704684182E+04  0.31667980315E+04 0.  0.
        1    1    3    3  502    0 -0.30379394833E+03 -0.12775429387E+04  0.80949809269E+03  0.15426256465E+04  0.50400001928E-02 0. -1.
       -1    1    3    3    0  502  0.30379394833E+03  0.12775429387E+04 -0.96201110502E+03  0.16278427717E+04  0.50400001928E-02 0.  1.
</event>
<event>
 5   0  0.3497546E-06  0.3183919E+04  0.7818609E-02  0.8193077E-01
       -2   -1    0    0    0  501  0.00000000000E+00  0.00000000000E+00  0.14906526451E+04  0.14906526451E+04  0.25500000920E-02 0.  1.
        2   -1    0    0  501    0  0.00000000000E+00  0.00000000000E+00 -0.17001512244E+04  0.17001512244E+04  0.25500000920E-02 0. -1.
    10030    2    1    2    0    0  0.00000000000E+00  0.00000000000E+00 -0.20949857931E+03  0.31908038694E+04  0.31839189183E+04 0.  0.
        4    1    3    3  502    0  0.57336443144E+03  0.11863566588E+04 -0.10000704517E+04  0.16541860277E+04  0.12699999809E+01 0. -1.
       -4    1    3    3    0  502 -0.57336443144E+03 -0.11863566588E+04  0.79057187235E+03  0.15366178417E+04  0.12699999809E+01 0.  1.
</event>
<event>
 5   0  0.1268836E-06  0.3177033E+04  0.7818609E-02  0.8194909E-01
        1   -1    0    0  501    0  0.00000000000E+00  0.00000000000E+00  0.14006493132E+04  0.14006493132E+04  0.50400001928E-02 0.  1.
       -1   -1    0    0    0  501  0.00000000000E+00  0.00000000000E+00 -0.18015820618E+04  0.18015820618E+04  0.50400001928E-02 0. -1.
    10030    2    1    2    0    0  0.00000000000E+00  0.00000000000E+00 -0.40093274860E+03  0.32022313751E+04  0.31770330043E+04 0.  0.
        1    1    3    3  502    0  0.13062349322E+04 -0.81425580050E+03 -0.59616447288E+03  0.16506587429E+04  0.50400001928E-02 0. -1.
       -1    1    3    3    0  502 -0.13062349322E+04  0.81425580050E+03  0.19523172428E+03  0.15515726322E+04  0.50400001928E-02 0.  1.
</event>
<event>
 5   0  0.1240725E-06  0.3226906E+04  0.7818609E-02  0.8181747E-01
       -1   -1    0    0    0  501  0.00000000000E+00  0.00000000000E+00  0.13487738750E+04  0.13487738750E+04  0.50400001928E-02 0. -1.
        1   -1    0    0  501    0  0.00000000000E+00  0.00000000000E+00 -0.19300718564E+04  0.19300718564E+04  0.50400001928E-02 0.  1.
    10030    2    1    2    0    0  0.00000000000E+00  0.00000000000E+00 -0.58129798133E+03  0.32788457314E+04  0.32269059464E+04 0.  0.
        3    1    3    3  502    0 -0.16101772473E+04  0.10223756469E+03 -0.30116934750E+03  0.16412879922E+04  0.10100000352E+00 0.  1.
       -3    1    3    3    0  502  0.16101772473E+04 -0.10223756469E+03 -0.28012863383E+03  0.16375577392E+04  0.10100000352E+00 0. -1.
</event>
<event>
 5   0  0.1273754E-06  0.3210340E+04  0.7818609E-02  0.8186092E-01
       -1   -1    0    0    0  501  0.00000000000E+00  0.00000000000E+00  0.85921333091E+03  0.85921333092E+03  0.50400001928E-02 0.  1.
        1   -1    0    0  501    0  0.00000000000E+00  0.00000000000E+00 -0.29987546391E+04  0.29987546391E+04  0.50400001928E-02 0. -1.
    10030    2    1    2    0    0  0.00000000000E+00  0.00000000000E+00 -0.21395413082E+04  0.38579679700E+04  0.32103395223E+04 0.  0.
        2    1    3    3  502    0  0.43335871264E+03  0.13135358852E+04 -0.20485691939E+04  0.24718033979E+04  0.25500000920E-02 0. -1.
       -2    1    3    3    0  502 -0.43335871264E+03 -0.13135358852E+04 -0.90972114316E+02  0.13861645722E+04  0.25500000920E-02 0.  1.
</event>
<event>
 5   0  0.3497546E-06  0.2546736E+04  0.7818609E-02  0.8386522E-01
       -2   -1    0    0    0  501  0.00000000000E+00  0.00000000000E+00  0.11491680688E+04  0.11491680688E+04  0.25500000920E-02 0. -1.
        2   -1    0    0  501    0  0.00000000000E+00  0.00000000000E+00 -0.14109914638E+04  0.14109914638E+04  0.25500000920E-02 0.  1.
    10030    2    1    2    0    0  0.00000000000E+00  0.00000000000E+00 -0.26182339500E+03  0.25601595327E+04  0.25467362138E+04 0.  0.
        4    1    3    3  502    0 -0.36944666378E+03 -0.10056583001E+04 -0.82274346034E+03  0.13508322873E+04  0.12699999809E+01 0.  1.
       -4    1    3    3    0  502  0.36944666378E+03  0.10056583001E+04  0.56092006534E+03  0.12093272454E+04  0.12699999809E+01 0. -1.
</event>
<event>
 5   0  0.1273980E-06  0.3196488E+04  0.7818609E-02  0.8189745E-01
        1   -1    0    0  501    0  0.00000000000E+00  0.00000000000E+00  0.22784223857E+04  0.22784223857E+04  0.50400001928E-02 0. -1.
       -1   -1    0    0    0  501  0.00000000000E+00  0.00000000000E+00 -0.11211194467E+04  0.11211194467E+04  0.50400001928E-02 0.  1.
    10030    2    1    2    0    0  0.00000000000E+00  0.00000000000E+00  0.11573029390E+04  0.33995418324E+04  0.31964878504E+04 0.  0.
        4    1    3    3  502    0 -0.53992421817E+02 -0.74079951854E+03  0.20837101363E+04  0.22121366714E+04  0.12699999809E+01 0. -1.
       -4    1    3    3    0  502  0.53992421817E+02  0.74079951854E+03 -0.92640719727E+03  0.11874051610E+04  0.12699999809E+01 0.  1.
</event>
<event>
 5   0  0.1240725E-06  0.3009820E+04  0.7818609E-02  0.8240932E-01
        1   -1    0    0  501    0  0.00000000000E+00  0.00000000000E+00  0.26394058885E+04  0.26394058885E+04  0.50400001928E-02 0.  1.
       -1   -1    0    0    0  501  0.00000000000E+00  0.00000000000E+00 -0.85805474557E+03  0.85805474559E+03  0.50400001928E-02 0. -1.
    10030    2    1    2    0    0  0.00000000000E+00  0.00000000000E+00  0.17813511429E+04  0.34974606341E+04  0.30098204253E+04 0.  0.
        3    1    3    3  502    0  0.18016342005E+03 -0.75912508795E+03 -0.60468419580E+03  0.98710320835E+03  0.10100000352E+00 0. -1.
       -3    1    3    3    0  502 -0.18016342005E+03  0.75912508795E+03  0.23860353387E+04  0.25103574257E+04  0.10100000352E+00 0.  1.
</event>
<event>
 5   0  0.3531437E-06  0.3202877E+04  0.7818609E-02  0.8188058E-01
        2   -1    0    0  501    0  0.00000000000E+00  0.00000000000E+00  0.15246856980E+04  0.15246856980E+04  0.25500000920E-02 0.  1.
       -2   -1    0    0    0  501  0.00000000000E+00  0.00000000000E+00 -0.16820552244E+04  0.16820552244E+04  0.25500000920E-02 0. -1.
    10030    2    1    2    0    0  0.00000000000E+00  0.00000000000E+00 -0.15736952634E+03  0.32067409224E+04  0.32028771715E+04 0.  0.
        1    1    3    3  502    0  0.96313847951E+03  0.93309999578E+03 -0.95512309250E+03  0.16463813212E+04  0.50400001928E-02 0. -1.
       -1    1    3    3    0  502 -0.96313847951E+03 -0.93309999578E+03  0.79775356617E+03  0.15603596012E+04  0.50400001928E-02 0.  1.
</event>
<event>
 5   0  0.3745943E-06  0.3123835E+04  0.7818609E-02  0.8209227E-01
        2   -1    0    0  501    0  0.00000000000E+00  0.00000000000E+00  0.16464920110E+04  0.16464920110E+04  0.25500000920E-02 0.  1.
       -2   -1    0    0    0  501  0.00000000000E+00  0.00000000000E+00 -0.14816871666E+04  0.14816871666E+04  0.25500000920E-02 0. -1.
    10030    2    1    2    0    0  0.00000000000E+00  0.00000000000E+00  0.16480484440E+03  0.31281791776E+04  0.31238348757E+04 0.  0.
        5    1    3    3  502    0  0.13373539496E+04  0.80672867921E+03  0.97826580104E+02  0.15649021944E+04  0.46999998093E+01 0. -1.
       -5    1    3    3    0  502 -0.13373539496E+04 -0.80672867921E+03  0.66978264291E+02  0.15632769832E+04  0.46999998093E+01 0.  1.
</event>
<event>
 5   0  0.1273980E-06  0.3189633E+04  0.7818609E-02  0.8191560E-01
        1   -1    0    0  501    0  0.00000000000E+00  0.00000000000E+00  0.25371200082E+04  0.25371200082E+04  0.50400001928E-02 0.  1.
       -1   -1    0    0    0  501  0.00000000000E+00  0.00000000000E+00 -0.10024907585E+04  0.10024907585E+04  0.50400001928E-02 0. -1.
    10030    2    1    2    0    0  0.00000000000E+00  0.00000000000E+00  0.15346292496E+04  0.35396107667E+04  0.31896328074E+04 0.  0.
        4    1    3    3  502    0  0.23034353363E+03 -0.15745450085E+04  0.88469181200E+03  0.18206952909E+04  0.12699999809E+01 0.  1.
       -4    1    3    3    0  502 -0.23034353363E+03  0.15745450085E+04  0.64993743763E+03  0.17189154758E+04  0.12699999809E+01 0. -1.
</event>
<event>
 5   0  0.3497546E-06  0.3195387E+04  0.7818609E-02  0.8190037E-01
       -2   -1    0    0    0  501  0.00000000000E+00  0.00000000000E+00  0.30563362689E+04  0.30563362689E+04  0.25500000920E-02 0. -1.
        2   -1    0    0  501    0  0.00000000000E+00  0.00000000000E+00 -0.83519078060E+03  0.83519078060E+03  0.25500000920E-02 0.  1.
    10030    2    1    2    0    0  0.00000000000E+00  0.00000000000E+00  0.22211454883E+04  0.38915270495E+04  0.31953865959E+04 0.  0.
        4    1    3    3  502    0 -0.11008905853E+04  0.24483978197E+03  0.24888068879E+04  0.27324106459E+04  0.12699999809E+01 0. -1.
       -4    1    3    3    0  502  0.11008905853E+04 -0.24483978197E+03 -0.26766139953E+03  0.11591164037E+04  0.12699999809E+01 0.  1.
</event>
<event>
 5   0  0.3758062E-06  0.3173664E+04  0.7818609E-02  0.8195807E-01
        2   -1    0    0  501    0  0.00000000000E+00  0.00000000000E+00  0.24521329158E+04  0.24521329158E+04  0.25500000920E-02 0. -1.
       -2   -1    0    0    0  501  0.00000000000E+00  0.00000000000E+00 -0.10268757506E+04  0.10268757506E+04  0.25500000920E-02 0.  1.
    10030    2    1    2    0    0  0.00000000000E+00  0.00000000000E+00  0.14252571652E+04  0.34790086664E+04  0.31736640203E+04 0.  0.
        2    1    3    3  502    0 -0.49092554493E+03  0.15367884727E+03  0.23581924516E+04  0.24136480103E+04  0.25500000920E-02 0. -1.
       -2    1    3    3    0  502  0.49092554493E+03 -0.15367884727E+03 -0.93293528641E+03  0.10653606560E+04  0.25500000920E-02 0.  1.
</event>
<event>
 5   0  0.1268836E-06  0.2733879E+04  0.7818609E-02  0.8324096E-01
        1   -1    0    0  501    0  0.00000000000E+00  0.00000000000E+00  0.14507265061E+04  0.14507265061E+04  0.50400001928E-02 0. -1.
       -1   -1    0    0    0  501  0.00000000000E+00  0.00000000000E+00 -0.12879912921E+04  0.12879912921E+04  0.50400001928E-02 0.  1.
    10030    2    1    2    0    0  0.00000000000E+00  0.00000000000E+00  0.16273521399E+03  0.27387177981E+04  0.27338786418E+04 0.  0.
        1    1    3    3  502    0 -0.17863471933E+03  0.12688885199E+04 -0.39543145161E+03  0.13410273941E+04  0.50400001928E-02 0.  1.
       -1    1    3    3    0  502  0.17863471933E+03 -0.12688885199E+04  0.55816666561E+03  0.13976904040E+04  0.50400001928E-02 0. -1.
</event>
<event>
 5   0  0.3758062E-06  0.3235558E+04  0.7818609E-02  0.8179489E-01
        2   -1    0    0  501    0  0.00000000000E+00  0.00000000000E+00  0.14048676592E+04  0.14048676592E+04  0.25500000920E-02 0.  1.
       -2   -1    0    0    0  501  0.00000000000E+00  0.00000000000E+00 -0.18629580890E+04  0.18629580890E+04  0.25500000920E-02 0. -1.
    10030    2    1    2    0    0  0.00000000000E+00  0.00000000000E+00 -0.45809042984E+03  0.32678257482E+04  0.32355584184E+04 0.  0.
        2    1    3    3  502    0 -0.83482280135E+03  0.10947069505E+04  0.62907337275E+03  0.15136200730E+04  0.25500000920E-02 0.  1.
       -2    1    3    3    0  502  0.83482280135E+03 -0.10947069505E+04 -0.10871638026E+04  0.17542056752E+04  0.25500000920E-02 0. -1.
</event>
<event>
 5   0  0.1273754E-06  0.2714782E+04  0.7818609E-02  0.8330225E-01
       -1   -1    0    0    0  501  0.00000000000E+00  0.00000000000E+00  0.29646658472E+04  0.29646658472E+04  0.50400001928E-02 0.  1.
        1   -1    0    0  501    0  0.00000000000E+00  0.00000000000E+00 -0.62148992040E+03  0.62148992042E+03  0.50400001928E-02 0. -1.
    10030    2    1    2    0    0  0.00000000000E+00  0.00000000000E+00  0.23431759268E+04  0.35861557677E+04  0.27147817161E+04 0.  0.
        2    1    3    3  502    0  0.15912042015E+03 -0.13304416786E+04  0.88485575942E+03  0.16057285211E+04  0.25500000920E-02 0.  1.
       -2    1    3    3    0  502 -0.15912042015E+03  0.13304416786E+04  0.14583201674E+04  0.19804272466E+04  0.25500000920E-02 0. -1.
</event>
<event>
 5   0  0.1273980E-06  0.3051287E+04  0.7818609E-02  0.8229235E-01
       -1   -1    0    0    0  501  0.00000000000E+00  0.00000000000E+00  0.10797747062E+04  0.10797747062E+04  0.50400001928E-02 0.  1.
        1   -1    0    0  501    0  0.00000000000E+00  0.00000000000E+00 -0.21556238319E+04  0.21556238319E+04  0.50400001928E-02 0. -1.
    10030    2    1    2    0    0  0.00000000000E+00  0.00000000000E+00 -0.10758491257E+04  0.32353985381E+04  0.30512870005E+04 0.  0.
        4    1    3    3  502    0  0.15230786362E+03 -0.70176302084E+03 -0.19652201742E+04  0.20923099600E+04  0.12699999809E+01 0. -1.
       -4    1    3    3    0  502 -0.15230786362E+03  0.70176302084E+03  0.88937104845E+03  0.11430885781E+04  0.12699999809E+01 0.  1.
</event>
<event>
 5   0  0.3531437E-06  0.3188004E+04  0.7818609E-02  0.8191993E-01
       -2   -1    0    0    0  501  0.00000000000E+00  0.00000000000E+00  0.12845117104E+04  0.12845117104E+04  0.25500000920E-02 0. -1.
        2   -1    0    0  501    0  0.00000000000E+00  0.00000000000E+00 -0.19780603377E+04  0.19780603377E+04  0.25500000920E-02 0.  1.
    10030    2    1    2    0    0  0.00000000000E+00  0.00000000000E+00 -0.69354862731E+03  0.32625720481E+04  0.31880035556E+04 0.  0.
        1    1    3    3  502    0 -0.90931949806E+03 -0.51384586181E+02  0.99200619631E+03  0.13466917312E+04  0.50400001928E-02 0. -1.
       -1    1    3    3    0  502  0.90931949806E+03  0.51384586181E+02 -0.16855548236E+04  0.19158803169E+04  0.50400001928E-02 0.  1.
</event>
<event>
 5   0  0.3758062E-06  0.3137680E+04  0.7818609E-02  0.8205472E-01
       -2   -1    0    0    0  501  0.00000000000E+00  0.00000000000E+00  0.15250019383E+04  0.15250019383E+04  0.25500000920E-02 0.  1.
        2   -1    0    0  501    0  0.00000000000E+00  0.00000000000E+00 -0.16139378643E+04  0.16139378643E+04  0.25500000920E-02 0. -1.
    10030    2    1    2    0    0  0.00000000000E+00  0.00000000000E+00 -0.88935926025E+02  0.31389398026E+04  0.31376796340E+04 0.  0.
        2    1    3    3  502    0 -0.54960266015E+03  0.11382915661E+04  0.88514557632E+03  0.15431310588E+04  0.25500000920E-02 0.  1.
       -2    1    3    3    0  502  0.54960266015E+03 -0.11382915661E+04 -0.97408150234E+03  0.15958087438E+04  0.25500000920E-02 0. -1.
</event>
<event>
 5   0  0.1268836E-06  0.3222738E+04  0.7818609E-02  0.8182838E-01
        1   -1    0    0  501    0  0.00000000000E+00  0.00000000000E+00  0.15867553500E+04  0.15867553500E+04  0.50400001928E-02 0. -1.
       -1   -1    0    0    0  501  0.00000000000E+00  0.00000000000E+00 -0.16363641134E+04  0.16363641134E+04  0.50400001928E-02 0.  1.
    10030    2    1    2    0    0  0.00000000000E+00  0.00000000000E+00 -0.49608763436E+02  0.32231194634E+04  0.32227376632E+04 0.  0.
        1    1    3    3  502    0 -0.49406915981E+02 -0.13707427879E+04  0.82095098025E+03  0.15985422565E+04  0.50400001928E-02 0. -1.
       -1    1    3    3    0  502  0.49406915981E+02  0.13707427879E+04 -0.87055974369E+03  0.16245772069E+04  0.50400001928E-02 0.  1.
</event>
<event>
 5   0  0.1273754E-06  0.3183760E+04  0.7818609E-02  0.8193119E-01
        1   -1    0    0  501    0  0.00000000000E+00  0.00000000000E+00  0.28183341262E+04  0.28183341262E+04  0.50400001928E-02 0.  1.
       -1   -1    0    0    0  501  0.00000000000E+00  0.00000000000E+00 -0.89914155018E+03  0.89914155019E+03  0.50400001928E-02 0. -1.
    10030    2    1    2    0    0  0.00000000000E+00  0.00000000000E+00  0.19191925760E+04  0.37174756764E+04  0.31837596110E+04 0.  0.
        2    1    3    3  502    0 -0.12809167036E+04 -0.93529114780E+03  0.11186873502E+04  0.19408705573E+04  0.25500000920E-02 0.  1.
       -2    1    3    3    0  502  0.12809167036E+04  0.93529114780E+03  0.80050522577E+03  0.17766051191E+04  0.25500000920E-02 0. -1.
</event>
<event>
 5   0  0.3531437E-06  0.3216226E+04  0.7818609E-02  0.8184545E-01
       -2   -1    0    0    0  501  0.00000000000E+00  0.00000000000E+00  0.79532958680E+03  0.79532958680E+03  0.25500000920E-02 0.  1.
        2   -1    0    0  501    0  0.00000000000E+00  0.00000000000E+00 -0.32515162110E+04  0.32515162110E+04  0.25500000920E-02 0. -1.
    10030    2    1    2    0    0  0.00000000000E+00  0.00000000000E+00 -0.24561866242E+04  0.40468457978E+04  0.32162257660E+04 0.  0.
        1    1    3    3  502    0 -0.13496969469E+04  0.65060465777E+02 -0.13108727254E+03  0.13576076700E+04  0.50400001928E-02 0.  1.
       -1    1    3    3    0  502  0.13496969469E+04 -0.65060465777E+02 -0.23250993516E+04  0.26892381277E+04  0.50400001928E-02 0. -1.
</event>
<event>
 5   0  0.1273754E-06  0.3241068E+04  0.7818609E-02  0.8178055E-01
        1   -1    0    0  501    0  0.00000000000E+00  0.00000000000E+00  0.27731745414E+04  0.27731745414E+04  0.50400001928E-02 0.  1.
       -1   -1    0    0    0  501  0.00000000000E+00  0.00000000000E+00 -0.94697634919E+03  0.94697634920E+03  0.50400001928E-02 0. -1.
    10030    2    1    2    0    0  0.00000000000E+00  0.00000000000E+00  0.18261981922E+04  0.37201508906E+04  0.32410681591E+04 0.  0.
        2    1    3    3  502    0  0.43696314468E+03  0.29670482766E+03  0.26716046871E+04  0.27233145519E+04  0.25500000920E-02 0.  1.
       -2    1    3    3    0  502 -0.43696314468E+03 -0.29670482766E+03 -0.84540649487E+03  0.99683633870E+03  0.25500000920E-02 0. -1.
</event>
<event>
 5   0  0.1240725E-06  0.3227778E+04  0.7818609E-02  0.8181519E-01
       -1   -1    0    0    0  501  0.00000000000E+00  0.00000000000E+00  0.96054738201E+03  0.96054738203E+03  0.50400001928E-02 0.  1.
        1   -1    0    0  501    0  0.00000000000E+00  0.00000000000E+00 -0.27116187883E+04  0.27116187884E+04  0.50400001928E-02 0. -1.
    10030    2    1    2    0    0  0.00000000000E+00  0.00000000000E+00 -0.17510714063E+04  0.36721661704E+04  0.32277783866E+04 0.  0.
        3    1    3    3  502    0 -0.39639038430E+03  0.14425931668E+04 -0.18685354713E+03  0.15076851926E+04  0.10100000352E+00 0.  1.
       -3    1    3    3    0  502  0.39639038430E+03 -0.14425931668E+04 -0.15642178592E+04  0.21644809777E+04  0.10100000352E+00 0. -1.
</event>
<event>
 5   0  0.3497546E-06  0.3190461E+04  0.7818609E-02  0.8191341E-01
        2   -1    0    0  501    0  0.00000000000E+00  0.00000000000E+00  0.17573285363E+04  0.17573285363E+04  0.25500000920E-02 0.  1.
       -2   -1    0    0    0  501  0.00000000000E+00  0.00000000000E+00 -0.14480845431E+04  0.14480845431E+04  0.25500000920E-02 0. -1.
    10030    2    1    2    0    0  0.00000000000E+00  0.00000000000E+00  0.30924399323E+03  0.32054130794E+04  0.31904609639E+04 0.  0.
        4    1    3    3  502    0  0.63266115274E+03  0.83265659079E+02  0.16235153722E+04  0.17444188376E+04  0.12699999809E+01 0.  1.
       -4    1    3    3    0  502 -0.63266115274E+03 -0.83265659079E+02 -0.13142713790E+04  0.14609942418E+04  0.12699999809E+01 0. -1.
</event>
<event>
 5   0  0.3497546E-06  0.3176857E+04  0.7818609E-02  0.8194956E-01
        2   -1    0    0  501    0  0.00000000000E+00  0.00000000000E+00  0.20165808426E+04  0.20165808426E+04  0.25500000920E-02 0.  1.
       -2   -1    0    0    0  501  0.00000000000E+00  0.00000000000E+00 -0.12511794773E+04  0.12511794773E+04  0.25500000920E-02 0. -1.
    10030    2    1    2    0    0  0.00000000000E+00  0.00000000000E+00  0.76540136528E+03  0.32677603199E+04  0.31768566632E+04 0.  0.
        4    1    3    3  502    0  0.85272912947E+03 -0.69073673398E+03 -0.79856727505E+03  0.13571939838E+04  0.12699999809E+01 0. -1.
       -4    1    3    3    0  502 -0.85272912947E+03  0.69073673398E+03  0.15639686403E+04  0.19105663361E+04  0.12699999809E+01 0.  1.
</event>
<event>
 5   0  0.3497546E-06  0.3190445E+04  0.7818609E-02  0.8191345E-01
        2   -1    0    0  501    0  0.00000000000E+00  0.00000000000E+00  0.15286672133E+04  0.15286672133E+04  0.25500000920E-02 0. -1.
       -2   -1    0    0    0  501  0.00000000000E+00  0.00000000000E+00 -0.16646758017E+04  0.16646758017E+04  0.25500000920E-02 0.  1.
    10030    2    1    2    0    0  0.00000000000E+00  0.00000000000E+00 -0.13600858844E+03  0.31933430150E+04  0.31904453099E+04 0.  0.
        4    1    3    3  502    0 -0.15519126937E+04  0.41848998203E+02 -0.43514715048E+03  0.16123085942E+04  0.12699999809E+01 0.  1.
       -4    1    3    3    0  502  0.15519126937E+04 -0.41848998203E+02  0.29913856204E+03  0.15810344208E+04  0.12699999809E+01 0. -1.
</event>
<event>
 5   0  0.3656086E-06  0.3189769E+04  0.7818609E-02  0.8191524E-01
        2   -1    0    0  501    0  0.00000000000E+00  0.00000000000E+00  0.21489080571E+04  0.21489080571E+04  0.25500000920E-02 0. -1.
       -2   -1    0    0    0  501  0.00000000000E+00  0.00000000000E+00 -0.11836976223E+04  0.11836976223E+04  0.25500000920E-02 0.  1.
    10030    2    1    2    0    0  0.00000000000E+00  0.00000000000E+00  0.96521043481E+03  0.33326056793E+04  0.31897694949E+04 0.  0.
        3    1    3    3  502    0 -0.82741853854E+03 -0.14535702782E+03  0.18990068689E+04  0.20765300869E+04  0.10100000352E+00 0. -1.
       -3    1    3    3    0  502  0.82741853854E+03  0.14535702782E+03 -0.93379643409E+03  0.12560755925E+04  0.10100000352E+00 0.  1.
</event>
<event>
 5   0  0.1268836E-06  0.3204906E+04  0.7818609E-02  0.8187523E-01
       -1   -1    0    0    0  501  0.00000000000E+00  0.00000000000E+00  0.16820905389E+04  0.16820905389E+04  0.50400001928E-02 0. -1.
        1   -1    0    0  501    0  0.00000000000E+00  0.00000000000E+00 -0.15265855155E+04  0.15265855155E+04  0.50400001928E-02 0.  1.
    10030    2    1    2    0    0  0.00000000000E+00  0.00000000000E+00  0.15550502339E+03  0.32086760544E+04  0.32049056475E+04 0.  0.
        1    1    3    3  502    0 -0.62557132493E+03  0.52757320953E+03 -0.13016136228E+04  0.15374885356E+04  0.50400001928E-02 0.  1.
       -1    1    3    3    0  502  0.62557132493E+03 -0.52757320953E+03  0.14571186462E+04  0.16711875188E+04  0.50400001928E-02 0. -1.
</event>
<event>
 5   0  0.3758062E-06  0.3171831E+04  0.7818609E-02  0.8196296E-01
        2   -1    0    0  501    0  0.00000000000E+00  0.00000000000E+00  0.34725178600E+04  0.34725178600E+04  0.25500000920E-02 0.  1.
       -2   -1    0    0    0  501  0.00000000000E+00  0.00000000000E+00 -0.72429534294E+03  0.72429534295E+03  0.25500000920E-02 0. -1.
    10030    2    1    2    0    0  0.00000000000E+00  0.00000000000E+00  0.27482225171E+04  0.41968132030E+04  0.31718313412E+04 0.  0.
        2    1    3    3  502    0  0.13971946919E+04  0.15288225542E+03  0.40215540568E+03  0.14619353479E+04  0.25500000920E-02 0. -1.
       -2    1    3    3    0  502 -0.13971946919E+04 -0.15288225542E+03  0.23460671114E+04  0.27348778551E+04  0.25500000920E-02 0.  1.
</event>
<event>
 5   0  0.3531437E-06  0.3089451E+04  0.7818609E-02  0.8218639E-01
        2   -1    0    0  501    0  0.00000000000E+00  0.00000000000E+00  0.16568245958E+04  0.16568245958E+04  0.25500000920E-02 0.  1.
       -2   -1    0    0    0  501  0.00000000000E+00  0.00000000000E+00 -0.14402105864E+04  0.14402105864E+04  0.25500000920E-02 0. -1.
    10030    2    1    2    0    0  0.00000000000E+00  0.00000000000E+00  0.21661400936E+03  0.30970351822E+04  0.30894506455E+04 0.  0.
        1    1    3    3  502    0  0.13957843676E+03 -0.98010285951E+03  0.12970058301E+04  0.16316580152E+04  0.50400001928E-02 0.  1.
       -1    1    3    3    0  502 -0.13957843676E+03  0.98010285951E+03 -0.10803918208E+04  0.14653771670E+04  0.50400001928E-02 0. -1.
</event>
<event>
 5   0  0.1273754E-06  0.3194428E+04  0.7818609E-02  0.8190290E-01
        1   -1    0    0  501    0  0.00000000000E+00  0.00000000000E+00  0.94163729748E+03  0.94163729749E+03  0.50400001928E-02 0.  1.
       -1   -1    0    0    0  501  0.00000000000E+00  0.00000000000E+00 -0.27092101124E+04  0.27092101124E+04  0.50400001928E-02 0. -1.
    10030    2    1    2    0    0  0.00000000000E+00  0.00000000000E+00 -0.17675728149E+04  0.36508474099E+04  0.31944284550E+04 0.  0.
        2    1    3    3  502    0  0.58491574153E+03  0.51183732942E+03 -0.24784985856E+04  0.25975101762E+04  0.25500000920E-02 0. -1.
       -2    1    3    3    0  502 -0.58491574153E+03 -0.51183732942E+03  0.71092577070E+03  0.10533372337E+04  0.25500000920E-02 0.  1.
</event>
<event>
 5   0  0.1273754E-06  0.3161262E+04  0.7818609E-02  0.8199123E-01
       -1   -1    0    0    0  501  0.00000000000E+00  0.00000000000E+00  0.10832099729E+04  0.10832099730E+04  0.50400001928E-02 0. -1.
        1   -1    0    0  501    0  0.00000000000E+00  0.00000000000E+00 -0.23064722049E+04  0.23064722049E+04  0.50400001928E-02 0.  1.
    10030    2    1    2    0    0  0.00000000000E+00  0.00000000000E+00 -0.12232622319E+04  0.33896821778E+04  0.31612615802E+04 0.  0.
        2    1    3    3  502    0  0.94554242031E+03 -0.98338012007E+03  0.24436700460E+03  0.13859300711E+04  0.25500000920E-02 0. -1.
       -2    1    3    3    0  502 -0.94554242031E+03  0.98338012007E+03 -0.14676292365E+04  0.20037521067E+04  0.25500000920E-02 0.  1.
</event>
<event>
 5   0  0.3531437E-06  0.3191080E+04  0.7818609E-02  0.8191177E-01
        2   -1    0    0  501    0  0.00000000000E+00  0.00000000000E+00  0.21001005683E+04  0.21001005683E+04  0.25500000920E-02 0. -1.
       -2   -1    0    0    0  501  0.00000000000E+00  0.00000000000E+00 -0.12122027939E+04  0.12122027939E+04  0.25500000920E-02 0.  1.
    10030    2    1    2    0    0  0.00000000000E+00  0.00000000000E+00  0.88789777438E+03  0.33123033622E+04  0.31910799278E+04 0.  0.
        1    1    3    3  502    0 -0.76774611974E+03 -0.26436575496E+03  0.18695962927E+04  0.20383114714E+04  0.50400001928E-02 0. -1.
       -1    1    3    3    0  502  0.76774611974E+03  0.26436575496E+03 -0.98169851835E+03  0.12739918908E+04  0.50400001928E-02 0.  1.
</event>
<event>
 5   0  0.3497546E-06  0.3187227E+04  0.7818609E-02  0.8192199E-01
       -2   -1    0    0    0  501  0.00000000000E+00  0.00000000000E+00  0.10383626251E+04  0.10383626251E+04  0.25500000920E-02 0.  1.
        2   -1    0    0  501    0  0.00000000000E+00  0.00000000000E+00 -0.24457775857E+04  0.24457775857E+04  0.25500000920E-02 0. -1.
    10030    2    1    2    0    0  0.00000000000E+00  0.00000000000E+00 -0.14074149606E+04  0.34841402107E+04  0.31872270294E+04 0.  0.
        4    1    3    3  502    0  0.12949911259E+04 -0.92551055637E+03 -0.78859882786E+03  0.17763618805E+04  0.12699999809E+01 0.  1.
       -4    1    3    3    0  502 -0.12949911259E+04  0.92551055637E+03 -0.61881613275E+03  0.17077783303E+04  0.12699999809E+01 0. -1.
</event>
<event>
 5   0  0.3497546E-06  0.3213559E+04  0.7818609E-02  0.8185245E-01
        2   -1    0    0  501    0  0.00000000000E+00  0.00000000000E+00  0.19653235909E+04  0.19653235909E+04  0.25500000920E-02 0. -1.
       -2   -1    0    0    0  501  0.00000000000E+00  0.00000000000E+00 -0.13136468361E+04  0.13136468361E+04  0.25500000920E-02 0.  1.
    10030    2    1    2    0    0  0.00000000000E+00  0.00000000000E+00  0.65167675479E+03  0.32789704270E+04  0.32135594702E+04 0.  0.
        4    1    3    3  502    0  0.19489600686E+03 -0.11135490632E+04  0.14909044978E+04  0.18710354898E+04  0.12699999809E+01 0. -1.
       -4    1    3    3    0  502 -0.19489600686E+03  0.11135490632E+04 -0.83922774302E+03  0.14079349371E+04  0.12699999809E+01 0.  1.
</event>
<event>
 5   0  0.1240725E-06  0.3143060E+04  0.7818609E-02  0.8204019E-01
        1   -1    0    0  501    0  0.00000000000E+00  0.00000000000E+00  0.24827196264E+04  0.24827196264E+04  0.50400001928E-02 0.  1.
       -1   -1    0    0    0  501  0.00000000000E+00  0.00000000000E+00 -0.99475861830E+03  0.99475861831E+03  0.50400001928E-02 0. -1.
    10030    2    1    2    0    0  0.00000000000E+00  0.00000000000E+00  0.14879610081E+04  0.34774782447E+04  0.31430601300E+04 0.  0.
        3    1    3    3  502    0 -0.66279460208E+02 -0.14386571781E+04  0.48109874666E+02  0.14409864722E+04  0.10100000352E+00 0. -1.
       -3    1    3    3    0  502  0.66279460208E+02  0.14386571781E+04  0.14398511334E+04  0.20364917725E+04  0.10100000352E+00 0.  1.
</event>
<event>
 5   0  0.1306843E-06  0.2359929E+04  0.7818609E-02  0.8454660E-01
        1   -1    0    0  501    0  0.00000000000E+00  0.00000000000E+00  0.17414269986E+04  0.17414269986E+04  0.50400001928E-02 0. -1.
       -1   -1    0    0    0  501  0.00000000000E+00  0.00000000000E+00 -0.79952613971E+03  0.79952613972E+03  0.50400001928E-02 0.  1.
    10030    2    1    2    0    0  0.00000000000E+00  0.00000000000E+00  0.94190085887E+03  0.25409531383E+04  0.23599291564E+04 0.  0.
        5    1    3    3  502    0 -0.31663159171E+03  0.50068580196E+03 -0.62779369895E+03  0.86318529621E+03  0.46999998093E+01 0.  1.
       -5    1    3    3    0  502  0.31663159171E+03 -0.50068580196E+03  0.15696945578E+04  0.16777678421E+04  0.46999998093E+01 0. -1.
</event>
<event>
 5   0  0.3758062E-06  0.3208475E+04  0.7818609E-02  0.8186582E-01
        2   -1    0    0  501    0  0.00000000000E+00  0.00000000000E+00  0.24381145294E+04  0.24381145294E+04  0.25500000920E-02 0. -1.
       -2   -1    0    0    0  501  0.00000000000E+00  0.00000000000E+00 -0.10555609781E+04  0.10555609781E+04  0.25500000920E-02 0.  1.
    10030    2    1    2    0    0  0.00000000000E+00  0.00000000000E+00  0.13825535513E+04  0.34936755074E+04  0.32084753745E+04 0.  0.
        2    1    3    3  502    0  0.13227716747E+04  0.68505235473E+03  0.13396526416E+04  0.20034197843E+04  0.25500000920E-02 0. -1.
       -2    1    3    3    0  502 -0.13227716747E+04 -0.68505235473E+03  0.42900909674E+02  0.14902557231E+04  0.25500000920E-02 0.  1.
</event>
<event>
 5   0  0.1273754E-06  0.3158712E+04  0.7818609E-02  0.8199807E-01
       -1   -1    0    0    0  501  0.00000000000E+00  0.00000000000E+00  0.10382907218E+04  0.10382907218E+04  0.50400001928E-02 0.  1.
        1   -1    0    0  501    0  0.00000000000E+00  0.00000000000E+00 -0.24023767183E+04  0.24023767183E+04  0.50400001928E-02 0. -1.
    10030    2    1    2    0    0  0.00000000000E+00  0.00000000000E+00 -0.13640859965E+04  0.34406674401E+04  0.31587120520E+04 0.  0.
        2    1    3    3  502    0  0.57169859937E+03  0.66113750069E+03 -0.21149197835E+04  0.22884116269E+04  0.25500000920E-02 0. -1.
       -2    1    3    3    0  502 -0.57169859937E+03 -0.66113750069E+03  0.75083378702E+03  0.11522558132E+04  0.25500000920E-02 0.  1.
</event>
<event>
 5   0  0.1273754E-06  0.3112281E+04  0.7818609E-02  0.8212376E-01
        1   -1    0    0  501    0  0.00000000000E+00  0.00000000000E+00  0.28417645268E+04  0.28417645268E+04  0.50400001928E-02 0.  1.
       -1   -1    0    0    0  501  0.00000000000E+00  0.00000000000E+00 -0.85213708783E+03  0.85213708784E+03  0.50400001928E-02 0. -1.
    10030    2    1    2    0    0  0.00000000000E+00  0.00000000000E+00  0.19896274389E+04  0.36939016146E+04  0.31122808023E+04 0.  0.
        2    1    3    3  502    0 -0.14935533388E+04  0.30977023005E+03  0.13604684342E+04  0.20439015465E+04  0.25500000920E-02 0. -1.
       -2    1    3    3    0  502  0.14935533388E+04 -0.30977023005E+03  0.62915900471E+03  0.16500000681E+04  0.25500000920E-02 0.  1.
</event>
<event>
 5   0  0.1268836E-06  0.3141346E+04  0.7818609E-02  0.8204482E-01
       -1   -1    0    0    0  501  0.00000000000E+00  0.00000000000E+00  0.17212247620E+04  0.17212247620E+04  0.50400001928E-02 0.  1.
        1   -1    0    0  501    0  0.00000000000E+00  0.00000000000E+00 -0.14332896119E+04  0.14332896119E+04  0.50400001928E-02 0. -1.
    10030    2    1    2    0    0  0.00000000000E+00  0.00000000000E+00  0.28793515012E+03  0.31545143739E+04  0.31413459352E+04 0.  0.
        1    1    3    3  502    0 -0.11914645554E+03 -0.74245150094E+03  0.15287273566E+04  0.17036541433E+04  0.50400001928E-02 0.  1.
       -1    1    3    3    0  502  0.11914645554E+03  0.74245150094E+03 -0.12407922065E+04  0.14508602306E+04  0.50400001928E-02 0. -1.
</event>
<event>
 5   0  0.3758062E-06  0.3169541E+04  0.7818609E-02  0.8196908E-01
        2   -1    0    0  501    0  0.00000000000E+00  0.00000000000E+00  0.16781893103E+04  0.16781893103E+04  0.25500000920E-02 0. -1.
       -2   -1    0    0    0  501  0.00000000000E+00  0.00000000000E+00 -0.14965517483E+04  0.14965517483E+04  0.25500000920E-02 0.  1.
    10030    2    1    2    0    0  0.00000000000E+00  0.00000000000E+00  0.18163756192E+03  0.31747410586E+04  0.31695407531E+04 0.  0.
        2    1    3    3  502    0  0.84860146481E+02 -0.44846925227E+03  0.16109290125E+04  0.16743411235E+04  0.25500000920E-02 0. -1.
       -2    1    3    3    0  502 -0.84860146481E+02  0.44846925227E+03 -0.14292914505E+04  0.15003999351E+04  0.25500000920E-02 0.  1.
</event>
<event>
 5   0  0.3497546E-06  0.3199060E+04  0.7818609E-02  0.8189066E-01
        2   -1    0    0  501    0  0.00000000000E+00  0.00000000000E+00  0.12397439654E+04  0.12397439654E+04  0.25500000920E-02 0. -1.
       -2   -1    0    0    0  501  0.00000000000E+00  0.00000000000E+00 -0.20637291648E+04  0.20637291649E+04  0.25500000920E-02 0.  1.
    10030    2    1    2    0    0  0.00000000000E+00  0.00000000000E+00 -0.82398519941E+03  0.33034731303E+04  0.31990597234E+04 0.  0.
        4    1    3    3  502    0 -0.42341319682E+03  0.12376935512E+04 -0.13625421238E+04  0.18888321032E+04  0.12699999809E+01 0.  1.
       -4    1    3    3    0  502  0.42341319682E+03 -0.12376935512E+04  0.53855692441E+03  0.14146410271E+04  0.12699999809E+01 0. -1.
</event>
<event>
 5   0  0.1268836E-06  0.3277729E+04  0.7818609E-02  0.8168586E-01
        1   -1    0    0  501    0  0.00000000000E+00  0.00000000000E+00  0.14127002192E+04  0.14127002192E+04  0.50400001928E-02 0. -1.
       -1   -1    0    0    0  501  0.00000000000E+00  0.00000000000E+00 -0.19012357688E+04  0.19012357688E+04  0.50400001928E-02 0.  1.
    10030    2    1    2    0    0  0.00000000000E+00  0.00000000000E+00 -0.48853554962E+03  0.33139359880E+04  0.32777285960E+04 0.  0.
        1    1    3    3  502    0  0.15418136194E+04  0.55220053024E+03 -0.18225900975E+03  0.16478267534E+04  0.50400001928E-02 0. -1.
       -1    1    3    3    0  502 -0.15418136194E+04 -0.55220053024E+03 -0.30627653988E+03  0.16661092346E+04  0.50400001928E-02 0.  1.
</event>
<event>
 5   0  0.3531437E-06  0.3217251E+04  0.7818609E-02  0.8184276E-01
        2   -1    0    0  501    0  0.00000000000E+00  0.00000000000E+00  0.21770490456E+04  0.21770490456E+04  0.25500000920E-02 0.  1.
       -2   -1    0    0    0  501  0.00000000000E+00  0.00000000000E+00 -0.11886161442E+04  0.11886161442E+04  0.25500000920E-02 0. -1.
    10030    2    1    2    0    0  0.00000000000E+00  0.00000000000E+00  0.98843290141E+03  0.33656651898E+04  0.32172507781E+04 0.  0.
        1    1    3    3  502    0  0.58289665953E+03 -0.13550555749E+04  0.11654799797E+04  0.18799701354E+04  0.50400001928E-02 0.  1.
       -1    1    3    3    0  502 -0.58289665953E+03  0.13550555749E+04 -0.17704707829E+03  0.14856950544E+04  0.50400001928E-02 0. -1.
</event>
<event>
 5   0  0.1273754E-06  0.3195961E+04  0.7818609E-02  0.8189885E-01
       -1   -1    0    0    0  501  0.00000000000E+00  0.00000000000E+00  0.20389070948E+04  0.20389070948E+04  0.50400001928E-02 0.  1.
        1   -1    0    0  501    0  0.00000000000E+00  0.00000000000E+00 -0.12524073533E+04  0.12524073533E+04  0.50400001928E-02 0. -1.
    10030    2    1    2    0    0  0.00000000000E+00  0.00000000000E+00  0.78649974151E+03  0.32913144481E+04  0.31959613504E+04 0.  0.
        2    1    3    3  502    0  0.60389997182E+03  0.14605737965E+04  0.15048103805E+03  0.15876446497E+04  0.25500000920E-02 0. -1.
       -2    1    3    3    0  502 -0.60389997182E+03 -0.14605737965E+04  0.63601870346E+03  0.17036697984E+04  0.25500000920E-02 0.  1.
</event>
<event>
 5   0  0.1268836E-06  0.3119467E+04  0.7818609E-02  0.8210416E-01
       -1   -1    0    0    0  501  0.00000000000E+00  0.00000000000E+00  0.83835754419E+03  0.83835754421E+03  0.50400001928E-02 0. -1.
        1   -1    0    0  501    0  0.00000000000E+00  0.00000000000E+00 -0.29018268482E+04  0.29018268482E+04  0.50400001928E-02 0.  1.
    10030    2    1    2    0    0  0.00000000000E+00  0.00000000000E+00 -0.20634693040E+04  0.37401843924E+04  0.31194668969E+04 0.  0.
        1    1    3    3  502    0 -0.14669568977E+04  0.49047439610E+03 -0.12722516116E+04  0.20027860185E+04  0.50400001928E-02 0.  1.
       -1    1    3    3    0  502  0.14669568977E+04 -0.49047439610E+03 -0.79121769244E+03  0.17373983739E+04  0.50400001928E-02 0. -1.
</event>
<event>
 5   0  0.1240725E-06  0.3199902E+04  0.7818609E-02  0.8188843E-01
       -1   -1    0    0    0  501  0.00000000000E+00  0.00000000000E+00  0.11721991414E+04  0.11721991415E+04  0.50400001928E-02 0. -1.
        1   -1    0    0  501    0  0.00000000000E+00  0.00000000000E+00 -0.21837951708E+04  0.21837951708E+04  0.50400001928E-02 0.  1.
    10030    2    1    2    0    0  0.00000000000E+00  0.00000000000E+00 -0.10115960293E+04  0.33559943122E+04  0.31999017637E+04 0.  0.
        3    1    3    3  502    0  0.14720921440E+03  0.55002324783E+03 -0.20739427908E+04  0.21506824116E+04  0.10100000352E+00 0.  1.
       -3    1    3    3    0  502 -0.14720921440E+03 -0.55002324783E+03  0.10623467615E+04  0.12053119006E+04  0.10100000352E+00 0. -1.
</event>
<event>
 5   0  0.1268836E-06  0.3233520E+04  0.7818609E-02  0.8180020E-01
       -1   -1    0    0    0  501  0.00000000000E+00  0.00000000000E+00  0.13966167460E+04  0.13966167460E+04  0.50400001928E-02 0. -1.
        1   -1    0    0  501    0  0.00000000000E+00  0.00000000000E+00 -0.18716034000E+04  0.18716034000E+04  0.50400001928E-02 0.  1.
    10030    2    1    2    0    0  0.00000000000E+00  0.00000000000E+00 -0.47498665401E+03  0.32682201460E+04  0.32335198471E+04 0.  0.
        1    1    3    3  502    0 -0.21765470748E+03  0.10181498203E+04 -0.14876623009E+04  0.18158033346E+04  0.50400001928E-02 0.  1.
       -1    1    3    3    0  502  0.21765470748E+03 -0.10181498203E+04  0.10126756469E+04  0.14524168114E+04  0.50400001928E-02 0. -1.
</event>
<event>
 5   0  0.1268836E-06  0.3165971E+04  0.7818609E-02  0.8197862E-01
        1   -1    0    0  501    0  0.00000000000E+00  0.00000000000E+00  0.18600684183E+04  0.18600684183E+04  0.50400001928E-02 0. -1.
       -1   -1    0    0    0  501  0.00000000000E+00  0.00000000000E+00 -0.13471783107E+04  0.13471783107E+04  0.50400001928E-02 0.  1.
    10030    2    1    2    0    0  0.00000000000E+00  0.00000000000E+00  0.51289010760E+03  0.32072467290E+04  0.31659714652E+04 0.  0.
        1    1    3    3  502    0  0.28740355555E+03 -0.33302953584E+03  0.17969059923E+04  0.18499677350E+04  0.50400001928E-02 0. -1.
       -1    1    3    3    0  502 -0.28740355555E+03  0.33302953584E+03 -0.12840158847E+04  0.13572789940E+04  0.50400001928E-02 0.  1.
</event>
<event>
 5   0  0.1273754E-06  0.2964270E+04  0.7818609E-02  0.8254008E-01
       -1   -1    0    0    0  501  0.00000000000E+00  0.00000000000E+00  0.12095631164E+04  0.12095631164E+04  0.50400001928E-02 0.  1.
        1   -1    0    0  501    0  0.00000000000E+00  0.00000000000E+00 -0.18161299467E+04  0.18161299467E+04  0.50400001928E-02 0. -1.
    10030    2    1    2    0    0  0.00000000000E+00  0.00000000000E+00 -0.60656683034E+03  0.30256930631E+04  0.29642697570E+04 0.  0.
        2    1    3    3  502    0  0.13653200521E+04 -0.45097102003E+03  0.63679838544E+02  0.14392806632E+04  0.25500000920E-02 0.  1.
       -2    1    3    3    0  502 -0.13653200521E+04  0.45097102003E+03 -0.67024666888E+03  0.15864123999E+04  0.25500000920E-02 0. -1.
</event>
<event>
 5   0  0.1268836E-06  0.3206530E+04  0.7818609E-02  0.8187095E-01
       -1   -1    0    0    0  501  0.00000000000E+00  0.00000000000E+00  0.10043589269E+04  0.10043589269E+04  0.50400001928E-02 0.  1.
        1   -1    0    0  501    0  0.00000000000E+00  0.00000000000E+00 -0.25593021922E+04  0.25593021922E+04  0.50400001928E-02 0. -1.
    10030    2    1    2    0    0  0.00000000000E+00  0.00000000000E+00 -0.15549432653E+04  0.35636611191E+04  0.32065295903E+04 0.  0.
        1    1    3    3  502    0 -0.12943813670E+04  0.37541601450E+03  0.18763422982E+03  0.13607229371E+04  0.50400001928E-02 0.  1.
       -1    1    3    3    0  502  0.12943813670E+04 -0.37541601450E+03 -0.17425774951E+04  0.22029381820E+04  0.50400001928E-02 0. -1.
</event>
<event>
 5   0  0.3758062E-06  0.3197977E+04  0.7818609E-02  0.8189352E-01
       -2   -1    0    0    0  501  0.00000000000E+00  0.00000000000E+00  0.11256455419E+04  0.11256455419E+04  0.25500000920E-02 0.  1.
        2   -1    0    0  501    0  0.00000000000E+00  0.00000000000E+00 -0.22713762828E+04  0.22713762828E+04  0.25500000920E-02 0. -1.
    10030    2    1    2    0    0  0.00000000000E+00  0.00000000000E+00 -0.11457307409E+04  0.33970218248E+04  0.31979772275E+04 0.  0.
        2    1    3    3  502    0 -0.21682808917E+03  0.11808436428E+04 -0.16947035150E+04  0.20768789403E+04  0.25500000920E-02 0. -1.
       -2    1    3    3    0  502  0.21682808917E+03 -0.11808436428E+04  0.54897277404E+03  0.13201428845E+04  0.25500000920E-02 0.  1.
</event>
<event>
 5   0  0.1273754E-06  0.2674692E+04  0.7818609E-02  0.8343263E-01
        1   -1    0    0  501    0  0.00000000000E+00  0.00000000000E+00  0.12071411288E+04  0.12071411288E+04  0.50400001928E-02 0.  1.
       -1   -1    0    0    0  501  0.00000000000E+00  0.00000000000E+00 -0.14815954152E+04  0.14815954152E+04  0.50400001928E-02 0. -1.
    10030    2    1    2    0    0  0.00000000000E+00  0.00000000000E+00 -0.27445428640E+03  0.26887365440E+04  0.26746923277E+04 0.  0.
        2    1    3    3  502    0 -0.29371492589E+03 -0.94569668867E+03 -0.10407703859E+04  0.14365979538E+04  0.25500000920E-02 0. -1.
       -2    1    3    3    0  502  0.29371492589E+03  0.94569668867E+03  0.76631609951E+03  0.12521385902E+04  0.25500000920E-02 0.  1.
</event>
<event>
 5   0  0.1306843E-06  0.3174598E+04  0.7818609E-02  0.8195558E-01
       -1   -1    0    0    0  501  0.00000000000E+00  0.00000000000E+00  0.26921952022E+04  0.26921952022E+04  0.50400001928E-02 0.  1.
        1   -1    0    0  501    0  0.00000000000E+00  0.00000000000E+00 -0.93586026138E+03  0.93586026139E+03  0.50400001928E-02 0. -1.
    10030    2    1    2    0    0  0.00000000000E+00  0.00000000000E+00  0.17563349408E+04  0.36280554636E+04  0.31745982459E+04 0.  0.
        5    1    3    3  502    0  0.33776836793E+03 -0.78244764081E+02 -0.89204835615E+03  0.95706952370E+03  0.46999998093E+01 0. -1.
       -5    1    3    3    0  502 -0.33776836793E+03  0.78244764081E+02  0.26483832970E+04  0.26709859399E+04  0.46999998093E+01 0.  1.
</event>
<event>
 5   0  0.3531437E-06  0.3169137E+04  0.7818609E-02  0.8197016E-01
        2   -1    0    0  501    0  0.00000000000E+00  0.00000000000E+00  0.16892979222E+04  0.16892979222E+04  0.25500000920E-02 0.  1.
       -2   -1    0    0    0  501  0.00000000000E+00  0.00000000000E+00 -0.14863318766E+04  0.14863318767E+04  0.25500000920E-02 0. -1.
    10030    2    1    2    0    0  0.00000000000E+00  0.00000000000E+00  0.20296604554E+03  0.31756297988E+04  0.31691370124E+04 0.  0.
        1    1    3    3  502    0  0.27494051524E+03  0.11693505026E+04  0.11369851311E+04  0.16539976038E+04  0.50400001928E-02 0.  1.
       -1    1    3    3    0  502 -0.27494051524E+03 -0.11693505026E+04 -0.93401908553E+03  0.15216321951E+04  0.50400001928E-02 0. -1.
</event>
<event>
 5   0  0.3531437E-06  0.2763748E+04  0.7818609E-02  0.8314612E-01
        2   -1    0    0  501    0  0.00000000000E+00  0.00000000000E+00  0.17110337849E+04  0.17110337849E+04  0.25500000920E-02 0.  1.
       -2   -1    0    0    0  501  0.00000000000E+00  0.00000000000E+00 -0.11160363824E+04  0.11160363824E+04  0.25500000920E-02 0. -1.
    10030    2    1    2    0    0  0.00000000000E+00  0.00000000000E+00  0.59499740250E+03  0.28270701673E+04  0.27637481473E+04 0.  0.
        1    1    3    3  502    0  0.10267954183E+04  0.78085386538E+03 -0.20936858911E+03  0.13068576037E+04  0.50400001928E-02 0. -1.
       -1    1    3    3    0  502 -0.10267954183E+04 -0.78085386538E+03  0.80436599161E+03  0.15202125636E+04  0.50400001928E-02 0.  1.
</event>
<event>
 5   0  0.3758062E-06  0.3304834E+04  0.7818609E-02  0.8161666E-01
        2   -1    0    0  501    0  0.00000000000E+00  0.00000000000E+00  0.19456521560E+04  0.19456521560E+04  0.25500000920E-02 0.  1.
       -2   -1    0    0    0  501  0.00000000000E+00  0.00000000000E+00 -0.14033761713E+04  0.14033761713E+04  0.25500000920E-02 0. -1.
    10030    2    1    2    0    0  0.00000000000E+00  0.00000000000E+00  0.54227598467E+03  0.33490283274E+04  0.33048339586E+04 0.  0.
        2    1    3    3  502    0 -0.92111104678E+03 -0.13222449360E+03  0.16548845145E+04  0.18985709451E+04  0.25500000920E-02 0.  1.
       -2    1    3    3    0  502  0.92111104678E+03  0.13222449360E+03 -0.11126085298E+04  0.14504573823E+04  0.25500000920E-02 0. -1.
</event>
<event>
 5   0  0.3745943E-06  0.3236162E+04  0.7818609E-02  0.8179332E-01
       -2   -1    0    0    0  501  0.00000000000E+00  0.00000000000E+00  0.19271171318E+04  0.19271171318E+04  0.25500000920E-02 0.  1.
        2   -1    0    0  501    0  0.00000000000E+00  0.00000000000E+00 -0.13586025214E+04  0.13586025214E+04  0.25500000920E-02 0. -1.
    10030    2    1    2    0    0  0.00000000000E+00  0.00000000000E+00  0.56851461040E+03  0.32857196531E+04  0.32361620442E+04 0.  0.
        5    1    3    3  502    0 -0.11179472456E+04  0.94816308273E+03  0.97983598842E+03  0.17632129564E+04  0.46999998093E+01 0. -1.
       -5    1    3    3    0  502  0.11179472456E+04 -0.94816308273E+03 -0.41132137802E+03  0.15225066967E+04  0.46999998093E+01 0.  1.
</event>
<event>
 5   0  0.1273980E-06  0.3125540E+04  0.7818609E-02  0.8208763E-01
       -1   -1    0    0    0  501  0.00000000000E+00  0.00000000000E+00  0.14113510548E+04  0.14113510548E+04  0.50400001928E-02 0. -1.
        1   -1    0    0  501    0  0.00000000000E+00  0.00000000000E+00 -0.17304340300E+04  0.17304340300E+04  0.50400001928E-02 0.  1.
    10030    2    1    2    0    0  0.00000000000E+00  0.00000000000E+00 -0.31908297518E+03  0.31417850847E+04  0.31255398852E+04 0.  0.
        4    1    3    3  502    0 -0.75050329142E+03 -0.13338941062E+03  0.12118075045E+04  0.14316169062E+04  0.12699999809E+01 0. -1.
       -4    1    3    3    0  502  0.75050329142E+03  0.13338941062E+03 -0.15308904797E+04  0.17101681785E+04  0.12699999809E+01 0.  1.
</event>
<event>
 5   0  0.3531437E-06  0.3231996E+04  0.7818609E-02  0.8180418E-01
       -2   -1    0    0    0  501  0.00000000000E+00  0.00000000000E+00  0.94222421377E+03  0.94222421377E+03  0.25500000920E-02 0.  1.
        2   -1    0    0  501    0  0.00000000000E+00  0.00000000000E+00 -0.27715805162E+04  0.27715805162E+04  0.25500000920E-02 0. -1.
    10030    2    1    2    0    0  0.00000000000E+00  0.00000000000E+00 -0.18293563025E+04  0.37138047300E+04  0.32319964559E+04 0.  0.
        1    1    3    3  502    0  0.12467798013E+04  0.37235911283E+02 -0.20952670072E+04  0.24384401198E+04  0.50400001928E-02 0. -1.
       -1    1    3    3    0  502 -0.12467798013E+04 -0.37235911283E+02  0.26591070475E+03  0.12753646102E+04  0.50400001928E-02 0.  1.
</event>
<event>
 5   0  0.1268836E-06  0.3188721E+04  0.7818609E-02  0.8191802E-01
        1   -1    0    0  501    0  0.00000000000E+00  0.00000000000E+00  0.21500913696E+04  0.21500913696E+04  0.50400001928E-02 0.  1.
       -1   -1    0    0    0  501  0.00000000000E+00  0.00000000000E+00 -0.11822684642E+04  0.11822684642E+04  0.50400001928E-02 0. -1.
    10030    2    1    2    0    0  0.00000000000E+00  0.00000000000E+00  0.96782290539E+03  0.33323598339E+04  0.31887208856E+04 0.  0.
        1    1    3    3  502    0 -0.12790169713E+04  0.92007263009E+03  0.22885351345E+03  0.15921030080E+04  0.50400001928E-02 0.  1.
       -1    1    3    3    0  502  0.12790169713E+04 -0.92007263009E+03  0.73896939194E+03  0.17402568258E+04  0.50400001928E-02 0. -1.
</event>
<event>
 5   0  0.1273754E-06  0.3037509E+04  0.7818609E-02  0.8233100E-01
        1   -1    0    0  501    0  0.00000000000E+00  0.00000000000E+00  0.14518279352E+04  0.14518279352E+04  0.50400001928E-02 0. -1.
       -1   -1    0    0    0  501  0.00000000000E+00  0.00000000000E+00 -0.15887662187E+04  0.15887662187E+04  0.50400001928E-02 0.  1.
    10030    2    1    2    0    0  0.00000000000E+00  0.00000000000E+00 -0.13693828357E+03  0.30405941539E+04  0.30375089654E+04 0.  0.
        2    1    3    3  502    0 -0.58491154908E+03  0.13913965395E+04  0.10054941226E+03  0.15126850414E+04  0.25500000920E-02 0.  1.
       -2    1    3    3    0  502  0.58491154908E+03 -0.13913965395E+04 -0.23748769582E+03  0.15279091125E+04  0.25500000920E-02 0. -1.
</event>
<event>
 5   0  0.1268836E-06  0.3211660E+04  0.7818609E-02  0.8185745E-01
        1   -1    0    0  501    0  0.00000000000E+00  0.00000000000E+00  0.13819651038E+04  0.13819651038E+04  0.50400001928E-02 0.  1.
       -1   -1    0    0    0  501  0.00000000000E+00  0.00000000000E+00 -0.18659583090E+04  0.18659583090E+04  0.50400001928E-02 0. -1.
    10030    2    1    2    0    0  0.00000000000E+00  0.00000000000E+00 -0.48399320521E+03  0.32479234129E+04  0.32116595512E+04 0.  0.
        1    1    3    3  502    0  0.85939059956E+03 -0.47683044641E+03  0.10422915250E+04  0.14325819698E+04  0.50400001928E-02 0.  1.
       -1    1    3    3    0  502 -0.85939059956E+03  0.47683044641E+03 -0.15262847302E+04  0.18153414430E+04  0.50400001928E-02 0. -1.
</event>
<event>
 5   0  0.1306843E-06  0.3254702E+04  0.7818609E-02  0.8174518E-01
        1   -1    0    0  501    0  0.00000000000E+00  0.00000000000E+00  0.24012688902E+04  0.24012688902E+04  0.50400001928E-02 0.  1.
       -1   -1    0    0    0  501  0.00000000000E+00  0.00000000000E+00 -0.11028630395E+04  0.11028630395E+04  0.50400001928E-02 0. -1.
    10030    2    1    2    0    0  0.00000000000E+00  0.00000000000E+00  0.12984058507E+04  0.35041319298E+04  0.32547016496E+04 0.  0.
        5    1    3    3  502    0 -0.83306423204E+03 -0.37508413135E+03  0.20990953056E+04  0.22893028005E+04  0.46999998093E+01 0.  1.
       -5    1    3    3    0  502  0.83306423204E+03  0.37508413135E+03 -0.80068945485E+03  0.12148291293E+04  0.46999998093E+01 0. -1.
</event>
<event>
 5   0  0.1273754E-06  0.2982246E+04  0.7818609E-02  0.8248819E-01
        1   -1    0    0  501    0  0.00000000000E+00  0.00000000000E+00  0.79309076676E+03  0.79309076677E+03  0.50400001928E-02 0. -1.
       -1   -1    0    0    0  501  0.00000000000E+00  0.00000000000E+00 -0.28035229650E+04  0.28035229650E+04  0.50400001928E-02 0.  1.
    10030    2    1    2    0    0  0.00000000000E+00  0.00000000000E+00 -0.20104321983E+04  0.35966137318E+04  0.29822462527E+04 0.  0.
        2    1    3    3  502    0 -0.77672363880E+03 -0.54840626205E+03  0.38006654994E+03  0.10239627052E+04  0.25500000920E-02 0. -1.
       -2    1    3    3    0  502  0.77672363880E+03  0.54840626205E+03 -0.23904987482E+04  0.25726510266E+04  0.25500000920E-02 0.  1.
</event>
<event>
 5   0  0.3531437E-06  0.3234739E+04  0.7818609E-02  0.8179702E-01
       -2   -1    0    0    0  501  0.00000000000E+00  0.00000000000E+00  0.11503223774E+04  0.11503223774E+04  0.25500000920E-02 0. -1.
        2   -1    0    0  501    0  0.00000000000E+00  0.00000000000E+00 -0.22740442463E+04  0.22740442463E+04  0.25500000920E-02 0.  1.
    10030    2    1    2    0    0  0.00000000000E+00  0.00000000000E+00 -0.11237218688E+04  0.34243666237E+04  0.32347389285E+04 0.  0.
        1    1    3    3  502    0 -0.91420702138E+03  0.10910412791E+04 -0.13748238521E+04  0.19789608826E+04  0.50400001928E-02 0.  1.
       -1    1    3    3    0  502  0.91420702138E+03 -0.10910412791E+04  0.25110198321E+03  0.14454057412E+04  0.50400001928E-02 0. -1.
</event>
<event>
 5   0  0.3656086E-06  0.3132276E+04  0.7818609E-02  0.8206935E-01
        2   -1    0    0  501    0  0.00000000000E+00  0.00000000000E+00  0.98159763565E+03  0.98159763565E+03  0.25500000920E-02 0.  1.
       -2   -1    0    0    0  501  0.00000000000E+00  0.00000000000E+00 -0.24987719405E+04  0.24987719405E+04  0.25500000920E-02 0. -1.
    10030    2    1    2    0    0  0.00000000000E+00  0.00000000000E+00 -0.15171743049E+04  0.34803695762E+04  0.31322762514E+04 0.  0.
        3    1    3    3  502    0  0.11662979027E+03 -0.18860989584E+03 -0.24812390441E+04  0.24911289419E+04  0.10100000352E+00 0. -1.
       -3    1    3    3    0  502 -0.11662979027E+03  0.18860989584E+03  0.96406473927E+03  0.98924063427E+03  0.10100000352E+00 0.  1.
</event>
<event>
 5   0  0.1268836E-06  0.3201655E+04  0.7818609E-02  0.8188380E-01
       -1   -1    0    0    0  501  0.00000000000E+00  0.00000000000E+00  0.18778660915E+04  0.18778660915E+04  0.50400001928E-02 0.  1.
        1   -1    0    0  501    0  0.00000000000E+00  0.00000000000E+00 -0.13646601359E+04  0.13646601359E+04  0.50400001928E-02 0. -1.
    10030    2    1    2    0    0  0.00000000000E+00  0.00000000000E+00  0.51320595561E+03  0.32425262274E+04  0.32016551942E+04 0.  0.
        1    1    3    3  502    0  0.23854934691E+03  0.11359080295E+04 -0.85994808065E+03  0.14445426764E+04  0.50400001928E-02 0. -1.
       -1    1    3    3    0  502 -0.23854934691E+03 -0.11359080295E+04  0.13731540363E+04  0.17979835510E+04  0.50400001928E-02 0.  1.
</event>
<event>
 5   0  0.1273754E-06  0.3253217E+04  0.7818609E-02  0.8174902E-01
       -1   -1    0    0    0  501  0.00000000000E+00  0.00000000000E+00  0.12434836305E+04  0.12434836305E+04  0.50400001928E-02 0.  1.
        1   -1    0    0  501    0  0.00000000000E+00  0.00000000000E+00 -0.21277767462E+04  0.21277767463E+04  0.50400001928E-02 0. -1.
    10030    2    1    2    0    0  0.00000000000E+00  0.00000000000E+00 -0.88429311571E+03  0.33712603768E+04  0.32532172097E+04 0.  0.
        2    1    3    3  502    0  0.15848249475E+04 -0.16371151993E+03 -0.10256118301E+03  0.15965557843E+04  0.25500000920E-02 0.  1.
       -2    1    3    3    0  502 -0.15848249475E+04  0.16371151993E+03 -0.78173193271E+03  0.17747045925E+04  0.25500000920E-02 0. -1.
</event>
<event>
 5   0  0.1268836E-06  0.3206431E+04  0.7818609E-02  0.8187121E-01
        1   -1    0    0  501    0  0.00000000000E+00  0.00000000000E+00  0.21264026907E+04  0.21264026907E+04  0.50400001928E-02 0.  1.
       -1   -1    0    0    0  501  0.00000000000E+00  0.00000000000E+00 -0.12087548748E+04  0.12087548748E+04  0.50400001928E-02 0. -1.
    10030    2    1    2    0    0  0.00000000000E+00  0.00000000000E+00  0.91764781585E+03  0.33351575655E+04  0.32064307996E+04 0.  0.
        1    1    3    3  502    0 -0.19829119378E+03 -0.12534401092E+03 -0.11908067250E+04  0.12136931964E+04  0.50400001928E-02 0. -1.
       -1    1    3    3    0  502  0.19829119378E+03  0.12534401092E+03  0.21084545408E+04  0.21214643691E+04  0.50400001928E-02 0.  1.
</event>
<event>
 5   0  0.1273980E-06  0.3202582E+04  0.7818609E-02  0.8188136E-01
       -1   -1    0    0    0  501  0.00000000000E+00  0.00000000000E+00  0.93206665487E+03  0.93206665488E+03  0.50400001928E-02 0. -1.
        1   -1    0    0  501    0  0.00000000000E+00  0.00000000000E+00 -0.27510189172E+04  0.27510189172E+04  0.50400001928E-02 0.  1.
    10030    2    1    2    0    0  0.00000000000E+00  0.00000000000E+00 -0.18189522623E+04  0.36830855721E+04  0.32025820830E+04 0.  0.
        4    1    3    3  502    0 -0.10717682075E+03  0.50525089838E+03 -0.26525935334E+04  0.27024099259E+04  0.12699999809E+01 0.  1.
       -4    1    3    3    0  502  0.10717682075E+03 -0.50525089838E+03  0.83364127109E+03  0.98067564617E+03  0.12699999809E+01 0. -1.
</event>
<event>
 5   0  0.1240725E-06  0.3181355E+04  0.7818609E-02  0.8193759E-01
        1   -1    0    0  501    0  0.00000000000E+00  0.00000000000E+00  0.29476117690E+04  0.29476117690E+04  0.50400001928E-02 0. -1.
       -1   -1    0    0    0  501  0.00000000000E+00  0.00000000000E+00 -0.85840853387E+03  0.85840853388E+03  0.50400001928E-02 0.  1.
    10030    2    1    2    0    0  0.00000000000E+00  0.00000000000E+00  0.20892032351E+04  0.38060203029E+04  0.31813551182E+04 0.  0.
        3    1    3    3  502    0 -0.14539303407E+04  0.57008486066E+03  0.14061788780E+04  0.21014873854E+04  0.10100000352E+00 0.  1.
       -3    1    3    3    0  502  0.14539303407E+04 -0.57008486066E+03  0.68302435709E+03  0.17045329174E+04  0.10100000352E+00 0. -1.
</event>
<event>
 5   0  0.3531437E-06  0.3120112E+04  0.7818609E-02  0.8210240E-01
       -2   -1    0    0    0  501  0.00000000000E+00  0.00000000000E+00  0.21141704103E+04  0.21141704103E+04  0.25500000920E-02 0. -1.
        2   -1    0    0  501    0  0.00000000000E+00  0.00000000000E+00 -0.11511724507E+04  0.11511724507E+04  0.25500000920E-02 0.  1.
    10030    2    1    2    0    0  0.00000000000E+00  0.00000000000E+00  0.96299795952E+03  0.32653428610E+04  0.31201120060E+04 0.  0.
        1    1    3    3  502    0 -0.35664422461E+03 -0.10936568944E+03 -0.11038098397E+04  0.11651403860E+04  0.50400001928E-02 0.  1.
       -1    1    3    3    0  502  0.35664422461E+03  0.10936568944E+03  0.20668077992E+04  0.21002024750E+04  0.50400001928E-02 0. -1.
</event>
<event>
 5   0  0.1306843E-06  0.3192468E+04  0.7818609E-02  0.8190809E-01
       -1   -1    0    0    0  501  0.00000000000E+00  0.00000000000E+00  0.14280410886E+04  0.14280410886E+04  0.50400001928E-02 0. -1.
        1   -1    0    0  501    0  0.00000000000E+00  0.00000000000E+00 -0.17842360638E+04  0.17842360638E+04  0.50400001928E-02 0.  1.
    10030    2    1    2    0    0  0.00000000000E+00  0.00000000000E+00 -0.35619497520E+03  0.32122771524E+04  0.31924676417E+04 0.  0.
        5    1    3    3  502    0 -0.12651153266E+04 -0.74927799604E+03 -0.80324648830E+03  0.16754585390E+04  0.46999998093E+01 0.  1.
       -5    1    3    3    0  502  0.12651153266E+04  0.74927799604E+03  0.44705151310E+03  0.15368186134E+04  0.46999998093E+01 0. -1.
</event>
<event>
 5   0  0.3758062E-06  0.3212867E+04  0.7818609E-02  0.8185427E-01
       -2   -1    0    0    0  501  0.00000000000E+00  0.00000000000E+00  0.13620301585E+04  0.13620301585E+04  0.25500000920E-02 0.  1.
        2   -1    0    0  501    0  0.00000000000E+00  0.00000000000E+00 -0.18946930901E+04  0.18946930901E+04  0.25500000920E-02 0. -1.
    10030    2    1    2    0    0  0.00000000000E+00  0.00000000000E+00 -0.53266293160E+03  0.32567232485E+04  0.32128673360E+04 0.  0.
        2    1    3    3  502    0  0.47395988514E+03  0.80462610556E+03 -0.15912958173E+04  0.18450700584E+04  0.25500000920E-02 0. -1.
       -2    1    3    3    0  502 -0.47395988514E+03 -0.80462610556E+03  0.10586328857E+04  0.14116531901E+04  0.25500000920E-02 0.  1.
</event>
<event>
 5   0  0.1273980E-06  0.3128950E+04  0.7818609E-02  0.8207837E-01
        1   -1    0    0  501    0  0.00000000000E+00  0.00000000000E+00  0.13158174161E+04  0.13158174161E+04  0.50400001928E-02 0.  1.
       -1   -1    0    0    0  501  0.00000000000E+00  0.00000000000E+00 -0.18601233267E+04  0.18601233267E+04  0.50400001928E-02 0. -1.
    10030    2    1    2    0    0  0.00000000000E+00  0.00000000000E+00 -0.54430591057E+03  0.31759407428E+04  0.31289504114E+04 0.  0.
        4    1    3    3  502    0  0.24300840979E+02 -0.96220050083E+03  0.97972289540E+03  0.13734186905E+04  0.12699999809E+01 0.  1.
       -4    1    3    3    0  502 -0.24300840979E+02  0.96220050083E+03 -0.15240288060E+04  0.18025220523E+04  0.12699999809E+01 0. -1.
</event>
<event>
 5   0  0.3656086E-06  0.3222346E+04  0.7818609E-02  0.8182940E-01
       -2   -1    0    0    0  501  0.00000000000E+00  0.00000000000E+00  0.18206884631E+04  0.18206884631E+04  0.25500000920E-02 0.  1.
        2   -1    0    0  501    0  0.00000000000E+00  0.00000000000E+00 -0.14257678367E+04  0.14257678367E+04  0.25500000920E-02 0. -1.
    10030    2    1    2    0    0  0.00000000000E+00  0.00000000000E+00  0.39492062639E+03  0.32464562997E+04  0.32223463819E+04 0.  0.
        3    1    3    3  502    0  0.16014529228E+04 -0.11123645885E+03  0.59122977724E+02  0.16063998725E+04  0.10100000352E+00 0.  1.
       -3    1    3    3    0  502 -0.16014529228E+04  0.11123645885E+03  0.33579764867E+03  0.16400564273E+04  0.10100000352E+00 0. -1.
</event>
<event>
 5   0  0.1268836E-06  0.3079579E+04  0.7818609E-02  0.8221365E-01
        1   -1    0    0  501    0  0.00000000000E+00  0.00000000000E+00  0.15356955482E+04  0.15356955482E+04  0.50400001928E-02 0. -1.
       -1   -1    0    0    0  501  0.00000000000E+00  0.00000000000E+00 -0.15438945290E+04  0.15438945291E+04  0.50400001928E-02 0.  1.
    10030    2    1    2    0    0  0.00000000000E+00  0.00000000000E+00 -0.81989808477E+01  0.30795900773E+04  0.30795791629E+04 0.  0.
        1    1    3    3  502    0 -0.94723270165E+02 -0.54495164722E+03  0.14329188799E+04  0.15359691768E+04  0.50400001928E-02 0. -1.
       -1    1    3    3    0  502  0.94723270165E+02  0.54495164722E+03 -0.14411178607E+04  0.15436209005E+04  0.50400001928E-02 0.  1.
</event>
<event>
 5   0  0.3656086E-06  0.3207995E+04  0.7818609E-02  0.8186709E-01
       -2   -1    0    0    0  501  0.00000000000E+00  0.00000000000E+00  0.11406836189E+04  0.11406836189E+04  0.25500000920E-02 0. -1.
        2   -1    0    0  501    0  0.00000000000E+00  0.00000000000E+00 -0.22554958695E+04  0.22554958695E+04  0.25500000920E-02 0.  1.
    10030    2    1    2    0    0  0.00000000000E+00  0.00000000000E+00 -0.11148122507E+04  0.33961794884E+04  0.32079945080E+04 0.  0.
        3    1    3    3  502    0 -0.63194222284E+01  0.10631265124E+04 -0.18289148213E+04  0.21154685889E+04  0.10100000352E+00 0.  1.
       -3    1    3    3    0  502  0.63194222284E+01 -0.10631265124E+04  0.71410257068E+03  0.12807108995E+04  0.10100000352E+00 0. -1.
</event>
<event>
 5   0  0.1240725E-06  0.2723780E+04  0.7818609E-02  0.8327330E-01
       -1   -1    0    0    0  501  0.00000000000E+00  0.00000000000E+00  0.36015123744E+04  0.36015123744E+04  0.50400001928E-02 0. -1.
        1   -1    0    0  501    0  0.00000000000E+00  0.00000000000E+00 -0.51499030351E+03  0.51499030354E+03  0.50400001928E-02 0.  1.
    10030    2    1    2    0    0  0.00000000000E+00  0.00000000000E+00  0.30865220709E+04  0.41165026779E+04  0.27237796907E+04 0.  0.
        3    1    3    3  502    0  0.18598863736E+03  0.67764773649E+03  0.33063605499E+04  0.33802098048E+04  0.10100000352E+00 0. -1.
       -3    1    3    3    0  502 -0.18598863736E+03 -0.67764773649E+03 -0.21983847904E+03  0.73629287316E+03  0.10100000352E+00 0.  1.
</event>
<event>
 5   0  0.1306843E-06  0.3219906E+04  0.7818609E-02  0.8183580E-01
       -1   -1    0    0    0  501  0.00000000000E+00  0.00000000000E+00  0.16442756292E+04  0.16442756292E+04  0.50400001928E-02 0. -1.
        1   -1    0    0  501    0  0.00000000000E+00  0.00000000000E+00 -0.15763464543E+04  0.15763464543E+04  0.50400001928E-02 0.  1.
    10030    2    1    2    0    0  0.00000000000E+00  0.00000000000E+00  0.67929174853E+02  0.32206220835E+04  0.32199056247E+04 0.  0.
        5    1    3    3  502    0 -0.12844633253E+04 -0.25054661704E+03  0.97188658728E+03  0.16300936384E+04  0.46999998093E+01 0. -1.
       -5    1    3    3    0  502  0.12844633253E+04  0.25054661704E+03 -0.90395741243E+03  0.15905284451E+04  0.46999998093E+01 0.  1.
</event>
<event>
 5   0  0.1240725E-06  0.2814987E+04  0.7818609E-02  0.8298631E-01
       -1   -1    0    0    0  501  0.00000000000E+00  0.00000000000E+00  0.10514158310E+04  0.10514158310E+04  0.50400001928E-02 0. -1.
        1   -1    0    0  501    0  0.00000000000E+00  0.00000000000E+00 -0.18841618882E+04  0.18841618882E+04  0.50400001928E-02 0.  1.
    10030    2    1    2    0    0  0.00000000000E+00  0.00000000000E+00 -0.83274605726E+03  0.29355777192E+04  0.28149867761E+04 0.  0.
        3    1    3    3  502    0  0.20583585382E+03  0.11019102886E+04  0.47124335953E+03  0.12159954757E+04  0.10100000352E+00 0. -1.
       -3    1    3    3    0  502 -0.20583585382E+03 -0.11019102886E+04 -0.13039894168E+04  0.17195822435E+04  0.10100000352E+00 0.  1.
</event>
<event>
 5   0  0.3745943E-06  0.3131933E+04  0.7818609E-02  0.8207028E-01
       -2   -1    0    0    0  501  0.00000000000E+00  0.00000000000E+00  0.16108179894E+04  0.16108179894E+04  0.25500000920E-02 0.  1.
        2   -1    0    0  501    0  0.00000000000E+00  0.00000000000E+00 -0.15223641767E+04  0.15223641767E+04  0.25500000920E-02 0. -1.
    10030    2    1    2    0    0  0.00000000000E+00  0.00000000000E+00  0.88453812681E+02  0.31331821662E+04  0.31319333341E+04 0.  0.
        5    1    3    3  502    0 -0.65229827491E+03  0.97351531955E+03 -0.99493865067E+03  0.15372540862E+04  0.46999998093E+01 0. -1.
       -5    1    3    3    0  502  0.65229827491E+03 -0.97351531955E+03  0.10833924634E+04  0.15959280800E+04  0.46999998093E+01 0.  1.
</event>
<event>
 5   0  0.3531437E-06  0.2417979E+04  0.7818609E-02  0.8432803E-01
        2   -1    0    0  501    0  0.00000000000E+00  0.00000000000E+00  0.11395029191E+04  0.11395029191E+04  0.25500000920E-02 0.  1.
       -2   -1    0    0    0  501  0.00000000000E+00  0.00000000000E+00 -0.12827136421E+04  0.12827136421E+04  0.25500000920E-02 0. -1.
    10030    2    1    2    0    0  0.00000000000E+00  0.00000000000E+00 -0.14321072299E+03  0.24222165613E+04  0.24179792717E+04 0.  0.
        1    1    3    3  502    0 -0.11891381116E+04  0.20414410699E+03 -0.14875769430E+03  0.12156698221E+04  0.50400001928E-02 0.  1.
       -1    1    3    3    0  502  0.11891381116E+04 -0.20414410699E+03  0.55469713033E+01  0.12065467391E+04  0.50400001928E-02 0. -1.
</event>
<event>
 5   0  0.3531437E-06  0.3334364E+04  0.7818609E-02  0.8154206E-01
        2   -1    0    0  501    0  0.00000000000E+00  0.00000000000E+00  0.20881070396E+04  0.20881070396E+04  0.25500000920E-02 0.  1.
       -2   -1    0    0    0  501  0.00000000000E+00  0.00000000000E+00 -0.13311082494E+04  0.13311082494E+04  0.25500000920E-02 0. -1.
    10030    2    1    2    0    0  0.00000000000E+00  0.00000000000E+00  0.75699879017E+03  0.34192152890E+04  0.33343644108E+04 0.  0.
        1    1    3    3  502    0  0.13136725470E+04  0.49988457853E+02 -0.67290282210E+03  0.14768319521E+04  0.50400001928E-02 0. -1.
       -1    1    3    3    0  502 -0.13136725470E+04 -0.49988457853E+02  0.14299016123E+04  0.19423833369E+04  0.50400001928E-02 0.  1.
</event>
<event>
 5   0  0.1273754E-06  0.3231069E+04  0.7818609E-02  0.8180660E-01
        1   -1    0    0  501    0  0.00000000000E+00  0.00000000000E+00  0.20836852217E+04  0.20836852217E+04  0.50400001928E-02 0. -1.
       -1   -1    0    0    0  501  0.00000000000E+00  0.00000000000E+00 -0.12525653127E+04  0.12525653127E+04  0.50400001928E-02 0.  1.
    10030    2    1    2    0    0  0.00000000000E+00  0.00000000000E+00  0.83111990903E+03  0.33362505344E+04  0.32310690685E+04 0.  0.
        2    1    3    3  502    0  0.16225314176E+03 -0.51755836319E+03 -0.11557400196E+04  0.12766862317E+04  0.25500000920E-02 0.  1.
       -2    1    3    3    0  502 -0.16225314176E+03  0.51755836319E+03  0.19868599286E+04  0.20595643028E+04  0.25500000920E-02 0. -1.
</event>
<event>
 5   0  0.1185575E-06  0.3287693E+04  0.7818609E-02  0.8166034E-01
       -4   -1    0    0    0  501  0.00000000000E+00  0.00000000000E+00  0.20313222815E+04  0.20313226785E+04  0.12699999809E+01 0. -1.
        4   -1    0    0  501    0  0.00000000000E+00  0.00000000000E+00 -0.13302807645E+04  0.13302813707E+04  0.12699999809E+01 0.  1.
    10030    2    1    2    0    0  0.00000000000E+00  0.00000000000E+00  0.70104151694E+03  0.33616040492E+04  0.32876925913E+04 0.  0.
        5    1    3    3  502    0 -0.34551341121E+02  0.16064291256E+04  0.70530882286E+03  0.17547908583E+04  0.46999998093E+01 0. -1.
       -5    1    3    3    0  502  0.34551341121E+02 -0.16064291256E+04 -0.42673059257E+01  0.16068131909E+04  0.46999998093E+01 0.  1.
</event>
<event>
 5   0  0.3758062E-06  0.3197108E+04  0.7818609E-02  0.8189581E-01
        2   -1    0    0  501    0  0.00000000000E+00  0.00000000000E+00  0.13487516222E+04  0.13487516222E+04  0.25500000920E-02 0. -1.
       -2   -1    0    0    0  501  0.00000000000E+00  0.00000000000E+00 -0.18946217037E+04  0.18946217037E+04  0.25500000920E-02 0.  1.
    10030    2    1    2    0    0  0.00000000000E+00  0.00000000000E+00 -0.54587008149E+03  0.32433733259E+04  0.31971075029E+04 0.  0.
        2    1    3    3  502    0  0.13438169342E+04 -0.37515478746E+03  0.51860540244E+03  0.14884678803E+04  0.25500000920E-02 0. -1.
       -2    1    3    3    0  502 -0.13438169342E+04  0.37515478746E+03 -0.10644754839E+04  0.17549054456E+04  0.25500000920E-02 0.  1.
</event>
<event>
 5   0  0.1306843E-06  0.3175811E+04  0.7818609E-02  0.8195235E-01
        1   -1    0    0  501    0  0.00000000000E+00  0.00000000000E+00  0.24214861015E+04  0.24214861015E+04  0.50400001928E-02 0. -1.
       -1   -1    0    0    0  501  0.00000000000E+00  0.00000000000E+00 -0.10412792701E+04  0.10412792701E+04  0.50400001928E-02 0.  1.
    10030    2    1    2    0    0  0.00000000000E+00  0.00000000000E+00  0.13802068314E+04  0.34627653716E+04  0.31758106243E+04 0.  0.
        5    1    3    3  502    0 -0.47918631450E+03  0.14651286582E+04  0.11055845418E+04  0.18969872899E+04  0.46999998093E+01 0. -1.
       -5    1    3    3    0  502  0.47918631450E+03 -0.14651286582E+04  0.27462228958E+03  0.15657780817E+04  0.46999998093E+01 0.  1.
</event>
<event>
 5   0  0.1273980E-06  0.3255310E+04  0.7818609E-02  0.8174361E-01
        1   -1    0    0  501    0  0.00000000000E+00  0.00000000000E+00  0.26984328120E+04  0.26984328120E+04  0.50400001928E-02 0.  1.
       -1   -1    0    0    0  501  0.00000000000E+00  0.00000000000E+00 -0.98177780824E+03  0.98177780826E+03  0.50400001928E-02 0. -1.
    10030    2    1    2    0    0  0.00000000000E+00  0.00000000000E+00  0.17166550038E+04  0.36802106203E+04  0.32553104011E+04 0.  0.
        4    1    3    3  502    0 -0.16646571865E+03 -0.48022585160E+03 -0.88976291909E+03  0.10246986724E+04  0.12699999809E+01 0. -1.
       -4    1    3    3    0  502  0.16646571865E+03  0.48022585160E+03  0.26064179229E+04  0.26555119479E+04  0.12699999809E+01 0.  1.
</event>
<event>
 5   0  0.1240725E-06  0.3104257E+04  0.7818609E-02  0.8214571E-01
        1   -1    0    0  501    0  0.00000000000E+00  0.00000000000E+00  0.16496852148E+04  0.16496852148E+04  0.50400001928E-02 0. -1.
       -1   -1    0    0    0  501  0.00000000000E+00  0.00000000000E+00 -0.14603411859E+04  0.14603411859E+04  0.50400001928E-02 0.  1.
    10030    2    1    2    0    0  0.00000000000E+00  0.00000000000E+00  0.18934402886E+03  0.31100264007E+04  0.31042572464E+04 0.  0.
        3    1    3    3  502    0 -0.14338331787E+04  0.57960387230E+03 -0.37044827535E+02  0.15469940409E+04  0.10100000352E+00 0. -1.
       -3    1    3    3    0  502  0.14338331787E+04 -0.57960387230E+03  0.22638885640E+03  0.15630323598E+04  0.10100000352E+00 0.  1.
</event>
<event>
 5   0  0.1306843E-06  0.3197898E+04  0.7818609E-02  0.8189373E-01
       -1   -1    0    0    0  501  0.00000000000E+00  0.00000000000E+00  0.18675169125E+04  0.18675169125E+04  0.50400001928E-02 0. -1.
        1   -1    0    0  501    0  0.00000000000E+00  0.00000000000E+00 -0.13690036155E+04  0.13690036155E+04  0.50400001928E-02 0.  1.
    10030    2    1    2    0    0  0.00000000000E+00  0.00000000000E+00  0.49851329697E+03  0.32365205280E+04  0.31978976877E+04 0.  0.
        5    1    3    3  502    0 -0.85459736863E+03  0.97515600091E+03 -0.69764424592E+03  0.14724114481E+04  0.46999998093E+01 0.  1.
       -5    1    3    3    0  502  0.85459736863E+03 -0.97515600091E+03  0.11961575429E+04  0.17641090800E+04  0.46999998093E+01 0. -1.
</event>
<event>
 5   0  0.3758062E-06  0.3268050E+04  0.7818609E-02  0.8171073E-01
        2   -1    0    0  501    0  0.00000000000E+00  0.00000000000E+00  0.16399553715E+04  0.16399553715E+04  0.25500000920E-02 0. -1.
       -2   -1    0    0    0  501  0.00000000000E+00  0.00000000000E+00 -0.16281161194E+04  0.16281161194E+04  0.25500000920E-02 0.  1.
    10030    2    1    2    0    0  0.00000000000E+00  0.00000000000E+00  0.11839252060E+02  0.32680714909E+04  0.32680500458E+04 0.  0.
        2    1    3    3  502    0  0.63640881433E+03 -0.14329609321E+04 -0.45413182888E+03  0.16323691157E+04  0.25500000920E-02 0.  1.
       -2    1    3    3    0  502 -0.63640881433E+03  0.14329609321E+04  0.46597108094E+03  0.16357023752E+04  0.25500000920E-02 0. -1.
</event>
<event>
 5   0  0.3758062E-06  0.3179589E+04  0.7818609E-02  0.8194229E-01
       -2   -1    0    0    0  501  0.00000000000E+00  0.00000000000E+00  0.15267628558E+04  0.15267628558E+04  0.25500000920E-02 0.  1.
        2   -1    0    0  501    0  0.00000000000E+00  0.00000000000E+00 -0.16554284856E+04  0.16554284856E+04  0.25500000920E-02 0. -1.
    10030    2    1    2    0    0  0.00000000000E+00  0.00000000000E+00 -0.12866562977E+03  0.31821913414E+04  0.31795891069E+04 0.  0.
        2    1    3    3  502    0 -0.18415713861E+03  0.44908915885E+03  0.14507925003E+04  0.15298345673E+04  0.25500000920E-02 0.  1.
       -2    1    3    3    0  502  0.18415713861E+03 -0.44908915885E+03 -0.15794581301E+04  0.16523567741E+04  0.25500000920E-02 0. -1.
</event>
<event>
 5   0  0.1273980E-06  0.3294220E+04  0.7818609E-02  0.8164368E-01
        1   -1    0    0  501    0  0.00000000000E+00  0.00000000000E+00  0.92944039906E+03  0.92944039907E+03  0.50400001928E-02 0. -1.
       -1   -1    0    0    0  501  0.00000000000E+00  0.00000000000E+00 -0.29189293666E+04  0.29189293667E+04  0.50400001928E-02 0.  1.
    10030    2    1    2    0    0  0.00000000000E+00  0.00000000000E+00 -0.19894889676E+04  0.38483697657E+04  0.32942197106E+04 0.  0.
        4    1    3    3  502    0  0.12409143944E+04  0.10508584240E+04 -0.68832954637E+03  0.17657777716E+04  0.12699999809E+01 0. -1.
       -4    1    3    3    0  502 -0.12409143944E+04 -0.10508584240E+04 -0.13011594212E+04  0.20825919941E+04  0.12699999809E+01 0.  1.
</event>
<event>
 5   0  0.1268836E-06  0.3241725E+04  0.7818609E-02  0.8177884E-01
        1   -1    0    0  501    0  0.00000000000E+00  0.00000000000E+00  0.22892431192E+04  0.22892431193E+04  0.50400001928E-02 0. -1.
       -1   -1    0    0    0  501  0.00000000000E+00  0.00000000000E+00 -0.11476262976E+04  0.11476262976E+04  0.50400001928E-02 0.  1.
    10030    2    1    2    0    0  0.00000000000E+00  0.00000000000E+00  0.11416168217E+04  0.34368694168E+04  0.32417252229E+04 0.  0.
        1    1    3    3  502    0 -0.90224871407E+03 -0.38670418208E+03 -0.79664218466E+03  0.12642118639E+04  0.50400001928E-02 0.  1.
       -1    1    3    3    0  502  0.90224871407E+03  0.38670418208E+03  0.19382590063E+04  0.21726575529E+04  0.50400001928E-02 0. -1.
</event>
<event>
 5   0  0.1268836E-06  0.3148079E+04  0.7818609E-02  0.8202666E-01
        1   -1    0    0  501    0  0.00000000000E+00  0.00000000000E+00  0.13748866248E+04  0.13748866248E+04  0.50400001928E-02 0.  1.
       -1   -1    0    0    0  501  0.00000000000E+00  0.00000000000E+00 -0.18020398921E+04  0.18020398921E+04  0.50400001928E-02 0. -1.
    10030    2    1    2    0    0  0.00000000000E+00  0.00000000000E+00 -0.42715326727E+03  0.31769265169E+04  0.31480791255E+04 0.  0.
        1    1    3    3  502    0 -0.68955876920E+03  0.14118199214E+04 -0.11851279949E+03  0.15756814622E+04  0.50400001928E-02 0. -1.
       -1    1    3    3    0  502  0.68955876920E+03 -0.14118199214E+04 -0.30864046779E+03  0.16012450547E+04  0.50400001928E-02 0.  1.
</event>
<event>
 5   0  0.1306843E-06  0.3213357E+04  0.7818609E-02  0.8185299E-01
        1   -1    0    0  501    0  0.00000000000E+00  0.00000000000E+00  0.11495378164E+04  0.11495378164E+04  0.50400001928E-02 0. -1.
       -1   -1    0    0    0  501  0.00000000000E+00  0.00000000000E+00 -0.22456119473E+04  0.22456119473E+04  0.50400001928E-02 0.  1.
    10030    2    1    2    0    0  0.00000000000E+00  0.00000000000E+00 -0.10960741309E+04  0.33951497637E+04  0.32133570324E+04 0.  0.
        5    1    3    3  502    0  0.90145878017E+03  0.13200769796E+04 -0.71893641261E+03  0.17527472208E+04  0.46999998093E+01 0.  1.
       -5    1    3    3    0  502 -0.90145878017E+03 -0.13200769796E+04 -0.37713771827E+03  0.16424025429E+04  0.46999998093E+01 0. -1.
</event>
<event>
 5   0  0.3531437E-06  0.3300319E+04  0.7818609E-02  0.8162814E-01
        2   -1    0    0  501    0  0.00000000000E+00  0.00000000000E+00  0.20306257621E+04  0.20306257621E+04  0.25500000920E-02 0.  1.
       -2   -1    0    0    0  501  0.00000000000E+00  0.00000000000E+00 -0.13409787493E+04  0.13409787493E+04  0.25500000920E-02 0. -1.
    10030    2    1    2    0    0  0.00000000000E+00  0.00000000000E+00  0.68964701280E+03  0.33716045114E+04  0.33003187693E+04 0.  0.
        1    1    3    3  502    0 -0.52782629304E+03  0.39310882110E+03 -0.12011004534E+04  0.13695902453E+04  0.50400001928E-02 0. -1.
       -1    1    3    3    0  502  0.52782629304E+03 -0.39310882110E+03  0.18907474662E+04  0.20020142661E+04  0.50400001928E-02 0.  1.
</event>
<event>
 5   0  0.3656086E-06  0.2709971E+04  0.7818609E-02  0.8331777E-01
       -2   -1    0    0    0  501  0.00000000000E+00  0.00000000000E+00  0.12122899231E+04  0.12122899231E+04  0.25500000920E-02 0.  1.
        2   -1    0    0  501    0  0.00000000000E+00  0.00000000000E+00 -0.15144779051E+04  0.15144779051E+04  0.25500000920E-02 0. -1.
    10030    2    1    2    0    0  0.00000000000E+00  0.00000000000E+00 -0.30218798194E+03  0.27267678282E+04  0.27099714413E+04 0.  0.
        3    1    3    3  502    0 -0.83554503362E+03  0.10545012374E+04  0.10769243206E+02  0.13454457811E+04  0.10100000352E+00 0.  1.
       -3    1    3    3    0  502  0.83554503362E+03 -0.10545012374E+04 -0.31295722515E+03  0.13813220472E+04  0.10100000352E+00 0. -1.
</event>
<event>
 5   0  0.3531437E-06  0.3161965E+04  0.7818609E-02  0.8198935E-01
       -2   -1    0    0    0  501  0.00000000000E+00  0.00000000000E+00  0.17872872598E+04  0.17872872598E+04  0.25500000920E-02 0.  1.
        2   -1    0    0  501    0  0.00000000000E+00  0.00000000000E+00 -0.13984913600E+04  0.13984913600E+04  0.25500000920E-02 0. -1.
    10030    2    1    2    0    0  0.00000000000E+00  0.00000000000E+00  0.38879589982E+03  0.31857786199E+04  0.31619650793E+04 0.  0.
        1    1    3    3  502    0  0.56028928274E+03  0.12222521646E+04  0.10323353192E+04  0.16951521010E+04  0.50400001928E-02 0.  1.
       -1    1    3    3    0  502 -0.56028928274E+03 -0.12222521646E+04 -0.64353941943E+03  0.14906265188E+04  0.50400001928E-02 0. -1.
</event>
<event>
 5   0  0.3656086E-06  0.3207270E+04  0.7818609E-02  0.8186900E-01
        2   -1    0    0  501    0  0.00000000000E+00  0.00000000000E+00  0.15335630693E+04  0.15335630693E+04  0.25500000920E-02 0.  1.
       -2   -1    0    0    0  501  0.00000000000E+00  0.00000000000E+00 -0.16769091044E+04  0.16769091044E+04  0.25500000920E-02 0. -1.
    10030    2    1    2    0    0  0.00000000000E+00  0.00000000000E+00 -0.14334603504E+03  0.32104721737E+04  0.32072704115E+04 0.  0.
        3    1    3    3  502    0  0.71508541856E+03 -0.10982075541E+04  0.85350008519E+03  0.15639275538E+04  0.10100000352E+00 0.  1.
       -3    1    3    3    0  502 -0.71508541856E+03  0.10982075541E+04 -0.99684612024E+03  0.16465446199E+04  0.10100000352E+00 0. -1.
</event>
<event>
 5   0  0.3745943E-06  0.3096777E+04  0.7818609E-02  0.8216623E-01
        2   -1    0    0  501    0  0.00000000000E+00  0.00000000000E+00  0.19699144383E+04  0.19699144383E+04  0.25500000920E-02 0.  1.
       -2   -1    0    0    0  501  0.00000000000E+00  0.00000000000E+00 -0.12170613741E+04  0.12170613741E+04  0.25500000920E-02 0. -1.
    10030    2    1    2    0    0  0.00000000000E+00  0.00000000000E+00  0.75285306419E+03  0.31869758124E+04  0.30967768877E+04 0.  0.
        5    1    3    3  502    0 -0.13976721178E+03 -0.74005972497E+03 -0.10158497095E+04  0.12645932122E+04  0.46999998093E+01 0. -1.
       -5    1    3    3    0  502  0.13976721178E+03  0.74005972497E+03  0.17687027737E+04  0.19223826002E+04  0.46999998093E+01 0.  1.
</event>
<event>
 5   0  0.1185575E-06  0.3160556E+04  0.7818609E-02  0.8199312E-01
        4   -1    0    0  501    0  0.00000000000E+00  0.00000000000E+00  0.12318032654E+04  0.12318039201E+04  0.12699999809E+01 0.  1.
       -4   -1    0    0    0  501  0.00000000000E+00  0.00000000000E+00 -0.20273345871E+04  0.20273349849E+04  0.12699999809E+01 0. -1.
    10030    2    1    2    0    0  0.00000000000E+00  0.00000000000E+00 -0.79553132165E+03  0.32591389050E+04  0.31605563305E+04 0.  0.
        3    1    3    3  502    0 -0.80387233189E+02  0.12023147954E+03 -0.20204959562E+04  0.20256657265E+04  0.10100000352E+00 0. -1.
       -3    1    3    3    0  502  0.80387233189E+02 -0.12023147954E+03  0.12249646346E+04  0.12334731785E+04  0.10100000352E+00 0.  1.
</event>
<event>
 5   0  0.1240725E-06  0.2398269E+04  0.7818609E-02  0.8440152E-01
        1   -1    0    0  501    0  0.00000000000E+00  0.00000000000E+00  0.14266020357E+04  0.14266020357E+04  0.50400001928E-02 0. -1.
       -1   -1    0    0    0  501  0.00000000000E+00  0.00000000000E+00 -0.10079360665E+04  0.10079360665E+04  0.50400001928E-02 0.  1.
    10030    2    1    2    0    0  0.00000000000E+00  0.00000000000E+00  0.41866596923E+03  0.24345381022E+04  0.23982690794E+04 0.  0.
        3    1    3    3  502    0 -0.75676462882E+03 -0.79447283649E+03  0.70042998088E+03  0.13017226892E+04  0.10100000352E+00 0. -1.
       -3    1    3    3    0  502  0.75676462882E+03  0.79447283649E+03 -0.28176401165E+03  0.11328154129E+04  0.10100000352E+00 0.  1.
</event>
<event>
 5   0  0.3531437E-06  0.3270014E+04  0.7818609E-02  0.8170567E-01
       -2   -1    0    0    0  501  0.00000000000E+00  0.00000000000E+00  0.17461645749E+04  0.17461645749E+04  0.25500000920E-02 0. -1.
        2   -1    0    0  501    0  0.00000000000E+00  0.00000000000E+00 -0.15309258680E+04  0.15309258680E+04  0.25500000920E-02 0.  1.
    10030    2    1    2    0    0  0.00000000000E+00  0.00000000000E+00  0.21523870683E+03  0.32770904429E+04  0.32700143838E+04 0.  0.
        1    1    3    3  502    0  0.24709971270E+03 -0.10642184118E+04 -0.11114130325E+04  0.15584793951E+04  0.50400001928E-02 0.  1.
       -1    1    3    3    0  502 -0.24709971270E+03  0.10642184118E+04  0.13266517394E+04  0.17186110478E+04  0.50400001928E-02 0. -1.
</event>
<event>
 5   0  0.1240725E-06  0.3088839E+04  0.7818609E-02  0.8218808E-01
       -1   -1    0    0    0  501  0.00000000000E+00  0.00000000000E+00  0.13103380154E+04  0.13103380154E+04  0.50400001928E-02 0.  1.
        1   -1    0    0  501    0  0.00000000000E+00  0.00000000000E+00 -0.18203180131E+04  0.18203180132E+04  0.50400001928E-02 0. -1.
    10030    2    1    2    0    0  0.00000000000E+00  0.00000000000E+00 -0.50997999776E+03  0.31306560286E+04  0.30888391948E+04 0.  0.
        3    1    3    3  502    0  0.14913957578E+04  0.28907568852E+03  0.26995560653E+02  0.15193929151E+04  0.10100000352E+00 0.  1.
       -3    1    3    3    0  502 -0.14913957578E+04 -0.28907568852E+03 -0.53697555841E+03  0.16112631134E+04  0.10100000352E+00 0. -1.
</event>
<event>
 5   0  0.1273754E-06  0.3252736E+04  0.7818609E-02  0.8175027E-01
       -1   -1    0    0    0  501  0.00000000000E+00  0.00000000000E+00  0.13094140871E+04  0.13094140871E+04  0.50400001928E-02 0. -1.
        1   -1    0    0  501    0  0.00000000000E+00  0.00000000000E+00 -0.20200430374E+04  0.20200430374E+04  0.50400001928E-02 0.  1.
    10030    2    1    2    0    0  0.00000000000E+00  0.00000000000E+00 -0.71062895025E+03  0.33294571245E+04  0.32527359620E+04 0.  0.
        2    1    3    3  502    0  0.10116857816E+04  0.24936750008E+03  0.92289099056E+03  0.13919123720E+04  0.25500000920E-02 0. -1.
       -2    1    3    3    0  502 -0.10116857816E+04 -0.24936750008E+03 -0.16335199408E+04  0.19375447525E+04  0.25500000920E-02 0.  1.
</event>
<event>
 5   0  0.1273980E-06  0.3158196E+04  0.7818609E-02  0.8199946E-01
       -1   -1    0    0    0  501  0.00000000000E+00  0.00000000000E+00  0.11755031739E+04  0.11755031739E+04  0.50400001928E-02 0. -1.
        1   -1    0    0  501    0  0.00000000000E+00  0.00000000000E+00 -0.21212619598E+04  0.21212619598E+04  0.50400001928E-02 0.  1.
    10030    2    1    2    0    0  0.00000000000E+00  0.00000000000E+00 -0.94575878595E+03  0.32967651337E+04  0.31581957928E+04 0.  0.
        4    1    3    3  502    0 -0.18476257312E+03 -0.23559134187E+03 -0.20913614351E+04  0.21126842532E+04  0.12699999809E+01 0.  1.
       -4    1    3    3    0  502  0.18476257312E+03  0.23559134187E+03  0.11456026491E+04  0.11840808804E+04  0.12699999809E+01 0. -1.
</event>
<event>
 5   0  0.3497546E-06  0.3191352E+04  0.7818609E-02  0.8191105E-01
        2   -1    0    0  501    0  0.00000000000E+00  0.00000000000E+00  0.13074238761E+04  0.13074238761E+04  0.25500000920E-02 0. -1.
       -2   -1    0    0    0  501  0.00000000000E+00  0.00000000000E+00 -0.19474804027E+04  0.19474804027E+04  0.25500000920E-02 0.  1.
    10030    2    1    2    0    0  0.00000000000E+00  0.00000000000E+00 -0.64005652656E+03  0.32549042788E+04  0.31913523007E+04 0.  0.
        4    1    3    3  502    0 -0.49099318641E+03  0.69947335491E+02 -0.18668760360E+04  0.19316300592E+04  0.12699999809E+01 0.  1.
       -4    1    3    3    0  502  0.49099318641E+03 -0.69947335491E+02  0.12268195094E+04  0.13232742197E+04  0.12699999809E+01 0. -1.
</event>
<event>
 5   0  0.1306843E-06  0.3021187E+04  0.7818609E-02  0.8237707E-01
        1   -1    0    0  501    0  0.00000000000E+00  0.00000000000E+00  0.97780913243E+03  0.97780913245E+03  0.50400001928E-02 0.  1.
       -1   -1    0    0    0  501  0.00000000000E+00  0.00000000000E+00 -0.23336794309E+04  0.23336794309E+04  0.50400001928E-02 0. -1.
    10030    2    1    2    0    0  0.00000000000E+00  0.00000000000E+00 -0.13558702985E+04  0.33114885634E+04  0.30211872234E+04 0.  0.
        5    1    3    3  502    0 -0.82815432719E+03 -0.12344442094E+04 -0.97241166890E+03  0.17763160303E+04  0.46999998093E+01 0.  1.
       -5    1    3    3    0  502  0.82815432719E+03  0.12344442094E+04 -0.38345862958E+03  0.15351725331E+04  0.46999998093E+01 0. -1.
</event>
<event>
 5   0  0.1306843E-06  0.3186850E+04  0.7818609E-02  0.8192299E-01
        1   -1    0    0  501    0  0.00000000000E+00  0.00000000000E+00  0.25652848030E+04  0.25652848030E+04  0.50400001928E-02 0. -1.
       -1   -1    0    0    0  501  0.00000000000E+00  0.00000000000E+00 -0.98975497946E+03  0.98975497947E+03  0.50400001928E-02 0.  1.
    10030    2    1    2    0    0  0.00000000000E+00  0.00000000000E+00  0.15755298235E+04  0.35550397825E+04  0.31868501110E+04 0.  0.
        5    1    3    3  502    0 -0.90889633074E+03 -0.59215609191E+03 -0.51423103503E+03  0.12004986566E+04  0.46999998093E+01 0.  1.
       -5    1    3    3    0  502  0.90889633074E+03  0.59215609191E+03  0.20897608586E+04  0.23545411258E+04  0.46999998093E+01 0. -1.
</event>
<event>
 5   0  0.1306843E-06  0.2808259E+04  0.7818609E-02  0.8300709E-01
        1   -1    0    0  501    0  0.00000000000E+00  0.00000000000E+00  0.15550118745E+04  0.15550118745E+04  0.50400001928E-02 0.  1.
       -1   -1    0    0    0  501  0.00000000000E+00  0.00000000000E+00 -0.12678867777E+04  0.12678867777E+04  0.50400001928E-02 0. -1.
    10030    2    1    2    0    0  0.00000000000E+00  0.00000000000E+00  0.28712509683E+03  0.28228986523E+04  0.28082585315E+04 0.  0.
        5    1    3    3  502    0 -0.77971658328E+02  0.28854604173E+03 -0.12355293879E+04  0.12711779404E+04  0.46999998093E+01 0. -1.
       -5    1    3    3    0  502  0.77971658328E+02 -0.28854604173E+03  0.15226544848E+04  0.15517207119E+04  0.46999998093E+01 0.  1.
</event>
<event>
 5   0  0.3745943E-06  0.3173858E+04  0.7818609E-02  0.8195756E-01
       -2   -1    0    0    0  501  0.00000000000E+00  0.00000000000E+00  0.18520411729E+04  0.18520411729E+04  0.25500000920E-02 0.  1.
        2   -1    0    0  501    0  0.00000000000E+00  0.00000000000E+00 -0.13597661377E+04  0.13597661377E+04  0.25500000920E-02 0. -1.
    10030    2    1    2    0    0  0.00000000000E+00  0.00000000000E+00  0.49227503516E+03  0.32118073106E+04  0.31738575094E+04 0.  0.
        5    1    3    3  502    0  0.31364716493E+03 -0.11761869644E+04 -0.78413731792E+03  0.14479930051E+04  0.46999998093E+01 0. -1.
       -5    1    3    3    0  502 -0.31364716493E+03  0.11761869644E+04  0.12764123531E+04  0.17638143055E+04  0.46999998093E+01 0.  1.
</event>
<event>
 5   0  0.3531437E-06  0.3189597E+04  0.7818609E-02  0.8191570E-01
       -2   -1    0    0    0  501  0.00000000000E+00  0.00000000000E+00  0.82936328968E+03  0.82936328968E+03  0.25500000920E-02 0. -1.
        2   -1    0    0  501    0  0.00000000000E+00  0.00000000000E+00 -0.30666680680E+04  0.30666680680E+04  0.25500000920E-02 0.  1.
    10030    2    1    2    0    0  0.00000000000E+00  0.00000000000E+00 -0.22373047783E+04  0.38960313577E+04  0.31895967878E+04 0.  0.
        1    1    3    3  502    0 -0.74691327801E+01  0.12906938203E+04 -0.22628322038E+04  0.26050635133E+04  0.50400001928E-02 0.  1.
       -1    1    3    3    0  502  0.74691327801E+01 -0.12906938203E+04  0.25527425481E+02  0.12909678444E+04  0.50400001928E-02 0. -1.
</event>
<event>
 5   0  0.1273754E-06  0.3213067E+04  0.7818609E-02  0.8185375E-01
        1   -1    0    0  501    0  0.00000000000E+00  0.00000000000E+00  0.12426304424E+04  0.12426304424E+04  0.50400001928E-02 0.  1.
       -1   -1    0    0    0  501  0.00000000000E+00  0.00000000000E+00 -0.20770051384E+04  0.20770051384E+04  0.50400001928E-02 0. -1.
    10030    2    1    2    0    0  0.00000000000E+00  0.00000000000E+00 -0.83437469598E+03  0.33196355807E+04  0.32130669547E+04 0.  0.
        2    1    3    3  502    0 -0.25197396997E+03 -0.10204180863E+04  0.83810273533E+03  0.13443065675E+04  0.25500000920E-02 0.  1.
       -2    1    3    3    0  502  0.25197396997E+03  0.10204180863E+04 -0.16724774313E+04  0.19753290133E+04  0.25500000920E-02 0. -1.
</event>
<event>
 5   0  0.1185575E-06  0.3143024E+04  0.7818609E-02  0.8204029E-01
        4   -1    0    0  501    0  0.00000000000E+00  0.00000000000E+00  0.15513805344E+04  0.15513810542E+04  0.12699999809E+01 0.  1.
       -4   -1    0    0    0  501  0.00000000000E+00  0.00000000000E+00 -0.15919033040E+04  0.15919038106E+04  0.12699999809E+01 0. -1.
    10030    2    1    2    0    0  0.00000000000E+00  0.00000000000E+00 -0.40522769579E+02  0.31432848648E+04  0.31430236472E+04 0.  0.
        2    1    3    3  502    0  0.59668510649E+03  0.12380373957E+04 -0.78247937231E+03  0.15814688354E+04  0.25500000920E-02 0. -1.
       -2    1    3    3    0  502 -0.59668510649E+03 -0.12380373957E+04  0.74195660273E+03  0.15618160294E+04  0.25500000920E-02 0.  1.
</event>
<event>
 5   0  0.3531437E-06  0.3183609E+04  0.7818609E-02  0.8193159E-01
        2   -1    0    0  501    0  0.00000000000E+00  0.00000000000E+00  0.26775807694E+04  0.26775807694E+04  0.25500000920E-02 0. -1.
       -2   -1    0    0    0  501  0.00000000000E+00  0.00000000000E+00 -0.94631779443E+03  0.94631779443E+03  0.25500000920E-02 0.  1.
    10030    2    1    2    0    0  0.00000000000E+00  0.00000000000E+00  0.17312629750E+04  0.36238985638E+04  0.31836094786E+04 0.  0.
        1    1    3    3  502    0 -0.22010074250E+03  0.45810494856E+03  0.25827421121E+04  0.26322730288E+04  0.50400001928E-02 0. -1.
       -1    1    3    3    0  502  0.22010074250E+03 -0.45810494856E+03 -0.85147913710E+03  0.99162553501E+03  0.50400001928E-02 0.  1.
</event>
<event>
 5   0  0.3531437E-06  0.3047068E+04  0.7818609E-02  0.8230417E-01
       -2   -1    0    0    0  501  0.00000000000E+00  0.00000000000E+00  0.11809543354E+04  0.11809543354E+04  0.25500000920E-02 0.  1.
        2   -1    0    0  501    0  0.00000000000E+00  0.00000000000E+00 -0.19654920895E+04  0.19654920895E+04  0.25500000920E-02 0. -1.
    10030    2    1    2    0    0  0.00000000000E+00  0.00000000000E+00 -0.78453775413E+03  0.31464464249E+04  0.30470683644E+04 0.  0.
        1    1    3    3  502    0 -0.81472399554E+03 -0.10380091501E+04 -0.11786290688E+04  0.17692949631E+04  0.50400001928E-02 0. -1.
       -1    1    3    3    0  502  0.81472399554E+03  0.10380091501E+04  0.39409131462E+03  0.13771514619E+04  0.50400001928E-02 0.  1.
</event>
<event>
 5   0  0.3656086E-06  0.3165537E+04  0.7818609E-02  0.8197979E-01
        2   -1    0    0  501    0  0.00000000000E+00  0.00000000000E+00  0.23062203417E+04  0.23062203417E+04  0.25500000920E-02 0.  1.
       -2   -1    0    0    0  501  0.00000000000E+00  0.00000000000E+00 -0.10862603941E+04  0.10862603941E+04  0.25500000920E-02 0. -1.
    10030    2    1    2    0    0  0.00000000000E+00  0.00000000000E+00  0.12199599476E+04  0.33924807359E+04  0.31655368059E+04 0.  0.
        3    1    3    3  502    0  0.32600543492E+03  0.73077400453E+03 -0.85351577403E+03  0.11699569975E+04  0.10100000352E+00 0. -1.
       -3    1    3    3    0  502 -0.32600543492E+03 -0.73077400453E+03  0.20734757216E+04  0.22225237384E+04  0.10100000352E+00 0.  1.
</event>
<event>
 5   0  0.1273980E-06  0.3200979E+04  0.7818609E-02  0.8188559E-01
        1   -1    0    0  501    0  0.00000000000E+00  0.00000000000E+00  0.24171578051E+04  0.24171578051E+04  0.50400001928E-02 0.  1.
       -1   -1    0    0    0  501  0.00000000000E+00  0.00000000000E+00 -0.10597430184E+04  0.10597430185E+04  0.50400001928E-02 0. -1.
    10030    2    1    2    0    0  0.00000000000E+00  0.00000000000E+00  0.13574147867E+04  0.34769008236E+04  0.32009786682E+04 0.  0.
        4    1    3    3  502    0  0.15030188824E+04  0.53157567877E+03  0.52537993404E+03  0.16785899294E+04  0.12699999809E+01 0. -1.
       -4    1    3    3    0  502 -0.15030188824E+04 -0.53157567877E+03  0.83203485263E+03  0.17983108942E+04  0.12699999809E+01 0.  1.
</event>
<event>
 5   0  0.1273980E-06  0.3128092E+04  0.7818609E-02  0.8208070E-01
       -1   -1    0    0    0  501  0.00000000000E+00  0.00000000000E+00  0.18701184839E+04  0.18701184839E+04  0.50400001928E-02 0.  1.
        1   -1    0    0  501    0  0.00000000000E+00  0.00000000000E+00 -0.13080665667E+04  0.13080665667E+04  0.50400001928E-02 0. -1.
    10030    2    1    2    0    0  0.00000000000E+00  0.00000000000E+00  0.56205191725E+03  0.31781850506E+04  0.31280917279E+04 0.  0.
        4    1    3    3  502    0  0.41184146888E+03  0.59334643380E+03 -0.11284768064E+04  0.13398264446E+04  0.12699999809E+01 0. -1.
       -4    1    3    3    0  502 -0.41184146888E+03 -0.59334643380E+03  0.16905287237E+04  0.18383586061E+04  0.12699999809E+01 0.  1.
</event>
<event>
 5   0  0.1268836E-06  0.3472945E+04  0.7818609E-02  0.8120232E-01
       -1   -1    0    0    0  501  0.00000000000E+00  0.00000000000E+00  0.14328579294E+04  0.14328579294E+04  0.50400001928E-02 0. -1.
        1   -1    0    0  501    0  0.00000000000E+00  0.00000000000E+00 -0.21044216426E+04  0.21044216426E+04  0.50400001928E-02 0.  1.
    10030    2    1    2    0    0  0.00000000000E+00  0.00000000000E+00 -0.67156371315E+03  0.35372795720E+04  0.34729452846E+04 0.  0.
        1    1    3    3  502    0  0.10767219548E+03 -0.59965008114E+02  0.14283977369E+04  0.14337047111E+04  0.50400001928E-02 0. -1.
       -1    1    3    3    0  502 -0.10767219548E+03  0.59965008114E+02 -0.20999614500E+04  0.21035748609E+04  0.50400001928E-02 0.  1.
</event>
<event>
 5   0  0.3745943E-06  0.3223282E+04  0.7818609E-02  0.8182695E-01
       -2   -1    0    0    0  501  0.00000000000E+00  0.00000000000E+00  0.18617706451E+04  0.18617706451E+04  0.25500000920E-02 0.  1.
        2   -1    0    0  501    0  0.00000000000E+00  0.00000000000E+00 -0.13951161526E+04  0.13951161526E+04  0.25500000920E-02 0. -1.
    10030    2    1    2    0    0  0.00000000000E+00  0.00000000000E+00  0.46665449247E+03  0.32568867977E+04  0.32232817435E+04 0.  0.
        5    1    3    3  502    0  0.54630138200E+03  0.15059131450E+04  0.41164551507E+03  0.16539932649E+04  0.46999998093E+01 0. -1.
       -5    1    3    3    0  502 -0.54630138200E+03 -0.15059131450E+04  0.55008977399E+02  0.16028935329E+04  0.46999998093E+01 0.  1.
</event>
<event>
 5   0  0.1268836E-06  0.3027545E+04  0.7818609E-02  0.8235909E-01
       -1   -1    0    0    0  501  0.00000000000E+00  0.00000000000E+00  0.13594428063E+04  0.13594428063E+04  0.50400001928E-02 0.  1.
        1   -1    0    0  501    0  0.00000000000E+00  0.00000000000E+00 -0.16856228898E+04  0.16856228898E+04  0.50400001928E-02 0. -1.
    10030    2    1    2    0    0  0.00000000000E+00  0.00000000000E+00 -0.32618008351E+03  0.30450656962E+04  0.30275454822E+04 0.  0.
        1    1    3    3  502    0 -0.66071464927E+03 -0.13612120048E+04 -0.20880570626E+03  0.15274297997E+04  0.50400001928E-02 0. -1.
       -1    1    3    3    0  502  0.66071464927E+03  0.13612120048E+04 -0.11737437725E+03  0.15176358965E+04  0.50400001928E-02 0.  1.
</event>
<event>
 5   0  0.3745943E-06  0.3173397E+04  0.7818609E-02  0.8195879E-01
        2   -1    0    0  501    0  0.00000000000E+00  0.00000000000E+00  0.24341802388E+04  0.24341802388E+04  0.25500000920E-02 0.  1.
       -2   -1    0    0    0  501  0.00000000000E+00  0.00000000000E+00 -0.10342748313E+04  0.10342748313E+04  0.25500000920E-02 0. -1.
    10030    2    1    2    0    0  0.00000000000E+00  0.00000000000E+00  0.13999054075E+04  0.34684550702E+04  0.31733965122E+04 0.  0.
        5    1    3    3  502    0  0.46659303608E+03 -0.12820178146E+04 -0.18550214076E+03  0.13768485292E+04  0.46999998093E+01 0. -1.
       -5    1    3    3    0  502 -0.46659303608E+03  0.12820178146E+04  0.15854075482E+04  0.20916065409E+04  0.46999998093E+01 0.  1.
</event>
<event>
 5   0  0.3531437E-06  0.3211257E+04  0.7818609E-02  0.8185850E-01
       -2   -1    0    0    0  501  0.00000000000E+00  0.00000000000E+00  0.90980579689E+03  0.90980579689E+03  0.25500000920E-02 0.  1.
        2   -1    0    0  501    0  0.00000000000E+00  0.00000000000E+00 -0.28336196081E+04  0.28336196082E+04  0.25500000920E-02 0. -1.
    10030    2    1    2    0    0  0.00000000000E+00  0.00000000000E+00 -0.19238138113E+04  0.37434254050E+04  0.32112574146E+04 0.  0.
        1    1    3    3  502    0 -0.37427501899E+03  0.76045725716E+03  0.62778000792E+03  0.10547439349E+04  0.50400001928E-02 0.  1.
       -1    1    3    3    0  502  0.37427501899E+03 -0.76045725716E+03 -0.25515938192E+04  0.26886814702E+04  0.50400001928E-02 0. -1.
</event>
<event>
 5   0  0.3497546E-06  0.3196291E+04  0.7818609E-02  0.8189797E-01
        2   -1    0    0  501    0  0.00000000000E+00  0.00000000000E+00  0.87382589983E+03  0.87382589984E+03  0.25500000920E-02 0. -1.
       -2   -1    0    0    0  501  0.00000000000E+00  0.00000000000E+00 -0.29228577860E+04  0.29228577860E+04  0.25500000920E-02 0.  1.
    10030    2    1    2    0    0  0.00000000000E+00  0.00000000000E+00 -0.20490318862E+04  0.37966836858E+04  0.31962908722E+04 0.  0.
        4    1    3    3  502    0  0.10640625936E+04  0.11673583124E+04 -0.73571532800E+03  0.17424790642E+04  0.12699999809E+01 0. -1.
       -4    1    3    3    0  502 -0.10640625936E+04 -0.11673583124E+04 -0.13133165582E+04  0.20542046216E+04  0.12699999809E+01 0.  1.
</event>
<event>
 5   0  0.3745943E-06  0.2770044E+04  0.7818609E-02  0.8312629E-01
       -2   -1    0    0    0  501  0.00000000000E+00  0.00000000000E+00  0.99470570668E+03  0.99470570668E+03  0.25500000920E-02 0.  1.
        2   -1    0    0  501    0  0.00000000000E+00  0.00000000000E+00 -0.19284966448E+04  0.19284966448E+04  0.25500000920E-02 0. -1.
    10030    2    1    2    0    0  0.00000000000E+00  0.00000000000E+00 -0.93379093817E+03  0.29232023515E+04  0.27700444891E+04 0.  0.
        5    1    3    3  502    0  0.53664570552E+03 -0.51811644580E+03  0.76460274146E+03  0.10682100481E+04  0.46999998093E+01 0.  1.
       -5    1    3    3    0  502 -0.53664570552E+03  0.51811644580E+03 -0.16983936796E+04  0.18549923034E+04  0.46999998093E+01 0. -1.
</event>
<event>
 5   0  0.1273980E-06  0.3215821E+04  0.7818609E-02  0.8184651E-01
        1   -1    0    0  501    0  0.00000000000E+00  0.00000000000E+00  0.16262082350E+04  0.16262082350E+04  0.50400001928E-02 0. -1.
       -1   -1    0    0    0  501  0.00000000000E+00  0.00000000000E+00 -0.15898188350E+04  0.15898188350E+04  0.50400001928E-02 0.  1.
    10030    2    1    2    0    0  0.00000000000E+00  0.00000000000E+00  0.36389400039E+02  0.32160270700E+04  0.32158211901E+04 0.  0.
        4    1    3    3  502    0  0.14716057006E+04 -0.64249477060E+03 -0.65189295697E+02  0.16070700437E+04  0.12699999809E+01 0.  1.
       -4    1    3    3    0  502 -0.14716057006E+04  0.64249477060E+03  0.10157869574E+03  0.16089570263E+04  0.12699999809E+01 0. -1.
</event>
<event>
 5   0  0.3531437E-06  0.3190969E+04  0.7818609E-02  0.8191206E-01
       -2   -1    0    0    0  501  0.00000000000E+00  0.00000000000E+00  0.19445500093E+04  0.19445500093E+04  0.25500000920E-02 0.  1.
        2   -1    0    0  501    0  0.00000000000E+00  0.00000000000E+00 -0.13090795518E+04  0.13090795518E+04  0.25500000920E-02 0. -1.
    10030    2    1    2    0    0  0.00000000000E+00  0.00000000000E+00  0.63547045742E+03  0.32536295611E+04  0.31909689153E+04 0.  0.
        1    1    3    3  502    0 -0.10502943158E+04  0.37057513108E+03 -0.84711971832E+03  0.13993055045E+04  0.50400001928E-02 0. -1.
       -1    1    3    3    0  502  0.10502943158E+04 -0.37057513108E+03  0.14825901757E+04  0.18543240566E+04  0.50400001928E-02 0.  1.
</event>
<event>
 5   0  0.1273980E-06  0.3419533E+04  0.7818609E-02  0.8133129E-01
       -1   -1    0    0    0  501  0.00000000000E+00  0.00000000000E+00  0.15168264448E+04  0.15168264448E+04  0.50400001928E-02 0. -1.
        1   -1    0    0  501    0  0.00000000000E+00  0.00000000000E+00 -0.19272484849E+04  0.19272484849E+04  0.50400001928E-02 0.  1.
    10030    2    1    2    0    0  0.00000000000E+00  0.00000000000E+00 -0.41042204007E+03  0.34440749297E+04  0.34195329901E+04 0.  0.
        4    1    3    3  502    0  0.89766960079E+03 -0.11928090523E+04  0.63425496075E+03  0.16220003439E+04  0.12699999809E+01 0. -1.
       -4    1    3    3    0  502 -0.89766960079E+03  0.11928090523E+04 -0.10446770008E+04  0.18220745858E+04  0.12699999809E+01 0.  1.
</event>
<event>
 5   0  0.1273754E-06  0.3147156E+04  0.7818609E-02  0.8202914E-01
       -1   -1    0    0    0  501  0.00000000000E+00  0.00000000000E+00  0.11126190935E+04  0.11126190936E+04  0.50400001928E-02 0.  1.
        1   -1    0    0  501    0  0.00000000000E+00  0.00000000000E+00 -0.22255123615E+04  0.22255123615E+04  0.50400001928E-02 0. -1.
    10030    2    1    2    0    0  0.00000000000E+00  0.00000000000E+00 -0.11128932679E+04  0.33381314550E+04  0.31471558883E+04 0.  0.
        2    1    3    3  502    0 -0.68403958263E+02  0.37090384782E+02 -0.22234704715E+04  0.22248316197E+04  0.25500000920E-02 0. -1.
       -2    1    3    3    0  502  0.68403958263E+02 -0.37090384782E+02  0.11105772036E+04  0.11132998353E+04  0.25500000920E-02 0.  1.
</event>
<event>
 5   0  0.1273754E-06  0.3095789E+04  0.7818609E-02  0.8216895E-01
       -1   -1    0    0    0  501  0.00000000000E+00  0.00000000000E+00  0.15033490177E+04  0.15033490177E+04  0.50400001928E-02 0. -1.
        1   -1    0    0  501    0  0.00000000000E+00  0.00000000000E+00 -0.15937599675E+04  0.15937599675E+04  0.50400001928E-02 0.  1.
    10030    2    1    2    0    0  0.00000000000E+00  0.00000000000E+00 -0.90410949812E+02  0.30971089852E+04  0.30957890636E+04 0.  0.
        2    1    3    3  502    0  0.93399438304E+01  0.11472884754E+04  0.99428488638E+03  0.15182096415E+04  0.25500000920E-02 0. -1.
       -2    1    3    3    0  502 -0.93399438304E+01 -0.11472884754E+04 -0.10846958362E+04  0.15788993437E+04  0.25500000920E-02 0.  1.
</event>
<event>
 5   0  0.1268836E-06  0.3189183E+04  0.7818609E-02  0.8191680E-01
       -1   -1    0    0    0  501  0.00000000000E+00  0.00000000000E+00  0.25388018469E+04  0.25388018469E+04  0.50400001928E-02 0.  1.
        1   -1    0    0  501    0  0.00000000000E+00  0.00000000000E+00 -0.10015438908E+04  0.10015438908E+04  0.50400001928E-02 0. -1.
    10030    2    1    2    0    0  0.00000000000E+00  0.00000000000E+00  0.15372579561E+04  0.35403457377E+04  0.31891826412E+04 0.  0.
        1    1    3    3  502    0 -0.59631630600E+03  0.88685692369E+03 -0.54515929920E+03  0.11997112158E+04  0.50400001928E-02 0. -1.
       -1    1    3    3    0  502  0.59631630600E+03 -0.88685692369E+03  0.20824172552E+04  0.23406345219E+04  0.50400001928E-02 0.  1.
</event>
<event>
 5   0  0.1273980E-06  0.3194726E+04  0.7818609E-02  0.8190211E-01
       -1   -1    0    0    0  501  0.00000000000E+00  0.00000000000E+00  0.27782624296E+04  0.27782624296E+04  0.50400001928E-02 0. -1.
        1   -1    0    0  501    0  0.00000000000E+00  0.00000000000E+00 -0.91840439509E+03  0.91840439510E+03  0.50400001928E-02 0.  1.
    10030    2    1    2    0    0  0.00000000000E+00  0.00000000000E+00  0.18598580345E+04  0.36966668247E+04  0.31947259200E+04 0.  0.
        4    1    3    3  502    0  0.87794659241E+03  0.38441411876E+03  0.24085951072E+04  0.25922763042E+04  0.12699999809E+01 0. -1.
       -4    1    3    3    0  502 -0.87794659241E+03 -0.38441411876E+03 -0.54873707274E+03  0.11043905205E+04  0.12699999809E+01 0.  1.
</event>
<event>
 5   0  0.3497546E-06  0.3201881E+04  0.7818609E-02  0.8188321E-01
       -2   -1    0    0    0  501  0.00000000000E+00  0.00000000000E+00  0.10098578636E+04  0.10098578636E+04  0.25500000920E-02 0.  1.
        2   -1    0    0  501    0  0.00000000000E+00  0.00000000000E+00 -0.25379917337E+04  0.25379917337E+04  0.25500000920E-02 0. -1.
    10030    2    1    2    0    0  0.00000000000E+00  0.00000000000E+00 -0.15281338700E+04  0.35478495973E+04  0.32018812658E+04 0.  0.
        4    1    3    3  502    0 -0.12328969273E+04  0.37351128367E+02  0.36678607825E+03  0.12868424846E+04  0.12699999809E+01 0.  1.
       -4    1    3    3    0  502  0.12328969273E+04 -0.37351128367E+02 -0.18949199483E+04  0.22610071127E+04  0.12699999809E+01 0. -1.
</event>
<event>
 5   0  0.3497546E-06  0.2630680E+04  0.7818609E-02  0.8357854E-01
        2   -1    0    0  501    0  0.00000000000E+00  0.00000000000E+00  0.10026232416E+04  0.10026232416E+04  0.25500000920E-02 0. -1.
       -2   -1    0    0    0  501  0.00000000000E+00  0.00000000000E+00 -0.17255921028E+04  0.17255921028E+04  0.25500000920E-02 0.  1.
    10030    2    1    2    0    0  0.00000000000E+00  0.00000000000E+00 -0.72296886123E+03  0.27282153444E+04  0.26306795683E+04 0.  0.
        4    1    3    3  502    0  0.12908472639E+04  0.23525060222E+03 -0.45702854157E+03  0.13894265743E+04  0.12699999809E+01 0.  1.
       -4    1    3    3    0  502 -0.12908472639E+04 -0.23525060222E+03 -0.26594031966E+03  0.13387887701E+04  0.12699999809E+01 0. -1.
</event>
<event>
 5   0  0.1306843E-06  0.2922982E+04  0.7818609E-02  0.8266072E-01
        1   -1    0    0  501    0  0.00000000000E+00  0.00000000000E+00  0.18279813851E+04  0.18279813851E+04  0.50400001928E-02 0. -1.
       -1   -1    0    0    0  501  0.00000000000E+00  0.00000000000E+00 -0.11684778992E+04  0.11684778992E+04  0.50400001928E-02 0.  1.
    10030    2    1    2    0    0  0.00000000000E+00  0.00000000000E+00  0.65950348592E+03  0.29964592843E+04  0.29229819353E+04 0.  0.
        5    1    3    3  502    0 -0.12122568741E+04  0.81562521471E+03  0.29540520741E+03  0.14906701668E+04  0.46999998093E+01 0. -1.
       -5    1    3    3    0  502  0.12122568741E+04 -0.81562521471E+03  0.36409827851E+03  0.15057891174E+04  0.46999998093E+01 0.  1.
</event>
<event>
 5   0  0.3758062E-06  0.2341147E+04  0.7818609E-02  0.8461872E-01
       -2   -1    0    0    0  501  0.00000000000E+00  0.00000000000E+00  0.64141565585E+03  0.64141565585E+03  0.25500000920E-02 0.  1.
        2   -1    0    0  501    0  0.00000000000E+00  0.00000000000E+00 -0.21362786442E+04  0.21362786442E+04  0.25500000920E-02 0. -1.
    10030    2    1    2    0    0  0.00000000000E+00  0.00000000000E+00 -0.14948629884E+04  0.27776943001E+04  0.23411472125E+04 0.  0.
        2    1    3    3  502    0  0.73681965215E+02 -0.38936756742E+03 -0.20542734733E+04  0.20921461798E+04  0.25500000920E-02 0. -1.
       -2    1    3    3    0  502 -0.73681965215E+02  0.38936756742E+03  0.55941048493E+03  0.68554812027E+03  0.25500000920E-02 0.  1.
</event>
<event>
 5   0  0.1306843E-06  0.3169473E+04  0.7818609E-02  0.8196926E-01
        1   -1    0    0  501    0  0.00000000000E+00  0.00000000000E+00  0.23833132305E+04  0.23833132305E+04  0.50400001928E-02 0.  1.
       -1   -1    0    0    0  501  0.00000000000E+00  0.00000000000E+00 -0.10537391831E+04  0.10537391831E+04  0.50400001928E-02 0. -1.
    10030    2    1    2    0    0  0.00000000000E+00  0.00000000000E+00  0.13295740475E+04  0.34370524136E+04  0.31694734810E+04 0.  0.
        5    1    3    3  502    0 -0.12077158768E+04 -0.35396671356E+03 -0.37958591706E+03  0.13145256299E+04  0.46999998093E+01 0. -1.
       -5    1    3    3    0  502  0.12077158768E+04  0.35396671356E+03  0.17091599645E+04  0.21225267837E+04  0.46999998093E+01 0.  1.
</event>
<event>
 5   0  0.3531437E-06  0.2749231E+04  0.7818609E-02  0.8319206E-01
        2   -1    0    0  501    0  0.00000000000E+00  0.00000000000E+00  0.11981083561E+04  0.11981083561E+04  0.25500000920E-02 0.  1.
       -2   -1    0    0    0  501  0.00000000000E+00  0.00000000000E+00 -0.15771260745E+04  0.15771260745E+04  0.25500000920E-02 0. -1.
    10030    2    1    2    0    0  0.00000000000E+00  0.00000000000E+00 -0.37901771839E+03  0.27752344305E+04  0.27492311131E+04 0.  0.
        1    1    3    3  502    0  0.54769849394E+03  0.81979109089E+03  0.77743260427E+03  0.12555606426E+04  0.50400001928E-02 0.  1.
       -1    1    3    3    0  502 -0.54769849394E+03 -0.81979109089E+03 -0.11564503227E+04  0.15196737879E+04  0.50400001928E-02 0. -1.
</event>
<event>
 5   0  0.3497546E-06  0.3326332E+04  0.7818609E-02  0.8156227E-01
       -2   -1    0    0    0  501  0.00000000000E+00  0.00000000000E+00  0.96000690524E+03  0.96000690524E+03  0.25500000920E-02 0.  1.
        2   -1    0    0  501    0  0.00000000000E+00  0.00000000000E+00 -0.28813557599E+04  0.28813557599E+04  0.25500000920E-02 0. -1.
    10030    2    1    2    0    0  0.00000000000E+00  0.00000000000E+00 -0.19213488546E+04  0.38413626651E+04  0.33263321698E+04 0.  0.
        4    1    3    3  502    0 -0.81358688511E+03 -0.13988694251E+04 -0.51736162351E+03  0.16989478952E+04  0.12699999809E+01 0.  1.
       -4    1    3    3    0  502  0.81358688511E+03  0.13988694251E+04 -0.14039872311E+04  0.21424147699E+04  0.12699999809E+01 0. -1.
</event>
<event>
 5   0  0.1306843E-06  0.3174883E+04  0.7818609E-02  0.8195482E-01
        1   -1    0    0  501    0  0.00000000000E+00  0.00000000000E+00  0.13268872520E+04  0.13268872521E+04  0.50400001928E-02 0.  1.
       -1   -1    0    0    0  501  0.00000000000E+00  0.00000000000E+00 -0.18991598903E+04  0.18991598903E+04  0.50400001928E-02 0. -1.
    10030    2    1    2    0    0  0.00000000000E+00  0.00000000000E+00 -0.57227263821E+03  0.32260471423E+04  0.31748833352E+04 0.  0.
        5    1    3    3  502    0 -0.11859328306E+04  0.30300044652E+03  0.74094605033E+03  0.14308281130E+04  0.46999998093E+01 0.  1.
       -5    1    3    3    0  502  0.11859328306E+04 -0.30300044652E+03 -0.13132186885E+04  0.17952190293E+04  0.46999998093E+01 0. -1.
</event>
<event>
 5   0  0.3497546E-06  0.3124376E+04  0.7818609E-02  0.8209080E-01
        2   -1    0    0  501    0  0.00000000000E+00  0.00000000000E+00  0.18835390596E+04  0.18835390596E+04  0.25500000920E-02 0. -1.
       -2   -1    0    0    0  501  0.00000000000E+00  0.00000000000E+00 -0.12956631247E+04  0.12956631247E+04  0.25500000920E-02 0.  1.
    10030    2    1    2    0    0  0.00000000000E+00  0.00000000000E+00  0.58787593489E+03  0.31792021843E+04  0.31243764840E+04 0.  0.
        4    1    3    3  502    0 -0.19005003667E+02 -0.90613965780E+03  0.15886570806E+04  0.18290115369E+04  0.12699999809E+01 0. -1.
       -4    1    3    3    0  502  0.19005003667E+02  0.90613965780E+03 -0.10007811457E+04  0.13501906473E+04  0.12699999809E+01 0.  1.
</event>
<event>
 5   0  0.3745943E-06  0.3087057E+04  0.7818609E-02  0.8219299E-01
        2   -1    0    0  501    0  0.00000000000E+00  0.00000000000E+00  0.18104514407E+04  0.18104514407E+04  0.25500000920E-02 0.  1.
       -2   -1    0    0    0  501  0.00000000000E+00  0.00000000000E+00 -0.13159590194E+04  0.13159590194E+04  0.25500000920E-02 0. -1.
    10030    2    1    2    0    0  0.00000000000E+00  0.00000000000E+00  0.49449242134E+03  0.31264104601E+04  0.30870567876E+04 0.  0.
        5    1    3    3  502    0 -0.32378665782E+03 -0.11241472373E+04  0.12670150154E+04  0.17244981735E+04  0.46999998093E+01 0.  1.
       -5    1    3    3    0  502  0.32378665782E+03  0.11241472373E+04 -0.77252259409E+03  0.14019122866E+04  0.46999998093E+01 0. -1.
</event>
<event>
 5   0  0.3531437E-06  0.3162193E+04  0.7818609E-02  0.8198874E-01
       -2   -1    0    0    0  501  0.00000000000E+00  0.00000000000E+00  0.97879320774E+03  0.97879320774E+03  0.25500000920E-02 0. -1.
        2   -1    0    0  501    0  0.00000000000E+00  0.00000000000E+00 -0.25540291622E+04  0.25540291622E+04  0.25500000920E-02 0.  1.
    10030    2    1    2    0    0  0.00000000000E+00  0.00000000000E+00 -0.15752359545E+04  0.35328223700E+04  0.31621931607E+04 0.  0.
        1    1    3    3  502    0 -0.36345584250E+02 -0.12718645348E+04 -0.18361898182E+04  0.22339546649E+04  0.50400001928E-02 0.  1.
       -1    1    3    3    0  502  0.36345584250E+02  0.12718645348E+04  0.26095386371E+03  0.12988677051E+04  0.50400001928E-02 0. -1.
</event>
<event>
 5   0  0.1273980E-06  0.3190751E+04  0.7818609E-02  0.8191264E-01
        1   -1    0    0  501    0  0.00000000000E+00  0.00000000000E+00  0.24878570313E+04  0.24878570313E+04  0.50400001928E-02 0.  1.
       -1   -1    0    0    0  501  0.00000000000E+00  0.00000000000E+00 -0.10230586465E+04  0.10230586466E+04  0.50400001928E-02 0. -1.
    10030    2    1    2    0    0  0.00000000000E+00  0.00000000000E+00  0.14647983847E+04  0.35109156778E+04  0.31907514145E+04 0.  0.
        4    1    3    3  502    0 -0.22322258096E+03  0.12951281413E+04 -0.26280879335E+03  0.13402444918E+04  0.12699999809E+01 0. -1.
       -4    1    3    3    0  502  0.22322258096E+03 -0.12951281413E+04  0.17276071781E+04  0.21706711860E+04  0.12699999809E+01 0.  1.
</event>
<event>
 5   0  0.3531437E-06  0.3111176E+04  0.7818609E-02  0.8212677E-01
        2   -1    0    0  501    0  0.00000000000E+00  0.00000000000E+00  0.16936033398E+04  0.16936033398E+04  0.25500000920E-02 0.  1.
       -2   -1    0    0    0  501  0.00000000000E+00  0.00000000000E+00 -0.14288201614E+04  0.14288201614E+04  0.25500000920E-02 0. -1.
    10030    2    1    2    0    0  0.00000000000E+00  0.00000000000E+00  0.26478317842E+03  0.31224235012E+04  0.31111763674E+04 0.  0.
        1    1    3    3  502    0  0.96965611512E+03 -0.64282541009E+03 -0.90400662280E+03  0.14733246294E+04  0.50400001928E-02 0. -1.
       -1    1    3    3    0  502 -0.96965611512E+03  0.64282541009E+03  0.11687898012E+04  0.16490988718E+04  0.50400001928E-02 0.  1.
</event>
<event>
 5   0  0.1273754E-06  0.3157325E+04  0.7818609E-02  0.8200179E-01
        1   -1    0    0  501    0  0.00000000000E+00  0.00000000000E+00  0.15934239576E+04  0.15934239576E+04  0.50400001928E-02 0. -1.
       -1   -1    0    0    0  501  0.00000000000E+00  0.00000000000E+00 -0.15640378109E+04  0.15640378109E+04  0.50400001928E-02 0.  1.
    10030    2    1    2    0    0  0.00000000000E+00  0.00000000000E+00  0.29386146698E+02  0.31574617686E+04  0.31573250188E+04 0.  0.
        2    1    3    3  502    0 -0.33311946080E+03 -0.52488347457E+03  0.14658603586E+04  0.15922367374E+04  0.25500000920E-02 0. -1.
       -2    1    3    3    0  502  0.33311946080E+03  0.52488347457E+03 -0.14364742119E+04  0.15652250312E+04  0.25500000920E-02 0.  1.
</event>
<event>
 5   0  0.3656086E-06  0.3165433E+04  0.7818609E-02  0.8198006E-01
       -2   -1    0    0    0  501  0.00000000000E+00  0.00000000000E+00  0.18729713226E+04  0.18729713226E+04  0.25500000920E-02 0. -1.
        2   -1    0    0  501    0  0.00000000000E+00  0.00000000000E+00 -0.13374424538E+04  0.13374424538E+04  0.25500000920E-02 0.  1.
    10030    2    1    2    0    0  0.00000000000E+00  0.00000000000E+00  0.53552886880E+03  0.32104137764E+04  0.31654329003E+04 0.  0.
        3    1    3    3  502    0  0.15611433475E+04  0.14691956612E+03  0.48584893146E+03  0.16415855459E+04  0.10100000352E+00 0.  1.
       -3    1    3    3    0  502 -0.15611433475E+04 -0.14691956612E+03  0.49679937336E+02  0.15688282304E+04  0.10100000352E+00 0. -1.
</event>
<event>
 5   0  0.1273980E-06  0.3169724E+04  0.7818609E-02  0.8196859E-01
        1   -1    0    0  501    0  0.00000000000E+00  0.00000000000E+00  0.17347637271E+04  0.17347637271E+04  0.50400001928E-02 0. -1.
       -1   -1    0    0    0  501  0.00000000000E+00  0.00000000000E+00 -0.14479129220E+04  0.14479129220E+04  0.50400001928E-02 0.  1.
    10030    2    1    2    0    0  0.00000000000E+00  0.00000000000E+00  0.28685080511E+03  0.31826766492E+04  0.31697235319E+04 0.  0.
        4    1    3    3  502    0 -0.54552817143E+03 -0.14876836024E+04  0.11196498881E+03  0.15885028355E+04  0.12699999809E+01 0.  1.
       -4    1    3    3    0  502  0.54552817143E+03  0.14876836024E+04  0.17488581630E+03  0.15941738137E+04  0.12699999809E+01 0. -1.
</event>
<event>
 5   0  0.1268836E-06  0.3109984E+04  0.7818609E-02  0.8213003E-01
       -1   -1    0    0    0  501  0.00000000000E+00  0.00000000000E+00  0.20935501364E+04  0.20935501364E+04  0.50400001928E-02 0. -1.
        1   -1    0    0  501    0  0.00000000000E+00  0.00000000000E+00 -0.11549758197E+04  0.11549758197E+04  0.50400001928E-02 0.  1.
    10030    2    1    2    0    0  0.00000000000E+00  0.00000000000E+00  0.93857431672E+03  0.32485259561E+04  0.31099837845E+04 0.  0.
        1    1    3    3  502    0 -0.10963261707E+04  0.10048426227E+04  0.94379237687E+03  0.17613585153E+04  0.50400001928E-02 0. -1.
       -1    1    3    3    0  502  0.10963261707E+04 -0.10048426227E+04 -0.52180601477E+01  0.14871674408E+04  0.50400001928E-02 0.  1.
</event>
<event>
 5   0  0.3531437E-06  0.3183733E+04  0.7818609E-02  0.8193126E-01
       -2   -1    0    0    0  501  0.00000000000E+00  0.00000000000E+00  0.86066153062E+03  0.86066153062E+03  0.25500000920E-02 0.  1.
        2   -1    0    0  501    0  0.00000000000E+00  0.00000000000E+00 -0.29442922769E+04  0.29442922769E+04  0.25500000920E-02 0. -1.
    10030    2    1    2    0    0  0.00000000000E+00  0.00000000000E+00 -0.20836307462E+04  0.38049538075E+04  0.31837330903E+04 0.  0.
        1    1    3    3  502    0 -0.18129060131E+03  0.15714492821E+04 -0.12546680499E+04  0.20190371576E+04  0.50400001928E-02 0. -1.
       -1    1    3    3    0  502  0.18129060131E+03 -0.15714492821E+04 -0.82896269631E+03  0.17859166499E+04  0.50400001928E-02 0.  1.
</event>
<event>
 5   0  0.3497546E-06  0.3223259E+04  0.7818609E-02  0.8182701E-01
        2   -1    0    0  501    0  0.00000000000E+00  0.00000000000E+00  0.21230987986E+04  0.21230987986E+04  0.25500000920E-02 0. -1.
       -2   -1    0    0    0  501  0.00000000000E+00  0.00000000000E+00 -0.12233766069E+04  0.12233766069E+04  0.25500000920E-02 0.  1.
    10030    2    1    2    0    0  0.00000000000E+00  0.00000000000E+00  0.89972219167E+03  0.33464754054E+04  0.32232588505E+04 0.  0.
        4    1    3    3  502    0  0.95483800644E+03  0.63711733366E+03  0.16243498407E+04  0.19890068209E+04  0.12699999809E+01 0. -1.
       -4    1    3    3    0  502 -0.95483800644E+03 -0.63711733366E+03 -0.72462764908E+03  0.13574685846E+04  0.12699999809E+01 0.  1.
</event>
<event>
 5   0  0.1306843E-06  0.2394868E+04  0.7818609E-02  0.8441427E-01
        1   -1    0    0  501    0  0.00000000000E+00  0.00000000000E+00  0.21081306643E+04  0.21081306643E+04  0.50400001928E-02 0.  1.
       -1   -1    0    0    0  501  0.00000000000E+00  0.00000000000E+00 -0.68015140564E+03  0.68015140566E+03  0.50400001928E-02 0. -1.
    10030    2    1    2    0    0  0.00000000000E+00  0.00000000000E+00  0.14279792586E+04  0.27882820699E+04  0.23948678749E+04 0.  0.
        5    1    3    3  502    0 -0.76889626074E+03  0.29193882239E+01  0.17827245217E+04  0.19414785069E+04  0.46999998093E+01 0.  1.
       -5    1    3    3    0  502  0.76889626074E+03 -0.29193882239E+01 -0.35474526308E+03  0.84680356299E+03  0.46999998093E+01 0. -1.
</event>
<event>
 5   0  0.3531437E-06  0.3226539E+04  0.7818609E-02  0.8181843E-01
       -2   -1    0    0    0  501  0.00000000000E+00  0.00000000000E+00  0.11714336254E+04  0.11714336254E+04  0.25500000920E-02 0. -1.
        2   -1    0    0  501    0  0.00000000000E+00  0.00000000000E+00 -0.22217556356E+04  0.22217556356E+04  0.25500000920E-02 0.  1.
    10030    2    1    2    0    0  0.00000000000E+00  0.00000000000E+00 -0.10503220102E+04  0.33931892611E+04  0.32265394831E+04 0.  0.
        1    1    3    3  502    0 -0.15354873216E+04  0.36548851665E+03 -0.17425639068E+03  0.15879762153E+04  0.50400001928E-02 0. -1.
       -1    1    3    3    0  502  0.15354873216E+04 -0.36548851665E+03 -0.87606561956E+03  0.18052130457E+04  0.50400001928E-02 0.  1.
</event>
<event>
 5   0  0.3656086E-06  0.3195504E+04  0.7818609E-02  0.8190006E-01
       -2   -1    0    0    0  501  0.00000000000E+00  0.00000000000E+00  0.11998618328E+04  0.11998618328E+04  0.25500000920E-02 0. -1.
        2   -1    0    0  501    0  0.00000000000E+00  0.00000000000E+00 -0.21275879180E+04  0.21275879180E+04  0.25500000920E-02 0.  1.
    10030    2    1    2    0    0  0.00000000000E+00  0.00000000000E+00 -0.92772608518E+03  0.33274497508E+04  0.31955040534E+04 0.  0.
        3    1    3    3  502    0  0.15468347467E+04  0.40008410343E+03 -0.45676197964E+03  0.16617450284E+04  0.10100000352E+00 0. -1.
       -3    1    3    3    0  502 -0.15468347467E+04 -0.40008410343E+03 -0.47096410554E+03  0.16657047224E+04  0.10100000352E+00 0.  1.
</event>
<event>
 5   0  0.1268836E-06  0.2713027E+04  0.7818609E-02  0.8330790E-01
       -1   -1    0    0    0  501  0.00000000000E+00  0.00000000000E+00  0.87285597659E+03  0.87285597661E+03  0.50400001928E-02 0.  1.
        1   -1    0    0  501    0  0.00000000000E+00  0.00000000000E+00 -0.21081707649E+04  0.21081707649E+04  0.50400001928E-02 0. -1.
    10030    2    1    2    0    0  0.00000000000E+00  0.00000000000E+00 -0.12353147883E+04  0.29810267415E+04  0.27130274248E+04 0.  0.
        1    1    3    3  502    0  0.12888292706E+04 -0.15230476124E+03 -0.18387928544E+03  0.13107590247E+04  0.50400001928E-02 0.  1.
       -1    1    3    3    0  502 -0.12888292706E+04  0.15230476124E+03 -0.10514355029E+04  0.16702677168E+04  0.50400001928E-02 0. -1.
</event>
<event>
 5   0  0.1268836E-06  0.3000992E+04  0.7818609E-02  0.8243448E-01
       -1   -1    0    0    0  501  0.00000000000E+00  0.00000000000E+00  0.14436913263E+04  0.14436913263E+04  0.50400001928E-02 0.  1.
        1   -1    0    0  501    0  0.00000000000E+00  0.00000000000E+00 -0.15595354145E+04  0.15595354145E+04  0.50400001928E-02 0. -1.
    10030    2    1    2    0    0  0.00000000000E+00  0.00000000000E+00 -0.11584408820E+03  0.30032267407E+04  0.30009916700E+04 0.  0.
        1    1    3    3  502    0  0.74895641918E+03  0.12248831385E+04  0.37853731106E+03  0.14847777331E+04  0.50400001928E-02 0.  1.
       -1    1    3    3    0  502 -0.74895641918E+03 -0.12248831385E+04 -0.49438139926E+03  0.15184490076E+04  0.50400001928E-02 0. -1.
</event>
<event>
 5   0  0.1240725E-06  0.3204754E+04  0.7818609E-02  0.8187563E-01
       -1   -1    0    0    0  501  0.00000000000E+00  0.00000000000E+00  0.12311159899E+04  0.12311159899E+04  0.50400001928E-02 0.  1.
        1   -1    0    0  501    0  0.00000000000E+00  0.00000000000E+00 -0.20855971946E+04  0.20855971946E+04  0.50400001928E-02 0. -1.
    10030    2    1    2    0    0  0.00000000000E+00  0.00000000000E+00 -0.85448120470E+03  0.33167131845E+04  0.32047540029E+04 0.  0.
        3    1    3    3  502    0  0.13304005139E+03  0.44516937843E+03  0.11598713375E+04  0.12494706721E+04  0.10100000352E+00 0.  1.
       -3    1    3    3    0  502 -0.13304005139E+03 -0.44516937843E+03 -0.20143525422E+04  0.20672425124E+04  0.10100000352E+00 0. -1.
</event>
<event>
 5   0  0.1306843E-06  0.3224036E+04  0.7818609E-02  0.8182498E-01
        1   -1    0    0  501    0  0.00000000000E+00  0.00000000000E+00  0.28024407620E+04  0.28024407620E+04  0.50400001928E-02 0.  1.
       -1   -1    0    0    0  501  0.00000000000E+00  0.00000000000E+00 -0.92726364410E+03  0.92726364411E+03  0.50400001928E-02 0. -1.
    10030    2    1    2    0    0  0.00000000000E+00  0.00000000000E+00  0.18751771179E+04  0.37297044061E+04  0.32240356284E+04 0.  0.
        5    1    3    3  502    0 -0.99876396921E+03  0.61764906334E+03  0.22151331865E+04  0.25071611348E+04  0.46999998093E+01 0.  1.
       -5    1    3    3    0  502  0.99876396921E+03 -0.61764906334E+03 -0.33995606865E+03  0.12225432713E+04  0.46999998093E+01 0. -1.
</event>
<event>
 5   0  0.1240725E-06  0.3293541E+04  0.7818609E-02  0.8164541E-01
        1   -1    0    0  501    0  0.00000000000E+00  0.00000000000E+00  0.20848416501E+04  0.20848416501E+04  0.50400001928E-02 0. -1.
       -1   -1    0    0    0  501  0.00000000000E+00  0.00000000000E+00 -0.13007476700E+04  0.13007476701E+04  0.50400001928E-02 0.  1.
    10030    2    1    2    0    0  0.00000000000E+00  0.00000000000E+00  0.78409398006E+03  0.33855893202E+04  0.32935409023E+04 0.  0.
        3    1    3    3  502    0  0.11107826350E+04  0.10603672341E+04 -0.21924619922E+03  0.15512206934E+04  0.10100000352E+00 0.  1.
       -3    1    3    3    0  502 -0.11107826350E+04 -0.10603672341E+04  0.10033401793E+04  0.18343686268E+04  0.10100000352E+00 0. -1.
</event>
<event>
 5   0  0.3497546E-06  0.3109920E+04  0.7818609E-02  0.8213021E-01
       -2   -1    0    0    0  501  0.00000000000E+00  0.00000000000E+00  0.14839539727E+04  0.14839539727E+04  0.25500000920E-02 0. -1.
        2   -1    0    0  501    0  0.00000000000E+00  0.00000000000E+00 -0.16293631784E+04  0.16293631784E+04  0.25500000920E-02 0.  1.
    10030    2    1    2    0    0  0.00000000000E+00  0.00000000000E+00 -0.14540920572E+03  0.31133171511E+04  0.31099195884E+04 0.  0.
        4    1    3    3  502    0 -0.11698806684E+04  0.66288748307E+02 -0.10960167122E+04  0.16044529357E+04  0.12699999809E+01 0.  1.
       -4    1    3    3    0  502  0.11698806684E+04 -0.66288748307E+02  0.95060750650E+03  0.15088642155E+04  0.12699999809E+01 0. -1.
</event>
<event>
 5   0  0.3531437E-06  0.2853559E+04  0.7818609E-02  0.8286831E-01
        2   -1    0    0  501    0  0.00000000000E+00  0.00000000000E+00  0.24333637328E+04  0.24333637328E+04  0.25500000920E-02 0. -1.
       -2   -1    0    0    0  501  0.00000000000E+00  0.00000000000E+00 -0.83657854423E+03  0.83657854423E+03  0.25500000920E-02 0.  1.
    10030    2    1    2    0    0  0.00000000000E+00  0.00000000000E+00  0.15967851886E+04  0.32699422771E+04  0.28535591034E+04 0.  0.
        1    1    3    3  502    0  0.26616800364E+03  0.44916469415E+03 -0.72317892899E+03  0.89195408626E+03  0.50400001928E-02 0.  1.
       -1    1    3    3    0  502 -0.26616800364E+03 -0.44916469415E+03  0.23199641176E+04  0.23779881908E+04  0.50400001928E-02 0. -1.
</event>
<event>
 5   0  0.1273754E-06  0.3199758E+04  0.7818609E-02  0.8188881E-01
        1   -1    0    0  501    0  0.00000000000E+00  0.00000000000E+00  0.29383883056E+04  0.29383883056E+04  0.50400001928E-02 0. -1.
       -1   -1    0    0    0  501  0.00000000000E+00  0.00000000000E+00 -0.87109408427E+03  0.87109408429E+03  0.50400001928E-02 0.  1.
    10030    2    1    2    0    0  0.00000000000E+00  0.00000000000E+00  0.20672942213E+04  0.38094823899E+04  0.31997579098E+04 0.  0.
        2    1    3    3  502    0  0.12882073200E+04  0.24550970531E+03  0.21247160260E+04  0.24968322543E+04  0.25500000920E-02 0. -1.
       -2    1    3    3    0  502 -0.12882073200E+04 -0.24550970531E+03 -0.57421804707E+02  0.13126501356E+04  0.25500000920E-02 0.  1.
</event>
<event>
 5   0  0.3745943E-06  0.3179783E+04  0.7818609E-02  0.8194177E-01
       -2   -1    0    0    0  501  0.00000000000E+00  0.00000000000E+00  0.12655787926E+04  0.12655787926E+04  0.25500000920E-02 0.  1.
        2   -1    0    0  501    0  0.00000000000E+00  0.00000000000E+00 -0.19973115284E+04  0.19973115284E+04  0.25500000920E-02 0. -1.
    10030    2    1    2    0    0  0.00000000000E+00  0.00000000000E+00 -0.73173273577E+03  0.32628903210E+04  0.31797830823E+04 0.  0.
        5    1    3    3  502    0 -0.96784379539E+02 -0.37517962113E+03 -0.19481157349E+04  0.19862789257E+04  0.46999998093E+01 0. -1.
       -5    1    3    3    0  502  0.96784379539E+02  0.37517962113E+03  0.12163829991E+04  0.12766113953E+04  0.46999998093E+01 0.  1.
</event>
<event>
 5   0  0.1273754E-06  0.3123476E+04  0.7818609E-02  0.8209324E-01
       -1   -1    0    0    0  501  0.00000000000E+00  0.00000000000E+00  0.18248465829E+04  0.18248465829E+04  0.50400001928E-02 0.  1.
        1   -1    0    0  501    0  0.00000000000E+00  0.00000000000E+00 -0.13365651056E+04  0.13365651056E+04  0.50400001928E-02 0. -1.
    10030    2    1    2    0    0  0.00000000000E+00  0.00000000000E+00  0.48828147728E+03  0.31614116886E+04  0.31234764388E+04 0.  0.
        2    1    3    3  502    0 -0.12149634997E+03 -0.10916886523E+04 -0.87951403120E+03  0.14071568526E+04  0.25500000920E-02 0. -1.
       -2    1    3    3    0  502  0.12149634997E+03  0.10916886523E+04  0.13677955085E+04  0.17542548360E+04  0.25500000920E-02 0.  1.
</event>
<event>
 5   0  0.3758062E-06  0.3213280E+04  0.7818609E-02  0.8185319E-01
       -2   -1    0    0    0  501  0.00000000000E+00  0.00000000000E+00  0.22069073883E+04  0.22069073883E+04  0.25500000920E-02 0. -1.
        2   -1    0    0  501    0  0.00000000000E+00  0.00000000000E+00 -0.11696425960E+04  0.11696425960E+04  0.25500000920E-02 0.  1.
    10030    2    1    2    0    0  0.00000000000E+00  0.00000000000E+00  0.10372647923E+04  0.33765499842E+04  0.32132804961E+04 0.  0.
        2    1    3    3  502    0 -0.56311804867E+03 -0.14964501895E+04  0.68420691158E+03  0.17391389261E+04  0.25500000920E-02 0.  1.
       -2    1    3    3    0  502  0.56311804867E+03  0.14964501895E+04  0.35305788068E+03  0.16374110582E+04  0.25500000920E-02 0. -1.
</event>
<event>
 5   0  0.3656086E-06  0.3232474E+04  0.7818609E-02  0.8180293E-01
       -2   -1    0    0    0  501  0.00000000000E+00  0.00000000000E+00  0.25640917349E+04  0.25640917349E+04  0.25500000920E-02 0.  1.
        2   -1    0    0  501    0  0.00000000000E+00  0.00000000000E+00 -0.10187708328E+04  0.10187708328E+04  0.25500000920E-02 0. -1.
    10030    2    1    2    0    0  0.00000000000E+00  0.00000000000E+00  0.15453209021E+04  0.35828625676E+04  0.32324738960E+04 0.  0.
        3    1    3    3  502    0 -0.31015991836E+03 -0.14138145662E+04 -0.24423073659E+02  0.14476419790E+04  0.10100000352E+00 0. -1.
       -3    1    3    3    0  502  0.31015991836E+03  0.14138145662E+04  0.15697439758E+04  0.21352205887E+04  0.10100000352E+00 0.  1.
</event>
<event>
 5   0  0.3531437E-06  0.3118332E+04  0.7818609E-02  0.8210725E-01
       -2   -1    0    0    0  501  0.00000000000E+00  0.00000000000E+00  0.95841182485E+03  0.95841182486E+03  0.25500000920E-02 0.  1.
        2   -1    0    0  501    0  0.00000000000E+00  0.00000000000E+00 -0.25364867018E+04  0.25364867018E+04  0.25500000920E-02 0. -1.
    10030    2    1    2    0    0  0.00000000000E+00  0.00000000000E+00 -0.15780748769E+04  0.34948985266E+04  0.31183321495E+04 0.  0.
        1    1    3    3  502    0 -0.13322090555E+04 -0.27368395181E+03 -0.16435490215E+04  0.21332925864E+04  0.50400001928E-02 0. -1.
       -1    1    3    3    0  502  0.13322090555E+04  0.27368395181E+03  0.65474144546E+02  0.13616059403E+04  0.50400001928E-02 0.  1.
</event>
<event>
 5   0  0.3497546E-06  0.3193751E+04  0.7818609E-02  0.8190469E-01
        2   -1    0    0  501    0  0.00000000000E+00  0.00000000000E+00  0.15029230436E+04  0.15029230436E+04  0.25500000920E-02 0.  1.
       -2   -1    0    0    0  501  0.00000000000E+00  0.00000000000E+00 -0.16967015274E+04  0.16967015274E+04  0.25500000920E-02 0. -1.
    10030    2    1    2    0    0  0.00000000000E+00  0.00000000000E+00 -0.19377848378E+03  0.31996245710E+04  0.31937512888E+04 0.  0.
        4    1    3    3  502    0  0.80903749727E+03 -0.13634672673E+04  0.94316525935E+02  0.15882323132E+04  0.12699999809E+01 0. -1.
       -4    1    3    3    0  502 -0.80903749727E+03  0.13634672673E+04 -0.28809500971E+03  0.16113922578E+04  0.12699999809E+01 0.  1.
</event>
<event>
 5   0  0.1306843E-06  0.2926791E+04  0.7818609E-02  0.8264951E-01
       -1   -1    0    0    0  501  0.00000000000E+00  0.00000000000E+00  0.14732934094E+04  0.14732934094E+04  0.50400001928E-02 0. -1.
        1   -1    0    0  501    0  0.00000000000E+00  0.00000000000E+00 -0.14535641552E+04  0.14535641552E+04  0.50400001928E-02 0.  1.
    10030    2    1    2    0    0  0.00000000000E+00  0.00000000000E+00  0.19729254202E+02  0.29268575645E+04  0.29267910687E+04 0.  0.
        5    1    3    3  502    0 -0.38079365931E+03 -0.77547763270E+02  0.14207428575E+04  0.14729391785E+04  0.46999998093E+01 0. -1.
       -5    1    3    3    0  502  0.38079365931E+03  0.77547763270E+02 -0.14010136033E+04  0.14539183860E+04  0.46999998093E+01 0.  1.
</event>
<event>
 5   0  0.1273980E-06  0.3082886E+04  0.7818609E-02  0.8220450E-01
        1   -1    0    0  501    0  0.00000000000E+00  0.00000000000E+00  0.28795520591E+04  0.28795520591E+04  0.50400001928E-02 0.  1.
       -1   -1    0    0    0  501  0.00000000000E+00  0.00000000000E+00 -0.82514448998E+03  0.82514448999E+03  0.50400001928E-02 0. -1.
    10030    2    1    2    0    0  0.00000000000E+00  0.00000000000E+00  0.20544075691E+04  0.37046965491E+04  0.30828859954E+04 0.  0.
        4    1    3    3  502    0  0.19949282937E+03 -0.15046370917E+04  0.13503570711E+04  0.20315501468E+04  0.12699999809E+01 0.  1.
       -4    1    3    3    0  502 -0.19949282937E+03  0.15046370917E+04  0.70405049800E+03  0.16731464022E+04  0.12699999809E+01 0. -1.
</event>
<event>
 5   0  0.1306843E-06  0.3189935E+04  0.7818609E-02  0.8191480E-01
       -1   -1    0    0    0  501  0.00000000000E+00  0.00000000000E+00  0.91537927084E+03  0.91537927085E+03  0.50400001928E-02 0. -1.
        1   -1    0    0  501    0  0.00000000000E+00  0.00000000000E+00 -0.27790900883E+04  0.27790900883E+04  0.50400001928E-02 0.  1.
    10030    2    1    2    0    0  0.00000000000E+00  0.00000000000E+00 -0.18637108175E+04  0.36944693592E+04  0.31899350832E+04 0.  0.
        5    1    3    3  502    0  0.82181602599E+03 -0.39036157959E+03 -0.24490665649E+04  0.26126065285E+04  0.46999998093E+01 0.  1.
       -5    1    3    3    0  502 -0.82181602599E+03  0.39036157959E+03  0.58535574741E+03  0.10818628307E+04  0.46999998093E+01 0. -1.
</event>
<event>
 5   0  0.3656086E-06  0.3160196E+04  0.7818609E-02  0.8199409E-01
       -2   -1    0    0    0  501  0.00000000000E+00  0.00000000000E+00  0.17367250181E+04  0.17367250181E+04  0.25500000920E-02 0. -1.
        2   -1    0    0  501    0  0.00000000000E+00  0.00000000000E+00 -0.14375959984E+04  0.14375959984E+04  0.25500000920E-02 0.  1.
    10030    2    1    2    0    0  0.00000000000E+00  0.00000000000E+00  0.29912901978E+03  0.31743210165E+04  0.31601955233E+04 0.  0.
        3    1    3    3  502    0 -0.72169131470E+03 -0.75688181169E+03  0.13393421510E+04  0.16992780344E+04  0.10100000352E+00 0. -1.
       -3    1    3    3    0  502  0.72169131470E+03  0.75688181169E+03 -0.10402131312E+04  0.14750429821E+04  0.10100000352E+00 0.  1.
</event>
<event>
 5   0  0.3758062E-06  0.3184318E+04  0.7818609E-02  0.8192971E-01
       -2   -1    0    0    0  501  0.00000000000E+00  0.00000000000E+00  0.13127821871E+04  0.13127821871E+04  0.25500000920E-02 0. -1.
        2   -1    0    0  501    0  0.00000000000E+00  0.00000000000E+00 -0.19309909857E+04  0.19309909857E+04  0.25500000920E-02 0.  1.
    10030    2    1    2    0    0  0.00000000000E+00  0.00000000000E+00 -0.61820879856E+03  0.32437731728E+04  0.31843181810E+04 0.  0.
        2    1    3    3  502    0  0.16708140810E+02  0.80662473391E+03 -0.17073388442E+04  0.18883666361E+04  0.25500000920E-02 0.  1.
       -2    1    3    3    0  502 -0.16708140810E+02 -0.80662473391E+03  0.10891300457E+04  0.13554065367E+04  0.25500000920E-02 0. -1.
</event>
<event>
 5   0  0.3745943E-06  0.3205581E+04  0.7818609E-02  0.8187345E-01
        2   -1    0    0  501    0  0.00000000000E+00  0.00000000000E+00  0.12328004174E+04  0.12328004174E+04  0.25500000920E-02 0. -1.
       -2   -1    0    0    0  501  0.00000000000E+00  0.00000000000E+00 -0.20838225543E+04  0.20838225543E+04  0.25500000920E-02 0.  1.
    10030    2    1    2    0    0  0.00000000000E+00  0.00000000000E+00 -0.85102213687E+03  0.33166229717E+04  0.32055809550E+04 0.  0.
        5    1    3    3  502    0  0.15502330952E+03 -0.14078056321E+04  0.35079066257E+03  0.14591179195E+04  0.46999998093E+01 0. -1.
       -5    1    3    3    0  502 -0.15502330952E+03  0.14078056321E+04 -0.12018127994E+04  0.18575050522E+04  0.46999998093E+01 0.  1.
</event>
<event>
 5   0  0.1273980E-06  0.3263939E+04  0.7818609E-02  0.8172132E-01
       -1   -1    0    0    0  501  0.00000000000E+00  0.00000000000E+00  0.12889653384E+04  0.12889653384E+04  0.50400001928E-02 0. -1.
        1   -1    0    0  501    0  0.00000000000E+00  0.00000000000E+00 -0.20662503673E+04  0.20662503673E+04  0.50400001928E-02 0.  1.
    10030    2    1    2    0    0  0.00000000000E+00  0.00000000000E+00 -0.77728502884E+03  0.33552157057E+04  0.32639394013E+04 0.  0.
        4    1    3    3  502    0 -0.15245435232E+04  0.54476190956E+03 -0.17715884574E+03  0.16286145529E+04  0.12699999809E+01 0. -1.
       -4    1    3    3    0  502  0.15245435232E+04 -0.54476190956E+03 -0.60012618310E+03  0.17266011528E+04  0.12699999809E+01 0.  1.
</event>
<event>
 5   0  0.1268836E-06  0.3106840E+04  0.7818609E-02  0.8213863E-01
       -1   -1    0    0    0  501  0.00000000000E+00  0.00000000000E+00  0.16126252388E+04  0.16126252388E+04  0.50400001928E-02 0.  1.
        1   -1    0    0  501    0  0.00000000000E+00  0.00000000000E+00 -0.14963883552E+04  0.14963883552E+04  0.50400001928E-02 0. -1.
    10030    2    1    2    0    0  0.00000000000E+00  0.00000000000E+00  0.11623688357E+03  0.31090135940E+04  0.31068399564E+04 0.  0.
        1    1    3    3  502    0  0.13640618658E+04  0.67085962389E+03  0.37833641262E+03  0.15664788061E+04  0.50400001928E-02 0.  1.
       -1    1    3    3    0  502 -0.13640618658E+04 -0.67085962389E+03 -0.26209952905E+03  0.15425347879E+04  0.50400001928E-02 0. -1.
</event>
<event>
 5   0  0.3758062E-06  0.3166171E+04  0.7818609E-02  0.8197809E-01
       -2   -1    0    0    0  501  0.00000000000E+00  0.00000000000E+00  0.26632292433E+04  0.26632292433E+04  0.25500000920E-02 0.  1.
        2   -1    0    0  501    0  0.00000000000E+00  0.00000000000E+00 -0.94102272343E+03  0.94102272343E+03  0.25500000920E-02 0. -1.
    10030    2    1    2    0    0  0.00000000000E+00  0.00000000000E+00  0.17222065198E+04  0.36042519667E+04  0.31661707065E+04 0.  0.
        2    1    3    3  502    0  0.49461099112E+02 -0.83036224255E+02  0.26598675010E+04  0.26616229143E+04  0.25500000920E-02 0.  1.
       -2    1    3    3    0  502 -0.49461099112E+02  0.83036224255E+02 -0.93766098117E+03  0.94262905243E+03  0.25500000920E-02 0. -1.
</event>
<event>
 5   0  0.1273980E-06  0.3228292E+04  0.7818609E-02  0.8181385E-01
       -1   -1    0    0    0  501  0.00000000000E+00  0.00000000000E+00  0.10693264552E+04  0.10693264552E+04  0.50400001928E-02 0. -1.
        1   -1    0    0  501    0  0.00000000000E+00  0.00000000000E+00 -0.24365502952E+04  0.24365502952E+04  0.50400001928E-02 0.  1.
    10030    2    1    2    0    0  0.00000000000E+00  0.00000000000E+00 -0.13672238401E+04  0.35058767504E+04  0.32282922359E+04 0.  0.
        4    1    3    3  502    0 -0.75808018279E+03  0.87588241032E+03  0.53714844000E+03  0.12768655449E+04  0.12699999809E+01 0. -1.
       -4    1    3    3    0  502  0.75808018279E+03 -0.87588241032E+03 -0.19043722801E+04  0.22290112055E+04  0.12699999809E+01 0.  1.
</event>
<event>
 5   0  0.3497546E-06  0.3219077E+04  0.7818609E-02  0.8183797E-01
        2   -1    0    0  501    0  0.00000000000E+00  0.00000000000E+00  0.11530900181E+04  0.11530900181E+04  0.25500000920E-02 0. -1.
       -2   -1    0    0    0  501  0.00000000000E+00  0.00000000000E+00 -0.22466708250E+04  0.22466708250E+04  0.25500000920E-02 0.  1.
    10030    2    1    2    0    0  0.00000000000E+00  0.00000000000E+00 -0.10935808069E+04  0.33997608431E+04  0.32190767014E+04 0.  0.
        4    1    3    3  502    0  0.96480026515E+03 -0.91444959615E+03 -0.15052266026E+04  0.20081748812E+04  0.12699999809E+01 0.  1.
       -4    1    3    3    0  502 -0.96480026515E+03  0.91444959615E+03  0.41164579562E+03  0.13915859619E+04  0.12699999809E+01 0. -1.
</event>
<event>
 5   0  0.1306843E-06  0.3199116E+04  0.7818609E-02  0.8189051E-01
        1   -1    0    0  501    0  0.00000000000E+00  0.00000000000E+00  0.88525830323E+03  0.88525830324E+03  0.50400001928E-02 0. -1.
       -1   -1    0    0    0  501  0.00000000000E+00  0.00000000000E+00 -0.28902130973E+04  0.28902130973E+04  0.50400001928E-02 0.  1.
    10030    2    1    2    0    0  0.00000000000E+00  0.00000000000E+00 -0.20049547940E+04  0.37754714005E+04  0.31991155918E+04 0.  0.
        5    1    3    3  502    0  0.10226566237E+04  0.11274644701E+04 -0.42244255971E+03  0.15797096276E+04  0.46999998093E+01 0.  1.
       -5    1    3    3    0  502 -0.10226566237E+04 -0.11274644701E+04 -0.15825122343E+04  0.21957617729E+04  0.46999998093E+01 0. -1.
</event>
<event>
 5   0  0.3656086E-06  0.3011709E+04  0.7818609E-02  0.8240395E-01
       -2   -1    0    0    0  501  0.00000000000E+00  0.00000000000E+00  0.10745679067E+04  0.10745679067E+04  0.25500000920E-02 0.  1.
        2   -1    0    0  501    0  0.00000000000E+00  0.00000000000E+00 -0.21102414774E+04  0.21102414774E+04  0.25500000920E-02 0. -1.
    10030    2    1    2    0    0  0.00000000000E+00  0.00000000000E+00 -0.10356735707E+04  0.31848093841E+04  0.30117089946E+04 0.  0.
        3    1    3    3  502    0  0.13163443579E+04 -0.27853714226E+03 -0.12329065427E+04  0.18249394405E+04  0.10100000352E+00 0. -1.
       -3    1    3    3    0  502 -0.13163443579E+04  0.27853714226E+03  0.19723297205E+03  0.13598699436E+04  0.10100000352E+00 0.  1.
</event>
<event>
 5   0  0.3531437E-06  0.3212861E+04  0.7818609E-02  0.8185429E-01
       -2   -1    0    0    0  501  0.00000000000E+00  0.00000000000E+00  0.10717478635E+04  0.10717478635E+04  0.25500000920E-02 0.  1.
        2   -1    0    0  501    0  0.00000000000E+00  0.00000000000E+00 -0.24078593993E+04  0.24078593993E+04  0.25500000920E-02 0. -1.
    10030    2    1    2    0    0  0.00000000000E+00  0.00000000000E+00 -0.13361115358E+04  0.34796072629E+04  0.32128605117E+04 0.  0.
        1    1    3    3  502    0  0.13287941527E+04 -0.83610304149E+03 -0.29941991823E+03  0.15982535731E+04  0.50400001928E-02 0.  1.
       -1    1    3    3    0  502 -0.13287941527E+04  0.83610304149E+03 -0.10366916176E+04  0.18813536898E+04  0.50400001928E-02 0. -1.
</event>
<event>
 5   0  0.1240725E-06  0.3073376E+04  0.7818609E-02  0.8223083E-01
       -1   -1    0    0    0  501  0.00000000000E+00  0.00000000000E+00  0.12596477174E+04  0.12596477175E+04  0.50400001928E-02 0. -1.
        1   -1    0    0  501    0  0.00000000000E+00  0.00000000000E+00 -0.18746593075E+04  0.18746593076E+04  0.50400001928E-02 0.  1.
    10030    2    1    2    0    0  0.00000000000E+00  0.00000000000E+00 -0.61501159010E+03  0.31343070250E+04  0.30733762007E+04 0.  0.
        3    1    3    3  502    0 -0.12898498675E+04  0.82386129653E+03 -0.44789464180E+03  0.15947005164E+04  0.10100000352E+00 0.  1.
       -3    1    3    3    0  502  0.12898498675E+04 -0.82386129653E+03 -0.16711694830E+03  0.15396065086E+04  0.10100000352E+00 0. -1.
</event>
<event>
 5   0  0.1273980E-06  0.3231881E+04  0.7818609E-02  0.8180448E-01
        1   -1    0    0  501    0  0.00000000000E+00  0.00000000000E+00  0.19705324008E+04  0.19705324008E+04  0.50400001928E-02 0.  1.
       -1   -1    0    0    0  501  0.00000000000E+00  0.00000000000E+00 -0.13251564920E+04  0.13251564920E+04  0.50400001928E-02 0. -1.
    10030    2    1    2    0    0  0.00000000000E+00  0.00000000000E+00  0.64537590885E+03  0.32956888928E+04  0.32318810644E+04 0.  0.
        4    1    3    3  502    0  0.59664098524E+03  0.14868795965E+04  0.10764349110E+03  0.16057335189E+04  0.12699999809E+01 0.  1.
       -4    1    3    3    0  502 -0.59664098524E+03 -0.14868795965E+04  0.53773241775E+03  0.16899553739E+04  0.12699999809E+01 0. -1.
</event>
<event>
 5   0  0.1273980E-06  0.3174591E+04  0.7818609E-02  0.8195560E-01
       -1   -1    0    0    0  501  0.00000000000E+00  0.00000000000E+00  0.12184867659E+04  0.12184867659E+04  0.50400001928E-02 0.  1.
        1   -1    0    0  501    0  0.00000000000E+00  0.00000000000E+00 -0.20677344573E+04  0.20677344573E+04  0.50400001928E-02 0. -1.
    10030    2    1    2    0    0  0.00000000000E+00  0.00000000000E+00 -0.84924769140E+03  0.32862212232E+04  0.31745910424E+04 0.  0.
        4    1    3    3  502    0  0.13966296507E+04  0.65126229557E+03 -0.81851483332E+03  0.17449026059E+04  0.12699999809E+01 0.  1.
       -4    1    3    3    0  502 -0.13966296507E+04 -0.65126229557E+03 -0.30732858083E+02  0.15413186174E+04  0.12699999809E+01 0. -1.
</event>
<event>
 5   0  0.1273980E-06  0.3218031E+04  0.7818609E-02  0.8184072E-01
       -1   -1    0    0    0  501  0.00000000000E+00  0.00000000000E+00  0.15942239161E+04  0.15942239161E+04  0.50400001928E-02 0. -1.
        1   -1    0    0  501    0  0.00000000000E+00  0.00000000000E+00 -0.16239438437E+04  0.16239438437E+04  0.50400001928E-02 0.  1.
    10030    2    1    2    0    0  0.00000000000E+00  0.00000000000E+00 -0.29719927625E+02  0.32181677598E+04  0.32180305244E+04 0.  0.
        4    1    3    3  502    0 -0.66016212203E+03 -0.11419877986E+04  0.90657953703E+03  0.16005743436E+04  0.12699999809E+01 0.  1.
       -4    1    3    3    0  502  0.66016212203E+03  0.11419877986E+04 -0.93629946465E+03  0.16175934162E+04  0.12699999809E+01 0. -1.
</event>
<event>
 5   0  0.1240725E-06  0.3213114E+04  0.7818609E-02  0.8185362E-01
        1   -1    0    0  501    0  0.00000000000E+00  0.00000000000E+00  0.16278695329E+04  0.16278695329E+04  0.50400001928E-02 0. -1.
       -1   -1    0    0    0  501  0.00000000000E+00  0.00000000000E+00 -0.15855235384E+04  0.15855235384E+04  0.50400001928E-02 0.  1.
    10030    2    1    2    0    0  0.00000000000E+00  0.00000000000E+00  0.42345994509E+02  0.32133930714E+04  0.32131140422E+04 0.  0.
        3    1    3    3  502    0  0.12577012298E+04  0.31287971488E+03  0.97063384515E+03  0.16192085014E+04  0.10100000352E+00 0. -1.
       -3    1    3    3    0  502 -0.12577012298E+04 -0.31287971488E+03 -0.92828785064E+03  0.15941845700E+04  0.10100000352E+00 0.  1.
</event>
<event>
 5   0  0.3745943E-06  0.2720539E+04  0.7818609E-02  0.8328371E-01
       -2   -1    0    0    0  501  0.00000000000E+00  0.00000000000E+00  0.85169564580E+03  0.85169564580E+03  0.25500000920E-02 0.  1.
        2   -1    0    0  501    0  0.00000000000E+00  0.00000000000E+00 -0.21725293492E+04  0.21725293492E+04  0.25500000920E-02 0. -1.
    10030    2    1    2    0    0  0.00000000000E+00  0.00000000000E+00 -0.13208337034E+04  0.30242249950E+04  0.27205394959E+04 0.  0.
        5    1    3    3  502    0  0.64781950155E+03  0.27180334758E+03 -0.19552425316E+04  0.20776290847E+04  0.46999998093E+01 0. -1.
       -5    1    3    3    0  502 -0.64781950155E+03 -0.27180334758E+03  0.63440882810E+03  0.94659591036E+03  0.46999998093E+01 0.  1.
</event>
<event>
 5   0  0.3758062E-06  0.3181719E+04  0.7818609E-02  0.8193662E-01
       -2   -1    0    0    0  501  0.00000000000E+00  0.00000000000E+00  0.12552013307E+04  0.12552013307E+04  0.25500000920E-02 0. -1.
        2   -1    0    0  501    0  0.00000000000E+00  0.00000000000E+00 -0.20162769178E+04  0.20162769178E+04  0.25500000920E-02 0.  1.
    10030    2    1    2    0    0  0.00000000000E+00  0.00000000000E+00 -0.76107558708E+03  0.32714782484E+04  0.31817186992E+04 0.  0.
        2    1    3    3  502    0 -0.32842732669E+02  0.10727179752E+04  0.82691251456E+03  0.13548382952E+04  0.25500000920E-02 0. -1.
       -2    1    3    3    0  502  0.32842732669E+02 -0.10727179752E+04 -0.15879881016E+04  0.19166399532E+04  0.25500000920E-02 0.  1.
</event>
<event>
 5   0  0.1273754E-06  0.3096132E+04  0.7818609E-02  0.8216800E-01
        1   -1    0    0  501    0  0.00000000000E+00  0.00000000000E+00  0.27980297607E+04  0.27980297607E+04  0.50400001928E-02 0. -1.
       -1   -1    0    0    0  501  0.00000000000E+00  0.00000000000E+00 -0.85649836998E+03  0.85649837000E+03  0.50400001928E-02 0.  1.
    10030    2    1    2    0    0  0.00000000000E+00  0.00000000000E+00  0.19415313908E+04  0.36545281307E+04  0.30961317345E+04 0.  0.
        2    1    3    3  502    0  0.62090519254E+03 -0.11945204293E+04  0.18728716905E+04  0.23065235059E+04  0.25500000920E-02 0. -1.
       -2    1    3    3    0  502 -0.62090519254E+03  0.11945204293E+04  0.68659700293E+02  0.13480046249E+04  0.25500000920E-02 0.  1.
</event>
<event>
 5   0  0.1268836E-06  0.3241515E+04  0.7818609E-02  0.8177938E-01
        1   -1    0    0  501    0  0.00000000000E+00  0.00000000000E+00  0.25082312024E+04  0.25082312024E+04  0.50400001928E-02 0.  1.
       -1   -1    0    0    0  501  0.00000000000E+00  0.00000000000E+00 -0.10472935851E+04  0.10472935851E+04  0.50400001928E-02 0. -1.
    10030    2    1    2    0    0  0.00000000000E+00  0.00000000000E+00  0.14609376172E+04  0.35555247875E+04  0.32415147374E+04 0.  0.
        1    1    3    3  502    0 -0.13812036316E+04  0.84121853055E+03  0.61293270486E+03  0.17294677184E+04  0.50400001928E-02 0. -1.
       -1    1    3    3    0  502  0.13812036316E+04 -0.84121853055E+03  0.84800491238E+03  0.18260570691E+04  0.50400001928E-02 0.  1.
</event>
<event>
 5   0  0.1240725E-06  0.3603259E+04  0.7818609E-02  0.8089746E-01
       -1   -1    0    0    0  501  0.00000000000E+00  0.00000000000E+00  0.22589180490E+04  0.22589180490E+04  0.50400001928E-02 0. -1.
        1   -1    0    0  501    0  0.00000000000E+00  0.00000000000E+00 -0.14369133703E+04  0.14369133704E+04  0.50400001928E-02 0.  1.
    10030    2    1    2    0    0  0.00000000000E+00  0.00000000000E+00  0.82200467863E+03  0.36958314193E+04  0.36032593840E+04 0.  0.
        3    1    3    3  502    0  0.93863031093E+03 -0.15290391730E+04  0.57917154606E+03  0.18853188970E+04  0.10100000352E+00 0.  1.
       -3    1    3    3    0  502 -0.93863031093E+03  0.15290391730E+04  0.24283313257E+03  0.18105125224E+04  0.10100000352E+00 0. -1.
</event>
<event>
 5   0  0.1268836E-06  0.3243597E+04  0.7818609E-02  0.8177397E-01
       -1   -1    0    0    0  501  0.00000000000E+00  0.00000000000E+00  0.11412466763E+04  0.11412466763E+04  0.50400001928E-02 0.  1.
        1   -1    0    0  501    0  0.00000000000E+00  0.00000000000E+00 -0.23046991763E+04  0.23046991763E+04  0.50400001928E-02 0. -1.
    10030    2    1    2    0    0  0.00000000000E+00  0.00000000000E+00 -0.11634525000E+04  0.34459458526E+04  0.32435969384E+04 0.  0.
        1    1    3    3  502    0 -0.83868121858E+03 -0.51389613358E+03  0.78819524166E+03  0.12604472069E+04  0.50400001928E-02 0.  1.
       -1    1    3    3    0  502  0.83868121858E+03  0.51389613358E+03 -0.19516477416E+04  0.21854986456E+04  0.50400001928E-02 0. -1.
</event>
<event>
 5   0  0.1273980E-06  0.3196766E+04  0.7818609E-02  0.8189672E-01
       -1   -1    0    0    0  501  0.00000000000E+00  0.00000000000E+00  0.15885940465E+04  0.15885940465E+04  0.50400001928E-02 0.  1.
        1   -1    0    0  501    0  0.00000000000E+00  0.00000000000E+00 -0.16082320836E+04  0.16082320836E+04  0.50400001928E-02 0. -1.
    10030    2    1    2    0    0  0.00000000000E+00  0.00000000000E+00 -0.19638037070E+02  0.31968261301E+04  0.31967658115E+04 0.  0.
        4    1    3    3  502    0  0.13806793528E+04  0.58835308911E+03 -0.55973071980E+03  0.16017911613E+04  0.12699999809E+01 0.  1.
       -4    1    3    3    0  502 -0.13806793528E+04 -0.58835308911E+03  0.54009268273E+03  0.15950349688E+04  0.12699999809E+01 0. -1.
</event>
<event>
 5   0  0.1273980E-06  0.3209472E+04  0.7818609E-02  0.8186320E-01
        1   -1    0    0  501    0  0.00000000000E+00  0.00000000000E+00  0.11929699472E+04  0.11929699472E+04  0.50400001928E-02 0.  1.
       -1   -1    0    0    0  501  0.00000000000E+00  0.00000000000E+00 -0.21586279268E+04  0.21586279268E+04  0.50400001928E-02 0. -1.
    10030    2    1    2    0    0  0.00000000000E+00  0.00000000000E+00 -0.96565797966E+03  0.33515978740E+04  0.32094723827E+04 0.  0.
        4    1    3    3  502    0  0.10979713854E+04  0.36202266613E+02 -0.17043835592E+04  0.20277516359E+04  0.12699999809E+01 0. -1.
       -4    1    3    3    0  502 -0.10979713854E+04 -0.36202266613E+02  0.73872557954E+03  0.13238462381E+04  0.12699999809E+01 0.  1.
</event>
<event>
 5   0  0.1240725E-06  0.3221152E+04  0.7818609E-02  0.8183253E-01
        1   -1    0    0  501    0  0.00000000000E+00  0.00000000000E+00  0.17326226970E+04  0.17326226970E+04  0.50400001928E-02 0. -1.
       -1   -1    0    0    0  501  0.00000000000E+00  0.00000000000E+00 -0.14971259812E+04  0.14971259813E+04  0.50400001928E-02 0.  1.
    10030    2    1    2    0    0  0.00000000000E+00  0.00000000000E+00  0.23549671580E+03  0.32297486783E+04  0.32211516298E+04 0.  0.
        3    1    3    3  502    0 -0.94442427146E+03  0.12748466628E+04  0.39558578010E+03  0.16351328196E+04  0.10100000352E+00 0. -1.
       -3    1    3    3    0  502  0.94442427146E+03 -0.12748466628E+04 -0.16008906430E+03  0.15946158587E+04  0.10100000352E+00 0.  1.
</event>
<event>
 5   0  0.3758062E-06  0.3155818E+04  0.7818609E-02  0.8200584E-01
        2   -1    0    0  501    0  0.00000000000E+00  0.00000000000E+00  0.25265203097E+04  0.25265203097E+04  0.25500000920E-02 0.  1.
       -2   -1    0    0    0  501  0.00000000000E+00  0.00000000000E+00 -0.98546498681E+03  0.98546498681E+03  0.25500000920E-02 0. -1.
    10030    2    1    2    0    0  0.00000000000E+00  0.00000000000E+00  0.15410553229E+04  0.35119852965E+04  0.31558183114E+04 0.  0.
        2    1    3    3  502    0 -0.12465733657E+04 -0.37609849846E+03 -0.22135632754E+03  0.13207550342E+04  0.25500000920E-02 0. -1.
       -2    1    3    3    0  502  0.12465733657E+04  0.37609849846E+03  0.17624116505E+04  0.21912302623E+04  0.25500000920E-02 0.  1.
</event>
<event>
 5   0  0.1306843E-06  0.3210927E+04  0.7818609E-02  0.8185937E-01
       -1   -1    0    0    0  501  0.00000000000E+00  0.00000000000E+00  0.10444265116E+04  0.10444265117E+04  0.50400001928E-02 0. -1.
        1   -1    0    0  501    0  0.00000000000E+00  0.00000000000E+00 -0.24678737418E+04  0.24678737418E+04  0.50400001928E-02 0.  1.
    10030    2    1    2    0    0  0.00000000000E+00  0.00000000000E+00 -0.14234472301E+04  0.35123002534E+04  0.32109268216E+04 0.  0.
        5    1    3    3  502    0  0.66380171085E+03  0.23540184332E+03 -0.22898565583E+04  0.23957278407E+04  0.46999998093E+01 0.  1.
       -5    1    3    3    0  502 -0.66380171085E+03 -0.23540184332E+03  0.86640932811E+03  0.11165724128E+04  0.46999998093E+01 0. -1.
</event>
<event>
 5   0  0.3531437E-06  0.3210164E+04  0.7818609E-02  0.8186138E-01
       -2   -1    0    0    0  501  0.00000000000E+00  0.00000000000E+00  0.22154889109E+04  0.22154889109E+04  0.25500000920E-02 0. -1.
        2   -1    0    0  501    0  0.00000000000E+00  0.00000000000E+00 -0.11628533403E+04  0.11628533403E+04  0.25500000920E-02 0.  1.
    10030    2    1    2    0    0  0.00000000000E+00  0.00000000000E+00  0.10526355706E+04  0.33783422512E+04  0.32101642827E+04 0.  0.
        1    1    3    3  502    0 -0.13262367156E+04  0.59444785427E+03  0.12431923090E+04  0.19125373707E+04  0.50400001928E-02 0.  1.
       -1    1    3    3    0  502  0.13262367156E+04 -0.59444785427E+03 -0.19055673845E+03  0.14658048805E+04  0.50400001928E-02 0. -1.
</event>
<event>
 5   0  0.1240725E-06  0.3213977E+04  0.7818609E-02  0.8185136E-01
        1   -1    0    0  501    0  0.00000000000E+00  0.00000000000E+00  0.23201008947E+04  0.23201008947E+04  0.50400001928E-02 0.  1.
       -1   -1    0    0    0  501  0.00000000000E+00  0.00000000000E+00 -0.11130602833E+04  0.11130602834E+04  0.50400001928E-02 0. -1.
    10030    2    1    2    0    0  0.00000000000E+00  0.00000000000E+00  0.12070406113E+04  0.34331611780E+04  0.32139770748E+04 0.  0.
        3    1    3    3  502    0  0.21823421523E+03 -0.10846601324E+04  0.18484619899E+04  0.21542807416E+04  0.10100000352E+00 0.  1.
       -3    1    3    3    0  502 -0.21823421523E+03  0.10846601324E+04 -0.64142137853E+03  0.12788804364E+04  0.10100000352E+00 0. -1.
</event>
<event>
 5   0  0.3531437E-06  0.3195229E+04  0.7818609E-02  0.8190078E-01
        2   -1    0    0  501    0  0.00000000000E+00  0.00000000000E+00  0.13771495244E+04  0.13771495244E+04  0.25500000920E-02 0.  1.
       -2   -1    0    0    0  501  0.00000000000E+00  0.00000000000E+00 -0.18533731931E+04  0.18533731931E+04  0.25500000920E-02 0. -1.
    10030    2    1    2    0    0  0.00000000000E+00  0.00000000000E+00 -0.47622366866E+03  0.32305227175E+04  0.31952289505E+04 0.  0.
        1    1    3    3  502    0  0.61630597706E+02 -0.15443721656E+04  0.17069123632E+03  0.15549981398E+04  0.50400001928E-02 0.  1.
       -1    1    3    3    0  502 -0.61630597706E+02  0.15443721656E+04 -0.64691490498E+03  0.16755245778E+04  0.50400001928E-02 0. -1.
</event>
<event>
 5   0  0.1268836E-06  0.2982925E+04  0.7818609E-02  0.8248624E-01
        1   -1    0    0  501    0  0.00000000000E+00  0.00000000000E+00  0.29398446008E+04  0.29398446008E+04  0.50400001928E-02 0.  1.
       -1   -1    0    0    0  501  0.00000000000E+00  0.00000000000E+00 -0.75665930762E+03  0.75665930763E+03  0.50400001928E-02 0. -1.
    10030    2    1    2    0    0  0.00000000000E+00  0.00000000000E+00  0.21831852932E+04  0.36965039084E+04  0.29829252623E+04 0.  0.
        1    1    3    3  502    0  0.12009012380E+04  0.44710598819E+01 -0.44541070460E+01  0.12009178211E+04  0.50400001928E-02 0. -1.
       -1    1    3    3    0  502 -0.12009012380E+04 -0.44710598819E+01  0.21876394002E+04  0.24955860873E+04  0.50400001928E-02 0.  1.
</event>
<event>
 5   0  0.3745943E-06  0.3197617E+04  0.7818609E-02  0.8189447E-01
       -2   -1    0    0    0  501  0.00000000000E+00  0.00000000000E+00  0.10731430174E+04  0.10731430174E+04  0.25500000920E-02 0.  1.
        2   -1    0    0  501    0  0.00000000000E+00  0.00000000000E+00 -0.23819640339E+04  0.23819640339E+04  0.25500000920E-02 0. -1.
    10030    2    1    2    0    0  0.00000000000E+00  0.00000000000E+00 -0.13088210165E+04  0.34551070513E+04  0.31976166566E+04 0.  0.
        5    1    3    3  502    0  0.75008423535E+03 -0.98442329814E+03 -0.17480660968E+04  0.21418386398E+04  0.46999998093E+01 0. -1.
       -5    1    3    3    0  502 -0.75008423535E+03  0.98442329814E+03  0.43924508032E+03  0.13132684115E+04  0.46999998093E+01 0.  1.
</event>
<event>
 5   0  0.1273754E-06  0.3287814E+04  0.7818609E-02  0.8166003E-01
       -1   -1    0    0    0  501  0.00000000000E+00  0.00000000000E+00  0.15953795500E+04  0.15953795500E+04  0.50400001928E-02 0.  1.
        1   -1    0    0  501    0  0.00000000000E+00  0.00000000000E+00 -0.16939106219E+04  0.16939106219E+04  0.50400001928E-02 0. -1.
    10030    2    1    2    0    0  0.00000000000E+00  0.00000000000E+00 -0.98531071868E+02  0.32892901720E+04  0.32878140859E+04 0.  0.
        2    1    3    3  502    0  0.30364839462E+03 -0.10746729871E+04  0.11576367058E+04  0.16084921881E+04  0.25500000920E-02 0.  1.
       -2    1    3    3    0  502 -0.30364839462E+03  0.10746729871E+04 -0.12561677776E+04  0.16807979838E+04  0.25500000920E-02 0. -1.
</event>
<event>
 5   0  0.3656086E-06  0.3189643E+04  0.7818609E-02  0.8191558E-01
       -2   -1    0    0    0  501  0.00000000000E+00  0.00000000000E+00  0.25383450975E+04  0.25383450975E+04  0.25500000920E-02 0.  1.
        2   -1    0    0  501    0  0.00000000000E+00  0.00000000000E+00 -0.10020135942E+04  0.10020135942E+04  0.25500000920E-02 0. -1.
    10030    2    1    2    0    0  0.00000000000E+00  0.00000000000E+00  0.15363315033E+04  0.35403586917E+04  0.31896434249E+04 0.  0.
        3    1    3    3  502    0 -0.49114771867E+03  0.93381130064E+03  0.20955833277E+04  0.23462095218E+04  0.10100000352E+00 0.  1.
       -3    1    3    3    0  502  0.49114771867E+03 -0.93381130064E+03 -0.55925182438E+03  0.11941491699E+04  0.10100000352E+00 0. -1.
</event>
<event>
 5   0  0.3758062E-06  0.3215865E+04  0.7818609E-02  0.8184640E-01
        2   -1    0    0  501    0  0.00000000000E+00  0.00000000000E+00  0.10855575381E+04  0.10855575381E+04  0.25500000920E-02 0.  1.
       -2   -1    0    0    0  501  0.00000000000E+00  0.00000000000E+00 -0.23816765331E+04  0.23816765331E+04  0.25500000920E-02 0. -1.
    10030    2    1    2    0    0  0.00000000000E+00  0.00000000000E+00 -0.12961189951E+04  0.34672340712E+04  0.32158649933E+04 0.  0.
        2    1    3    3  502    0 -0.69483561649E+03  0.66823098457E+03 -0.20355529966E+04  0.22522888768E+04  0.25500000920E-02 0. -1.
       -2    1    3    3    0  502  0.69483561649E+03 -0.66823098457E+03  0.73943400152E+03  0.12149451944E+04  0.25500000920E-02 0.  1.
</event>
<event>
 5   0  0.1273754E-06  0.3043684E+04  0.7818609E-02  0.8231366E-01
        1   -1    0    0  501    0  0.00000000000E+00  0.00000000000E+00  0.28447687472E+04  0.28447687472E+04  0.50400001928E-02 0. -1.
       -1   -1    0    0    0  501  0.00000000000E+00  0.00000000000E+00 -0.81412701866E+03  0.81412701868E+03  0.50400001928E-02 0.  1.
    10030    2    1    2    0    0  0.00000000000E+00  0.00000000000E+00  0.20306417285E+04  0.36588957659E+04  0.30436840171E+04 0.  0.
        2    1    3    3  502    0 -0.14031060909E+04  0.32669583435E+03  0.16049348867E+04  0.21566763459E+04  0.25500000920E-02 0. -1.
       -2    1    3    3    0  502  0.14031060909E+04 -0.32669583435E+03  0.42570684183E+03  0.15022194200E+04  0.25500000920E-02 0.  1.
</event>
<event>
 5   0  0.3745943E-06  0.3121216E+04  0.7818609E-02  0.8209939E-01
        2   -1    0    0  501    0  0.00000000000E+00  0.00000000000E+00  0.17633712535E+04  0.17633712535E+04  0.25500000920E-02 0. -1.
       -2   -1    0    0    0  501  0.00000000000E+00  0.00000000000E+00 -0.13811594209E+04  0.13811594209E+04  0.25500000920E-02 0.  1.
    10030    2    1    2    0    0  0.00000000000E+00  0.00000000000E+00  0.38221183258E+03  0.31445306744E+04  0.31212156730E+04 0.  0.
        5    1    3    3  502    0 -0.13251270101E+04  0.79736028473E+03  0.40178449000E+03  0.15978729245E+04  0.46999998093E+01 0.  1.
       -5    1    3    3    0  502  0.13251270101E+04 -0.79736028473E+03 -0.19572657421E+02  0.15466577499E+04  0.46999998093E+01 0. -1.
</event>
<event>
 5   0  0.3745943E-06  0.3215245E+04  0.7818609E-02  0.8184802E-01
       -2   -1    0    0    0  501  0.00000000000E+00  0.00000000000E+00  0.13157678244E+04  0.13157678244E+04  0.25500000920E-02 0.  1.
        2   -1    0    0  501    0  0.00000000000E+00  0.00000000000E+00 -0.19642149164E+04  0.19642149164E+04  0.25500000920E-02 0. -1.
    10030    2    1    2    0    0  0.00000000000E+00  0.00000000000E+00 -0.64844709194E+03  0.32799827408E+04  0.32152454259E+04 0.  0.
        5    1    3    3  502    0 -0.67336037673E+03  0.84961210328E+03  0.88676407980E+03  0.14005811459E+04  0.46999998093E+01 0.  1.
       -5    1    3    3    0  502  0.67336037673E+03 -0.84961210328E+03 -0.15352111717E+04  0.18794015949E+04  0.46999998093E+01 0. -1.
</event>
<event>
 5   0  0.3656086E-06  0.3176800E+04  0.7818609E-02  0.8194971E-01
        2   -1    0    0  501    0  0.00000000000E+00  0.00000000000E+00  0.21893614539E+04  0.21893614539E+04  0.25500000920E-02 0.  1.
       -2   -1    0    0    0  501  0.00000000000E+00  0.00000000000E+00 -0.11523972152E+04  0.11523972152E+04  0.25500000920E-02 0. -1.
    10030    2    1    2    0    0  0.00000000000E+00  0.00000000000E+00  0.10369642388E+04  0.33417586691E+04  0.31767996742E+04 0.  0.
        3    1    3    3  502    0 -0.19899221818E+03  0.26903348287E+02 -0.11389918095E+04  0.11565569788E+04  0.10100000352E+00 0. -1.
       -3    1    3    3    0  502  0.19899221818E+03 -0.26903348287E+02  0.21759560482E+04  0.21852016903E+04  0.10100000352E+00 0.  1.
</event>
<event>
 5   0  0.3531437E-06  0.3359137E+04  0.7818609E-02  0.8148009E-01
       -2   -1    0    0    0  501  0.00000000000E+00  0.00000000000E+00  0.14439692583E+04  0.14439692583E+04  0.25500000920E-02 0.  1.
        2   -1    0    0  501    0  0.00000000000E+00  0.00000000000E+00 -0.19536086426E+04  0.19536086426E+04  0.25500000920E-02 0. -1.
    10030    2    1    2    0    0  0.00000000000E+00  0.00000000000E+00 -0.50963938434E+03  0.33975779009E+04  0.33591372837E+04 0.  0.
        1    1    3    3  502    0  0.12625984984E+04 -0.27252020374E+03 -0.13406639129E+04  0.18616664462E+04  0.50400001928E-02 0. -1.
       -1    1    3    3    0  502 -0.12625984984E+04  0.27252020374E+03  0.83102452851E+03  0.15359114547E+04  0.50400001928E-02 0.  1.
</event>
<event>
 5   0  0.1306843E-06  0.3199440E+04  0.7818609E-02  0.8188965E-01
        1   -1    0    0  501    0  0.00000000000E+00  0.00000000000E+00  0.17472576837E+04  0.17472576837E+04  0.50400001928E-02 0.  1.
       -1   -1    0    0    0  501  0.00000000000E+00  0.00000000000E+00 -0.14646401688E+04  0.14646401689E+04  0.50400001928E-02 0. -1.
    10030    2    1    2    0    0  0.00000000000E+00  0.00000000000E+00  0.28261751484E+03  0.32118978525E+04  0.31994398190E+04 0.  0.
        5    1    3    3  502    0  0.78445012783E+03 -0.66005285936E+03  0.13741173089E+04  0.17144247574E+04  0.46999998093E+01 0.  1.
       -5    1    3    3    0  502 -0.78445012783E+03  0.66005285936E+03 -0.10914997941E+04  0.14974730951E+04  0.46999998093E+01 0. -1.
</event>
<event>
 5   0  0.1268836E-06  0.3194992E+04  0.7818609E-02  0.8190141E-01
        1   -1    0    0  501    0  0.00000000000E+00  0.00000000000E+00  0.12375417962E+04  0.12375417962E+04  0.50400001928E-02 0.  1.
       -1   -1    0    0    0  501  0.00000000000E+00  0.00000000000E+00 -0.20621477367E+04  0.20621477367E+04  0.50400001928E-02 0. -1.
    10030    2    1    2    0    0  0.00000000000E+00  0.00000000000E+00 -0.82460594052E+03  0.32996895330E+04  0.31949923407E+04 0.  0.
        1    1    3    3  502    0 -0.47022192723E+03 -0.15002776980E+04 -0.70450945238E+03  0.17228683642E+04  0.50400001928E-02 0. -1.
       -1    1    3    3    0  502  0.47022192723E+03  0.15002776980E+04 -0.12009648814E+03  0.15768211688E+04  0.50400001928E-02 0.  1.
</event>
<event>
 5   0  0.3758062E-06  0.3213396E+04  0.7818609E-02  0.8185288E-01
        2   -1    0    0  501    0  0.00000000000E+00  0.00000000000E+00  0.19821790430E+04  0.19821790430E+04  0.25500000920E-02 0. -1.
       -2   -1    0    0    0  501  0.00000000000E+00  0.00000000000E+00 -0.13023434124E+04  0.13023434124E+04  0.25500000920E-02 0.  1.
    10030    2    1    2    0    0  0.00000000000E+00  0.00000000000E+00  0.67983563060E+03  0.32845224555E+04  0.32133955990E+04 0.  0.
        2    1    3    3  502    0 -0.12567858994E+04  0.17263262261E+03 -0.66789071844E+03  0.14336634302E+04  0.25500000920E-02 0.  1.
       -2    1    3    3    0  502  0.12567858994E+04 -0.17263262261E+03  0.13477263490E+04  0.18508590252E+04  0.25500000920E-02 0. -1.
</event>
<event>
 5   0  0.1273754E-06  0.3173103E+04  0.7818609E-02  0.8195957E-01
       -1   -1    0    0    0  501  0.00000000000E+00  0.00000000000E+00  0.12908093728E+04  0.12908093728E+04  0.50400001928E-02 0.  1.
        1   -1    0    0  501    0  0.00000000000E+00  0.00000000000E+00 -0.19500527082E+04  0.19500527082E+04  0.50400001928E-02 0. -1.
    10030    2    1    2    0    0  0.00000000000E+00  0.00000000000E+00 -0.65924333538E+03  0.32408620810E+04  0.31731034103E+04 0.  0.
        2    1    3    3  502    0  0.85915434052E+03  0.27109925105E+03 -0.16634589857E+04  0.18917549476E+04  0.25500000920E-02 0. -1.
       -2    1    3    3    0  502 -0.85915434052E+03 -0.27109925105E+03  0.10042156503E+04  0.13491071333E+04  0.25500000920E-02 0.  1.
</event>
<event>
 5   0  0.3531437E-06  0.3111756E+04  0.7818609E-02  0.8212519E-01
       -2   -1    0    0    0  501  0.00000000000E+00  0.00000000000E+00  0.11325611542E+04  0.11325611543E+04  0.25500000920E-02 0. -1.
        2   -1    0    0  501    0  0.00000000000E+00  0.00000000000E+00 -0.21374181904E+04  0.21374181904E+04  0.25500000920E-02 0.  1.
    10030    2    1    2    0    0  0.00000000000E+00  0.00000000000E+00 -0.10048570362E+04  0.32699793447E+04  0.31117562969E+04 0.  0.
        1    1    3    3  502    0  0.31829778051E+02 -0.46246604241E+03 -0.20631638967E+04  0.21146000189E+04  0.50400001928E-02 0.  1.
       -1    1    3    3    0  502 -0.31829778051E+02  0.46246604241E+03  0.10583068606E+04  0.11553793257E+04  0.50400001928E-02 0. -1.
</event>
<event>
 5   0  0.3745943E-06  0.3229733E+04  0.7818609E-02  0.8181009E-01
        2   -1    0    0  501    0  0.00000000000E+00  0.00000000000E+00  0.16659479278E+04  0.16659479278E+04  0.25500000920E-02 0.  1.
       -2   -1    0    0    0  501  0.00000000000E+00  0.00000000000E+00 -0.15653516561E+04  0.15653516561E+04  0.25500000920E-02 0. -1.
    10030    2    1    2    0    0  0.00000000000E+00  0.00000000000E+00  0.10059627170E+03  0.32312995838E+04  0.32297333312E+04 0.  0.
        5    1    3    3  502    0  0.50668303694E+03 -0.15301701628E+04 -0.47850561983E+02  0.16125942433E+04  0.46999998093E+01 0.  1.
       -5    1    3    3    0  502 -0.50668303694E+03  0.15301701628E+04  0.14844683368E+03  0.16187053406E+04  0.46999998093E+01 0. -1.
</event>
<event>
 5   0  0.1240725E-06  0.3092700E+04  0.7818609E-02  0.8217744E-01
       -1   -1    0    0    0  501  0.00000000000E+00  0.00000000000E+00  0.11730509858E+04  0.11730509858E+04  0.50400001928E-02 0. -1.
        1   -1    0    0  501    0  0.00000000000E+00  0.00000000000E+00 -0.20384441215E+04  0.20384441215E+04  0.50400001928E-02 0.  1.
    10030    2    1    2    0    0  0.00000000000E+00  0.00000000000E+00 -0.86539313576E+03  0.32114951073E+04  0.30927003645E+04 0.  0.
        3    1    3    3  502    0 -0.65610189357E+03  0.42477765383E+03  0.95283101685E+03  0.12323930813E+04  0.10100000352E+00 0. -1.
       -3    1    3    3    0  502  0.65610189357E+03 -0.42477765383E+03 -0.18182241526E+04  0.19791020260E+04  0.10100000352E+00 0.  1.
</event>
<event>
 5   0  0.1306843E-06  0.3340414E+04  0.7818609E-02  0.8152688E-01
       -1   -1    0    0    0  501  0.00000000000E+00  0.00000000000E+00  0.19090478006E+04  0.19090478006E+04  0.50400001928E-02 0. -1.
        1   -1    0    0  501    0  0.00000000000E+00  0.00000000000E+00 -0.14612474419E+04  0.14612474419E+04  0.50400001928E-02 0.  1.
    10030    2    1    2    0    0  0.00000000000E+00  0.00000000000E+00  0.44780035870E+03  0.33702952426E+04  0.33404138757E+04 0.  0.
        5    1    3    3  502    0 -0.77239628195E+02 -0.59110798599E+03 -0.13502469002E+04  0.14759957292E+04  0.46999998093E+01 0.  1.
       -5    1    3    3    0  502  0.77239628195E+02  0.59110798599E+03  0.17980472589E+04  0.18942995134E+04  0.46999998093E+01 0. -1.
</event>
<event>
 5   0  0.3531437E-06  0.3201113E+04  0.7818609E-02  0.8188523E-01
        2   -1    0    0  501    0  0.00000000000E+00  0.00000000000E+00  0.16857769624E+04  0.16857769624E+04  0.25500000920E-02 0. -1.
       -2   -1    0    0    0  501  0.00000000000E+00  0.00000000000E+00 -0.15196441867E+04  0.15196441867E+04  0.25500000920E-02 0.  1.
    10030    2    1    2    0    0  0.00000000000E+00  0.00000000000E+00  0.16613277566E+03  0.32054211491E+04  0.32011130321E+04 0.  0.
        1    1    3    3  502    0  0.10497219101E+04  0.10811777159E+04 -0.45702934129E+03  0.15747181210E+04  0.50400001928E-02 0.  1.
       -1    1    3    3    0  502 -0.10497219101E+04 -0.10811777159E+04  0.62316211696E+03  0.16307030281E+04  0.50400001928E-02 0. -1.
</event>
<event>
 5   0  0.3497546E-06  0.3208503E+04  0.7818609E-02  0.8186575E-01
        2   -1    0    0  501    0  0.00000000000E+00  0.00000000000E+00  0.30151424622E+04  0.30151424622E+04  0.25500000920E-02 0.  1.
       -2   -1    0    0    0  501  0.00000000000E+00  0.00000000000E+00 -0.85356568137E+03  0.85356568137E+03  0.25500000920E-02 0. -1.
    10030    2    1    2    0    0  0.00000000000E+00  0.00000000000E+00  0.21615767808E+04  0.38687081436E+04  0.32085025356E+04 0.  0.
        4    1    3    3  502    0 -0.48481146005E+03  0.13897156754E+03  0.29170679209E+04  0.29603449320E+04  0.12699999809E+01 0.  1.
       -4    1    3    3    0  502  0.48481146005E+03 -0.13897156754E+03 -0.75549114011E+03  0.90836321153E+03  0.12699999809E+01 0. -1.
</event>
<event>
 5   0  0.1273754E-06  0.3128954E+04  0.7818609E-02  0.8207836E-01
        1   -1    0    0  501    0  0.00000000000E+00  0.00000000000E+00  0.18943307857E+04  0.18943307857E+04  0.50400001928E-02 0. -1.
       -1   -1    0    0    0  501  0.00000000000E+00  0.00000000000E+00 -0.12920593649E+04  0.12920593649E+04  0.50400001928E-02 0.  1.
    10030    2    1    2    0    0  0.00000000000E+00  0.00000000000E+00  0.60227142074E+03  0.31863901506E+04  0.31289537113E+04 0.  0.
        2    1    3    3  502    0  0.11725969199E+04 -0.70832735165E+03  0.10705689707E+04  0.17386285097E+04  0.25500000920E-02 0. -1.
       -2    1    3    3    0  502 -0.11725969199E+04  0.70832735165E+03 -0.46829754994E+03  0.14477616409E+04  0.25500000920E-02 0.  1.
</event>
<event>
 5   0  0.1273980E-06  0.3149267E+04  0.7818609E-02  0.8202346E-01
        1   -1    0    0  501    0  0.00000000000E+00  0.00000000000E+00  0.25566866459E+04  0.25566866459E+04  0.50400001928E-02 0.  1.
       -1   -1    0    0    0  501  0.00000000000E+00  0.00000000000E+00 -0.96979845057E+03  0.96979845058E+03  0.50400001928E-02 0. -1.
    10030    2    1    2    0    0  0.00000000000E+00  0.00000000000E+00  0.15868881954E+04  0.35264850965E+04  0.31492670562E+04 0.  0.
        4    1    3    3  502    0 -0.69659252459E+03 -0.10190413535E+04  0.18881870235E+04  0.22558675214E+04  0.12699999809E+01 0.  1.
       -4    1    3    3    0  502  0.69659252459E+03  0.10190413535E+04 -0.30129882813E+03  0.12706175751E+04  0.12699999809E+01 0. -1.
</event>
<event>
 5   0  0.3656086E-06  0.3195796E+04  0.7818609E-02  0.8189928E-01
       -2   -1    0    0    0  501  0.00000000000E+00  0.00000000000E+00  0.19758318128E+04  0.19758318128E+04  0.25500000920E-02 0.  1.
        2   -1    0    0  501    0  0.00000000000E+00  0.00000000000E+00 -0.12922547058E+04  0.12922547058E+04  0.25500000920E-02 0. -1.
    10030    2    1    2    0    0  0.00000000000E+00  0.00000000000E+00  0.68357710695E+03  0.32680865187E+04  0.31957959622E+04 0.  0.
        3    1    3    3  502    0 -0.37035559559E+03 -0.59677588325E+03  0.18095155741E+04  0.19410438803E+04  0.10100000352E+00 0.  1.
       -3    1    3    3    0  502  0.37035559559E+03  0.59677588325E+03 -0.11259384672E+04  0.13270426384E+04  0.10100000352E+00 0. -1.
</event>
<event>
 5   0  0.1268836E-06  0.3182027E+04  0.7818609E-02  0.8193580E-01
        1   -1    0    0  501    0  0.00000000000E+00  0.00000000000E+00  0.17460622459E+04  0.17460622459E+04  0.50400001928E-02 0.  1.
       -1   -1    0    0    0  501  0.00000000000E+00  0.00000000000E+00 -0.14497326560E+04  0.14497326561E+04  0.50400001928E-02 0. -1.
    10030    2    1    2    0    0  0.00000000000E+00  0.00000000000E+00  0.29632958985E+03  0.31957949020E+04  0.31820266859E+04 0.  0.
        1    1    3    3  502    0  0.24587372249E+03  0.10411557055E+04 -0.10345828093E+04  0.14882273616E+04  0.50400001928E-02 0. -1.
       -1    1    3    3    0  502 -0.24587372249E+03 -0.10411557055E+04  0.13309123992E+04  0.17075675403E+04  0.50400001928E-02 0.  1.
</event>
<event>
 5   0  0.3656086E-06  0.3233756E+04  0.7818609E-02  0.8179959E-01
       -2   -1    0    0    0  501  0.00000000000E+00  0.00000000000E+00  0.22605278443E+04  0.22605278443E+04  0.25500000920E-02 0.  1.
        2   -1    0    0  501    0  0.00000000000E+00  0.00000000000E+00 -0.11564970450E+04  0.11564970450E+04  0.25500000920E-02 0. -1.
    10030    2    1    2    0    0  0.00000000000E+00  0.00000000000E+00  0.11040307993E+04  0.34170248893E+04  0.32337555703E+04 0.  0.
        3    1    3    3  502    0 -0.77372567080E+03  0.55978776218E+03  0.19306731033E+04  0.21539527373E+04  0.10100000352E+00 0.  1.
       -3    1    3    3    0  502  0.77372567080E+03 -0.55978776218E+03 -0.82664230400E+03  0.12630721521E+04  0.10100000352E+00 0. -1.
</event>
<event>
 5   0  0.1273754E-06  0.3169964E+04  0.7818609E-02  0.8196795E-01
        1   -1    0    0  501    0  0.00000000000E+00  0.00000000000E+00  0.20268980313E+04  0.20268980313E+04  0.50400001928E-02 0.  1.
       -1   -1    0    0    0  501  0.00000000000E+00  0.00000000000E+00 -0.12394152395E+04  0.12394152395E+04  0.50400001928E-02 0. -1.
    10030    2    1    2    0    0  0.00000000000E+00  0.00000000000E+00  0.78748279186E+03  0.32663132708E+04  0.31699642325E+04 0.  0.
        2    1    3    3  502    0 -0.76143306155E+03  0.13577009183E+04  0.70120012366E+03  0.17072825496E+04  0.25500000920E-02 0.  1.
       -2    1    3    3    0  502  0.76143306155E+03 -0.13577009183E+04  0.86282668195E+02  0.15590307212E+04  0.25500000920E-02 0. -1.
</event>
<event>
 5   0  0.3531437E-06  0.3326401E+04  0.7818609E-02  0.8156210E-01
        2   -1    0    0  501    0  0.00000000000E+00  0.00000000000E+00  0.20253161211E+04  0.20253161211E+04  0.25500000920E-02 0.  1.
       -2   -1    0    0    0  501  0.00000000000E+00  0.00000000000E+00 -0.13658294146E+04  0.13658294146E+04  0.25500000920E-02 0. -1.
    10030    2    1    2    0    0  0.00000000000E+00  0.00000000000E+00  0.65948670641E+03  0.33911455357E+04  0.33264012579E+04 0.  0.
        1    1    3    3  502    0 -0.15399585508E+04  0.59799359023E+03  0.52628491446E+03  0.17337948216E+04  0.50400001928E-02 0.  1.
       -1    1    3    3    0  502  0.15399585508E+04 -0.59799359023E+03  0.13320179194E+03  0.16573507141E+04  0.50400001928E-02 0. -1.
</event>
<event>
 5   0  0.3758062E-06  0.3202948E+04  0.7818609E-02  0.8188039E-01
        2   -1    0    0  501    0  0.00000000000E+00  0.00000000000E+00  0.13960542632E+04  0.13960542632E+04  0.25500000920E-02 0.  1.
       -2   -1    0    0    0  501  0.00000000000E+00  0.00000000000E+00 -0.18371196901E+04  0.18371196902E+04  0.25500000920E-02 0. -1.
    10030    2    1    2    0    0  0.00000000000E+00  0.00000000000E+00 -0.44106542698E+03  0.32331739533E+04  0.32029478768E+04 0.  0.
        2    1    3    3  502    0 -0.97470226284E+03  0.17115640963E+03 -0.14915336033E+04  0.17899752812E+04  0.25500000920E-02 0. -1.
       -2    1    3    3    0  502  0.97470226284E+03 -0.17115640963E+03  0.10504681763E+04  0.14431986721E+04  0.25500000920E-02 0.  1.
</event>
<event>
 5   0  0.1185575E-06  0.3222311E+04  0.7818609E-02  0.8182950E-01
       -3   -1    0    0    0  501  0.00000000000E+00  0.00000000000E+00  0.22179271093E+04  0.22179271116E+04  0.10100000352E+00 0. -1.
        3   -1    0    0  501    0  0.00000000000E+00  0.00000000000E+00 -0.11703820638E+04  0.11703820682E+04  0.10100000352E+00 0.  1.
    10030    2    1    2    0    0  0.00000000000E+00  0.00000000000E+00  0.10475450454E+04  0.33883091798E+04  0.32223110457E+04 0.  0.
        3    1    3    3  502    0  0.66505538300E+03 -0.14302210623E+04  0.86932154899E+03  0.18009860953E+04  0.10100000352E+00 0. -1.
       -3    1    3    3    0  502 -0.66505538300E+03  0.14302210623E+04  0.17822349646E+03  0.15873230845E+04  0.10100000352E+00 0.  1.
</event>
<event>
 5   0  0.1273980E-06  0.3069688E+04  0.7818609E-02  0.8224106E-01
        1   -1    0    0  501    0  0.00000000000E+00  0.00000000000E+00  0.21795245625E+04  0.21795245625E+04  0.50400001928E-02 0.  1.
       -1   -1    0    0    0  501  0.00000000000E+00  0.00000000000E+00 -0.10808533574E+04  0.10808533574E+04  0.50400001928E-02 0. -1.
    10030    2    1    2    0    0  0.00000000000E+00  0.00000000000E+00  0.10986712051E+04  0.32603779200E+04  0.30696882194E+04 0.  0.
        4    1    3    3  502    0  0.13379653263E+04 -0.59972614805E+03  0.67359817205E+02  0.14677743780E+04  0.12699999809E+01 0.  1.
       -4    1    3    3    0  502 -0.13379653263E+04  0.59972614805E+03  0.10313113879E+04  0.17926035420E+04  0.12699999809E+01 0. -1.
</event>
<event>
 5   0  0.3497546E-06  0.3147616E+04  0.7818609E-02  0.8202790E-01
        2   -1    0    0  501    0  0.00000000000E+00  0.00000000000E+00  0.22776630632E+04  0.22776630632E+04  0.25500000920E-02 0.  1.
       -2   -1    0    0    0  501  0.00000000000E+00  0.00000000000E+00 -0.10874615597E+04  0.10874615597E+04  0.25500000920E-02 0. -1.
    10030    2    1    2    0    0  0.00000000000E+00  0.00000000000E+00  0.11902015035E+04  0.33651246229E+04  0.31476156227E+04 0.  0.
        4    1    3    3  502    0  0.50867153600E+03 -0.13310025391E+04 -0.11932467214E+03  0.14298791841E+04  0.12699999809E+01 0. -1.
       -4    1    3    3    0  502 -0.50867153600E+03  0.13310025391E+04  0.13095261757E+04  0.19352454388E+04  0.12699999809E+01 0.  1.
</event>
<event>
 5   0  0.3745943E-06  0.3218541E+04  0.7818609E-02  0.8183938E-01
       -2   -1    0    0    0  501  0.00000000000E+00  0.00000000000E+00  0.16258548209E+04  0.16258548209E+04  0.25500000920E-02 0.  1.
        2   -1    0    0  501    0  0.00000000000E+00  0.00000000000E+00 -0.15928555134E+04  0.15928555134E+04  0.25500000920E-02 0. -1.
    10030    2    1    2    0    0  0.00000000000E+00  0.00000000000E+00  0.32999307517E+02  0.32187103343E+04  0.32185411698E+04 0.  0.
        5    1    3    3  502    0 -0.21132822013E+03  0.48542564798E+03 -0.15032617815E+04  0.15937740586E+04  0.46999998093E+01 0. -1.
       -5    1    3    3    0  502  0.21132822013E+03 -0.48542564798E+03  0.15362610890E+04  0.16249362756E+04  0.46999998093E+01 0.  1.
</event>
<event>
 5   0  0.1268836E-06  0.3197090E+04  0.7818609E-02  0.8189586E-01
        1   -1    0    0  501    0  0.00000000000E+00  0.00000000000E+00  0.16510537339E+04  0.16510537339E+04  0.50400001928E-02 0.  1.
       -1   -1    0    0    0  501  0.00000000000E+00  0.00000000000E+00 -0.15477065328E+04  0.15477065328E+04  0.50400001928E-02 0. -1.
    10030    2    1    2    0    0  0.00000000000E+00  0.00000000000E+00  0.10334720113E+03  0.31987602667E+04  0.31970903334E+04 0.  0.
        1    1    3    3  502    0 -0.51261978392E+02  0.15738726334E+04  0.32685142657E+03  0.16082707209E+04  0.50400001928E-02 0. -1.
       -1    1    3    3    0  502  0.51261978392E+02 -0.15738726334E+04 -0.22350422544E+03  0.15904895458E+04  0.50400001928E-02 0.  1.
</event>
<event>
 5   0  0.3497546E-06  0.3198228E+04  0.7818609E-02  0.8189285E-01
       -2   -1    0    0    0  501  0.00000000000E+00  0.00000000000E+00  0.21213583847E+04  0.21213583847E+04  0.25500000920E-02 0. -1.
        2   -1    0    0  501    0  0.00000000000E+00  0.00000000000E+00 -0.12054377975E+04  0.12054377975E+04  0.25500000920E-02 0.  1.
    10030    2    1    2    0    0  0.00000000000E+00  0.00000000000E+00  0.91592058719E+03  0.33267961823E+04  0.31982279963E+04 0.  0.
        4    1    3    3  502    0 -0.11098628267E+04 -0.63368177066E+03  0.14577519009E+04  0.19386568283E+04  0.12699999809E+01 0. -1.
       -4    1    3    3    0  502  0.11098628267E+04  0.63368177066E+03 -0.54183131370E+03  0.13881393540E+04  0.12699999809E+01 0.  1.
</event>
<event>
 5   0  0.1240725E-06  0.3131802E+04  0.7818609E-02  0.8207064E-01
       -1   -1    0    0    0  501  0.00000000000E+00  0.00000000000E+00  0.22804392246E+04  0.22804392246E+04  0.50400001928E-02 0. -1.
        1   -1    0    0  501    0  0.00000000000E+00  0.00000000000E+00 -0.10752516036E+04  0.10752516036E+04  0.50400001928E-02 0.  1.
    10030    2    1    2    0    0  0.00000000000E+00  0.00000000000E+00  0.12051876210E+04  0.33556908283E+04  0.31318019946E+04 0.  0.
        3    1    3    3  502    0 -0.66198646573E+03  0.54506153805E+02  0.21220121561E+04  0.22235405556E+04  0.10100000352E+00 0. -1.
       -3    1    3    3    0  502  0.66198646573E+03 -0.54506153805E+02 -0.91682453508E+03  0.11321502727E+04  0.10100000352E+00 0.  1.
</event>
<event>
 5   0  0.1273754E-06  0.3197334E+04  0.7818609E-02  0.8189522E-01
       -1   -1    0    0    0  501  0.00000000000E+00  0.00000000000E+00  0.15356563754E+04  0.15356563754E+04  0.50400001928E-02 0.  1.
        1   -1    0    0  501    0  0.00000000000E+00  0.00000000000E+00 -0.16642628991E+04  0.16642628991E+04  0.50400001928E-02 0. -1.
    10030    2    1    2    0    0  0.00000000000E+00  0.00000000000E+00 -0.12860652366E+03  0.31999192745E+04  0.31973338464E+04 0.  0.
        2    1    3    3  502    0 -0.13597199896E+03 -0.10564228744E+04 -0.12574158456E+04  0.16479114912E+04  0.25500000920E-02 0. -1.
       -2    1    3    3    0  502  0.13597199896E+03  0.10564228744E+04  0.11288093219E+04  0.15520077833E+04  0.25500000920E-02 0.  1.
</event>
<event>
 5   0  0.1273754E-06  0.3225512E+04  0.7818609E-02  0.8182112E-01
       -1   -1    0    0    0  501  0.00000000000E+00  0.00000000000E+00  0.10564486985E+04  0.10564486985E+04  0.50400001928E-02 0.  1.
        1   -1    0    0  501    0  0.00000000000E+00  0.00000000000E+00 -0.24620048305E+04  0.24620048305E+04  0.50400001928E-02 0. -1.
    10030    2    1    2    0    0  0.00000000000E+00  0.00000000000E+00 -0.14055561320E+04  0.35184535290E+04  0.32255119277E+04 0.  0.
        2    1    3    3  502    0 -0.85335949736E+03  0.53288285093E+03  0.67217264949E+03  0.12099597660E+04  0.25500000920E-02 0.  1.
       -2    1    3    3    0  502  0.85335949736E+03 -0.53288285093E+03 -0.20777287815E+04  0.23084937630E+04  0.25500000920E-02 0. -1.
</event>
<event>
 5   0  0.1268836E-06  0.3189951E+04  0.7818609E-02  0.8191476E-01
        1   -1    0    0  501    0  0.00000000000E+00  0.00000000000E+00  0.15001927559E+04  0.15001927559E+04  0.50400001928E-02 0.  1.
       -1   -1    0    0    0  501  0.00000000000E+00  0.00000000000E+00 -0.16957465568E+04  0.16957465568E+04  0.50400001928E-02 0. -1.
    10030    2    1    2    0    0  0.00000000000E+00  0.00000000000E+00 -0.19555380090E+03  0.31959393127E+04  0.31899509090E+04 0.  0.
        1    1    3    3  502    0 -0.78022295334E+03  0.13381620217E+04  0.28309626422E+03  0.15746647098E+04  0.50400001928E-02 0. -1.
       -1    1    3    3    0  502  0.78022295334E+03 -0.13381620217E+04 -0.47865006513E+03  0.16212746030E+04  0.50400001928E-02 0.  1.
</event>
<event>
 5   0  0.1306843E-06  0.3171596E+04  0.7818609E-02  0.8196359E-01
       -1   -1    0    0    0  501  0.00000000000E+00  0.00000000000E+00  0.12619316949E+04  0.12619316949E+04  0.50400001928E-02 0.  1.
        1   -1    0    0  501    0  0.00000000000E+00  0.00000000000E+00 -0.19927824618E+04  0.19927824618E+04  0.50400001928E-02 0. -1.
    10030    2    1    2    0    0  0.00000000000E+00  0.00000000000E+00 -0.73085076694E+03  0.32547141567E+04  0.31715960333E+04 0.  0.
        5    1    3    3  502    0 -0.40911865531E+03  0.10925030787E+04 -0.14677227957E+04  0.18748795551E+04  0.46999998093E+01 0. -1.
       -5    1    3    3    0  502  0.40911865531E+03 -0.10925030787E+04  0.73687202872E+03  0.13798346016E+04  0.46999998093E+01 0.  1.
</event>
<event>
 5   0  0.1273754E-06  0.3199587E+04  0.7818609E-02  0.8188926E-01
        1   -1    0    0  501    0  0.00000000000E+00  0.00000000000E+00  0.15165728195E+04  0.15165728195E+04  0.50400001928E-02 0.  1.
       -1   -1    0    0    0  501  0.00000000000E+00  0.00000000000E+00 -0.16875805359E+04  0.16875805359E+04  0.50400001928E-02 0. -1.
    10030    2    1    2    0    0  0.00000000000E+00  0.00000000000E+00 -0.17100771634E+03  0.32041533554E+04  0.31995867055E+04 0.  0.
        2    1    3    3  502    0  0.39431399623E+03  0.38738312732E+03  0.14179014917E+04  0.15218389715E+04  0.25500000920E-02 0.  1.
       -2    1    3    3    0  502 -0.39431399623E+03 -0.38738312732E+03 -0.15889092080E+04  0.16823143839E+04  0.25500000920E-02 0. -1.
</event>
<event>
 5   0  0.3497546E-06  0.3008605E+04  0.7818609E-02  0.8241278E-01
       -2   -1    0    0    0  501  0.00000000000E+00  0.00000000000E+00  0.15941186317E+04  0.15941186317E+04  0.25500000920E-02 0. -1.
        2   -1    0    0  501    0  0.00000000000E+00  0.00000000000E+00 -0.14195463768E+04  0.14195463768E+04  0.25500000920E-02 0.  1.
    10030    2    1    2    0    0  0.00000000000E+00  0.00000000000E+00  0.17457225491E+03  0.30136650085E+04  0.30086045455E+04 0.  0.
        4    1    3    3  502    0 -0.78733594494E+03  0.10618342000E+04  0.80650074626E+03  0.15484943736E+04  0.12699999809E+01 0. -1.
       -4    1    3    3    0  502  0.78733594494E+03 -0.10618342000E+04 -0.63192849135E+03  0.14651706349E+04  0.12699999809E+01 0.  1.
</event>
<event>
 5   0  0.3497546E-06  0.3178354E+04  0.7818609E-02  0.8194557E-01
       -2   -1    0    0    0  501  0.00000000000E+00  0.00000000000E+00  0.28647795920E+04  0.28647795920E+04  0.25500000920E-02 0.  1.
        2   -1    0    0  501    0  0.00000000000E+00  0.00000000000E+00 -0.88156286229E+03  0.88156286229E+03  0.25500000920E-02 0. -1.
    10030    2    1    2    0    0  0.00000000000E+00  0.00000000000E+00  0.19832167297E+04  0.37463424543E+04  0.31783538487E+04 0.  0.
        4    1    3    3  502    0 -0.21444585859E+03 -0.76750865836E+03 -0.62902571520E+03  0.10152494916E+04  0.12699999809E+01 0. -1.
       -4    1    3    3    0  502  0.21444585859E+03  0.76750865836E+03  0.26122424449E+04  0.27310929627E+04  0.12699999809E+01 0.  1.
</event>
<event>
 5   0  0.3531437E-06  0.3181847E+04  0.7818609E-02  0.8193628E-01
       -2   -1    0    0    0  501  0.00000000000E+00  0.00000000000E+00  0.13127349440E+04  0.13127349440E+04  0.25500000920E-02 0. -1.
        2   -1    0    0  501    0  0.00000000000E+00  0.00000000000E+00 -0.19280639335E+04  0.19280639335E+04  0.25500000920E-02 0.  1.
    10030    2    1    2    0    0  0.00000000000E+00  0.00000000000E+00 -0.61532898954E+03  0.32407988775E+04  0.31818465706E+04 0.  0.
        1    1    3    3  502    0 -0.13874221420E+04 -0.95539893474E+02  0.47928828338E+03  0.14709810774E+04  0.50400001928E-02 0.  1.
       -1    1    3    3    0  502  0.13874221420E+04  0.95539893474E+02 -0.10946172729E+04  0.17698178001E+04  0.50400001928E-02 0. -1.
</event>
<event>
 5   0  0.1273980E-06  0.3167405E+04  0.7818609E-02  0.8197479E-01
        1   -1    0    0  501    0  0.00000000000E+00  0.00000000000E+00  0.96191249703E+03  0.96191249704E+03  0.50400001928E-02 0. -1.
       -1   -1    0    0    0  501  0.00000000000E+00  0.00000000000E+00 -0.26074236903E+04  0.26074236903E+04  0.50400001928E-02 0.  1.
    10030    2    1    2    0    0  0.00000000000E+00  0.00000000000E+00 -0.16455111933E+04  0.35693361873E+04  0.31674048890E+04 0.  0.
        4    1    3    3  502    0  0.90882368292E+03  0.92277825892E+03 -0.18497973543E+04  0.22581479284E+04  0.12699999809E+01 0.  1.
       -4    1    3    3    0  502 -0.90882368292E+03 -0.92277825892E+03  0.20428616106E+03  0.13111882589E+04  0.12699999809E+01 0. -1.
</event>
<event>
 5   0  0.1273980E-06  0.3148786E+04  0.7818609E-02  0.8202475E-01
        1   -1    0    0  501    0  0.00000000000E+00  0.00000000000E+00  0.21455817625E+04  0.21455817625E+04  0.50400001928E-02 0. -1.
       -1   -1    0    0    0  501  0.00000000000E+00  0.00000000000E+00 -0.11552641252E+04  0.11552641252E+04  0.50400001928E-02 0.  1.
    10030    2    1    2    0    0  0.00000000000E+00  0.00000000000E+00  0.99031763733E+03  0.33008458877E+04  0.31487862029E+04 0.  0.
        4    1    3    3  502    0  0.10618490469E+04 -0.59410655420E+03 -0.55220247330E+03  0.13361942900E+04  0.12699999809E+01 0.  1.
       -4    1    3    3    0  502 -0.10618490469E+04  0.59410655420E+03  0.15425201106E+04  0.19646515978E+04  0.12699999809E+01 0. -1.
</event>
<event>
 5   0  0.3745943E-06  0.3188630E+04  0.7818609E-02  0.8191826E-01
        2   -1    0    0  501    0  0.00000000000E+00  0.00000000000E+00  0.21420310709E+04  0.21420310709E+04  0.25500000920E-02 0.  1.
       -2   -1    0    0    0  501  0.00000000000E+00  0.00000000000E+00 -0.11866494523E+04  0.11866494523E+04  0.25500000920E-02 0. -1.
    10030    2    1    2    0    0  0.00000000000E+00  0.00000000000E+00  0.95538161861E+03  0.33286805231E+04  0.31886297979E+04 0.  0.
        5    1    3    3  502    0 -0.13508952311E+04 -0.84297907202E+03  0.39492244435E+03  0.16405844899E+04  0.46999998093E+01 0.  1.
       -5    1    3    3    0  502  0.13508952311E+04  0.84297907202E+03  0.56045917427E+03  0.16880960332E+04  0.46999998093E+01 0. -1.
</event>
<event>
 5   0  0.1306843E-06  0.3267257E+04  0.7818609E-02  0.8171277E-01
        1   -1    0    0  501    0  0.00000000000E+00  0.00000000000E+00  0.17306056286E+04  0.17306056286E+04  0.50400001928E-02 0. -1.
       -1   -1    0    0    0  501  0.00000000000E+00  0.00000000000E+00 -0.15420855893E+04  0.15420855893E+04  0.50400001928E-02 0.  1.
    10030    2    1    2    0    0  0.00000000000E+00  0.00000000000E+00  0.18852003934E+03  0.32726912179E+04  0.32672569539E+04 0.  0.
        5    1    3    3  502    0 -0.13556785227E+04 -0.62978362302E+03 -0.56579596510E+03  0.15983237572E+04  0.46999998093E+01 0.  1.
       -5    1    3    3    0  502  0.13556785227E+04  0.62978362302E+03  0.75431600444E+03  0.16743674607E+04  0.46999998093E+01 0. -1.
</event>
<event>
 5   0  0.1306843E-06  0.3059440E+04  0.7818609E-02  0.8226958E-01
       -1   -1    0    0    0  501  0.00000000000E+00  0.00000000000E+00  0.13992192709E+04  0.13992192709E+04  0.50400001928E-02 0. -1.
        1   -1    0    0  501    0  0.00000000000E+00  0.00000000000E+00 -0.16723922388E+04  0.16723922388E+04  0.50400001928E-02 0.  1.
    10030    2    1    2    0    0  0.00000000000E+00  0.00000000000E+00 -0.27317296787E+03  0.30716115097E+04  0.30594401115E+04 0.  0.
        5    1    3    3  502    0  0.50046708362E+02  0.10691742642E+03  0.13946319647E+04  0.13996272418E+04  0.46999998093E+01 0. -1.
       -5    1    3    3    0  502 -0.50046708362E+02 -0.10691742642E+03 -0.16678049325E+04  0.16719842679E+04  0.46999998093E+01 0.  1.
</event>
<event>
 5   0  0.3758062E-06  0.3204209E+04  0.7818609E-02  0.8187707E-01
        2   -1    0    0  501    0  0.00000000000E+00  0.00000000000E+00  0.19834045967E+04  0.19834045967E+04  0.25500000920E-02 0. -1.
       -2   -1    0    0    0  501  0.00000000000E+00  0.00000000000E+00 -0.12941073127E+04  0.12941073127E+04  0.25500000920E-02 0.  1.
    10030    2    1    2    0    0  0.00000000000E+00  0.00000000000E+00  0.68929728399E+03  0.32775119094E+04  0.32042087276E+04 0.  0.
        2    1    3    3  502    0 -0.19344912762E+03  0.10666702901E+04  0.15512666877E+04  0.18925211780E+04  0.25500000920E-02 0. -1.
       -2    1    3    3    0  502  0.19344912762E+03 -0.10666702901E+04 -0.86196940375E+03  0.13849907313E+04  0.25500000920E-02 0.  1.
</event>
<event>
 5   0  0.1240725E-06  0.3164221E+04  0.7818609E-02  0.8198331E-01
        1   -1    0    0  501    0  0.00000000000E+00  0.00000000000E+00  0.21734247977E+04  0.21734247977E+04  0.50400001928E-02 0. -1.
       -1   -1    0    0    0  501  0.00000000000E+00  0.00000000000E+00 -0.11516721866E+04  0.11516721866E+04  0.50400001928E-02 0.  1.
    10030    2    1    2    0    0  0.00000000000E+00  0.00000000000E+00  0.10217526111E+04  0.33250969843E+04  0.31642205291E+04 0.  0.
        3    1    3    3  502    0  0.56698560145E+01  0.36406078088E+03 -0.11070457559E+04  0.11653852218E+04  0.10100000352E+00 0.  1.
       -3    1    3    3    0  502 -0.56698560145E+01 -0.36406078088E+03  0.21287983670E+04  0.21597117625E+04  0.10100000352E+00 0. -1.
</event>
<event>
 5   0  0.3656086E-06  0.3192942E+04  0.7818609E-02  0.8190684E-01
        2   -1    0    0  501    0  0.00000000000E+00  0.00000000000E+00  0.18906899358E+04  0.18906899358E+04  0.25500000920E-02 0. -1.
       -2   -1    0    0    0  501  0.00000000000E+00  0.00000000000E+00 -0.13480371792E+04  0.13480371792E+04  0.25500000920E-02 0.  1.
    10030    2    1    2    0    0  0.00000000000E+00  0.00000000000E+00  0.54265275655E+03  0.32387271150E+04  0.31929424222E+04 0.  0.
        3    1    3    3  502    0  0.12485920946E+04 -0.95360979145E+03  0.55888123154E+03  0.16675437309E+04  0.10100000352E+00 0.  1.
       -3    1    3    3    0  502 -0.12485920946E+04  0.95360979145E+03 -0.16228474998E+02  0.15711833842E+04  0.10100000352E+00 0. -1.
</event>
<event>
 5   0  0.3497546E-06  0.3196200E+04  0.7818609E-02  0.8189822E-01
       -2   -1    0    0    0  501  0.00000000000E+00  0.00000000000E+00  0.15168354860E+04  0.15168354860E+04  0.25500000920E-02 0. -1.
        2   -1    0    0  501    0  0.00000000000E+00  0.00000000000E+00 -0.16837179420E+04  0.16837179420E+04  0.25500000920E-02 0.  1.
    10030    2    1    2    0    0  0.00000000000E+00  0.00000000000E+00 -0.16688245599E+03  0.32005534280E+04  0.31961996952E+04 0.  0.
        4    1    3    3  502    0 -0.10861691469E+03 -0.89905844227E+03  0.12350975397E+04  0.15315257955E+04  0.12699999809E+01 0.  1.
       -4    1    3    3    0  502  0.10861691469E+03  0.89905844227E+03 -0.14019799957E+04  0.16690276325E+04  0.12699999809E+01 0. -1.
</event>
<event>
 5   0  0.3497546E-06  0.3197412E+04  0.7818609E-02  0.8189501E-01
       -2   -1    0    0    0  501  0.00000000000E+00  0.00000000000E+00  0.11113135173E+04  0.11113135173E+04  0.25500000920E-02 0.  1.
        2   -1    0    0  501    0  0.00000000000E+00  0.00000000000E+00 -0.22998560097E+04  0.22998560097E+04  0.25500000920E-02 0. -1.
    10030    2    1    2    0    0  0.00000000000E+00  0.00000000000E+00 -0.11885424924E+04  0.34111695271E+04  0.31974121233E+04 0.  0.
        4    1    3    3  502    0  0.95793137023E+03  0.98450854857E+02 -0.19557258080E+04  0.21799518641E+04  0.12699999809E+01 0. -1.
       -4    1    3    3    0  502 -0.95793137023E+03 -0.98450854857E+02  0.76718331562E+03  0.12312176629E+04  0.12699999809E+01 0.  1.
</event>
<event>
 5   0  0.1273754E-06  0.3115481E+04  0.7818609E-02  0.8211502E-01
        1   -1    0    0  501    0  0.00000000000E+00  0.00000000000E+00  0.17650376501E+04  0.17650376501E+04  0.50400001928E-02 0. -1.
       -1   -1    0    0    0  501  0.00000000000E+00  0.00000000000E+00 -0.13747899616E+04  0.13747899616E+04  0.50400001928E-02 0.  1.
    10030    2    1    2    0    0  0.00000000000E+00  0.00000000000E+00  0.39024768846E+03  0.31398276117E+04  0.31154813709E+04 0.  0.
        2    1    3    3  502    0  0.82318741274E+03  0.11158949474E+04  0.91038612743E+03  0.16588134166E+04  0.25500000920E-02 0. -1.
       -2    1    3    3    0  502 -0.82318741274E+03 -0.11158949474E+04 -0.52013843897E+03  0.14810141950E+04  0.25500000920E-02 0.  1.
</event>
<event>
 5   0  0.3531437E-06  0.3179376E+04  0.7818609E-02  0.8194285E-01
        2   -1    0    0  501    0  0.00000000000E+00  0.00000000000E+00  0.16253540389E+04  0.16253540389E+04  0.25500000920E-02 0. -1.
       -2   -1    0    0    0  501  0.00000000000E+00  0.00000000000E+00 -0.15548042558E+04  0.15548042558E+04  0.25500000920E-02 0.  1.
    10030    2    1    2    0    0  0.00000000000E+00  0.00000000000E+00  0.70549783119E+02  0.31801582947E+04  0.31793756475E+04 0.  0.
        1    1    3    3  502    0  0.10760909487E+04  0.81939621779E+03 -0.80023036699E+03  0.15715439962E+04  0.50400001928E-02 0.  1.
       -1    1    3    3    0  502 -0.10760909487E+04 -0.81939621779E+03  0.87078015011E+03  0.16086142986E+04  0.50400001928E-02 0. -1.
</event>
<event>
 5   0  0.1268836E-06  0.3068677E+04  0.7818609E-02  0.8224387E-01
        1   -1    0    0  501    0  0.00000000000E+00  0.00000000000E+00  0.13592299785E+04  0.13592299785E+04  0.50400001928E-02 0. -1.
       -1   -1    0    0    0  501  0.00000000000E+00  0.00000000000E+00 -0.17320056175E+04  0.17320056175E+04  0.50400001928E-02 0.  1.
    10030    2    1    2    0    0  0.00000000000E+00  0.00000000000E+00 -0.37277563896E+03  0.30912355960E+04  0.30686765605E+04 0.  0.
        1    1    3    3  502    0  0.12776828683E+02  0.14126324672E+04  0.41676269825E+03  0.14728831867E+04  0.50400001928E-02 0. -1.
       -1    1    3    3    0  502 -0.12776828683E+02 -0.14126324672E+04 -0.78953833721E+03  0.16183524093E+04  0.50400001928E-02 0.  1.
</event>
<event>
 5   0  0.1306843E-06  0.3131780E+04  0.7818609E-02  0.8207070E-01
       -1   -1    0    0    0  501  0.00000000000E+00  0.00000000000E+00  0.90690089220E+03  0.90690089222E+03  0.50400001928E-02 0.  1.
        1   -1    0    0  501    0  0.00000000000E+00  0.00000000000E+00 -0.27037258930E+04  0.27037258930E+04  0.50400001928E-02 0. -1.
    10030    2    1    2    0    0  0.00000000000E+00  0.00000000000E+00 -0.17968250008E+04  0.36106267852E+04  0.31317799569E+04 0.  0.
        5    1    3    3  502    0 -0.54358903581E+03  0.54289658206E+03  0.67467770249E+03  0.10224665427E+04  0.46999998093E+01 0.  1.
       -5    1    3    3    0  502  0.54358903581E+03 -0.54289658206E+03 -0.24715027033E+04  0.25881602425E+04  0.46999998093E+01 0. -1.
</event>
<event>
 5   0  0.3531437E-06  0.3223204E+04  0.7818609E-02  0.8182716E-01
       -2   -1    0    0    0  501  0.00000000000E+00  0.00000000000E+00  0.13453330699E+04  0.13453330699E+04  0.25500000920E-02 0. -1.
        2   -1    0    0  501    0  0.00000000000E+00  0.00000000000E+00 -0.19305712670E+04  0.19305712670E+04  0.25500000920E-02 0.  1.
    10030    2    1    2    0    0  0.00000000000E+00  0.00000000000E+00 -0.58523819708E+03  0.32759043369E+04  0.32232042252E+04 0.  0.
        1    1    3    3  502    0 -0.11901550995E+04 -0.25636651757E+03  0.78061421509E+03  0.14462197291E+04  0.50400001928E-02 0. -1.
       -1    1    3    3    0  502  0.11901550995E+04  0.25636651757E+03 -0.13658524122E+04  0.18296846078E+04  0.50400001928E-02 0.  1.
</event>
<event>
 5   0  0.1306843E-06  0.2828221E+04  0.7818609E-02  0.8294560E-01
       -1   -1    0    0    0  501  0.00000000000E+00  0.00000000000E+00  0.21056484469E+04  0.21056484469E+04  0.50400001928E-02 0.  1.
        1   -1    0    0  501    0  0.00000000000E+00  0.00000000000E+00 -0.94968765943E+03  0.94968765944E+03  0.50400001928E-02 0. -1.
    10030    2    1    2    0    0  0.00000000000E+00  0.00000000000E+00  0.11559607875E+04  0.30553361064E+04  0.28282208861E+04 0.  0.
        5    1    3    3  502    0 -0.19032031644E+03  0.93433452281E+02  0.20883720222E+04  0.20991120565E+04  0.46999998093E+01 0.  1.
       -5    1    3    3    0  502  0.19032031644E+03 -0.93433452281E+02 -0.93241123470E+03  0.95622404982E+03  0.46999998093E+01 0. -1.
</event>
<event>
 5   0  0.1240725E-06  0.3513342E+04  0.7818609E-02  0.8110635E-01
       -1   -1    0    0    0  501  0.00000000000E+00  0.00000000000E+00  0.14497233740E+04  0.14497233740E+04  0.50400001928E-02 0. -1.
        1   -1    0    0  501    0  0.00000000000E+00  0.00000000000E+00 -0.21286077873E+04  0.21286077874E+04  0.50400001928E-02 0.  1.
    10030    2    1    2    0    0  0.00000000000E+00  0.00000000000E+00 -0.67888441333E+03  0.35783311614E+04  0.35133416933E+04 0.  0.
        3    1    3    3  502    0 -0.12024491816E+04  0.12727653957E+04 -0.19512904458E+03  0.17617863494E+04  0.10100000352E+00 0. -1.
       -3    1    3    3    0  502  0.12024491816E+04 -0.12727653957E+04 -0.48375536874E+03  0.18165448119E+04  0.10100000352E+00 0.  1.
</event>
<event>
 5   0  0.1273980E-06  0.3173025E+04  0.7818609E-02  0.8195978E-01
       -1   -1    0    0    0  501  0.00000000000E+00  0.00000000000E+00  0.18201570476E+04  0.18201570476E+04  0.50400001928E-02 0. -1.
        1   -1    0    0  501    0  0.00000000000E+00  0.00000000000E+00 -0.13828600061E+04  0.13828600061E+04  0.50400001928E-02 0.  1.
    10030    2    1    2    0    0  0.00000000000E+00  0.00000000000E+00  0.43729704153E+03  0.32030170537E+04  0.31730252983E+04 0.  0.
        4    1    3    3  502    0 -0.17434908489E+03 -0.12045434204E+04 -0.80866345706E+03  0.14612531111E+04  0.12699999809E+01 0. -1.
       -4    1    3    3    0  502  0.17434908489E+03  0.12045434204E+04  0.12459604986E+04  0.17417639426E+04  0.12699999809E+01 0.  1.
</event>
<event>
 5   0  0.3745943E-06  0.3106056E+04  0.7818609E-02  0.8214078E-01
       -2   -1    0    0    0  501  0.00000000000E+00  0.00000000000E+00  0.18516474960E+04  0.18516474960E+04  0.25500000920E-02 0.  1.
        2   -1    0    0  501    0  0.00000000000E+00  0.00000000000E+00 -0.13025677702E+04  0.13025677702E+04  0.25500000920E-02 0. -1.
    10030    2    1    2    0    0  0.00000000000E+00  0.00000000000E+00  0.54907972577E+03  0.31542152662E+04  0.31060562455E+04 0.  0.
        5    1    3    3  502    0  0.13787709086E+04  0.45238798818E+03 -0.28740254057E+03  0.14792857805E+04  0.46999998093E+01 0. -1.
       -5    1    3    3    0  502 -0.13787709086E+04 -0.45238798818E+03  0.83648226633E+03  0.16749294857E+04  0.46999998093E+01 0.  1.
</event>
<event>
 5   0  0.3531437E-06  0.3183269E+04  0.7818609E-02  0.8193250E-01
       -2   -1    0    0    0  501  0.00000000000E+00  0.00000000000E+00  0.97017329197E+03  0.97017329197E+03  0.25500000920E-02 0. -1.
        2   -1    0    0  501    0  0.00000000000E+00  0.00000000000E+00 -0.26111837511E+04  0.26111837511E+04  0.25500000920E-02 0.  1.
    10030    2    1    2    0    0  0.00000000000E+00  0.00000000000E+00 -0.16410104592E+04  0.35813570431E+04  0.31832692225E+04 0.  0.
        1    1    3    3  502    0  0.21597980868E+03  0.10442256335E+04 -0.21499039764E+04  0.23998211515E+04  0.50400001928E-02 0.  1.
       -1    1    3    3    0  502 -0.21597980868E+03 -0.10442256335E+04  0.50889351720E+03  0.11815358916E+04  0.50400001928E-02 0. -1.
</event>
<event>
 5   0  0.1273754E-06  0.3225679E+04  0.7818609E-02  0.8182068E-01
        1   -1    0    0  501    0  0.00000000000E+00  0.00000000000E+00  0.17300294902E+04  0.17300294902E+04  0.50400001928E-02 0. -1.
       -1   -1    0    0    0  501  0.00000000000E+00  0.00000000000E+00 -0.15035878769E+04  0.15035878769E+04  0.50400001928E-02 0.  1.
    10030    2    1    2    0    0  0.00000000000E+00  0.00000000000E+00  0.22644161324E+03  0.32336173671E+04  0.32256790716E+04 0.  0.
        2    1    3    3  502    0  0.30507069640E+03 -0.94970861335E+03 -0.11572721345E+04  0.15278394462E+04  0.25500000920E-02 0.  1.
       -2    1    3    3    0  502 -0.30507069640E+03  0.94970861335E+03  0.13837137477E+04  0.17057779210E+04  0.25500000920E-02 0. -1.
</event>
<event>
 5   0  0.1306843E-06  0.3172893E+04  0.7818609E-02  0.8196013E-01
        1   -1    0    0  501    0  0.00000000000E+00  0.00000000000E+00  0.74248195795E+03  0.74248195797E+03  0.50400001928E-02 0. -1.
       -1   -1    0    0    0  501  0.00000000000E+00  0.00000000000E+00 -0.33897291612E+04  0.33897291612E+04  0.50400001928E-02 0.  1.
    10030    2    1    2    0    0  0.00000000000E+00  0.00000000000E+00 -0.26472472032E+04  0.41322111191E+04  0.31728931558E+04 0.  0.
        5    1    3    3  502    0 -0.96707797954E+03 -0.93945073395E+03 -0.24124544303E+04  0.27636508405E+04  0.46999998093E+01 0.  1.
       -5    1    3    3    0  502  0.96707797954E+03  0.93945073395E+03 -0.23479277293E+03  0.13685602786E+04  0.46999998093E+01 0. -1.
</event>
<event>
 5   0  0.3656086E-06  0.2720632E+04  0.7818609E-02  0.8328342E-01
        2   -1    0    0  501    0  0.00000000000E+00  0.00000000000E+00  0.14131590861E+04  0.14131590861E+04  0.25500000920E-02 0. -1.
       -2   -1    0    0    0  501  0.00000000000E+00  0.00000000000E+00 -0.13094485174E+04  0.13094485174E+04  0.25500000920E-02 0.  1.
    10030    2    1    2    0    0  0.00000000000E+00  0.00000000000E+00  0.10371056873E+03  0.27226076035E+04  0.27206315959E+04 0.  0.
        3    1    3    3  502    0  0.25215468989E+03 -0.30076613783E+03 -0.12515563654E+04  0.13116537665E+04  0.10100000352E+00 0.  1.
       -3    1    3    3    0  502 -0.25215468989E+03  0.30076613783E+03  0.13552669341E+04  0.14109538370E+04  0.10100000352E+00 0. -1.
</event>
<event>
 5   0  0.3531437E-06  0.3200519E+04  0.7818609E-02  0.8188680E-01
        2   -1    0    0  501    0  0.00000000000E+00  0.00000000000E+00  0.20004694893E+04  0.20004694893E+04  0.25500000920E-02 0.  1.
       -2   -1    0    0    0  501  0.00000000000E+00  0.00000000000E+00 -0.12801144581E+04  0.12801144581E+04  0.25500000920E-02 0. -1.
    10030    2    1    2    0    0  0.00000000000E+00  0.00000000000E+00  0.72035503119E+03  0.32805839473E+04  0.32005186556E+04 0.  0.
        1    1    3    3  502    0 -0.11492235758E+04  0.97980810694E+03 -0.18229844250E+03  0.15211743739E+04  0.50400001928E-02 0.  1.
       -1    1    3    3    0  502  0.11492235758E+04 -0.97980810694E+03  0.90265347368E+03  0.17594095735E+04  0.50400001928E-02 0. -1.
</event>
<event>
 5   0  0.1185575E-06  0.3233731E+04  0.7818609E-02  0.8179965E-01
        3   -1    0    0  501    0  0.00000000000E+00  0.00000000000E+00  0.13750748826E+04  0.13750748863E+04  0.10100000352E+00 0.  1.
       -3   -1    0    0    0  501  0.00000000000E+00  0.00000000000E+00 -0.19011717801E+04  0.19011717828E+04  0.10100000352E+00 0. -1.
    10030    2    1    2    0    0  0.00000000000E+00  0.00000000000E+00 -0.52609689748E+03  0.32762466691E+04  0.32337307079E+04 0.  0.
        4    1    3    3  502    0 -0.59221010235E+03  0.78316501453E+03  0.10384388757E+04  0.14291316094E+04  0.12699999809E+01 0.  1.
       -4    1    3    3    0  502  0.59221010235E+03 -0.78316501453E+03 -0.15645357732E+04  0.18471150597E+04  0.12699999809E+01 0. -1.
</event>
<event>
 5   0  0.1273754E-06  0.3206579E+04  0.7818609E-02  0.8187082E-01
       -1   -1    0    0    0  501  0.00000000000E+00  0.00000000000E+00  0.17449480711E+04  0.17449480711E+04  0.50400001928E-02 0.  1.
        1   -1    0    0  501    0  0.00000000000E+00  0.00000000000E+00 -0.14731311948E+04  0.14731311948E+04  0.50400001928E-02 0. -1.
    10030    2    1    2    0    0  0.00000000000E+00  0.00000000000E+00  0.27181687628E+03  0.32180792659E+04  0.32065791348E+04 0.  0.
        2    1    3    3  502    0 -0.60405856926E+03 -0.69738765703E+03  0.14518322638E+04  0.17201898795E+04  0.25500000920E-02 0.  1.
       -2    1    3    3    0  502  0.60405856926E+03  0.69738765703E+03 -0.11800153875E+04  0.14978893864E+04  0.25500000920E-02 0. -1.
</event>
<event>
 5   0  0.1306843E-06  0.3164469E+04  0.7818609E-02  0.8198264E-01
        1   -1    0    0  501    0  0.00000000000E+00  0.00000000000E+00  0.20312633835E+04  0.20312633835E+04  0.50400001928E-02 0.  1.
       -1   -1    0    0    0  501  0.00000000000E+00  0.00000000000E+00 -0.12324672080E+04  0.12324672081E+04  0.50400001928E-02 0. -1.
    10030    2    1    2    0    0  0.00000000000E+00  0.00000000000E+00  0.79879617541E+03  0.32637305915E+04  0.31644686828E+04 0.  0.
        5    1    3    3  502    0  0.16279583070E+03  0.89829075714E+03  0.17322246558E+04  0.19580738277E+04  0.46999998093E+01 0.  1.
       -5    1    3    3    0  502 -0.16279583070E+03 -0.89829075714E+03 -0.93342848035E+03  0.13056567638E+04  0.46999998093E+01 0. -1.
</event>
<event>
 5   0  0.1273754E-06  0.3338159E+04  0.7818609E-02  0.8153253E-01
       -1   -1    0    0    0  501  0.00000000000E+00  0.00000000000E+00  0.27674130707E+04  0.27674130707E+04  0.50400001928E-02 0.  1.
        1   -1    0    0  501    0  0.00000000000E+00  0.00000000000E+00 -0.10066536563E+04  0.10066536563E+04  0.50400001928E-02 0. -1.
    10030    2    1    2    0    0  0.00000000000E+00  0.00000000000E+00  0.17607594144E+04  0.37740667270E+04  0.33381590651E+04 0.  0.
        2    1    3    3  502    0  0.91267481032E+03  0.14435708731E+03  0.24518547215E+04  0.26201919497E+04  0.25500000920E-02 0.  1.
       -2    1    3    3    0  502 -0.91267481032E+03 -0.14435708731E+03 -0.69109530710E+03  0.11538747772E+04  0.25500000920E-02 0. -1.
</event>
<event>
 5   0  0.1306843E-06  0.3209732E+04  0.7818609E-02  0.8186252E-01
        1   -1    0    0  501    0  0.00000000000E+00  0.00000000000E+00  0.24813812072E+04  0.24813812072E+04  0.50400001928E-02 0. -1.
       -1   -1    0    0    0  501  0.00000000000E+00  0.00000000000E+00 -0.10379682438E+04  0.10379682438E+04  0.50400001928E-02 0.  1.
    10030    2    1    2    0    0  0.00000000000E+00  0.00000000000E+00  0.14434129633E+04  0.35193494510E+04  0.32097320100E+04 0.  0.
        5    1    3    3  502    0 -0.45958880004E+03 -0.79618537440E+03 -0.72064752307E+03  0.11681129903E+04  0.46999998093E+01 0.  1.
       -5    1    3    3    0  502  0.45958880004E+03  0.79618537440E+03  0.21640604864E+04  0.23512364608E+04  0.46999998093E+01 0. -1.
</event>
<event>
 5   0  0.1273754E-06  0.3195641E+04  0.7818609E-02  0.8189969E-01
        1   -1    0    0  501    0  0.00000000000E+00  0.00000000000E+00  0.10901965684E+04  0.10901965684E+04  0.50400001928E-02 0. -1.
       -1   -1    0    0    0  501  0.00000000000E+00  0.00000000000E+00 -0.23418066421E+04  0.23418066421E+04  0.50400001928E-02 0.  1.
    10030    2    1    2    0    0  0.00000000000E+00  0.00000000000E+00 -0.12516100737E+04  0.34320032105E+04  0.31956405086E+04 0.  0.
        2    1    3    3  502    0 -0.94594131549E+03 -0.65462234648E+03 -0.18167407691E+04  0.21503214669E+04  0.25500000920E-02 0.  1.
       -2    1    3    3    0  502  0.94594131549E+03  0.65462234648E+03  0.56513069544E+03  0.12816817436E+04  0.25500000920E-02 0. -1.
</event>
<event>
 5   0  0.3656086E-06  0.3183203E+04  0.7818609E-02  0.8193267E-01
        2   -1    0    0  501    0  0.00000000000E+00  0.00000000000E+00  0.24952050381E+04  0.24952050381E+04  0.25500000920E-02 0.  1.
       -2   -1    0    0    0  501  0.00000000000E+00  0.00000000000E+00 -0.10152252206E+04  0.10152252206E+04  0.25500000920E-02 0. -1.
    10030    2    1    2    0    0  0.00000000000E+00  0.00000000000E+00  0.14799798175E+04  0.35104302586E+04  0.31832028431E+04 0.  0.
        3    1    3    3  502    0 -0.87199859403E+03  0.13007245354E+04  0.10537145893E+04  0.18874798836E+04  0.10100000352E+00 0.  1.
       -3    1    3    3    0  502  0.87199859403E+03 -0.13007245354E+04  0.42626522818E+03  0.16229503751E+04  0.10100000352E+00 0. -1.
</event>
<event>
 5   0  0.3758062E-06  0.3163183E+04  0.7818609E-02  0.8198609E-01
       -2   -1    0    0    0  501  0.00000000000E+00  0.00000000000E+00  0.16058662583E+04  0.16058662583E+04  0.25500000920E-02 0. -1.
        2   -1    0    0  501    0  0.00000000000E+00  0.00000000000E+00 -0.15576834925E+04  0.15576834925E+04  0.25500000920E-02 0.  1.
    10030    2    1    2    0    0  0.00000000000E+00  0.00000000000E+00  0.48182765738E+02  0.31635497508E+04  0.31631828032E+04 0.  0.
        2    1    3    3  502    0 -0.11999576789E+04  0.80476018391E+03 -0.61932917227E+03  0.15719751933E+04  0.25500000920E-02 0.  1.
       -2    1    3    3    0  502  0.11999576789E+04 -0.80476018391E+03  0.66751193800E+03  0.15915745575E+04  0.25500000920E-02 0. -1.
</event>
<event>
 5   0  0.3531437E-06  0.3239369E+04  0.7818609E-02  0.8178497E-01
       -2   -1    0    0    0  501  0.00000000000E+00  0.00000000000E+00  0.17032881132E+04  0.17032881132E+04  0.25500000920E-02 0.  1.
        2   -1    0    0  501    0  0.00000000000E+00  0.00000000000E+00 -0.15401843375E+04  0.15401843375E+04  0.25500000920E-02 0. -1.
    10030    2    1    2    0    0  0.00000000000E+00  0.00000000000E+00  0.16310377563E+03  0.32434724507E+04  0.32393688732E+04 0.  0.
        1    1    3    3  502    0 -0.64808648689E+03 -0.12818369058E+04 -0.66789862450E+03  0.15840487746E+04  0.50400001928E-02 0. -1.
       -1    1    3    3    0  502  0.64808648689E+03  0.12818369058E+04  0.83100240014E+03  0.16594236761E+04  0.50400001928E-02 0.  1.
</event>
<event>
 5   0  0.1273754E-06  0.3202836E+04  0.7818609E-02  0.8188069E-01
       -1   -1    0    0    0  501  0.00000000000E+00  0.00000000000E+00  0.21042105903E+04  0.21042105903E+04  0.50400001928E-02 0.  1.
        1   -1    0    0  501    0  0.00000000000E+00  0.00000000000E+00 -0.12187654362E+04  0.12187654362E+04  0.50400001928E-02 0. -1.
    10030    2    1    2    0    0  0.00000000000E+00  0.00000000000E+00  0.88544515408E+03  0.33229760266E+04  0.32028357048E+04 0.  0.
        2    1    3    3  502    0 -0.12156298473E+04  0.70571992129E+02 -0.63638961332E+03  0.13739461676E+04  0.25500000920E-02 0.  1.
       -2    1    3    3    0  502  0.12156298473E+04 -0.70571992129E+02  0.15218347674E+04  0.19490298589E+04  0.25500000920E-02 0. -1.
</event>
<event>
 5   0  0.3497546E-06  0.3200481E+04  0.7818609E-02  0.8188690E-01
        2   -1    0    0  501    0  0.00000000000E+00  0.00000000000E+00  0.97120917306E+03  0.97120917307E+03  0.25500000920E-02 0.  1.
       -2   -1    0    0    0  501  0.00000000000E+00  0.00000000000E+00 -0.26366827080E+04  0.26366827080E+04  0.25500000920E-02 0. -1.
    10030    2    1    2    0    0  0.00000000000E+00  0.00000000000E+00 -0.16654735350E+04  0.36078918811E+04  0.32004814841E+04 0.  0.
        4    1    3    3  502    0  0.14102035359E+04 -0.64551169648E+03 -0.38833383481E+03  0.15988008454E+04  0.12699999809E+01 0. -1.
       -4    1    3    3    0  502 -0.14102035359E+04  0.64551169648E+03 -0.12771397002E+04  0.20090910357E+04  0.12699999809E+01 0.  1.
</event>
<event>
 5   0  0.1268836E-06  0.2693140E+04  0.7818609E-02  0.8337234E-01
        1   -1    0    0  501    0  0.00000000000E+00  0.00000000000E+00  0.13487736073E+04  0.13487736073E+04  0.50400001928E-02 0.  1.
       -1   -1    0    0    0  501  0.00000000000E+00  0.00000000000E+00 -0.13443695243E+04  0.13443695243E+04  0.50400001928E-02 0. -1.
    10030    2    1    2    0    0  0.00000000000E+00  0.00000000000E+00  0.44040830379E+01  0.26931431316E+04  0.26931395306E+04 0.  0.
        1    1    3    3  502    0 -0.54733562470E+03 -0.32860553809E+03  0.11878225567E+04  0.13485104049E+04  0.50400001928E-02 0.  1.
       -1    1    3    3    0  502  0.54733562470E+03  0.32860553809E+03 -0.11834184737E+04  0.13446327267E+04  0.50400001928E-02 0. -1.
</event>
<event>
 5   0  0.1273980E-06  0.3217613E+04  0.7818609E-02  0.8184181E-01
       -1   -1    0    0    0  501  0.00000000000E+00  0.00000000000E+00  0.13380227754E+04  0.13380227754E+04  0.50400001928E-02 0.  1.
        1   -1    0    0  501    0  0.00000000000E+00  0.00000000000E+00 -0.19343906145E+04  0.19343906145E+04  0.50400001928E-02 0. -1.
    10030    2    1    2    0    0  0.00000000000E+00  0.00000000000E+00 -0.59636783917E+03  0.32724133899E+04  0.32176132140E+04 0.  0.
        4    1    3    3  502    0 -0.65441163001E+02 -0.28103460146E+03  0.13114891464E+04  0.13428582900E+04  0.12699999809E+01 0.  1.
       -4    1    3    3    0  502  0.65441163001E+02  0.28103460146E+03 -0.19078569856E+04  0.19295550999E+04  0.12699999809E+01 0. -1.
</event>
<event>
 5   0  0.3656086E-06  0.3162912E+04  0.7818609E-02  0.8198681E-01
       -2   -1    0    0    0  501  0.00000000000E+00  0.00000000000E+00  0.26477774489E+04  0.26477774489E+04  0.25500000920E-02 0. -1.
        2   -1    0    0  501    0  0.00000000000E+00  0.00000000000E+00 -0.94456674778E+03  0.94456674779E+03  0.25500000920E-02 0.  1.
    10030    2    1    2    0    0  0.00000000000E+00  0.00000000000E+00  0.17032107011E+04  0.35923441967E+04  0.31629116546E+04 0.  0.
        3    1    3    3  502    0  0.42333707854E+03  0.30898947818E+03 -0.84306044385E+03  0.99269315595E+03  0.10100000352E+00 0.  1.
       -3    1    3    3    0  502 -0.42333707854E+03 -0.30898947818E+03  0.25462711450E+04  0.25996510407E+04  0.10100000352E+00 0. -1.
</event>
<event>
 5   0  0.1306843E-06  0.3218307E+04  0.7818609E-02  0.8183999E-01
       -1   -1    0    0    0  501  0.00000000000E+00  0.00000000000E+00  0.13523071337E+04  0.13523071337E+04  0.50400001928E-02 0.  1.
        1   -1    0    0  501    0  0.00000000000E+00  0.00000000000E+00 -0.19147835617E+04  0.19147835618E+04  0.50400001928E-02 0. -1.
    10030    2    1    2    0    0  0.00000000000E+00  0.00000000000E+00 -0.56247642802E+03  0.32670906955E+04  0.32183073005E+04 0.  0.
        5    1    3    3  502    0  0.79647215578E+03  0.13909635275E+04 -0.42554053622E+03  0.16583890580E+04  0.46999998093E+01 0.  1.
       -5    1    3    3    0  502 -0.79647215578E+03 -0.13909635275E+04 -0.13693589180E+03  0.16087016375E+04  0.46999998093E+01 0. -1.
</event>
<event>
 5   0  0.3656086E-06  0.3206165E+04  0.7818609E-02  0.8187191E-01
        2   -1    0    0  501    0  0.00000000000E+00  0.00000000000E+00  0.23595727145E+04  0.23595727145E+04  0.25500000920E-02 0.  1.
       -2   -1    0    0    0  501  0.00000000000E+00  0.00000000000E+00 -0.10891265937E+04  0.10891265937E+04  0.25500000920E-02 0. -1.
    10030    2    1    2    0    0  0.00000000000E+00  0.00000000000E+00  0.12704461207E+04  0.34486993082E+04  0.32061649322E+04 0.  0.
        3    1    3    3  502    0 -0.88300794050E+03  0.11486633011E+04  0.13732316162E+04  0.19962202995E+04  0.10100000352E+00 0.  1.
       -3    1    3    3    0  502  0.88300794050E+03 -0.11486633011E+04 -0.10278549549E+03  0.14524790086E+04  0.10100000352E+00 0. -1.
</event>
<event>
 5   0  0.1273980E-06  0.2508175E+04  0.7818609E-02  0.8400079E-01
       -1   -1    0    0    0  501  0.00000000000E+00  0.00000000000E+00  0.71146205866E+03  0.71146205868E+03  0.50400001928E-02 0. -1.
        1   -1    0    0  501    0  0.00000000000E+00  0.00000000000E+00 -0.22105677109E+04  0.22105677109E+04  0.50400001928E-02 0.  1.
    10030    2    1    2    0    0  0.00000000000E+00  0.00000000000E+00 -0.14991056523E+04  0.29220297696E+04  0.25081746785E+04 0.  0.
        4    1    3    3  502    0  0.57522656642E+03  0.11121444203E+04 -0.66731794656E+03  0.14188254540E+04  0.12699999809E+01 0.  1.
       -4    1    3    3    0  502 -0.57522656642E+03 -0.11121444203E+04 -0.83178770572E+03  0.15032043156E+04  0.12699999809E+01 0. -1.
</event>
<event>
 5   0  0.1306843E-06  0.3076937E+04  0.7818609E-02  0.8222096E-01
       -1   -1    0    0    0  501  0.00000000000E+00  0.00000000000E+00  0.12273760695E+04  0.12273760695E+04  0.50400001928E-02 0. -1.
        1   -1    0    0  501    0  0.00000000000E+00  0.00000000000E+00 -0.19284109364E+04  0.19284109365E+04  0.50400001928E-02 0.  1.
    10030    2    1    2    0    0  0.00000000000E+00  0.00000000000E+00 -0.70103486694E+03  0.31557870060E+04  0.30769370716E+04 0.  0.
        5    1    3    3  502    0  0.33195634973E+03 -0.11597408472E+04 -0.13297994538E+04  0.17954337994E+04  0.46999998093E+01 0. -1.
       -5    1    3    3    0  502 -0.33195634973E+03  0.11597408472E+04  0.62876458685E+03  0.13603532065E+04  0.46999998093E+01 0.  1.
</event>
<event>
 5   0  0.3745943E-06  0.3077558E+04  0.7818609E-02  0.8221924E-01
        2   -1    0    0  501    0  0.00000000000E+00  0.00000000000E+00  0.20469056137E+04  0.20469056137E+04  0.25500000920E-02 0.  1.
       -2   -1    0    0    0  501  0.00000000000E+00  0.00000000000E+00 -0.11567904297E+04  0.11567904297E+04  0.25500000920E-02 0. -1.
    10030    2    1    2    0    0  0.00000000000E+00  0.00000000000E+00  0.89011518399E+03  0.32036960434E+04  0.30775580088E+04 0.  0.
        5    1    3    3  502    0  0.23182400317E+03  0.13149006173E+04  0.12413358022E+04  0.18230860280E+04  0.46999998093E+01 0.  1.
       -5    1    3    3    0  502 -0.23182400317E+03 -0.13149006173E+04 -0.35122061822E+03  0.13806100153E+04  0.46999998093E+01 0. -1.
</event>
<event>
 5   0  0.1268836E-06  0.3241422E+04  0.7818609E-02  0.8177963E-01
       -1   -1    0    0    0  501  0.00000000000E+00  0.00000000000E+00  0.13294583887E+04  0.13294583887E+04  0.50400001928E-02 0.  1.
        1   -1    0    0  501    0  0.00000000000E+00  0.00000000000E+00 -0.19757697863E+04  0.19757697863E+04  0.50400001928E-02 0. -1.
    10030    2    1    2    0    0  0.00000000000E+00  0.00000000000E+00 -0.64631139754E+03  0.33052281750E+04  0.32414217354E+04 0.  0.
        1    1    3    3  502    0 -0.16017770798E+04 -0.21376006672E+03 -0.44936835311E+03  0.16772939803E+04  0.50400001928E-02 0. -1.
       -1    1    3    3    0  502  0.16017770798E+04  0.21376006672E+03 -0.19694304443E+03  0.16279341947E+04  0.50400001928E-02 0.  1.
</event>
<event>
 5   0  0.3745943E-06  0.3139592E+04  0.7818609E-02  0.8204955E-01
        2   -1    0    0  501    0  0.00000000000E+00  0.00000000000E+00  0.19974065903E+04  0.19974065903E+04  0.25500000920E-02 0.  1.
       -2   -1    0    0    0  501  0.00000000000E+00  0.00000000000E+00 -0.12337297866E+04  0.12337297866E+04  0.25500000920E-02 0. -1.
    10030    2    1    2    0    0  0.00000000000E+00  0.00000000000E+00  0.76367680373E+03  0.32311363769E+04  0.31395923343E+04 0.  0.
        5    1    3    3  502    0  0.75195731443E+02  0.11347149467E+04  0.14955211641E+04  0.18787863238E+04  0.46999998093E+01 0.  1.
       -5    1    3    3    0  502 -0.75195731443E+02 -0.11347149467E+04 -0.73184436033E+03  0.13523500531E+04  0.46999998093E+01 0. -1.
</event>
<event>
 5   0  0.1273754E-06  0.3219934E+04  0.7818609E-02  0.8183572E-01
       -1   -1    0    0    0  501  0.00000000000E+00  0.00000000000E+00  0.11604125917E+04  0.11604125917E+04  0.50400001928E-02 0.  1.
        1   -1    0    0  501    0  0.00000000000E+00  0.00000000000E+00 -0.22336828567E+04  0.22336828567E+04  0.50400001928E-02 0. -1.
    10030    2    1    2    0    0  0.00000000000E+00  0.00000000000E+00 -0.10732702650E+04  0.33940954484E+04  0.32199339824E+04 0.  0.
        2    1    3    3  502    0 -0.29942025205E+03  0.11764464939E+04 -0.16513380404E+04  0.20495355972E+04  0.25500000920E-02 0. -1.
       -2    1    3    3    0  502  0.29942025205E+03 -0.11764464939E+04  0.57806777538E+03  0.13445598512E+04  0.25500000920E-02 0.  1.
</event>
<event>
 5   0  0.1240725E-06  0.3250472E+04  0.7818609E-02  0.8175613E-01
       -1   -1    0    0    0  501  0.00000000000E+00  0.00000000000E+00  0.15562607607E+04  0.15562607607E+04  0.50400001928E-02 0. -1.
        1   -1    0    0  501    0  0.00000000000E+00  0.00000000000E+00 -0.16972679812E+04  0.16972679812E+04  0.50400001928E-02 0.  1.
    10030    2    1    2    0    0  0.00000000000E+00  0.00000000000E+00 -0.14100722046E+03  0.32535287419E+04  0.32504716948E+04 0.  0.
        3    1    3    3  502    0 -0.11542089951E+04 -0.62965916795E+03 -0.10267672263E+04  0.16682086259E+04  0.10100000352E+00 0.  1.
       -3    1    3    3    0  502  0.11542089951E+04  0.62965916795E+03  0.88576000585E+03  0.15853201161E+04  0.10100000352E+00 0. -1.
</event>
<event>
 5   0  0.1306843E-06  0.3203075E+04  0.7818609E-02  0.8188006E-01
        1   -1    0    0  501    0  0.00000000000E+00  0.00000000000E+00  0.20706833165E+04  0.20706833165E+04  0.50400001928E-02 0.  1.
       -1   -1    0    0    0  501  0.00000000000E+00  0.00000000000E+00 -0.12386837911E+04  0.12386837911E+04  0.50400001928E-02 0. -1.
    10030    2    1    2    0    0  0.00000000000E+00  0.00000000000E+00  0.83199952541E+03  0.33093671075E+04  0.32030746857E+04 0.  0.
        5    1    3    3  502    0  0.23842212271E+03  0.96329762973E+03  0.17147387054E+04  0.19811961916E+04  0.46999998093E+01 0.  1.
       -5    1    3    3    0  502 -0.23842212271E+03 -0.96329762973E+03 -0.88273917996E+03  0.13281709159E+04  0.46999998093E+01 0. -1.
</event>
<event>
 5   0  0.3758062E-06  0.3223442E+04  0.7818609E-02  0.8182653E-01
       -2   -1    0    0    0  501  0.00000000000E+00  0.00000000000E+00  0.11828216891E+04  0.11828216891E+04  0.25500000920E-02 0. -1.
        2   -1    0    0  501    0  0.00000000000E+00  0.00000000000E+00 -0.21961425078E+04  0.21961425078E+04  0.25500000920E-02 0.  1.
    10030    2    1    2    0    0  0.00000000000E+00  0.00000000000E+00 -0.10133208187E+04  0.33789641968E+04  0.32234422535E+04 0.  0.
        2    1    3    3  502    0 -0.15696441975E+04  0.31737874475E+03 -0.31585403833E+03  0.16322609925E+04  0.25500000920E-02 0. -1.
       -2    1    3    3    0  502  0.15696441975E+04 -0.31737874475E+03 -0.69746678039E+03  0.17467032043E+04  0.25500000920E-02 0.  1.
</event>
<event>
 5   0  0.3531437E-06  0.3247694E+04  0.7818609E-02  0.8176334E-01
        2   -1    0    0  501    0  0.00000000000E+00  0.00000000000E+00  0.90154534941E+03  0.90154534941E+03  0.25500000920E-02 0. -1.
       -2   -1    0    0    0  501  0.00000000000E+00  0.00000000000E+00 -0.29248429135E+04  0.29248429135E+04  0.25500000920E-02 0.  1.
    10030    2    1    2    0    0  0.00000000000E+00  0.00000000000E+00 -0.20232975641E+04  0.38263882630E+04  0.32476936595E+04 0.  0.
        1    1    3    3  502    0  0.24310776013E+03 -0.93254716130E+03 -0.25514859973E+04  0.27274211970E+04  0.50400001928E-02 0.  1.
       -1    1    3    3    0  502 -0.24310776013E+03  0.93254716130E+03  0.52818843321E+03  0.10989670660E+04  0.50400001928E-02 0. -1.
</event>
<event>
 5   0  0.1268836E-06  0.3129320E+04  0.7818609E-02  0.8207737E-01
       -1   -1    0    0    0  501  0.00000000000E+00  0.00000000000E+00  0.97973194601E+03  0.97973194602E+03  0.50400001928E-02 0.  1.
        1   -1    0    0  501    0  0.00000000000E+00  0.00000000000E+00 -0.24988074656E+04  0.24988074656E+04  0.50400001928E-02 0. -1.
    10030    2    1    2    0    0  0.00000000000E+00  0.00000000000E+00 -0.15190755196E+04  0.34785394116E+04  0.31293203741E+04 0.  0.
        1    1    3    3  502    0  0.40214154431E+03 -0.68314507585E+03  0.73998664523E+03  0.10844285368E+04  0.50400001928E-02 0.  1.
       -1    1    3    3    0  502 -0.40214154431E+03  0.68314507585E+03 -0.22590621648E+04  0.23941108748E+04  0.50400001928E-02 0. -1.
</event>
<event>
 5   0  0.1240725E-06  0.3166711E+04  0.7818609E-02  0.8197664E-01
        1   -1    0    0  501    0  0.00000000000E+00  0.00000000000E+00  0.20136633280E+04  0.20136633280E+04  0.50400001928E-02 0.  1.
       -1   -1    0    0    0  501  0.00000000000E+00  0.00000000000E+00 -0.12450020250E+04  0.12450020250E+04  0.50400001928E-02 0. -1.
    10030    2    1    2    0    0  0.00000000000E+00  0.00000000000E+00  0.76866130294E+03  0.32586653530E+04  0.31667111779E+04 0.  0.
        3    1    3    3  502    0  0.55604858419E+03  0.13862027820E+04  0.92520402444E+03  0.17569151026E+04  0.10100000352E+00 0. -1.
       -3    1    3    3    0  502 -0.55604858419E+03 -0.13862027820E+04 -0.15654272151E+03  0.15017502504E+04  0.10100000352E+00 0.  1.
</event>
<event>
 5   0  0.1240725E-06  0.3224314E+04  0.7818609E-02  0.8182425E-01
       -1   -1    0    0    0  501  0.00000000000E+00  0.00000000000E+00  0.15013058941E+04  0.15013058941E+04  0.50400001928E-02 0. -1.
        1   -1    0    0  501    0  0.00000000000E+00  0.00000000000E+00 -0.17311926043E+04  0.17311926043E+04  0.50400001928E-02 0.  1.
    10030    2    1    2    0    0  0.00000000000E+00  0.00000000000E+00 -0.22988671024E+03  0.32324984985E+04  0.32243136701E+04 0.  0.
        3    1    3    3  502    0  0.14307536852E+04  0.27431460909E+03  0.57727663705E+03  0.15670204014E+04  0.10100000352E+00 0. -1.
       -3    1    3    3    0  502 -0.14307536852E+04 -0.27431460909E+03 -0.80716334729E+03  0.16654780971E+04  0.10100000352E+00 0.  1.
</event>
<event>
 5   0  0.1273754E-06  0.2807007E+04  0.7818609E-02  0.8301096E-01
       -1   -1    0    0    0  501  0.00000000000E+00  0.00000000000E+00  0.97273718784E+03  0.97273718786E+03  0.50400001928E-02 0.  1.
        1   -1    0    0  501    0  0.00000000000E+00  0.00000000000E+00 -0.20250296349E+04  0.20250296349E+04  0.50400001928E-02 0. -1.
    10030    2    1    2    0    0  0.00000000000E+00  0.00000000000E+00 -0.10522924470E+04  0.29977668227E+04  0.28070066850E+04 0.  0.
        2    1    3    3  502    0 -0.46742987915E+03  0.98176313558E+03  0.42155618843E+03  0.11662157460E+04  0.25500000920E-02 0.  1.
       -2    1    3    3    0  502  0.46742987915E+03 -0.98176313558E+03 -0.14738486355E+04  0.18315510767E+04  0.25500000920E-02 0. -1.
</event>
<event>
 5   0  0.3531437E-06  0.3222705E+04  0.7818609E-02  0.8182847E-01
        2   -1    0    0  501    0  0.00000000000E+00  0.00000000000E+00  0.19712496091E+04  0.19712496091E+04  0.25500000920E-02 0.  1.
       -2   -1    0    0    0  501  0.00000000000E+00  0.00000000000E+00 -0.13171626329E+04  0.13171626329E+04  0.25500000920E-02 0. -1.
    10030    2    1    2    0    0  0.00000000000E+00  0.00000000000E+00  0.65408697620E+03  0.32884122421E+04  0.32227046562E+04 0.  0.
        1    1    3    3  502    0 -0.49023519315E+03  0.13487672701E+04 -0.42066745620E+03  0.14954814617E+04  0.50400001928E-02 0. -1.
       -1    1    3    3    0  502  0.49023519315E+03 -0.13487672701E+04  0.10747544324E+04  0.17929307804E+04  0.50400001928E-02 0.  1.
</event>
<event>
 5   0  0.3656086E-06  0.2858076E+04  0.7818609E-02  0.8285462E-01
       -2   -1    0    0    0  501  0.00000000000E+00  0.00000000000E+00  0.95156959048E+03  0.95156959048E+03  0.25500000920E-02 0. -1.
        2   -1    0    0  501    0  0.00000000000E+00  0.00000000000E+00 -0.21460849651E+04  0.21460849651E+04  0.25500000920E-02 0.  1.
    10030    2    1    2    0    0  0.00000000000E+00  0.00000000000E+00 -0.11945153746E+04  0.30976545556E+04  0.28580757102E+04 0.  0.
        3    1    3    3  502    0  0.63681057820E+03 -0.76916860580E+03 -0.17052012392E+04  0.19760716923E+04  0.10100000352E+00 0.  1.
       -3    1    3    3    0  502 -0.63681057820E+03  0.76916860580E+03  0.51068586462E+03  0.11215828633E+04  0.10100000352E+00 0. -1.
</event>
<event>
 5   0  0.1240725E-06  0.3149499E+04  0.7818609E-02  0.8202283E-01
        1   -1    0    0  501    0  0.00000000000E+00  0.00000000000E+00  0.13228653006E+04  0.13228653006E+04  0.50400001928E-02 0.  1.
       -1   -1    0    0    0  501  0.00000000000E+00  0.00000000000E+00 -0.18745949782E+04  0.18745949782E+04  0.50400001928E-02 0. -1.
    10030    2    1    2    0    0  0.00000000000E+00  0.00000000000E+00 -0.55172967767E+03  0.31974602788E+04  0.31494994201E+04 0.  0.
        3    1    3    3  502    0 -0.87059688766E+03 -0.13077828032E+04 -0.16651276561E+03  0.15798611688E+04  0.10100000352E+00 0. -1.
       -3    1    3    3    0  502  0.87059688766E+03  0.13077828032E+04 -0.38521691206E+03  0.16175991100E+04  0.10100000352E+00 0.  1.
</event>
<event>
 5   0  0.3497546E-06  0.3199162E+04  0.7818609E-02  0.8189038E-01
        2   -1    0    0  501    0  0.00000000000E+00  0.00000000000E+00  0.23787159665E+04  0.23787159665E+04  0.25500000920E-02 0.  1.
       -2   -1    0    0    0  501  0.00000000000E+00  0.00000000000E+00 -0.10756476198E+04  0.10756476198E+04  0.25500000920E-02 0. -1.
    10030    2    1    2    0    0  0.00000000000E+00  0.00000000000E+00  0.13030683466E+04  0.34543635863E+04  0.31991624951E+04 0.  0.
        4    1    3    3  502    0  0.78448405247E+03 -0.83863075951E+03 -0.55081993951E+03  0.12736251403E+04  0.12699999809E+01 0. -1.
       -4    1    3    3    0  502 -0.78448405247E+03  0.83863075951E+03  0.18538882861E+04  0.21807384460E+04  0.12699999809E+01 0.  1.
</event>
<event>
 5   0  0.1240725E-06  0.3176934E+04  0.7818609E-02  0.8194936E-01
        1   -1    0    0  501    0  0.00000000000E+00  0.00000000000E+00  0.24205089760E+04  0.24205089760E+04  0.50400001928E-02 0. -1.
       -1   -1    0    0    0  501  0.00000000000E+00  0.00000000000E+00 -0.10424367277E+04  0.10424367277E+04  0.50400001928E-02 0.  1.
    10030    2    1    2    0    0  0.00000000000E+00  0.00000000000E+00  0.13780722483E+04  0.34629457038E+04  0.31769340292E+04 0.  0.
        3    1    3    3  502    0  0.76862020464E+03  0.11968755287E+04  0.14597553030E+04  0.20381789924E+04  0.10100000352E+00 0. -1.
       -3    1    3    3    0  502 -0.76862020464E+03 -0.11968755287E+04 -0.81683054685E+02  0.14247667114E+04  0.10100000352E+00 0.  1.
</event>
<event>
 5   0  0.1240725E-06  0.3010570E+04  0.7818609E-02  0.8240719E-01
        1   -1    0    0  501    0  0.00000000000E+00  0.00000000000E+00  0.19033158836E+04  0.19033158836E+04  0.50400001928E-02 0. -1.
       -1   -1    0    0    0  501  0.00000000000E+00  0.00000000000E+00 -0.11904920671E+04  0.11904920671E+04  0.50400001928E-02 0.  1.
    10030    2    1    2    0    0  0.00000000000E+00  0.00000000000E+00  0.71282381647E+03  0.30938079507E+04  0.30105696873E+04 0.  0.
        3    1    3    3  502    0  0.10815575451E+03  0.11194598844E+02 -0.11864510455E+04  0.11914231321E+04  0.10100000352E+00 0.  1.
       -3    1    3    3    0  502 -0.10815575451E+03 -0.11194598844E+02  0.18992748620E+04  0.19023848185E+04  0.10100000352E+00 0. -1.
</event>
<event>
 5   0  0.3656086E-06  0.3225737E+04  0.7818609E-02  0.8182053E-01
        2   -1    0    0  501    0  0.00000000000E+00  0.00000000000E+00  0.20325496479E+04  0.20325496479E+04  0.25500000920E-02 0. -1.
       -2   -1    0    0    0  501  0.00000000000E+00  0.00000000000E+00 -0.12798433456E+04  0.12798433456E+04  0.25500000920E-02 0.  1.
    10030    2    1    2    0    0  0.00000000000E+00  0.00000000000E+00  0.75270630227E+03  0.33123929935E+04  0.32257372127E+04 0.  0.
        3    1    3    3  502    0  0.14469619066E+04  0.11608425474E+02  0.11078894263E+04  0.18224303844E+04  0.10100000352E+00 0. -1.
       -3    1    3    3    0  502 -0.14469619066E+04 -0.11608425474E+02 -0.35518312402E+03  0.14899626091E+04  0.10100000352E+00 0.  1.
</event>
<event>
 5   0  0.1273980E-06  0.3157008E+04  0.7818609E-02  0.8200264E-01
       -1   -1    0    0    0  501  0.00000000000E+00  0.00000000000E+00  0.12482421668E+04  0.12482421668E+04  0.50400001928E-02 0.  1.
        1   -1    0    0  501    0  0.00000000000E+00  0.00000000000E+00 -0.19961470213E+04  0.19961470213E+04  0.50400001928E-02 0. -1.
    10030    2    1    2    0    0  0.00000000000E+00  0.00000000000E+00 -0.74790485449E+03  0.32443891881E+04  0.31570080033E+04 0.  0.
        4    1    3    3  502    0 -0.82268566836E+03  0.75273346847E+03  0.77422426387E+03  0.13575139805E+04  0.12699999809E+01 0.  1.
       -4    1    3    3    0  502  0.82268566836E+03 -0.75273346847E+03 -0.15221291184E+04  0.18868752077E+04  0.12699999809E+01 0. -1.
</event>
<event>
 5   0  0.1240725E-06  0.3218081E+04  0.7818609E-02  0.8184058E-01
       -1   -1    0    0    0  501  0.00000000000E+00  0.00000000000E+00  0.20806284648E+04  0.20806284648E+04  0.50400001928E-02 0.  1.
        1   -1    0    0  501    0  0.00000000000E+00  0.00000000000E+00 -0.12443407486E+04  0.12443407486E+04  0.50400001928E-02 0. -1.
    10030    2    1    2    0    0  0.00000000000E+00  0.00000000000E+00  0.83628771620E+03  0.33249692135E+04  0.32180806587E+04 0.  0.
        3    1    3    3  502    0  0.17052218934E+03  0.15590501450E+04  0.46623535233E+02  0.15690407694E+04  0.10100000352E+00 0.  1.
       -3    1    3    3    0  502 -0.17052218934E+03 -0.15590501450E+04  0.78966418097E+03  0.17559284441E+04  0.10100000352E+00 0. -1.
</event>
<event>
 5   0  0.3758062E-06  0.3167725E+04  0.7818609E-02  0.8197393E-01
        2   -1    0    0  501    0  0.00000000000E+00  0.00000000000E+00  0.16982268253E+04  0.16982268253E+04  0.25500000920E-02 0.  1.
       -2   -1    0    0    0  501  0.00000000000E+00  0.00000000000E+00 -0.14771996435E+04  0.14771996435E+04  0.25500000920E-02 0. -1.
    10030    2    1    2    0    0  0.00000000000E+00  0.00000000000E+00  0.22102718181E+03  0.31754264688E+04  0.31677247739E+04 0.  0.
        2    1    3    3  502    0  0.83601164103E+03 -0.12363909853E+04  0.64193638404E+03  0.16247031894E+04  0.25500000920E-02 0.  1.
       -2    1    3    3    0  502 -0.83601164103E+03  0.12363909853E+04 -0.42090920224E+03  0.15507232793E+04  0.25500000920E-02 0. -1.
</event>
<event>
 5   0  0.1273980E-06  0.2492033E+04  0.7818609E-02  0.8405829E-01
        1   -1    0    0  501    0  0.00000000000E+00  0.00000000000E+00  0.13429432690E+04  0.13429432690E+04  0.50400001928E-02 0. -1.
       -1   -1    0    0    0  501  0.00000000000E+00  0.00000000000E+00 -0.11560851914E+04  0.11560851914E+04  0.50400001928E-02 0.  1.
    10030    2    1    2    0    0  0.00000000000E+00  0.00000000000E+00  0.18685807760E+03  0.24990284604E+04  0.24920327655E+04 0.  0.
        4    1    3    3  502    0  0.20233544007E+03 -0.11978054973E+04  0.37147544606E+03  0.12703043964E+04  0.12699999809E+01 0. -1.
       -4    1    3    3    0  502 -0.20233544007E+03  0.11978054973E+04 -0.18461736846E+03  0.12287240639E+04  0.12699999809E+01 0.  1.
</event>
<event>
 5   0  0.3531437E-06  0.3230758E+04  0.7818609E-02  0.8180741E-01
        2   -1    0    0  501    0  0.00000000000E+00  0.00000000000E+00  0.17632132721E+04  0.17632132721E+04  0.25500000920E-02 0. -1.
       -2   -1    0    0    0  501  0.00000000000E+00  0.00000000000E+00 -0.14799397258E+04  0.14799397258E+04  0.25500000920E-02 0.  1.
    10030    2    1    2    0    0  0.00000000000E+00  0.00000000000E+00  0.28327354634E+03  0.32431529978E+04  0.32307580326E+04 0.  0.
        1    1    3    3  502    0  0.18048770288E+03 -0.72753279422E+03  0.15780597380E+04  0.17470410168E+04  0.50400001928E-02 0. -1.
       -1    1    3    3    0  502 -0.18048770288E+03  0.72753279422E+03 -0.12947861917E+04  0.14961119810E+04  0.50400001928E-02 0.  1.
</event>
<event>
 5   0  0.1273754E-06  0.3187636E+04  0.7818609E-02  0.8192090E-01
       -1   -1    0    0    0  501  0.00000000000E+00  0.00000000000E+00  0.16762416906E+04  0.16762416906E+04  0.50400001928E-02 0.  1.
        1   -1    0    0  501    0  0.00000000000E+00  0.00000000000E+00 -0.15154470403E+04  0.15154470403E+04  0.50400001928E-02 0. -1.
    10030    2    1    2    0    0  0.00000000000E+00  0.00000000000E+00  0.16079465026E+03  0.31916887309E+04  0.31876358066E+04 0.  0.
        2    1    3    3  502    0  0.77423816240E+03  0.13849606440E+04 -0.70442121842E+02  0.15882451983E+04  0.25500000920E-02 0.  1.
       -2    1    3    3    0  502 -0.77423816240E+03 -0.13849606440E+04  0.23123677210E+03  0.16034435326E+04  0.25500000920E-02 0. -1.
</event>
<event>
 5   0  0.1273980E-06  0.3084880E+04  0.7818609E-02  0.8219900E-01
        1   -1    0    0  501    0  0.00000000000E+00  0.00000000000E+00  0.22225115192E+04  0.22225115192E+04  0.50400001928E-02 0.  1.
       -1   -1    0    0    0  501  0.00000000000E+00  0.00000000000E+00 -0.10704650395E+04  0.10704650395E+04  0.50400001928E-02 0. -1.
    10030    2    1    2    0    0  0.00000000000E+00  0.00000000000E+00  0.11520464797E+04  0.32929765587E+04  0.30848798234E+04 0.  0.
        4    1    3    3  502    0 -0.12686600176E+04  0.57117501382E+03 -0.13476216768E+03  0.13978203001E+04  0.12699999809E+01 0. -1.
       -4    1    3    3    0  502  0.12686600176E+04 -0.57117501382E+03  0.12868086473E+04  0.18951562586E+04  0.12699999809E+01 0.  1.
</event>
<event>
 5   0  0.3656086E-06  0.3193424E+04  0.7818609E-02  0.8190556E-01
       -2   -1    0    0    0  501  0.00000000000E+00  0.00000000000E+00  0.13523765866E+04  0.13523765866E+04  0.25500000920E-02 0.  1.
        2   -1    0    0  501    0  0.00000000000E+00  0.00000000000E+00 -0.18851918926E+04  0.18851918926E+04  0.25500000920E-02 0. -1.
    10030    2    1    2    0    0  0.00000000000E+00  0.00000000000E+00 -0.53281530606E+03  0.32375684792E+04  0.31934241039E+04 0.  0.
        3    1    3    3  502    0 -0.17086022851E+03 -0.46822456308E+03  0.12714867474E+04  0.13656888438E+04  0.10100000352E+00 0.  1.
       -3    1    3    3    0  502  0.17086022851E+03  0.46822456308E+03 -0.18043020534E+04  0.18718796354E+04  0.10100000352E+00 0. -1.
</event>
<event>
 5   0  0.1240725E-06  0.3155075E+04  0.7818609E-02  0.8200784E-01
       -1   -1    0    0    0  501  0.00000000000E+00  0.00000000000E+00  0.28199386108E+04  0.28199386108E+04  0.50400001928E-02 0.  1.
        1   -1    0    0  501    0  0.00000000000E+00  0.00000000000E+00 -0.88251006924E+03  0.88251006925E+03  0.50400001928E-02 0. -1.
    10030    2    1    2    0    0  0.00000000000E+00  0.00000000000E+00  0.19374285415E+04  0.37024486800E+04  0.31550747812E+04 0.  0.
        3    1    3    3  502    0  0.11961319771E+04  0.98860864960E+03  0.13017569324E+04  0.20254999111E+04  0.10100000352E+00 0.  1.
       -3    1    3    3    0  502 -0.11961319771E+04 -0.98860864960E+03  0.63567160912E+03  0.16769487689E+04  0.10100000352E+00 0. -1.
</event>
<event>
 5   0  0.3758062E-06  0.3212858E+04  0.7818609E-02  0.8185430E-01
       -2   -1    0    0    0  501  0.00000000000E+00  0.00000000000E+00  0.12325756397E+04  0.12325756397E+04  0.25500000920E-02 0.  1.
        2   -1    0    0  501    0  0.00000000000E+00  0.00000000000E+00 -0.20936757554E+04  0.20936757554E+04  0.25500000920E-02 0. -1.
    10030    2    1    2    0    0  0.00000000000E+00  0.00000000000E+00 -0.86110011569E+03  0.33262513950E+04  0.32128577519E+04 0.  0.
        2    1    3    3  502    0 -0.41194307559E+03 -0.59360730775E+03 -0.19159519251E+04  0.20476666019E+04  0.25500000920E-02 0. -1.
       -2    1    3    3    0  502  0.41194307559E+03  0.59360730775E+03  0.10548518094E+04  0.12785847931E+04  0.25500000920E-02 0.  1.
</event>
<event>
 5   0  0.3656086E-06  0.3119202E+04  0.7818609E-02  0.8210488E-01
        2   -1    0    0  501    0  0.00000000000E+00  0.00000000000E+00  0.19670747834E+04  0.19670747834E+04  0.25500000920E-02 0.  1.
       -2   -1    0    0    0  501  0.00000000000E+00  0.00000000000E+00 -0.12365339866E+04  0.12365339866E+04  0.25500000920E-02 0. -1.
    10030    2    1    2    0    0  0.00000000000E+00  0.00000000000E+00  0.73054079674E+03  0.32036087700E+04  0.31192017080E+04 0.  0.
        3    1    3    3  502    0  0.45020989010E+03  0.12724054595E+04 -0.43731687920E+03  0.14187849243E+04  0.10100000352E+00 0. -1.
       -3    1    3    3    0  502 -0.45020989010E+03 -0.12724054595E+04  0.11678576759E+04  0.17848238456E+04  0.10100000352E+00 0.  1.
</event>
<event>
 5   0  0.3758062E-06  0.3220062E+04  0.7818609E-02  0.8183539E-01
        2   -1    0    0  501    0  0.00000000000E+00  0.00000000000E+00  0.25716275940E+04  0.25716275940E+04  0.25500000920E-02 0.  1.
       -2   -1    0    0    0  501  0.00000000000E+00  0.00000000000E+00 -0.10079999155E+04  0.10079999155E+04  0.25500000920E-02 0. -1.
    10030    2    1    2    0    0  0.00000000000E+00  0.00000000000E+00  0.15636276785E+04  0.35796275095E+04  0.32200623580E+04 0.  0.
        2    1    3    3  502    0  0.13475524875E+04 -0.21143224440E+02  0.17609971885E+04  0.22175337293E+04  0.25500000920E-02 0.  1.
       -2    1    3    3    0  502 -0.13475524875E+04  0.21143224440E+02 -0.19736951003E+03  0.13620937802E+04  0.25500000920E-02 0. -1.
</event>
<event>
 5   0  0.3497546E-06  0.3212819E+04  0.7818609E-02  0.8185440E-01
        2   -1    0    0  501    0  0.00000000000E+00  0.00000000000E+00  0.13661501410E+04  0.13661501410E+04  0.25500000920E-02 0.  1.
       -2   -1    0    0    0  501  0.00000000000E+00  0.00000000000E+00 -0.18889227336E+04  0.18889227336E+04  0.25500000920E-02 0. -1.
    10030    2    1    2    0    0  0.00000000000E+00  0.00000000000E+00 -0.52277259264E+03  0.32550728746E+04  0.32128193592E+04 0.  0.
        4    1    3    3  502    0  0.30658331517E+03 -0.14169960720E+04 -0.96235190109E+03  0.17401132123E+04  0.12699999809E+01 0. -1.
       -4    1    3    3    0  502 -0.30658331517E+03  0.14169960720E+04  0.43957930845E+03  0.15149596623E+04  0.12699999809E+01 0.  1.
</event>
<event>
 5   0  0.1306843E-06  0.3242285E+04  0.7818609E-02  0.8177738E-01
       -1   -1    0    0    0  501  0.00000000000E+00  0.00000000000E+00  0.20938314037E+04  0.20938314037E+04  0.50400001928E-02 0.  1.
        1   -1    0    0  501    0  0.00000000000E+00  0.00000000000E+00 -0.12551644936E+04  0.12551644936E+04  0.50400001928E-02 0. -1.
    10030    2    1    2    0    0  0.00000000000E+00  0.00000000000E+00  0.83866691009E+03  0.33489958973E+04  0.32422848941E+04 0.  0.
        5    1    3    3  502    0  0.28912991489E+03 -0.60429948479E+03 -0.11055007534E+04  0.12926437950E+04  0.46999998093E+01 0. -1.
       -5    1    3    3    0  502 -0.28912991489E+03  0.60429948479E+03  0.19441676635E+04  0.20563521023E+04  0.46999998093E+01 0.  1.
</event>
<event>
 5   0  0.1273980E-06  0.3214512E+04  0.7818609E-02  0.8184995E-01
        1   -1    0    0  501    0  0.00000000000E+00  0.00000000000E+00  0.24952474113E+04  0.24952474113E+04  0.50400001928E-02 0. -1.
       -1   -1    0    0    0  501  0.00000000000E+00  0.00000000000E+00 -0.10352769904E+04  0.10352769905E+04  0.50400001928E-02 0.  1.
    10030    2    1    2    0    0  0.00000000000E+00  0.00000000000E+00  0.14599704209E+04  0.35305244018E+04  0.32145122370E+04 0.  0.
        4    1    3    3  502    0  0.14885483524E+04 -0.58854179130E+03  0.57039769899E+03  0.16992683088E+04  0.12699999809E+01 0. -1.
       -4    1    3    3    0  502 -0.14885483524E+04  0.58854179130E+03  0.88957272191E+03  0.18312560930E+04  0.12699999809E+01 0.  1.
</event>
<event>
 5   0  0.3758062E-06  0.3145285E+04  0.7818609E-02  0.8203419E-01
        2   -1    0    0  501    0  0.00000000000E+00  0.00000000000E+00  0.12995796678E+04  0.12995796678E+04  0.25500000920E-02 0. -1.
       -2   -1    0    0    0  501  0.00000000000E+00  0.00000000000E+00 -0.19030802264E+04  0.19030802264E+04  0.25500000920E-02 0.  1.
    10030    2    1    2    0    0  0.00000000000E+00  0.00000000000E+00 -0.60350055855E+03  0.32026598942E+04  0.31452849591E+04 0.  0.
        2    1    3    3  502    0 -0.37744641564E+03  0.13575641445E+04  0.40938642941E+03  0.14673252713E+04  0.25500000920E-02 0. -1.
       -2    1    3    3    0  502  0.37744641564E+03 -0.13575641445E+04 -0.10128869880E+04  0.17353346229E+04  0.25500000920E-02 0.  1.
</event>
<event>
 5   0  0.3758062E-06  0.3126265E+04  0.7818609E-02  0.8208566E-01
       -2   -1    0    0    0  501  0.00000000000E+00  0.00000000000E+00  0.15048925264E+04  0.15048925264E+04  0.25500000920E-02 0.  1.
        2   -1    0    0  501    0  0.00000000000E+00  0.00000000000E+00 -0.16236263753E+04  0.16236263753E+04  0.25500000920E-02 0. -1.
    10030    2    1    2    0    0  0.00000000000E+00  0.00000000000E+00 -0.11873384889E+03  0.31285189017E+04  0.31262649906E+04 0.  0.
        2    1    3    3  502    0 -0.44101501788E+03 -0.21481235820E+03 -0.15446015618E+04  0.16206272180E+04  0.25500000920E-02 0. -1.
       -2    1    3    3    0  502  0.44101501788E+03  0.21481235820E+03  0.14258677129E+04  0.15078916837E+04  0.25500000920E-02 0.  1.
</event>
<event>
 5   0  0.3656086E-06  0.3145824E+04  0.7818609E-02  0.8203273E-01
       -2   -1    0    0    0  501  0.00000000000E+00  0.00000000000E+00  0.21840978042E+04  0.21840978042E+04  0.25500000920E-02 0. -1.
        2   -1    0    0  501    0  0.00000000000E+00  0.00000000000E+00 -0.11327572872E+04  0.11327572872E+04  0.25500000920E-02 0.  1.
    10030    2    1    2    0    0  0.00000000000E+00  0.00000000000E+00  0.10513405170E+04  0.33168550913E+04  0.31458243457E+04 0.  0.
        3    1    3    3  502    0 -0.13732616187E+04 -0.75380380432E+03  0.37661593115E+03  0.16111819322E+04  0.10100000352E+00 0.  1.
       -3    1    3    3    0  502  0.13732616187E+04  0.75380380432E+03  0.67472458582E+03  0.17056731591E+04  0.10100000352E+00 0. -1.
</event>
<event>
 5   0  0.1273754E-06  0.3125847E+04  0.7818609E-02  0.8208680E-01
       -1   -1    0    0    0  501  0.00000000000E+00  0.00000000000E+00  0.13507377038E+04  0.13507377038E+04  0.50400001928E-02 0. -1.
        1   -1    0    0  501    0  0.00000000000E+00  0.00000000000E+00 -0.18084416241E+04  0.18084416241E+04  0.50400001928E-02 0.  1.
    10030    2    1    2    0    0  0.00000000000E+00  0.00000000000E+00 -0.45770392026E+03  0.31591793279E+04  0.31258472687E+04 0.  0.
        2    1    3    3  502    0 -0.51804259699E+03  0.14021189587E+04 -0.69025557477E+03  0.16464381145E+04  0.25500000920E-02 0.  1.
       -2    1    3    3    0  502  0.51804259699E+03 -0.14021189587E+04  0.23255165451E+03  0.15127412133E+04  0.25500000920E-02 0. -1.
</event>
<event>
 5   0  0.1268836E-06  0.2972227E+04  0.7818609E-02  0.8251706E-01
       -1   -1    0    0    0  501  0.00000000000E+00  0.00000000000E+00  0.13416505329E+04  0.13416505329E+04  0.50400001928E-02 0.  1.
        1   -1    0    0  501    0  0.00000000000E+00  0.00000000000E+00 -0.16461320378E+04  0.16461320378E+04  0.50400001928E-02 0. -1.
    10030    2    1    2    0    0  0.00000000000E+00  0.00000000000E+00 -0.30448150494E+03  0.29877825707E+04  0.29722273975E+04 0.  0.
        1    1    3    3  502    0  0.52372065322E+03 -0.10432850538E+04  0.77224999311E+03  0.13996774907E+04  0.50400001928E-02 0.  1.
       -1    1    3    3    0  502 -0.52372065322E+03  0.10432850538E+04 -0.10767314981E+04  0.15881050800E+04  0.50400001928E-02 0. -1.
</event>
<event>
 5   0  0.3758062E-06  0.3149812E+04  0.7818609E-02  0.8202199E-01
        2   -1    0    0  501    0  0.00000000000E+00  0.00000000000E+00  0.25521797381E+04  0.25521797381E+04  0.25500000920E-02 0.  1.
       -2   -1    0    0    0  501  0.00000000000E+00  0.00000000000E+00 -0.97184749671E+03  0.97184749671E+03  0.25500000920E-02 0. -1.
    10030    2    1    2    0    0  0.00000000000E+00  0.00000000000E+00  0.15803322414E+04  0.35240272348E+04  0.31498123688E+04 0.  0.
        2    1    3    3  502    0  0.83492762074E+03 -0.94298035189E+03  0.18480222081E+04  0.22364038449E+04  0.25500000920E-02 0.  1.
       -2    1    3    3    0  502 -0.83492762074E+03  0.94298035189E+03 -0.26768996671E+03  0.12876233899E+04  0.25500000920E-02 0. -1.
</event>
<event>
 5   0  0.3745943E-06  0.3199276E+04  0.7818609E-02  0.8189009E-01
       -2   -1    0    0    0  501  0.00000000000E+00  0.00000000000E+00  0.16167943053E+04  0.16167943053E+04  0.25500000920E-02 0.  1.
        2   -1    0    0  501    0  0.00000000000E+00  0.00000000000E+00 -0.15826632556E+04  0.15826632556E+04  0.25500000920E-02 0. -1.
    10030    2    1    2    0    0  0.00000000000E+00  0.00000000000E+00  0.34131049661E+02  0.31994575610E+04  0.31992755048E+04 0.  0.
        5    1    3    3  502    0  0.13330606825E+04 -0.53827544907E+03  0.71855223634E+03  0.16072120733E+04  0.46999998093E+01 0.  1.
       -5    1    3    3    0  502 -0.13330606825E+04  0.53827544907E+03 -0.68442118668E+03  0.15922454877E+04  0.46999998093E+01 0. -1.
</event>
<event>
 5   0  0.1273754E-06  0.3149805E+04  0.7818609E-02  0.8202201E-01
        1   -1    0    0  501    0  0.00000000000E+00  0.00000000000E+00  0.18256574683E+04  0.18256574683E+04  0.50400001928E-02 0. -1.
       -1   -1    0    0    0  501  0.00000000000E+00  0.00000000000E+00 -0.13585888461E+04  0.13585888461E+04  0.50400001928E-02 0.  1.
    10030    2    1    2    0    0  0.00000000000E+00  0.00000000000E+00  0.46706862216E+03  0.31842463144E+04  0.31498049929E+04 0.  0.
        2    1    3    3  502    0 -0.40845612931E+03 -0.42320129718E+03  0.17104614654E+04  0.18087603966E+04  0.25500000920E-02 0. -1.
       -2    1    3    3    0  502  0.40845612931E+03  0.42320129718E+03 -0.12433928433E+04  0.13754859178E+04  0.25500000920E-02 0.  1.
</event>
<event>
 5   0  0.1306843E-06  0.3217140E+04  0.7818609E-02  0.8184305E-01
       -1   -1    0    0    0  501  0.00000000000E+00  0.00000000000E+00  0.12613125051E+04  0.12613125051E+04  0.50400001928E-02 0.  1.
        1   -1    0    0  501    0  0.00000000000E+00  0.00000000000E+00 -0.20514327499E+04  0.20514327499E+04  0.50400001928E-02 0. -1.
    10030    2    1    2    0    0  0.00000000000E+00  0.00000000000E+00 -0.79012024480E+03  0.33127452551E+04  0.32171402089E+04 0.  0.
        5    1    3    3  502    0 -0.11368722140E+04  0.65183922312E+02 -0.15649334394E+04  0.19353981850E+04  0.46999998093E+01 0. -1.
       -5    1    3    3    0  502  0.11368722140E+04 -0.65183922312E+02  0.77481319465E+03  0.13773470700E+04  0.46999998093E+01 0.  1.
</event>
<event>
 5   0  0.3497546E-06  0.3239272E+04  0.7818609E-02  0.8178522E-01
       -2   -1    0    0    0  501  0.00000000000E+00  0.00000000000E+00  0.21421257155E+04  0.21421257155E+04  0.25500000920E-02 0. -1.
        2   -1    0    0  501    0  0.00000000000E+00  0.00000000000E+00 -0.12245878998E+04  0.12245878998E+04  0.25500000920E-02 0.  1.
    10030    2    1    2    0    0  0.00000000000E+00  0.00000000000E+00  0.91753781568E+03  0.33667136153E+04  0.32392722831E+04 0.  0.
        4    1    3    3  502    0 -0.16726298392E+03  0.96959908950E+03  0.17958985155E+04  0.20477676604E+04  0.12699999809E+01 0. -1.
       -4    1    3    3    0  502  0.16726298392E+03 -0.96959908950E+03 -0.87836069981E+03  0.13189459549E+04  0.12699999809E+01 0.  1.
</event>
<event>
 5   0  0.1240725E-06  0.3219124E+04  0.7818609E-02  0.8183785E-01
       -1   -1    0    0    0  501  0.00000000000E+00  0.00000000000E+00  0.15850196748E+04  0.15850196748E+04  0.50400001928E-02 0. -1.
        1   -1    0    0  501    0  0.00000000000E+00  0.00000000000E+00 -0.16344845153E+04  0.16344845153E+04  0.50400001928E-02 0.  1.
    10030    2    1    2    0    0  0.00000000000E+00  0.00000000000E+00 -0.49464840562E+02  0.32195041901E+04  0.32191241759E+04 0.  0.
        3    1    3    3  502    0 -0.14712583221E+04 -0.27448505626E+03 -0.61704131243E+03  0.16188523985E+04  0.10100000352E+00 0.  1.
       -3    1    3    3    0  502  0.14712583221E+04  0.27448505626E+03  0.56757647187E+03  0.16006517917E+04  0.10100000352E+00 0. -1.
</event>
<event>
 5   0  0.1273754E-06  0.3201620E+04  0.7818609E-02  0.8188389E-01
       -1   -1    0    0    0  501  0.00000000000E+00  0.00000000000E+00  0.27094414290E+04  0.27094414290E+04  0.50400001928E-02 0. -1.
        1   -1    0    0  501    0  0.00000000000E+00  0.00000000000E+00 -0.94580104389E+03  0.94580104390E+03  0.50400001928E-02 0.  1.
    10030    2    1    2    0    0  0.00000000000E+00  0.00000000000E+00  0.17636403851E+04  0.36552424729E+04  0.32016199225E+04 0.  0.
        2    1    3    3  502    0 -0.75534595225E+03  0.12859715816E+04  0.21775363196E+03  0.15072116841E+04  0.25500000920E-02 0.  1.
       -2    1    3    3    0  502  0.75534595225E+03 -0.12859715816E+04  0.15458867532E+04  0.21480307889E+04  0.25500000920E-02 0. -1.
</event>
<event>
 5   0  0.3758062E-06  0.3228850E+04  0.7818609E-02  0.8181239E-01
        2   -1    0    0  501    0  0.00000000000E+00  0.00000000000E+00  0.18879043449E+04  0.18879043449E+04  0.25500000920E-02 0. -1.
       -2   -1    0    0    0  501  0.00000000000E+00  0.00000000000E+00 -0.13805613946E+04  0.13805613946E+04  0.25500000920E-02 0.  1.
    10030    2    1    2    0    0  0.00000000000E+00  0.00000000000E+00  0.50734295029E+03  0.32684657395E+04  0.32288498605E+04 0.  0.
        2    1    3    3  502    0  0.87183848980E+03 -0.17481826965E+03  0.16176848228E+04  0.18459599035E+04  0.25500000920E-02 0. -1.
       -2    1    3    3    0  502 -0.87183848980E+03  0.17481826965E+03 -0.11103418725E+04  0.14225058360E+04  0.25500000920E-02 0.  1.
</event>
<event>
 5   0  0.3656086E-06  0.3192867E+04  0.7818609E-02  0.8190704E-01
        2   -1    0    0  501    0  0.00000000000E+00  0.00000000000E+00  0.23224452423E+04  0.23224452423E+04  0.25500000920E-02 0.  1.
       -2   -1    0    0    0  501  0.00000000000E+00  0.00000000000E+00 -0.10973775156E+04  0.10973775156E+04  0.25500000920E-02 0. -1.
    10030    2    1    2    0    0  0.00000000000E+00  0.00000000000E+00  0.12250677267E+04  0.34198227579E+04  0.31928665429E+04 0.  0.
        3    1    3    3  502    0  0.90401764754E+03  0.56698171234E+03 -0.65925310531E+03  0.12543248528E+04  0.10100000352E+00 0. -1.
       -3    1    3    3    0  502 -0.90401764754E+03 -0.56698171234E+03  0.18843208320E+04  0.21654979052E+04  0.10100000352E+00 0.  1.
</event>
<event>
 5   0  0.1273980E-06  0.3199714E+04  0.7818609E-02  0.8188893E-01
       -1   -1    0    0    0  501  0.00000000000E+00  0.00000000000E+00  0.15906512824E+04  0.15906512824E+04  0.50400001928E-02 0.  1.
        1   -1    0    0  501    0  0.00000000000E+00  0.00000000000E+00 -0.16091156309E+04  0.16091156310E+04  0.50400001928E-02 0. -1.
    10030    2    1    2    0    0  0.00000000000E+00  0.00000000000E+00 -0.18464348559E+02  0.31997669133E+04  0.31997136384E+04 0.  0.
        4    1    3    3  502    0  0.65608585209E+03  0.35603420443E+03  0.14058289222E+04  0.15917178052E+04  0.12699999809E+01 0.  1.
       -4    1    3    3    0  502 -0.65608585209E+03 -0.35603420443E+03 -0.14242932708E+04  0.16080491081E+04  0.12699999809E+01 0. -1.
</event>
<event>
 5   0  0.3656086E-06  0.3198373E+04  0.7818609E-02  0.8189247E-01
       -2   -1    0    0    0  501  0.00000000000E+00  0.00000000000E+00  0.12814066986E+04  0.12814066986E+04  0.25500000920E-02 0. -1.
        2   -1    0    0  501    0  0.00000000000E+00  0.00000000000E+00 -0.19957728967E+04  0.19957728967E+04  0.25500000920E-02 0.  1.
    10030    2    1    2    0    0  0.00000000000E+00  0.00000000000E+00 -0.71436619807E+03  0.32771795954E+04  0.31983725604E+04 0.  0.
        3    1    3    3  502    0  0.26341474711E+03 -0.15300398618E+04  0.35652923803E+02  0.15529586115E+04  0.10100000352E+00 0. -1.
       -3    1    3    3    0  502 -0.26341474711E+03  0.15300398618E+04 -0.75001912188E+03  0.17242209839E+04  0.10100000352E+00 0.  1.
</event>
<event>
 5   0  0.1240725E-06  0.3194063E+04  0.7818609E-02  0.8190387E-01
        1   -1    0    0  501    0  0.00000000000E+00  0.00000000000E+00  0.14721615779E+04  0.14721615779E+04  0.50400001928E-02 0. -1.
       -1   -1    0    0    0  501  0.00000000000E+00  0.00000000000E+00 -0.17324932543E+04  0.17324932543E+04  0.50400001928E-02 0.  1.
    10030    2    1    2    0    0  0.00000000000E+00  0.00000000000E+00 -0.26033167639E+03  0.32046548321E+04  0.31940632447E+04 0.  0.
        3    1    3    3  502    0  0.61840450908E+03 -0.69922070140E+03 -0.14302931801E+04  0.17079438859E+04  0.10100000352E+00 0.  1.
       -3    1    3    3    0  502 -0.61840450908E+03  0.69922070140E+03  0.11699615037E+04  0.14967109462E+04  0.10100000352E+00 0. -1.
</event>
<event>
 5   0  0.3758062E-06  0.2983816E+04  0.7818609E-02  0.8248367E-01
       -2   -1    0    0    0  501  0.00000000000E+00  0.00000000000E+00  0.13292127356E+04  0.13292127356E+04  0.25500000920E-02 0.  1.
        2   -1    0    0  501    0  0.00000000000E+00  0.00000000000E+00 -0.16745174672E+04  0.16745174672E+04  0.25500000920E-02 0. -1.
    10030    2    1    2    0    0  0.00000000000E+00  0.00000000000E+00 -0.34530473157E+03  0.30037302028E+04  0.29838163103E+04 0.  0.
        2    1    3    3  502    0  0.54042719139E+03 -0.63286129115E+03  0.10738421291E+04  0.13585697926E+04  0.25500000920E-02 0.  1.
       -2    1    3    3    0  502 -0.54042719139E+03  0.63286129115E+03 -0.14191468607E+04  0.16451604102E+04  0.25500000920E-02 0. -1.
</event>
<event>
 5   0  0.3656086E-06  0.3300468E+04  0.7818609E-02  0.8162776E-01
       -2   -1    0    0    0  501  0.00000000000E+00  0.00000000000E+00  0.14115333643E+04  0.14115333643E+04  0.25500000920E-02 0. -1.
        2   -1    0    0  501    0  0.00000000000E+00  0.00000000000E+00 -0.19293012359E+04  0.19293012359E+04  0.25500000920E-02 0.  1.
    10030    2    1    2    0    0  0.00000000000E+00  0.00000000000E+00 -0.51776787160E+03  0.33408346002E+04  0.33004684905E+04 0.  0.
        3    1    3    3  502    0 -0.82626287581E+03  0.13908567130E+04  0.70799244032E+02  0.16193224754E+04  0.10100000352E+00 0.  1.
       -3    1    3    3    0  502  0.82626287581E+03 -0.13908567130E+04 -0.58856711563E+03  0.17215121248E+04  0.10100000352E+00 0. -1.
</event>
<event>
 5   0  0.3531437E-06  0.3154408E+04  0.7818609E-02  0.8200963E-01
       -2   -1    0    0    0  501  0.00000000000E+00  0.00000000000E+00  0.12738586680E+04  0.12738586680E+04  0.25500000920E-02 0.  1.
        2   -1    0    0  501    0  0.00000000000E+00  0.00000000000E+00 -0.19527854429E+04  0.19527854429E+04  0.25500000920E-02 0. -1.
    10030    2    1    2    0    0  0.00000000000E+00  0.00000000000E+00 -0.67892677494E+03  0.32266441109E+04  0.31544081303E+04 0.  0.
        1    1    3    3  502    0  0.87506101333E+03 -0.56264329430E+03  0.87312553807E+03  0.13581779924E+04  0.50400001928E-02 0.  1.
       -1    1    3    3    0  502 -0.87506101333E+03  0.56264329430E+03 -0.15520523130E+04  0.18684661185E+04  0.50400001928E-02 0. -1.
</event>
<event>
 5   0  0.1268836E-06  0.3188725E+04  0.7818609E-02  0.8191801E-01
       -1   -1    0    0    0  501  0.00000000000E+00  0.00000000000E+00  0.13984639233E+04  0.13984639233E+04  0.50400001928E-02 0. -1.
        1   -1    0    0  501    0  0.00000000000E+00  0.00000000000E+00 -0.18177029658E+04  0.18177029658E+04  0.50400001928E-02 0.  1.
    10030    2    1    2    0    0  0.00000000000E+00  0.00000000000E+00 -0.41923904247E+03  0.32161668891E+04  0.31887251502E+04 0.  0.
        1    1    3    3  502    0  0.54354437853E+03  0.95235670546E+03 -0.13769771066E+04  0.17602527483E+04  0.50400001928E-02 0.  1.
       -1    1    3    3    0  502 -0.54354437853E+03 -0.95235670546E+03  0.95773806409E+03  0.14559141408E+04  0.50400001928E-02 0. -1.
</event>
<event>
 5   0  0.3656086E-06  0.3208114E+04  0.7818609E-02  0.8186678E-01
       -2   -1    0    0    0  501  0.00000000000E+00  0.00000000000E+00  0.12705043680E+04  0.12705043680E+04  0.25500000920E-02 0.  1.
        2   -1    0    0  501    0  0.00000000000E+00  0.00000000000E+00 -0.20251784637E+04  0.20251784637E+04  0.25500000920E-02 0. -1.
    10030    2    1    2    0    0  0.00000000000E+00  0.00000000000E+00 -0.75467409563E+03  0.32956828317E+04  0.32081135168E+04 0.  0.
        3    1    3    3  502    0 -0.24410658031E+03  0.91996452917E+03  0.94905922588E+03  0.13441116702E+04  0.10100000352E+00 0.  1.
       -3    1    3    3    0  502  0.24410658031E+03 -0.91996452917E+03 -0.17037333215E+04  0.19515711615E+04  0.10100000352E+00 0. -1.
</event>
<event>
 5   0  0.1273980E-06  0.3232152E+04  0.7818609E-02  0.8180377E-01
       -1   -1    0    0    0  501  0.00000000000E+00  0.00000000000E+00  0.95131025601E+03  0.95131025602E+03  0.50400001928E-02 0.  1.
        1   -1    0    0  501    0  0.00000000000E+00  0.00000000000E+00 -0.27453730238E+04  0.27453730238E+04  0.50400001928E-02 0. -1.
    10030    2    1    2    0    0  0.00000000000E+00  0.00000000000E+00 -0.17940627678E+04  0.36966832798E+04  0.32321519235E+04 0.  0.
        4    1    3    3  502    0 -0.67215712254E+03  0.12714969081E+04 -0.17399788010E+04  0.22574382440E+04  0.12699999809E+01 0. -1.
       -4    1    3    3    0  502  0.67215712254E+03 -0.12714969081E+04 -0.54083966818E+02  0.14392450358E+04  0.12699999809E+01 0.  1.
</event>
<event>
 5   0  0.3745943E-06  0.3027938E+04  0.7818609E-02  0.8235798E-01
       -2   -1    0    0    0  501  0.00000000000E+00  0.00000000000E+00  0.12470786417E+04  0.12470786417E+04  0.25500000920E-02 0.  1.
        2   -1    0    0  501    0  0.00000000000E+00  0.00000000000E+00 -0.18379769786E+04  0.18379769786E+04  0.25500000920E-02 0. -1.
    10030    2    1    2    0    0  0.00000000000E+00  0.00000000000E+00 -0.59089833696E+03  0.30850556203E+04  0.30279378025E+04 0.  0.
        5    1    3    3  502    0 -0.73895831470E+03 -0.18349560752E+03  0.10378029464E+04  0.12871624118E+04  0.46999998093E+01 0.  1.
       -5    1    3    3    0  502  0.73895831470E+03  0.18349560752E+03 -0.16287012833E+04  0.17978932085E+04  0.46999998093E+01 0. -1.
</event>
<event>
 5   0  0.1273980E-06  0.3248228E+04  0.7818609E-02  0.8176195E-01
        1   -1    0    0  501    0  0.00000000000E+00  0.00000000000E+00  0.14187880334E+04  0.14187880334E+04  0.50400001928E-02 0.  1.
       -1   -1    0    0    0  501  0.00000000000E+00  0.00000000000E+00 -0.18591542467E+04  0.18591542467E+04  0.50400001928E-02 0. -1.
    10030    2    1    2    0    0  0.00000000000E+00  0.00000000000E+00 -0.44036621330E+03  0.32779422801E+04  0.32482276998E+04 0.  0.
        4    1    3    3  502    0 -0.12843897059E+03 -0.70990687206E+03 -0.16885817293E+04  0.18362391472E+04  0.12699999809E+01 0. -1.
       -4    1    3    3    0  502  0.12843897059E+03  0.70990687206E+03  0.12482155160E+04  0.14417031329E+04  0.12699999809E+01 0.  1.
</event>
<event>
 5   0  0.1240725E-06  0.3211157E+04  0.7818609E-02  0.8185877E-01
        1   -1    0    0  501    0  0.00000000000E+00  0.00000000000E+00  0.18856049623E+04  0.18856049623E+04  0.50400001928E-02 0. -1.
       -1   -1    0    0    0  501  0.00000000000E+00  0.00000000000E+00 -0.13671381150E+04  0.13671381150E+04  0.50400001928E-02 0.  1.
    10030    2    1    2    0    0  0.00000000000E+00  0.00000000000E+00  0.51846684728E+03  0.32527430774E+04  0.32111570587E+04 0.  0.
        3    1    3    3  502    0  0.14859398476E+04 -0.58145018333E+03  0.43981399273E+03  0.16551549489E+04  0.10100000352E+00 0.  1.
       -3    1    3    3    0  502 -0.14859398476E+04  0.58145018333E+03  0.78652854548E+02  0.15975881285E+04  0.10100000352E+00 0. -1.
</event>
<event>
 5   0  0.3531437E-06  0.3183992E+04  0.7818609E-02  0.8193058E-01
       -2   -1    0    0    0  501  0.00000000000E+00  0.00000000000E+00  0.84621199317E+03  0.84621199318E+03  0.25500000920E-02 0. -1.
        2   -1    0    0  501    0  0.00000000000E+00  0.00000000000E+00 -0.29950550278E+04  0.29950550278E+04  0.25500000920E-02 0.  1.
    10030    2    1    2    0    0  0.00000000000E+00  0.00000000000E+00 -0.21488430346E+04  0.38412670210E+04  0.31839921386E+04 0.  0.
        1    1    3    3  502    0 -0.10548625849E+04  0.41441259933E+03 -0.24232409100E+04  0.26751765144E+04  0.50400001928E-02 0.  1.
       -1    1    3    3    0  502  0.10548625849E+04 -0.41441259933E+03  0.27439787535E+03  0.11660905066E+04  0.50400001928E-02 0. -1.
</event>
<event>
 5   0  0.3497546E-06  0.2376324E+04  0.7818609E-02  0.8448421E-01
        2   -1    0    0  501    0  0.00000000000E+00  0.00000000000E+00  0.19898577035E+04  0.19898577035E+04  0.25500000920E-02 0. -1.
       -2   -1    0    0    0  501  0.00000000000E+00  0.00000000000E+00 -0.70946203128E+03  0.70946203128E+03  0.25500000920E-02 0.  1.
    10030    2    1    2    0    0  0.00000000000E+00  0.00000000000E+00  0.12803956722E+04  0.26993197348E+04  0.23763236213E+04 0.  0.
        4    1    3    3  502    0 -0.11033076558E+04 -0.30148004796E+03  0.27466917789E+03  0.11762749564E+04  0.12699999809E+01 0.  1.
       -4    1    3    3    0  502  0.11033076558E+04  0.30148004796E+03  0.10057264943E+04  0.15230447784E+04  0.12699999809E+01 0. -1.
</event>
<event>
 5   0  0.3656086E-06  0.3239172E+04  0.7818609E-02  0.8178548E-01
        2   -1    0    0  501    0  0.00000000000E+00  0.00000000000E+00  0.24937202220E+04  0.24937202220E+04  0.25500000920E-02 0. -1.
       -2   -1    0    0    0  501  0.00000000000E+00  0.00000000000E+00 -0.10518655189E+04  0.10518655189E+04  0.25500000920E-02 0.  1.
    10030    2    1    2    0    0  0.00000000000E+00  0.00000000000E+00  0.14418547031E+04  0.35455857409E+04  0.32391716937E+04 0.  0.
        3    1    3    3  502    0  0.14321495169E+03 -0.41179457499E+03  0.24282777852E+04  0.24671072750E+04  0.10100000352E+00 0. -1.
       -3    1    3    3    0  502 -0.14321495169E+03  0.41179457499E+03 -0.98642308204E+03  0.10784784659E+04  0.10100000352E+00 0.  1.
</event>
<event>
 5   0  0.1273980E-06  0.3274353E+04  0.7818609E-02  0.8169452E-01
       -1   -1    0    0    0  501  0.00000000000E+00  0.00000000000E+00  0.95875538806E+03  0.95875538808E+03  0.50400001928E-02 0. -1.
        1   -1    0    0  501    0  0.00000000000E+00  0.00000000000E+00 -0.27956517514E+04  0.27956517514E+04  0.50400001928E-02 0.  1.
    10030    2    1    2    0    0  0.00000000000E+00  0.00000000000E+00 -0.18368963633E+04  0.37544071395E+04  0.32743525649E+04 0.  0.
        4    1    3    3  502    0 -0.60397617129E+03 -0.11711220451E+04 -0.20325091055E+04  0.24222735058E+04  0.12699999809E+01 0.  1.
       -4    1    3    3    0  502  0.60397617129E+03  0.11711220451E+04  0.19561274219E+03  0.13321336336E+04  0.12699999809E+01 0. -1.
</event>
<event>
 5   0  0.1273754E-06  0.3159204E+04  0.7818609E-02  0.8199675E-01
       -1   -1    0    0    0  501  0.00000000000E+00  0.00000000000E+00  0.20209763863E+04  0.20209763863E+04  0.50400001928E-02 0.  1.
        1   -1    0    0  501    0  0.00000000000E+00  0.00000000000E+00 -0.12346219003E+04  0.12346219003E+04  0.50400001928E-02 0. -1.
    10030    2    1    2    0    0  0.00000000000E+00  0.00000000000E+00  0.78635448600E+03  0.32555982867E+04  0.31592035114E+04 0.  0.
        2    1    3    3  502    0 -0.78964585438E+03  0.10404648793E+04  0.13085564799E+04  0.18488990783E+04  0.25500000920E-02 0.  1.
       -2    1    3    3    0  502  0.78964585438E+03 -0.10404648793E+04 -0.52220199391E+03  0.14066992084E+04  0.25500000920E-02 0. -1.
</event>
<event>
 5   0  0.3745943E-06  0.3164444E+04  0.7818609E-02  0.8198271E-01
       -2   -1    0    0    0  501  0.00000000000E+00  0.00000000000E+00  0.19496652042E+04  0.19496652042E+04  0.25500000920E-02 0.  1.
        2   -1    0    0  501    0  0.00000000000E+00  0.00000000000E+00 -0.12840289484E+04  0.12840289484E+04  0.25500000920E-02 0. -1.
    10030    2    1    2    0    0  0.00000000000E+00  0.00000000000E+00  0.66563625575E+03  0.32336941526E+04  0.31644440661E+04 0.  0.
        5    1    3    3  502    0  0.73380351112E+03 -0.82914847148E+03  0.14877953531E+04  0.18545921070E+04  0.46999998093E+01 0.  1.
       -5    1    3    3    0  502 -0.73380351112E+03  0.82914847148E+03 -0.82215909736E+03  0.13791020456E+04  0.46999998093E+01 0. -1.
</event>
<event>
 5   0  0.1268836E-06  0.3222553E+04  0.7818609E-02  0.8182886E-01
       -1   -1    0    0    0  501  0.00000000000E+00  0.00000000000E+00  0.15445785617E+04  0.15445785617E+04  0.50400001928E-02 0.  1.
        1   -1    0    0  501    0  0.00000000000E+00  0.00000000000E+00 -0.16808546689E+04  0.16808546689E+04  0.50400001928E-02 0. -1.
    10030    2    1    2    0    0  0.00000000000E+00  0.00000000000E+00 -0.13627610715E+03  0.32254332306E+04  0.32225530791E+04 0.  0.
        1    1    3    3  502    0  0.32133008616E+03 -0.91354167543E+03 -0.13570780756E+04  0.16671749519E+04  0.50400001928E-02 0. -1.
       -1    1    3    3    0  502 -0.32133008616E+03  0.91354167543E+03  0.12208019684E+04  0.15582582787E+04  0.50400001928E-02 0.  1.
</event>
<event>
 5   0  0.3656086E-06  0.2469122E+04  0.7818609E-02  0.8414069E-01
       -2   -1    0    0    0  501  0.00000000000E+00  0.00000000000E+00  0.94381867417E+03  0.94381867417E+03  0.25500000920E-02 0.  1.
        2   -1    0    0  501    0  0.00000000000E+00  0.00000000000E+00 -0.16148661145E+04  0.16148661145E+04  0.25500000920E-02 0. -1.
    10030    2    1    2    0    0  0.00000000000E+00  0.00000000000E+00 -0.67104744034E+03  0.25586847887E+04  0.24691219453E+04 0.  0.
        3    1    3    3  502    0  0.11793627229E+04 -0.24381304279E+03 -0.61703844326E+03  0.13531731902E+04  0.10100000352E+00 0.  1.
       -3    1    3    3    0  502 -0.11793627229E+04  0.24381304279E+03 -0.54008997082E+02  0.12055115985E+04  0.10100000352E+00 0. -1.
</event>
<event>
 5   0  0.1273754E-06  0.3096798E+04  0.7818609E-02  0.8216617E-01
        1   -1    0    0  501    0  0.00000000000E+00  0.00000000000E+00  0.22745003754E+04  0.22745003754E+04  0.50400001928E-02 0.  1.
       -1   -1    0    0    0  501  0.00000000000E+00  0.00000000000E+00 -0.10540948971E+04  0.10540948971E+04  0.50400001928E-02 0. -1.
    10030    2    1    2    0    0  0.00000000000E+00  0.00000000000E+00  0.12204054783E+04  0.33285952724E+04  0.30967978552E+04 0.  0.
        2    1    3    3  502    0 -0.85624452415E+03  0.92689773989E+03  0.15747248523E+04  0.20179327208E+04  0.25500000920E-02 0.  1.
       -2    1    3    3    0  502  0.85624452415E+03 -0.92689773989E+03 -0.35431937400E+03  0.13106625516E+04  0.25500000920E-02 0. -1.
</event>
<event>
 5   0  0.1273980E-06  0.3237551E+04  0.7818609E-02  0.8178970E-01
        1   -1    0    0  501    0  0.00000000000E+00  0.00000000000E+00  0.20717653106E+04  0.20717653106E+04  0.50400001928E-02 0. -1.
       -1   -1    0    0    0  501  0.00000000000E+00  0.00000000000E+00 -0.12648312508E+04  0.12648312508E+04  0.50400001928E-02 0.  1.
    10030    2    1    2    0    0  0.00000000000E+00  0.00000000000E+00  0.80693405977E+03  0.33365965614E+04  0.32375506230E+04 0.  0.
        4    1    3    3  502    0  0.27937862711E+03 -0.15943262275E+04  0.38034499130E+03  0.16627063669E+04  0.12699999809E+01 0. -1.
       -4    1    3    3    0  502 -0.27937862711E+03  0.15943262275E+04  0.42658906847E+03  0.16738901945E+04  0.12699999809E+01 0.  1.
</event>
<event>
 5   0  0.1185575E-06  0.3213615E+04  0.7818609E-02  0.8185231E-01
        3   -1    0    0  501    0  0.00000000000E+00  0.00000000000E+00  0.21671878378E+04  0.21671878402E+04  0.10100000352E+00 0. -1.
       -3   -1    0    0    0  501  0.00000000000E+00  0.00000000000E+00 -0.11913276344E+04  0.11913276387E+04  0.10100000352E+00 0.  1.
    10030    2    1    2    0    0  0.00000000000E+00  0.00000000000E+00  0.97586020346E+03  0.33585154789E+04  0.32136152671E+04 0.  0.
        4    1    3    3  502    0  0.11653713364E+04 -0.44133192139E+03 -0.57218680649E+03  0.13712270311E+04  0.12699999809E+01 0.  1.
       -4    1    3    3    0  502 -0.11653713364E+04  0.44133192139E+03  0.15480470099E+04  0.19872884477E+04  0.12699999809E+01 0. -1.
</event>
<event>
 5   0  0.3497546E-06  0.2849225E+04  0.7818609E-02  0.8288147E-01
       -2   -1    0    0    0  501  0.00000000000E+00  0.00000000000E+00  0.15093029541E+04  0.15093029541E+04  0.25500000920E-02 0.  1.
        2   -1    0    0  501    0  0.00000000000E+00  0.00000000000E+00 -0.13446741912E+04  0.13446741912E+04  0.25500000920E-02 0. -1.
    10030    2    1    2    0    0  0.00000000000E+00  0.00000000000E+00  0.16462876288E+03  0.28539771453E+04  0.28492249676E+04 0.  0.
        4    1    3    3  502    0 -0.58356523327E+03  0.11218167163E+03  0.13792271412E+04  0.15017996634E+04  0.12699999809E+01 0.  1.
       -4    1    3    3    0  502  0.58356523327E+03 -0.11218167163E+03 -0.12145983784E+04  0.13521774819E+04  0.12699999809E+01 0. -1.
</event>
<event>
 5   0  0.1306843E-06  0.3156096E+04  0.7818609E-02  0.8200509E-01
        1   -1    0    0  501    0  0.00000000000E+00  0.00000000000E+00  0.12025710774E+04  0.12025710774E+04  0.50400001928E-02 0. -1.
       -1   -1    0    0    0  501  0.00000000000E+00  0.00000000000E+00 -0.20707591451E+04  0.20707591451E+04  0.50400001928E-02 0.  1.
    10030    2    1    2    0    0  0.00000000000E+00  0.00000000000E+00 -0.86818806773E+03  0.32733302226E+04  0.31560957249E+04 0.  0.
        5    1    3    3  502    0 -0.71253250062E+02  0.15383187702E+04 -0.76750698192E+02  0.15418866444E+04  0.46999998093E+01 0. -1.
       -5    1    3    3    0  502  0.71253250062E+02 -0.15383187702E+04 -0.79143736953E+03  0.17314435782E+04  0.46999998093E+01 0.  1.
</event>
<event>
 5   0  0.3758062E-06  0.3177034E+04  0.7818609E-02  0.8194909E-01
        2   -1    0    0  501    0  0.00000000000E+00  0.00000000000E+00  0.16504089464E+04  0.16504089464E+04  0.25500000920E-02 0. -1.
       -2   -1    0    0    0  501  0.00000000000E+00  0.00000000000E+00 -0.15289458105E+04  0.15289458105E+04  0.25500000920E-02 0.  1.
    10030    2    1    2    0    0  0.00000000000E+00  0.00000000000E+00  0.12146313585E+03  0.31793547569E+04  0.31770337387E+04 0.  0.
        2    1    3    3  502    0  0.78362297129E+03  0.13395040629E+04 -0.27870607237E+03  0.15767096025E+04  0.25500000920E-02 0.  1.
       -2    1    3    3    0  502 -0.78362297129E+03 -0.13395040629E+04  0.40016920822E+03  0.16026451544E+04  0.25500000920E-02 0. -1.
</event>
<event>
 5   0  0.1273980E-06  0.3238221E+04  0.7818609E-02  0.8178796E-01
       -1   -1    0    0    0  501  0.00000000000E+00  0.00000000000E+00  0.17875893444E+04  0.17875893444E+04  0.50400001928E-02 0. -1.
        1   -1    0    0  501    0  0.00000000000E+00  0.00000000000E+00 -0.14665102595E+04  0.14665102595E+04  0.50400001928E-02 0.  1.
    10030    2    1    2    0    0  0.00000000000E+00  0.00000000000E+00  0.32107908485E+03  0.32540996039E+04  0.32382205690E+04 0.  0.
        4    1    3    3  502    0  0.25879105075E+03 -0.13680564151E+04 -0.66993007065E+03  0.15451081112E+04  0.12699999809E+01 0.  1.
       -4    1    3    3    0  502 -0.25879105075E+03  0.13680564151E+04  0.99100915550E+03  0.17089914927E+04  0.12699999809E+01 0. -1.
</event>
<event>
 5   0  0.1268836E-06  0.3246263E+04  0.7818609E-02  0.8176705E-01
        1   -1    0    0  501    0  0.00000000000E+00  0.00000000000E+00  0.16817832128E+04  0.16817832128E+04  0.50400001928E-02 0. -1.
       -1   -1    0    0    0  501  0.00000000000E+00  0.00000000000E+00 -0.15665255737E+04  0.15665255737E+04  0.50400001928E-02 0.  1.
    10030    2    1    2    0    0  0.00000000000E+00  0.00000000000E+00  0.11525763908E+03  0.32483087866E+04  0.32462633365E+04 0.  0.
        1    1    3    3  502    0  0.93360952193E+03  0.10169790895E+04  0.91179611643E+03  0.16544622589E+04  0.50400001928E-02 0. -1.
       -1    1    3    3    0  502 -0.93360952193E+03 -0.10169790895E+04 -0.79653847735E+03  0.15938465277E+04  0.50400001928E-02 0.  1.
</event>
<event>
 5   0  0.3758062E-06  0.3095075E+04  0.7818609E-02  0.8217091E-01
       -2   -1    0    0    0  501  0.00000000000E+00  0.00000000000E+00  0.14890490679E+04  0.14890490679E+04  0.25500000920E-02 0. -1.
        2   -1    0    0  501    0  0.00000000000E+00  0.00000000000E+00 -0.16083235186E+04  0.16083235186E+04  0.25500000920E-02 0.  1.
    10030    2    1    2    0    0  0.00000000000E+00  0.00000000000E+00 -0.11927445070E+03  0.30973725865E+04  0.30950752083E+04 0.  0.
        2    1    3    3  502    0  0.10047300744E+04  0.67684719403E+03 -0.10232995444E+04  0.15857952592E+04  0.25500000920E-02 0.  1.
       -2    1    3    3    0  502 -0.10047300744E+04 -0.67684719403E+03  0.90402509365E+03  0.15115773273E+04  0.25500000920E-02 0. -1.
</event>
<event>
 5   0  0.3531437E-06  0.2577324E+04  0.7818609E-02  0.8375945E-01
        2   -1    0    0  501    0  0.00000000000E+00  0.00000000000E+00  0.13841526697E+04  0.13841526697E+04  0.25500000920E-02 0.  1.
       -2   -1    0    0    0  501  0.00000000000E+00  0.00000000000E+00 -0.11997588091E+04  0.11997588091E+04  0.25500000920E-02 0. -1.
    10030    2    1    2    0    0  0.00000000000E+00  0.00000000000E+00  0.18439386064E+03  0.25839114788E+04  0.25773236961E+04 0.  0.
        1    1    3    3  502    0 -0.13976239442E+02  0.28979429925E+03 -0.11665892683E+04  0.12021258637E+04  0.50400001928E-02 0. -1.
       -1    1    3    3    0  502  0.13976239442E+02 -0.28979429925E+03  0.13509831290E+04  0.13817856151E+04  0.50400001928E-02 0.  1.
</event>
<event>
 5   0  0.1273754E-06  0.2881291E+04  0.7818609E-02  0.8278466E-01
       -1   -1    0    0    0  501  0.00000000000E+00  0.00000000000E+00  0.12936560547E+04  0.12936560547E+04  0.50400001928E-02 0. -1.
        1   -1    0    0  501    0  0.00000000000E+00  0.00000000000E+00 -0.16043369063E+04  0.16043369063E+04  0.50400001928E-02 0.  1.
    10030    2    1    2    0    0  0.00000000000E+00  0.00000000000E+00 -0.31068085168E+03  0.28979929610E+04  0.28812914831E+04 0.  0.
        2    1    3    3  502    0  0.90082588759E+03  0.98898436360E+03 -0.69311980490E+03  0.15066494002E+04  0.25500000920E-02 0.  1.
       -2    1    3    3    0  502 -0.90082588759E+03 -0.98898436360E+03  0.38243895323E+03  0.13913435608E+04  0.25500000920E-02 0. -1.
</event>
<event>
 5   0  0.1268836E-06  0.2774193E+04  0.7818609E-02  0.8311325E-01
       -1   -1    0    0    0  501  0.00000000000E+00  0.00000000000E+00  0.19142489557E+04  0.19142489557E+04  0.50400001928E-02 0.  1.
        1   -1    0    0  501    0  0.00000000000E+00  0.00000000000E+00 -0.10051131210E+04  0.10051131211E+04  0.50400001928E-02 0. -1.
    10030    2    1    2    0    0  0.00000000000E+00  0.00000000000E+00  0.90913583466E+03  0.29193620768E+04  0.27741930303E+04 0.  0.
        1    1    3    3  502    0  0.11884123122E+04 -0.49118781589E+03 -0.92690852183E+02  0.12892559437E+04  0.50400001928E-02 0. -1.
       -1    1    3    3    0  502 -0.11884123122E+04  0.49118781589E+03  0.10018266868E+04  0.16301061330E+04  0.50400001928E-02 0.  1.
</event>
<event>
 5   0  0.1268836E-06  0.3210116E+04  0.7818609E-02  0.8186151E-01
        1   -1    0    0  501    0  0.00000000000E+00  0.00000000000E+00  0.23436442865E+04  0.23436442865E+04  0.50400001928E-02 0.  1.
       -1   -1    0    0    0  501  0.00000000000E+00  0.00000000000E+00 -0.10992330106E+04  0.10992330106E+04  0.50400001928E-02 0. -1.
    10030    2    1    2    0    0  0.00000000000E+00  0.00000000000E+00  0.12444112759E+04  0.34428772971E+04  0.32101159885E+04 0.  0.
        1    1    3    3  502    0  0.10114401060E+03 -0.15236312778E+04  0.11525595952E+04  0.19131325103E+04  0.50400001928E-02 0. -1.
       -1    1    3    3    0  502 -0.10114401060E+03  0.15236312778E+04  0.91851680673E+02  0.15297447868E+04  0.50400001928E-02 0.  1.
</event>
<event>
 5   0  0.3497546E-06  0.3183669E+04  0.7818609E-02  0.8193143E-01
        2   -1    0    0  501    0  0.00000000000E+00  0.00000000000E+00  0.10898958126E+04  0.10898958126E+04  0.25500000920E-02 0.  1.
       -2   -1    0    0    0  501  0.00000000000E+00  0.00000000000E+00 -0.23249351792E+04  0.23249351792E+04  0.25500000920E-02 0. -1.
    10030    2    1    2    0    0  0.00000000000E+00  0.00000000000E+00 -0.12350393666E+04  0.34148309919E+04  0.31836690258E+04 0.  0.
        4    1    3    3  502    0  0.93337178216E+03 -0.13686621356E+03  0.75777221514E+03  0.12100147053E+04  0.12699999809E+01 0.  1.
       -4    1    3    3    0  502 -0.93337178216E+03  0.13686621356E+03 -0.19928115818E+04  0.22048162865E+04  0.12699999809E+01 0. -1.
</event>
<event>
 5   0  0.1240725E-06  0.3160250E+04  0.7818609E-02  0.8199395E-01
       -1   -1    0    0    0  501  0.00000000000E+00  0.00000000000E+00  0.14433135498E+04  0.14433135498E+04  0.50400001928E-02 0.  1.
        1   -1    0    0  501    0  0.00000000000E+00  0.00000000000E+00 -0.17299052213E+04  0.17299052213E+04  0.50400001928E-02 0. -1.
    10030    2    1    2    0    0  0.00000000000E+00  0.00000000000E+00 -0.28659167155E+03  0.31732187711E+04  0.31602503988E+04 0.  0.
        3    1    3    3  502    0  0.44137374341E+03 -0.70246817185E+03  0.12070362172E+04  0.14646531171E+04  0.10100000352E+00 0.  1.
       -3    1    3    3    0  502 -0.44137374341E+03  0.70246817185E+03 -0.14936278887E+04  0.17085656540E+04  0.10100000352E+00 0. -1.
</event>
<event>
 5   0  0.1268836E-06  0.2440869E+04  0.7818609E-02  0.8424360E-01
        1   -1    0    0  501    0  0.00000000000E+00  0.00000000000E+00  0.12412963848E+04  0.12412963848E+04  0.50400001928E-02 0. -1.
       -1   -1    0    0    0  501  0.00000000000E+00  0.00000000000E+00 -0.11999229344E+04  0.11999229344E+04  0.50400001928E-02 0.  1.
    10030    2    1    2    0    0  0.00000000000E+00  0.00000000000E+00  0.41373450486E+02  0.24412193192E+04  0.24408686982E+04 0.  0.
        1    1    3    3  502    0  0.56751009377E+02  0.15818799213E+03 -0.11882945435E+04  0.12001200107E+04  0.50400001928E-02 0.  1.
       -1    1    3    3    0  502 -0.56751009377E+02 -0.15818799213E+03  0.12296679940E+04  0.12410993085E+04  0.50400001928E-02 0. -1.
</event>
<event>
 5   0  0.1268836E-06  0.3194323E+04  0.7818609E-02  0.8190318E-01
        1   -1    0    0  501    0  0.00000000000E+00  0.00000000000E+00  0.10097986018E+04  0.10097986018E+04  0.50400001928E-02 0.  1.
       -1   -1    0    0    0  501  0.00000000000E+00  0.00000000000E+00 -0.25261725003E+04  0.25261725003E+04  0.50400001928E-02 0. -1.
    10030    2    1    2    0    0  0.00000000000E+00  0.00000000000E+00 -0.15163738986E+04  0.35359711021E+04  0.31943233767E+04 0.  0.
        1    1    3    3  502    0  0.28682839746E+03  0.34583148552E+03  0.93840134948E+03  0.10404167620E+04  0.50400001928E-02 0.  1.
       -1    1    3    3    0  502 -0.28682839746E+03 -0.34583148552E+03 -0.24547752480E+04  0.24955543401E+04  0.50400001928E-02 0. -1.
</event>
<event>
 5   0  0.3497546E-06  0.3176915E+04  0.7818609E-02  0.8194941E-01
       -2   -1    0    0    0  501  0.00000000000E+00  0.00000000000E+00  0.97445368846E+03  0.97445368846E+03  0.25500000920E-02 0. -1.
        2   -1    0    0  501    0  0.00000000000E+00  0.00000000000E+00 -0.25893452337E+04  0.25893452337E+04  0.25500000920E-02 0.  1.
    10030    2    1    2    0    0  0.00000000000E+00  0.00000000000E+00 -0.16148915452E+04  0.35637989221E+04  0.31769148642E+04 0.  0.
        4    1    3    3  502    0 -0.78306352824E+03 -0.53649831783E+03 -0.22361971557E+04  0.24293205359E+04  0.12699999809E+01 0.  1.
       -4    1    3    3    0  502  0.78306352824E+03  0.53649831783E+03  0.62130561046E+03  0.11344783862E+04  0.12699999809E+01 0. -1.
</event>
<event>
 5   0  0.3656086E-06  0.3261066E+04  0.7818609E-02  0.8172873E-01
        2   -1    0    0  501    0  0.00000000000E+00  0.00000000000E+00  0.13018842980E+04  0.13018842980E+04  0.25500000920E-02 0. -1.
       -2   -1    0    0    0  501  0.00000000000E+00  0.00000000000E+00 -0.20421466153E+04  0.20421466153E+04  0.25500000920E-02 0.  1.
    10030    2    1    2    0    0  0.00000000000E+00  0.00000000000E+00 -0.74026231724E+03  0.33440309133E+04  0.32610664591E+04 0.  0.
        3    1    3    3  502    0 -0.96344674141E+03 -0.12007268777E+04  0.18081213945E+03  0.15500540953E+04  0.10100000352E+00 0. -1.
       -3    1    3    3    0  502  0.96344674141E+03  0.12007268777E+04 -0.92107445670E+03  0.17939768180E+04  0.10100000352E+00 0.  1.
</event>
<event>
 5   0  0.3745943E-06  0.3220766E+04  0.7818609E-02  0.8183354E-01
       -2   -1    0    0    0  501  0.00000000000E+00  0.00000000000E+00  0.11927976029E+04  0.11927976029E+04  0.25500000920E-02 0. -1.
        2   -1    0    0  501    0  0.00000000000E+00  0.00000000000E+00 -0.21741604686E+04  0.21741604686E+04  0.25500000920E-02 0.  1.
    10030    2    1    2    0    0  0.00000000000E+00  0.00000000000E+00 -0.98136286563E+03  0.33669580715E+04  0.32207659929E+04 0.  0.
        5    1    3    3  502    0 -0.15243686684E+04 -0.26810580956E+03 -0.25828435885E+02  0.15479889407E+04  0.46999998093E+01 0. -1.
       -5    1    3    3    0  502  0.15243686684E+04  0.26810580956E+03 -0.95553442974E+03  0.18189691308E+04  0.46999998093E+01 0.  1.
</event>
<event>
 5   0  0.3656086E-06  0.3187015E+04  0.7818609E-02  0.8192255E-01
       -2   -1    0    0    0  501  0.00000000000E+00  0.00000000000E+00  0.20776390251E+04  0.20776390251E+04  0.25500000920E-02 0.  1.
        2   -1    0    0  501    0  0.00000000000E+00  0.00000000000E+00 -0.12221886490E+04  0.12221886490E+04  0.25500000920E-02 0. -1.
    10030    2    1    2    0    0  0.00000000000E+00  0.00000000000E+00  0.85545037610E+03  0.32998276741E+04  0.31870154271E+04 0.  0.
        3    1    3    3  502    0  0.14204900640E+04 -0.67171914445E+03  0.70218988050E+03  0.17210663176E+04  0.10100000352E+00 0. -1.
       -3    1    3    3    0  502 -0.14204900640E+04  0.67171914445E+03  0.15326049559E+03  0.15787613565E+04  0.10100000352E+00 0.  1.
</event>
<event>
 5   0  0.1306843E-06  0.3252585E+04  0.7818609E-02  0.8175066E-01
        1   -1    0    0  501    0  0.00000000000E+00  0.00000000000E+00  0.16237739784E+04  0.16237739785E+04  0.50400001928E-02 0.  1.
       -1   -1    0    0    0  501  0.00000000000E+00  0.00000000000E+00 -0.16288148476E+04  0.16288148476E+04  0.50400001928E-02 0. -1.
    10030    2    1    2    0    0  0.00000000000E+00  0.00000000000E+00 -0.50408691727E+01  0.32525888261E+04  0.32525849199E+04 0.  0.
        5    1    3    3  502    0  0.45719835113E+03 -0.11162536028E+03 -0.15592221859E+04  0.16287069928E+04  0.46999998093E+01 0. -1.
       -5    1    3    3    0  502 -0.45719835113E+03  0.11162536028E+03  0.15541813167E+04  0.16238818333E+04  0.46999998093E+01 0.  1.
</event>
<event>
 5   0  0.3745943E-06  0.3206771E+04  0.7818609E-02  0.8187031E-01
       -2   -1    0    0    0  501  0.00000000000E+00  0.00000000000E+00  0.18413712138E+04  0.18413712138E+04  0.25500000920E-02 0. -1.
        2   -1    0    0  501    0  0.00000000000E+00  0.00000000000E+00 -0.13961577134E+04  0.13961577134E+04  0.25500000920E-02 0.  1.
    10030    2    1    2    0    0  0.00000000000E+00  0.00000000000E+00  0.44521350041E+03  0.32375289272E+04  0.32067707267E+04 0.  0.
        5    1    3    3  502    0  0.66090341797E+03 -0.11540777026E+04 -0.68160297184E+03  0.14944207482E+04  0.46999998093E+01 0.  1.
       -5    1    3    3    0  502 -0.66090341797E+03  0.11540777026E+04  0.11268164723E+04  0.17431081790E+04  0.46999998093E+01 0. -1.
</event>
<event>
 5   0  0.3758062E-06  0.3138965E+04  0.7818609E-02  0.8205125E-01
        2   -1    0    0  501    0  0.00000000000E+00  0.00000000000E+00  0.20508700910E+04  0.20508700910E+04  0.25500000920E-02 0. -1.
       -2   -1    0    0    0  501  0.00000000000E+00  0.00000000000E+00 -0.12010878345E+04  0.12010878345E+04  0.25500000920E-02 0.  1.
    10030    2    1    2    0    0  0.00000000000E+00  0.00000000000E+00  0.84978225647E+03  0.32519579255E+04  0.31389648717E+04 0.  0.
        2    1    3    3  502    0  0.98138305615E+03  0.11096287734E+04 -0.11231737668E+03  0.14855988391E+04  0.25500000920E-02 0.  1.
       -2    1    3    3    0  502 -0.98138305615E+03 -0.11096287734E+04  0.96209963314E+03  0.17663590863E+04  0.25500000920E-02 0. -1.
</event>
<event>
 5   0  0.3745943E-06  0.3167632E+04  0.7818609E-02  0.8197418E-01
        2   -1    0    0  501    0  0.00000000000E+00  0.00000000000E+00  0.13138639720E+04  0.13138639720E+04  0.25500000920E-02 0.  1.
       -2   -1    0    0    0  501  0.00000000000E+00  0.00000000000E+00 -0.19092331392E+04  0.19092331392E+04  0.25500000920E-02 0. -1.
    10030    2    1    2    0    0  0.00000000000E+00  0.00000000000E+00 -0.59536916719E+03  0.32230971113E+04  0.31676316931E+04 0.  0.
        5    1    3    3  502    0 -0.53591433713E+03  0.28444678096E+02 -0.18138897267E+04  0.18916213434E+04  0.46999998093E+01 0. -1.
       -5    1    3    3    0  502  0.53591433713E+03 -0.28444678096E+02  0.12185205595E+04  0.13314757678E+04  0.46999998093E+01 0.  1.
</event>
<event>
 5   0  0.1268836E-06  0.3175370E+04  0.7818609E-02  0.8195352E-01
        1   -1    0    0  501    0  0.00000000000E+00  0.00000000000E+00  0.30739089557E+04  0.30739089557E+04  0.50400001928E-02 0. -1.
       -1   -1    0    0    0  501  0.00000000000E+00  0.00000000000E+00 -0.82004510293E+03  0.82004510294E+03  0.50400001928E-02 0.  1.
    10030    2    1    2    0    0  0.00000000000E+00  0.00000000000E+00  0.22538638527E+04  0.38939540586E+04  0.31753702058E+04 0.  0.
        1    1    3    3  502    0  0.25667208393E+03  0.79632691845E+03  0.27816303689E+04  0.29047348638E+04  0.50400001928E-02 0. -1.
       -1    1    3    3    0  502 -0.25667208393E+03 -0.79632691845E+03 -0.52776651618E+03  0.98921919480E+03  0.50400001928E-02 0.  1.
</event>
<event>
 5   0  0.3758062E-06  0.3162334E+04  0.7818609E-02  0.8198836E-01
        2   -1    0    0  501    0  0.00000000000E+00  0.00000000000E+00  0.28025975429E+04  0.28025975429E+04  0.25500000920E-02 0. -1.
       -2   -1    0    0    0  501  0.00000000000E+00  0.00000000000E+00 -0.89206143823E+03  0.89206143824E+03  0.25500000920E-02 0.  1.
    10030    2    1    2    0    0  0.00000000000E+00  0.00000000000E+00  0.19105361047E+04  0.36946589811E+04  0.31623340715E+04 0.  0.
        2    1    3    3  502    0 -0.52895602453E+02 -0.15073308691E+04  0.40077757000E+03  0.15605982681E+04  0.25500000920E-02 0.  1.
       -2    1    3    3    0  502  0.52895602453E+02  0.15073308691E+04  0.15097585347E+04  0.21340607130E+04  0.25500000920E-02 0. -1.
</event>
<event>
 5   0  0.1306843E-06  0.2525999E+04  0.7818609E-02  0.8393781E-01
       -1   -1    0    0    0  501  0.00000000000E+00  0.00000000000E+00  0.14524077061E+04  0.14524077061E+04  0.50400001928E-02 0.  1.
        1   -1    0    0  501    0  0.00000000000E+00  0.00000000000E+00 -0.10982917244E+04  0.10982917244E+04  0.50400001928E-02 0. -1.
    10030    2    1    2    0    0  0.00000000000E+00  0.00000000000E+00  0.35411598168E+03  0.25506994305E+04  0.25259987047E+04 0.  0.
        5    1    3    3  502    0 -0.70925799287E+03 -0.32307783855E+03  0.11806169309E+04  0.14146747392E+04  0.46999998093E+01 0.  1.
       -5    1    3    3    0  502  0.70925799287E+03  0.32307783855E+03 -0.82650094919E+03  0.11360246913E+04  0.46999998093E+01 0. -1.
</event>
<event>
 5   0  0.1240725E-06  0.3207038E+04  0.7818609E-02  0.8186961E-01
        1   -1    0    0  501    0  0.00000000000E+00  0.00000000000E+00  0.14874393212E+04  0.14874393212E+04  0.50400001928E-02 0.  1.
       -1   -1    0    0    0  501  0.00000000000E+00  0.00000000000E+00 -0.17286572958E+04  0.17286572958E+04  0.50400001928E-02 0. -1.
    10030    2    1    2    0    0  0.00000000000E+00  0.00000000000E+00 -0.24121797466E+03  0.32160966170E+04  0.32070377825E+04 0.  0.
        3    1    3    3  502    0  0.52910751285E+03  0.18956826050E+03 -0.16266439700E+04  0.17210059561E+04  0.10100000352E+00 0. -1.
       -3    1    3    3    0  502 -0.52910751285E+03 -0.18956826050E+03  0.13854259954E+04  0.14950906609E+04  0.10100000352E+00 0.  1.
</event>
<event>
 5   0  0.3497546E-06  0.2876573E+04  0.7818609E-02  0.8279882E-01
        2   -1    0    0  501    0  0.00000000000E+00  0.00000000000E+00  0.21893270345E+04  0.21893270345E+04  0.25500000920E-02 0.  1.
       -2   -1    0    0    0  501  0.00000000000E+00  0.00000000000E+00 -0.94488755132E+03  0.94488755132E+03  0.25500000920E-02 0. -1.
    10030    2    1    2    0    0  0.00000000000E+00  0.00000000000E+00  0.12444394831E+04  0.31342145858E+04  0.28765728641E+04 0.  0.
        4    1    3    3  502    0  0.38159016108E+03 -0.89817112484E+03  0.17734238630E+04  0.20241927357E+04  0.12699999809E+01 0.  1.
       -4    1    3    3    0  502 -0.38159016108E+03  0.89817112484E+03 -0.52898437988E+03  0.11100218501E+04  0.12699999809E+01 0. -1.
</event>
<event>
 5   0  0.1306843E-06  0.3257228E+04  0.7818609E-02  0.8173865E-01
        1   -1    0    0  501    0  0.00000000000E+00  0.00000000000E+00  0.18609605298E+04  0.18609605298E+04  0.50400001928E-02 0. -1.
       -1   -1    0    0    0  501  0.00000000000E+00  0.00000000000E+00 -0.14252762181E+04  0.14252762181E+04  0.50400001928E-02 0.  1.
    10030    2    1    2    0    0  0.00000000000E+00  0.00000000000E+00  0.43568431169E+03  0.32862367480E+04  0.32572275242E+04 0.  0.
        5    1    3    3  502    0  0.78553379218E+03 -0.11044947345E+04  0.11288730536E+04  0.17639014764E+04  0.46999998093E+01 0. -1.
       -5    1    3    3    0  502 -0.78553379218E+03  0.11044947345E+04 -0.69318874195E+03  0.15223352716E+04  0.46999998093E+01 0.  1.
</event>
<event>
 5   0  0.1268836E-06  0.3310338E+04  0.7818609E-02  0.8160270E-01
        1   -1    0    0  501    0  0.00000000000E+00  0.00000000000E+00  0.19832198642E+04  0.19832198642E+04  0.50400001928E-02 0. -1.
       -1   -1    0    0    0  501  0.00000000000E+00  0.00000000000E+00 -0.13813821719E+04  0.13813821719E+04  0.50400001928E-02 0.  1.
    10030    2    1    2    0    0  0.00000000000E+00  0.00000000000E+00  0.60183769236E+03  0.33646020361E+04  0.33103380875E+04 0.  0.
        1    1    3    3  502    0 -0.25403652583E+03 -0.10891646886E+04 -0.93923395601E+03  0.14604707116E+04  0.50400001928E-02 0.  1.
       -1    1    3    3    0  502  0.25403652583E+03  0.10891646886E+04  0.15410716484E+04  0.19041313245E+04  0.50400001928E-02 0. -1.
</event>
<event>
 5   0  0.1240725E-06  0.3266643E+04  0.7818609E-02  0.8171435E-01
        1   -1    0    0  501    0  0.00000000000E+00  0.00000000000E+00  0.87615734688E+03  0.87615734690E+03  0.50400001928E-02 0.  1.
       -1   -1    0    0    0  501  0.00000000000E+00  0.00000000000E+00 -0.30448172916E+04  0.30448172916E+04  0.50400001928E-02 0. -1.
    10030    2    1    2    0    0  0.00000000000E+00  0.00000000000E+00 -0.21686599447E+04  0.39209746385E+04  0.32666429496E+04 0.  0.
        3    1    3    3  502    0  0.69249252879E+03 -0.18306772779E+03  0.67757989815E+03  0.98598895732E+03  0.10100000352E+00 0.  1.
       -3    1    3    3    0  502 -0.69249252879E+03  0.18306772779E+03 -0.28462398429E+04  0.29349856812E+04  0.10100000352E+00 0. -1.
</event>
<event>
 5   0  0.3745943E-06  0.3220265E+04  0.7818609E-02  0.8183486E-01
        2   -1    0    0  501    0  0.00000000000E+00  0.00000000000E+00  0.16043867643E+04  0.16043867643E+04  0.25500000920E-02 0. -1.
       -2   -1    0    0    0  501  0.00000000000E+00  0.00000000000E+00 -0.16158990243E+04  0.16158990243E+04  0.25500000920E-02 0.  1.
    10030    2    1    2    0    0  0.00000000000E+00  0.00000000000E+00 -0.11512259928E+02  0.32202857886E+04  0.32202652108E+04 0.  0.
        5    1    3    3  502    0  0.11476051381E+04 -0.16596696729E+03 -0.11228856118E+04  0.16141365414E+04  0.46999998093E+01 0.  1.
       -5    1    3    3    0  502 -0.11476051381E+04  0.16596696729E+03  0.11113733518E+04  0.16061492472E+04  0.46999998093E+01 0. -1.
</event>
<event>
 5   0  0.1273980E-06  0.3186149E+04  0.7818609E-02  0.8192485E-01
       -1   -1    0    0    0  501  0.00000000000E+00  0.00000000000E+00  0.13557521285E+04  0.13557521285E+04  0.50400001928E-02 0. -1.
        1   -1    0    0  501    0  0.00000000000E+00  0.00000000000E+00 -0.18719396201E+04  0.18719396201E+04  0.50400001928E-02 0.  1.
    10030    2    1    2    0    0  0.00000000000E+00  0.00000000000E+00 -0.51618749153E+03  0.32276917486E+04  0.31861488505E+04 0.  0.
        4    1    3    3  502    0  0.61590835798E+03  0.85038650695E+02 -0.17439523103E+04  0.18514712936E+04  0.12699999809E+01 0.  1.
       -4    1    3    3    0  502 -0.61590835798E+03 -0.85038650695E+02  0.12277648188E+04  0.13762204550E+04  0.12699999809E+01 0. -1.
</event>
<event>
 5   0  0.1185575E-06  0.3184730E+04  0.7818609E-02  0.8192862E-01
        3   -1    0    0  501    0  0.00000000000E+00  0.00000000000E+00  0.18329640402E+04  0.18329640430E+04  0.10100000352E+00 0. -1.
       -3   -1    0    0    0  501  0.00000000000E+00  0.00000000000E+00 -0.13833478471E+04  0.13833478508E+04  0.10100000352E+00 0.  1.
    10030    2    1    2    0    0  0.00000000000E+00  0.00000000000E+00  0.44961619316E+03  0.32163118938E+04  0.31847303617E+04 0.  0.
        2    1    3    3  502    0  0.88793520464E+03  0.15915385260E+03 -0.11004040719E+04  0.14229012608E+04  0.25500000920E-02 0.  1.
       -2    1    3    3    0  502 -0.88793520464E+03 -0.15915385260E+03  0.15500202651E+04  0.17934106330E+04  0.25500000920E-02 0. -1.
</event>
<event>
 5   0  0.3745943E-06  0.2324438E+04  0.7818609E-02  0.8468347E-01
        2   -1    0    0  501    0  0.00000000000E+00  0.00000000000E+00  0.88256698069E+03  0.88256698069E+03  0.25500000920E-02 0. -1.
       -2   -1    0    0    0  501  0.00000000000E+00  0.00000000000E+00 -0.15304819913E+04  0.15304819913E+04  0.25500000920E-02 0.  1.
    10030    2    1    2    0    0  0.00000000000E+00  0.00000000000E+00 -0.64791501057E+03  0.24130489720E+04  0.23244378848E+04 0.  0.
        5    1    3    3  502    0  0.52776358316E+03 -0.41909458324E+02 -0.13980195033E+04  0.14949151896E+04  0.46999998093E+01 0.  1.
       -5    1    3    3    0  502 -0.52776358316E+03  0.41909458324E+02  0.75010449271E+03  0.91813378240E+03  0.46999998093E+01 0. -1.
</event>
<event>
 5   0  0.1306843E-06  0.3324108E+04  0.7818609E-02  0.8156788E-01
        1   -1    0    0  501    0  0.00000000000E+00  0.00000000000E+00  0.12941412736E+04  0.12941412736E+04  0.50400001928E-02 0. -1.
       -1   -1    0    0    0  501  0.00000000000E+00  0.00000000000E+00 -0.21345609179E+04  0.21345609179E+04  0.50400001928E-02 0.  1.
    10030    2    1    2    0    0  0.00000000000E+00  0.00000000000E+00 -0.84041964429E+03  0.34287021914E+04  0.33241079313E+04 0.  0.
        5    1    3    3  502    0 -0.77810886544E+03  0.36554786642E+03  0.10469830877E+04  0.13547229698E+04  0.46999998093E+01 0. -1.
       -5    1    3    3    0  502  0.77810886544E+03 -0.36554786642E+03 -0.18874027319E+04  0.20739792216E+04  0.46999998093E+01 0.  1.
</event>
<event>
 5   0  0.3497546E-06  0.3231636E+04  0.7818609E-02  0.8180512E-01
        2   -1    0    0  501    0  0.00000000000E+00  0.00000000000E+00  0.17319215676E+04  0.17319215676E+04  0.25500000920E-02 0.  1.
       -2   -1    0    0    0  501  0.00000000000E+00  0.00000000000E+00 -0.15074977889E+04  0.15074977889E+04  0.25500000920E-02 0. -1.
    10030    2    1    2    0    0  0.00000000000E+00  0.00000000000E+00  0.22442377864E+03  0.32394193565E+04  0.32316360771E+04 0.  0.
        4    1    3    3  502    0 -0.42847662761E+03  0.14414097942E+04  0.70491585349E+03  0.16607716244E+04  0.12699999809E+01 0.  1.
       -4    1    3    3    0  502  0.42847662761E+03 -0.14414097942E+04 -0.48049207484E+03  0.15786477321E+04  0.12699999809E+01 0. -1.
</event>
<event>
 5   0  0.1273980E-06  0.3212235E+04  0.7818609E-02  0.8185594E-01
        1   -1    0    0  501    0  0.00000000000E+00  0.00000000000E+00  0.18406245686E+04  0.18406245686E+04  0.50400001928E-02 0.  1.
       -1   -1    0    0    0  501  0.00000000000E+00  0.00000000000E+00 -0.14014877705E+04  0.14014877705E+04  0.50400001928E-02 0. -1.
    10030    2    1    2    0    0  0.00000000000E+00  0.00000000000E+00  0.43913679812E+03  0.32421123391E+04  0.32122346260E+04 0.  0.
        4    1    3    3  502    0 -0.23296448352E+03  0.47057903371E+03  0.17515447431E+04  0.18285589073E+04  0.12699999809E+01 0.  1.
       -4    1    3    3    0  502  0.23296448352E+03 -0.47057903371E+03 -0.13124079450E+04  0.14135534318E+04  0.12699999809E+01 0. -1.
</event>
<event>
 5   0  0.1273754E-06  0.3419980E+04  0.7818609E-02  0.8133020E-01
       -1   -1    0    0    0  501  0.00000000000E+00  0.00000000000E+00  0.11232271704E+04  0.11232271704E+04  0.50400001928E-02 0. -1.
        1   -1    0    0  501    0  0.00000000000E+00  0.00000000000E+00 -0.26032717328E+04  0.26032717328E+04  0.50400001928E-02 0.  1.
    10030    2    1    2    0    0  0.00000000000E+00  0.00000000000E+00 -0.14800445624E+04  0.37264989032E+04  0.34199798492E+04 0.  0.
        2    1    3    3  502    0  0.16386883537E+04  0.12460795070E+03 -0.12548505294E+04  0.20677225426E+04  0.25500000920E-02 0. -1.
       -2    1    3    3    0  502 -0.16386883537E+04 -0.12460795070E+03 -0.22519403296E+03  0.16587763606E+04  0.25500000920E-02 0.  1.
</event>
<event>
 5   0  0.1240725E-06  0.3219703E+04  0.7818609E-02  0.8183633E-01
        1   -1    0    0  501    0  0.00000000000E+00  0.00000000000E+00  0.13920285926E+04  0.13920285926E+04  0.50400001928E-02 0. -1.
       -1   -1    0    0    0  501  0.00000000000E+00  0.00000000000E+00 -0.18617588180E+04  0.18617588180E+04  0.50400001928E-02 0.  1.
    10030    2    1    2    0    0  0.00000000000E+00  0.00000000000E+00 -0.46973022538E+03  0.32537874105E+04  0.32197027857E+04 0.  0.
        3    1    3    3  502    0  0.61775618261E+03 -0.12520735836E+04  0.57506195715E+03  0.15099692793E+04  0.10100000352E+00 0. -1.
       -3    1    3    3    0  502 -0.61775618261E+03  0.12520735836E+04 -0.10447921825E+04  0.17438181312E+04  0.10100000352E+00 0.  1.
</event>
<event>
 5   0  0.3656086E-06  0.3152869E+04  0.7818609E-02  0.8201376E-01
        2   -1    0    0  501    0  0.00000000000E+00  0.00000000000E+00  0.17883717292E+04  0.17883717292E+04  0.25500000920E-02 0.  1.
       -2   -1    0    0    0  501  0.00000000000E+00  0.00000000000E+00 -0.13896134090E+04  0.13896134090E+04  0.25500000920E-02 0. -1.
    10030    2    1    2    0    0  0.00000000000E+00  0.00000000000E+00  0.39875832019E+03  0.31779851381E+04  0.31528687477E+04 0.  0.
        3    1    3    3  502    0  0.26899661752E+02 -0.15065976392E+04 -0.26754456363E+03  0.15304052215E+04  0.10100000352E+00 0. -1.
       -3    1    3    3    0  502 -0.26899661752E+02  0.15065976392E+04  0.66630288382E+03  0.16475799166E+04  0.10100000352E+00 0.  1.
</event>
<event>
 5   0  0.1273754E-06  0.3193238E+04  0.7818609E-02  0.8190605E-01
       -1   -1    0    0    0  501  0.00000000000E+00  0.00000000000E+00  0.17269224484E+04  0.17269224484E+04  0.50400001928E-02 0. -1.
        1   -1    0    0  501    0  0.00000000000E+00  0.00000000000E+00 -0.14761471764E+04  0.14761471764E+04  0.50400001928E-02 0.  1.
    10030    2    1    2    0    0  0.00000000000E+00  0.00000000000E+00  0.25077527203E+03  0.32030696248E+04  0.31932376648E+04 0.  0.
        2    1    3    3  502    0 -0.12301932113E+04  0.38304890670E+03  0.10712065022E+04  0.16755850240E+04  0.25500000920E-02 0. -1.
       -2    1    3    3    0  502  0.12301932113E+04 -0.38304890670E+03 -0.82043123020E+03  0.15274846008E+04  0.25500000920E-02 0.  1.
</event>
<event>
 5   0  0.1273754E-06  0.3237743E+04  0.7818609E-02  0.8178920E-01
       -1   -1    0    0    0  501  0.00000000000E+00  0.00000000000E+00  0.13093343781E+04  0.13093343781E+04  0.50400001928E-02 0.  1.
        1   -1    0    0  501    0  0.00000000000E+00  0.00000000000E+00 -0.20015857096E+04  0.20015857096E+04  0.50400001928E-02 0. -1.
    10030    2    1    2    0    0  0.00000000000E+00  0.00000000000E+00 -0.69225133153E+03  0.33109200878E+04  0.32377430290E+04 0.  0.
        2    1    3    3  502    0  0.89122993987E+03  0.12673378165E+04 -0.82610492870E+03  0.17558147112E+04  0.25500000920E-02 0. -1.
       -2    1    3    3    0  502 -0.89122993987E+03 -0.12673378165E+04  0.13385359717E+03  0.15551053766E+04  0.25500000920E-02 0.  1.
</event>
<event>
 5   0  0.3745943E-06  0.3153696E+04  0.7818609E-02  0.8201154E-01
       -2   -1    0    0    0  501  0.00000000000E+00  0.00000000000E+00  0.18809475582E+04  0.18809475582E+04  0.25500000920E-02 0.  1.
        2   -1    0    0  501    0  0.00000000000E+00  0.00000000000E+00 -0.13219136476E+04  0.13219136476E+04  0.25500000920E-02 0. -1.
    10030    2    1    2    0    0  0.00000000000E+00  0.00000000000E+00  0.55903391058E+03  0.32028612057E+04  0.31536964010E+04 0.  0.
        5    1    3    3  502    0  0.94502295464E+03 -0.24725569307E+03 -0.97761082302E+03  0.13820089630E+04  0.46999998093E+01 0. -1.
       -5    1    3    3    0  502 -0.94502295464E+03  0.24725569307E+03  0.15366447336E+04  0.18208522427E+04  0.46999998093E+01 0.  1.
</event>
<event>
 5   0  0.3497546E-06  0.3182333E+04  0.7818609E-02  0.8193499E-01
        2   -1    0    0  501    0  0.00000000000E+00  0.00000000000E+00  0.17212136086E+04  0.17212136086E+04  0.25500000920E-02 0. -1.
       -2   -1    0    0    0  501  0.00000000000E+00  0.00000000000E+00 -0.14709453875E+04  0.14709453875E+04  0.25500000920E-02 0.  1.
    10030    2    1    2    0    0  0.00000000000E+00  0.00000000000E+00  0.25026822104E+03  0.31921589961E+04  0.31823332437E+04 0.  0.
        4    1    3    3  502    0 -0.95978826371E+03  0.58431398998E+03  0.12551973218E+04  0.16846775002E+04  0.12699999809E+01 0. -1.
       -4    1    3    3    0  502  0.95978826371E+03 -0.58431398998E+03 -0.10049291008E+04  0.15074814959E+04  0.12699999809E+01 0.  1.
</event>
<event>
 5   0  0.1273754E-06  0.3183647E+04  0.7818609E-02  0.8193149E-01
       -1   -1    0    0    0  501  0.00000000000E+00  0.00000000000E+00  0.17361585999E+04  0.17361585999E+04  0.50400001928E-02 0. -1.
        1   -1    0    0  501    0  0.00000000000E+00  0.00000000000E+00 -0.14594875846E+04  0.14594875846E+04  0.50400001928E-02 0.  1.
    10030    2    1    2    0    0  0.00000000000E+00  0.00000000000E+00  0.27667101527E+03  0.31956461845E+04  0.31836469160E+04 0.  0.
        2    1    3    3  502    0  0.11211493888E+04  0.11299961319E+04  0.13242167850E+03  0.15973110878E+04  0.25500000920E-02 0.  1.
       -2    1    3    3    0  502 -0.11211493888E+04 -0.11299961319E+04  0.14424933677E+03  0.15983350967E+04  0.25500000920E-02 0. -1.
</event>
<event>
 5   0  0.1240725E-06  0.3188372E+04  0.7818609E-02  0.8191895E-01
       -1   -1    0    0    0  501  0.00000000000E+00  0.00000000000E+00  0.16970992670E+04  0.16970992670E+04  0.50400001928E-02 0.  1.
        1   -1    0    0  501    0  0.00000000000E+00  0.00000000000E+00 -0.14975132598E+04  0.14975132598E+04  0.50400001928E-02 0. -1.
    10030    2    1    2    0    0  0.00000000000E+00  0.00000000000E+00  0.19958600717E+03  0.31946125268E+04  0.31883717823E+04 0.  0.
        3    1    3    3  502    0  0.27484449377E+02 -0.81125967541E+03  0.14745321527E+04  0.16831942061E+04  0.10100000352E+00 0.  1.
       -3    1    3    3    0  502 -0.27484449377E+02  0.81125967541E+03 -0.12749461455E+04  0.15114183207E+04  0.10100000352E+00 0. -1.
</event>
<event>
 5   0  0.1240725E-06  0.3060206E+04  0.7818609E-02  0.8226745E-01
       -1   -1    0    0    0  501  0.00000000000E+00  0.00000000000E+00  0.10215762848E+04  0.10215762848E+04  0.50400001928E-02 0.  1.
        1   -1    0    0  501    0  0.00000000000E+00  0.00000000000E+00 -0.22917670799E+04  0.22917670799E+04  0.50400001928E-02 0. -1.
    10030    2    1    2    0    0  0.00000000000E+00  0.00000000000E+00 -0.12701907951E+04  0.33133433648E+04  0.30602058096E+04 0.  0.
        3    1    3    3  502    0 -0.10014447651E+03 -0.60493005292E+03  0.88273842436E+03  0.10748006425E+04  0.10100000352E+00 0.  1.
       -3    1    3    3    0  502  0.10014447651E+03  0.60493005292E+03 -0.21529292195E+04  0.22385427223E+04  0.10100000352E+00 0. -1.
</event>
<event>
 5   0  0.3758062E-06  0.3150727E+04  0.7818609E-02  0.8201952E-01
        2   -1    0    0  501    0  0.00000000000E+00  0.00000000000E+00  0.22481460918E+04  0.22481460918E+04  0.25500000920E-02 0.  1.
       -2   -1    0    0    0  501  0.00000000000E+00  0.00000000000E+00 -0.11039188492E+04  0.11039188492E+04  0.25500000920E-02 0. -1.
    10030    2    1    2    0    0  0.00000000000E+00  0.00000000000E+00  0.11442272427E+04  0.33520649410E+04  0.31507274376E+04 0.  0.
        2    1    3    3  502    0 -0.13615747819E+04 -0.78057740645E+03  0.71714757746E+03  0.17255398060E+04  0.25500000920E-02 0.  1.
       -2    1    3    3    0  502  0.13615747819E+04  0.78057740645E+03  0.42707966520E+03  0.16265251350E+04  0.25500000920E-02 0. -1.
</event>
<event>
 5   0  0.1268836E-06  0.3203818E+04  0.7818609E-02  0.8187810E-01
       -1   -1    0    0    0  501  0.00000000000E+00  0.00000000000E+00  0.15756948552E+04  0.15756948552E+04  0.50400001928E-02 0.  1.
        1   -1    0    0  501    0  0.00000000000E+00  0.00000000000E+00 -0.16285595079E+04  0.16285595079E+04  0.50400001928E-02 0. -1.
    10030    2    1    2    0    0  0.00000000000E+00  0.00000000000E+00 -0.52864652692E+02  0.32042543631E+04  0.32038182457E+04 0.  0.
        1    1    3    3  502    0 -0.62764744806E+03  0.14324928253E+04 -0.37308565937E+03  0.16078463617E+04  0.50400001928E-02 0.  1.
       -1    1    3    3    0  502  0.62764744806E+03 -0.14324928253E+04  0.32022100668E+03  0.15964080014E+04  0.50400001928E-02 0. -1.
</event>
<event>
 5   0  0.3745943E-06  0.3044335E+04  0.7818609E-02  0.8231183E-01
       -2   -1    0    0    0  501  0.00000000000E+00  0.00000000000E+00  0.13684313841E+04  0.13684313841E+04  0.25500000920E-02 0. -1.
        2   -1    0    0  501    0  0.00000000000E+00  0.00000000000E+00 -0.16931749432E+04  0.16931749432E+04  0.25500000920E-02 0.  1.
    10030    2    1    2    0    0  0.00000000000E+00  0.00000000000E+00 -0.32474355907E+03  0.30616063273E+04  0.30443348903E+04 0.  0.
        5    1    3    3  502    0 -0.29362262292E+03  0.53738126309E+03  0.12390832327E+04  0.13821512993E+04  0.46999998093E+01 0. -1.
       -5    1    3    3    0  502  0.29362262292E+03 -0.53738126309E+03 -0.15638267917E+04  0.16794550280E+04  0.46999998093E+01 0.  1.
</event>
<event>
 5   0  0.1240725E-06  0.3062182E+04  0.7818609E-02  0.8226194E-01
        1   -1    0    0  501    0  0.00000000000E+00  0.00000000000E+00  0.20605290881E+04  0.20605290881E+04  0.50400001928E-02 0. -1.
       -1   -1    0    0    0  501  0.00000000000E+00  0.00000000000E+00 -0.11376883323E+04  0.11376883324E+04  0.50400001928E-02 0.  1.
    10030    2    1    2    0    0  0.00000000000E+00  0.00000000000E+00  0.92284075576E+03  0.31982174205E+04  0.30621821644E+04 0.  0.
        3    1    3    3  502    0  0.11106686628E+04 -0.28558227485E+03 -0.59809016368E+03  0.12933885604E+04  0.10100000352E+00 0.  1.
       -3    1    3    3    0  502 -0.11106686628E+04  0.28558227485E+03  0.15209309194E+04  0.19048288600E+04  0.10100000352E+00 0. -1.
</event>
<event>
 5   0  0.3758062E-06  0.2593385E+04  0.7818609E-02  0.8370452E-01
       -2   -1    0    0    0  501  0.00000000000E+00  0.00000000000E+00  0.14310577662E+04  0.14310577662E+04  0.25500000920E-02 0. -1.
        2   -1    0    0  501    0  0.00000000000E+00  0.00000000000E+00 -0.11749427356E+04  0.11749427356E+04  0.25500000920E-02 0.  1.
    10030    2    1    2    0    0  0.00000000000E+00  0.00000000000E+00  0.25611503059E+03  0.26060005018E+04  0.25933846044E+04 0.  0.
        2    1    3    3  502    0 -0.62991028565E+03  0.60569073262E+03 -0.83460213095E+03  0.12083910578E+04  0.25500000920E-02 0.  1.
       -2    1    3    3    0  502  0.62991028565E+03 -0.60569073262E+03  0.10907171615E+04  0.13976094440E+04  0.25500000920E-02 0. -1.
</event>
<event>
 5   0  0.3745943E-06  0.3173371E+04  0.7818609E-02  0.8195885E-01
       -2   -1    0    0    0  501  0.00000000000E+00  0.00000000000E+00  0.12978200789E+04  0.12978200789E+04  0.25500000920E-02 0.  1.
        2   -1    0    0  501    0  0.00000000000E+00  0.00000000000E+00 -0.19398455037E+04  0.19398455037E+04  0.25500000920E-02 0. -1.
    10030    2    1    2    0    0  0.00000000000E+00  0.00000000000E+00 -0.64202542487E+03  0.32376655826E+04  0.31733707282E+04 0.  0.
        5    1    3    3  502    0 -0.11800465141E+04 -0.31788375439E+03 -0.13534381974E+04  0.18235615978E+04  0.46999998093E+01 0. -1.
       -5    1    3    3    0  502  0.11800465141E+04  0.31788375439E+03  0.71141277256E+03  0.14141039848E+04  0.46999998093E+01 0.  1.
</event>
<event>
 5   0  0.1268836E-06  0.3087055E+04  0.7818609E-02  0.8219299E-01
        1   -1    0    0  501    0  0.00000000000E+00  0.00000000000E+00  0.10289621605E+04  0.10289621605E+04  0.50400001928E-02 0. -1.
       -1   -1    0    0    0  501  0.00000000000E+00  0.00000000000E+00 -0.23154182565E+04  0.23154182565E+04  0.50400001928E-02 0.  1.
    10030    2    1    2    0    0  0.00000000000E+00  0.00000000000E+00 -0.12864560960E+04  0.33443804170E+04  0.30870554071E+04 0.  0.
        1    1    3    3  502    0  0.32396481356E+03  0.14951327917E+04 -0.86552075881E+03  0.17576977696E+04  0.50400001928E-02 0.  1.
       -1    1    3    3    0  502 -0.32396481356E+03 -0.14951327917E+04 -0.42093533722E+03  0.15866826474E+04  0.50400001928E-02 0. -1.
</event>
<event>
 5   0  0.1273980E-06  0.3176227E+04  0.7818609E-02  0.8195124E-01
       -1   -1    0    0    0  501  0.00000000000E+00  0.00000000000E+00  0.14012952995E+04  0.14012952995E+04  0.50400001928E-02 0. -1.
        1   -1    0    0  501    0  0.00000000000E+00  0.00000000000E+00 -0.17998382417E+04  0.17998382417E+04  0.50400001928E-02 0.  1.
    10030    2    1    2    0    0  0.00000000000E+00  0.00000000000E+00 -0.39854294225E+03  0.32011335412E+04  0.31762272387E+04 0.  0.
        4    1    3    3  502    0  0.38017941309E+03  0.14707618603E+04  0.26742162089E+03  0.15424632158E+04  0.12699999809E+01 0. -1.
       -4    1    3    3    0  502 -0.38017941309E+03 -0.14707618603E+04 -0.66596456314E+03  0.16586703254E+04  0.12699999809E+01 0.  1.
</event>
<event>
 5   0  0.3656086E-06  0.3225229E+04  0.7818609E-02  0.8182186E-01
       -2   -1    0    0    0  501  0.00000000000E+00  0.00000000000E+00  0.17128585088E+04  0.17128585088E+04  0.25500000920E-02 0. -1.
        2   -1    0    0  501    0  0.00000000000E+00  0.00000000000E+00 -0.15182376768E+04  0.15182376768E+04  0.25500000920E-02 0.  1.
    10030    2    1    2    0    0  0.00000000000E+00  0.00000000000E+00  0.19462083201E+03  0.32310961855E+04  0.32252294945E+04 0.  0.
        3    1    3    3  502    0 -0.15883436719E+04 -0.12461319841E+03 -0.15246667539E+03  0.16005030980E+04  0.10100000352E+00 0. -1.
       -3    1    3    3    0  502  0.15883436719E+04  0.12461319841E+03  0.34708750739E+03  0.16305930876E+04  0.10100000352E+00 0.  1.
</event>
<event>
 5   0  0.1306843E-06  0.3166992E+04  0.7818609E-02  0.8197589E-01
       -1   -1    0    0    0  501  0.00000000000E+00  0.00000000000E+00  0.14490033308E+04  0.14490033308E+04  0.50400001928E-02 0. -1.
        1   -1    0    0  501    0  0.00000000000E+00  0.00000000000E+00 -0.17304717468E+04  0.17304717468E+04  0.50400001928E-02 0.  1.
    10030    2    1    2    0    0  0.00000000000E+00  0.00000000000E+00 -0.28146841602E+03  0.31794750777E+04  0.31669918377E+04 0.  0.
        5    1    3    3  502    0  0.74177849548E+03 -0.50006750410E+03  0.11709894053E+04  0.14736149844E+04  0.46999998093E+01 0. -1.
       -5    1    3    3    0  502 -0.74177849548E+03  0.50006750410E+03 -0.14524578213E+04  0.17058600932E+04  0.46999998093E+01 0.  1.
</event>
<event>
 5   0  0.3531437E-06  0.2624652E+04  0.7818609E-02  0.8359875E-01
       -2   -1    0    0    0  501  0.00000000000E+00  0.00000000000E+00  0.14188475597E+04  0.14188475597E+04  0.25500000920E-02 0.  1.
        2   -1    0    0  501    0  0.00000000000E+00  0.00000000000E+00 -0.12138015174E+04  0.12138015174E+04  0.25500000920E-02 0. -1.
    10030    2    1    2    0    0  0.00000000000E+00  0.00000000000E+00  0.20504604224E+03  0.26326490771E+04  0.26246518405E+04 0.  0.
        1    1    3    3  502    0  0.46708037937E+03 -0.11737238204E+04  0.45914484840E+03  0.13441003234E+04  0.50400001928E-02 0.  1.
       -1    1    3    3    0  502 -0.46708037937E+03  0.11737238204E+04 -0.25409880616E+03  0.12885487537E+04  0.50400001928E-02 0. -1.
</event>
<event>
 5   0  0.1268836E-06  0.3198381E+04  0.7818609E-02  0.8189245E-01
       -1   -1    0    0    0  501  0.00000000000E+00  0.00000000000E+00  0.10972566275E+04  0.10972566275E+04  0.50400001928E-02 0. -1.
        1   -1    0    0  501    0  0.00000000000E+00  0.00000000000E+00 -0.23307308843E+04  0.23307308843E+04  0.50400001928E-02 0.  1.
    10030    2    1    2    0    0  0.00000000000E+00  0.00000000000E+00 -0.12334742568E+04  0.34279875118E+04  0.31983807839E+04 0.  0.
        1    1    3    3  502    0 -0.56003467868E+03 -0.10682161438E+04 -0.17422095658E+04  0.21189664326E+04  0.50400001928E-02 0.  1.
       -1    1    3    3    0  502  0.56003467868E+03  0.10682161438E+04  0.50873530898E+03  0.13090210792E+04  0.50400001928E-02 0. -1.
</event>
<event>
 5   0  0.3758062E-06  0.3338306E+04  0.7818609E-02  0.8153216E-01
        2   -1    0    0  501    0  0.00000000000E+00  0.00000000000E+00  0.24954436416E+04  0.24954436416E+04  0.25500000920E-02 0.  1.
       -2   -1    0    0    0  501  0.00000000000E+00  0.00000000000E+00 -0.11164637835E+04  0.11164637835E+04  0.25500000920E-02 0. -1.
    10030    2    1    2    0    0  0.00000000000E+00  0.00000000000E+00  0.13789798580E+04  0.36119074251E+04  0.33383064267E+04 0.  0.
        2    1    3    3  502    0  0.47594086601E+03 -0.83818029758E+03 -0.78491620010E+03  0.12430443920E+04  0.25500000920E-02 0. -1.
       -2    1    3    3    0  502 -0.47594086601E+03  0.83818029758E+03  0.21638960581E+04  0.23688630331E+04  0.25500000920E-02 0.  1.
</event>
<event>
 5   0  0.1240725E-06  0.3176324E+04  0.7818609E-02  0.8195098E-01
       -1   -1    0    0    0  501  0.00000000000E+00  0.00000000000E+00  0.17144785081E+04  0.17144785081E+04  0.50400001928E-02 0. -1.
        1   -1    0    0  501    0  0.00000000000E+00  0.00000000000E+00 -0.14711518834E+04  0.14711518834E+04  0.50400001928E-02 0.  1.
    10030    2    1    2    0    0  0.00000000000E+00  0.00000000000E+00  0.24332662471E+03  0.31856303915E+04  0.31763238413E+04 0.  0.
        3    1    3    3  502    0 -0.62609441218E+03 -0.13198762677E+04 -0.50321172460E+03  0.15450856368E+04  0.10100000352E+00 0.  1.
       -3    1    3    3    0  502  0.62609441218E+03  0.13198762677E+04  0.74653834931E+03  0.16405447547E+04  0.10100000352E+00 0. -1.
</event>
<event>
 5   0  0.3497546E-06  0.3058949E+04  0.7818609E-02  0.8227095E-01
        2   -1    0    0  501    0  0.00000000000E+00  0.00000000000E+00  0.12775216376E+04  0.12775216376E+04  0.25500000920E-02 0.  1.
       -2   -1    0    0    0  501  0.00000000000E+00  0.00000000000E+00 -0.18311178890E+04  0.18311178890E+04  0.25500000920E-02 0. -1.
    10030    2    1    2    0    0  0.00000000000E+00  0.00000000000E+00 -0.55359625144E+03  0.31086395266E+04  0.30589493125E+04 0.  0.
        4    1    3    3  502    0 -0.57515349210E+03  0.77270778505E+03  0.93052918670E+03  0.13393151387E+04  0.12699999809E+01 0.  1.
       -4    1    3    3    0  502  0.57515349210E+03 -0.77270778505E+03 -0.14841254381E+04  0.17693243879E+04  0.12699999809E+01 0. -1.
</event>
<event>
 5   0  0.3531437E-06  0.3195207E+04  0.7818609E-02  0.8190084E-01
       -2   -1    0    0    0  501  0.00000000000E+00  0.00000000000E+00  0.10633261730E+04  0.10633261730E+04  0.25500000920E-02 0. -1.
        2   -1    0    0  501    0  0.00000000000E+00  0.00000000000E+00 -0.24003328481E+04  0.24003328481E+04  0.25500000920E-02 0.  1.
    10030    2    1    2    0    0  0.00000000000E+00  0.00000000000E+00 -0.13370066751E+04  0.34636590211E+04  0.31952068736E+04 0.  0.
        1    1    3    3  502    0 -0.65404171819E+03 -0.14253646503E+04 -0.33809714327E+03  0.16042894483E+04  0.50400001928E-02 0. -1.
       -1    1    3    3    0  502  0.65404171819E+03  0.14253646503E+04 -0.99890953181E+03  0.18593695728E+04  0.50400001928E-02 0.  1.
</event>
<event>
 5   0  0.1240725E-06  0.3118218E+04  0.7818609E-02  0.8210756E-01
       -1   -1    0    0    0  501  0.00000000000E+00  0.00000000000E+00  0.15479729937E+04  0.15479729937E+04  0.50400001928E-02 0. -1.
        1   -1    0    0  501    0  0.00000000000E+00  0.00000000000E+00 -0.15703250031E+04  0.15703250031E+04  0.50400001928E-02 0.  1.
    10030    2    1    2    0    0  0.00000000000E+00  0.00000000000E+00 -0.22352009440E+02  0.31182979968E+04  0.31182178860E+04 0.  0.
        3    1    3    3  502    0  0.13672081999E+04  0.45065945974E+03 -0.60991375592E+03  0.15634407601E+04  0.10100000352E+00 0.  1.
       -3    1    3    3    0  502 -0.13672081999E+04 -0.45065945974E+03  0.58756174648E+03  0.15548572367E+04  0.10100000352E+00 0. -1.
</event>
<event>
 5   0  0.1306843E-06  0.3162632E+04  0.7818609E-02  0.8198756E-01
       -1   -1    0    0    0  501  0.00000000000E+00  0.00000000000E+00  0.23721637482E+04  0.23721637482E+04  0.50400001928E-02 0.  1.
        1   -1    0    0  501    0  0.00000000000E+00  0.00000000000E+00 -0.10541261863E+04  0.10541261863E+04  0.50400001928E-02 0. -1.
    10030    2    1    2    0    0  0.00000000000E+00  0.00000000000E+00  0.13180375618E+04  0.34262899345E+04  0.31626317681E+04 0.  0.
        5    1    3    3  502    0 -0.12244860787E+04 -0.72941332868E+03 -0.83010597944E+02  0.14276984312E+04  0.46999998093E+01 0. -1.
       -5    1    3    3    0  502  0.12244860787E+04  0.72941332868E+03  0.14010481598E+04  0.19985915033E+04  0.46999998093E+01 0.  1.
</event>
<event>
 5   0  0.1240725E-06  0.2446399E+04  0.7818609E-02  0.8422334E-01
       -1   -1    0    0    0  501  0.00000000000E+00  0.00000000000E+00  0.89341040896E+03  0.89341040898E+03  0.50400001928E-02 0. -1.
        1   -1    0    0  501    0  0.00000000000E+00  0.00000000000E+00 -0.16747247675E+04  0.16747247675E+04  0.50400001928E-02 0.  1.
    10030    2    1    2    0    0  0.00000000000E+00  0.00000000000E+00 -0.78131435857E+03  0.25681351765E+04  0.24463986098E+04 0.  0.
        3    1    3    3  502    0 -0.10239531267E+04  0.86066176911E+02  0.30593624454E+03  0.10721400974E+04  0.10100000352E+00 0. -1.
       -3    1    3    3    0  502  0.10239531267E+04 -0.86066176911E+02 -0.10872506031E+04  0.14959950791E+04  0.10100000352E+00 0.  1.
</event>
<event>
 5   0  0.1306843E-06  0.3234138E+04  0.7818609E-02  0.8179859E-01
        1   -1    0    0  501    0  0.00000000000E+00  0.00000000000E+00  0.26107999512E+04  0.26107999512E+04  0.50400001928E-02 0. -1.
       -1   -1    0    0    0  501  0.00000000000E+00  0.00000000000E+00 -0.10015751694E+04  0.10015751694E+04  0.50400001928E-02 0.  1.
    10030    2    1    2    0    0  0.00000000000E+00  0.00000000000E+00  0.16092247819E+04  0.36123751206E+04  0.32341381562E+04 0.  0.
        5    1    3    3  502    0 -0.28582089878E+02  0.12137052739E+04 -0.38848457852E+03  0.12746920355E+04  0.46999998093E+01 0. -1.
       -5    1    3    3    0  502  0.28582089878E+02 -0.12137052739E+04  0.19977093604E+04  0.23376830851E+04  0.46999998093E+01 0.  1.
</event>
<event>
 5   0  0.3758062E-06  0.3205320E+04  0.7818609E-02  0.8187414E-01
       -2   -1    0    0    0  501  0.00000000000E+00  0.00000000000E+00  0.17915477378E+04  0.17915477378E+04  0.25500000920E-02 0.  1.
        2   -1    0    0  501    0  0.00000000000E+00  0.00000000000E+00 -0.14336874471E+04  0.14336874471E+04  0.25500000920E-02 0. -1.
    10030    2    1    2    0    0  0.00000000000E+00  0.00000000000E+00  0.35786029073E+03  0.32252351849E+04  0.32053202664E+04 0.  0.
        2    1    3    3  502    0 -0.15876986205E+03  0.68701713692E+03 -0.12692195695E+04  0.14519362008E+04  0.25500000920E-02 0. -1.
       -2    1    3    3    0  502  0.15876986205E+03 -0.68701713692E+03  0.16270798602E+04  0.17732989841E+04  0.25500000920E-02 0.  1.
</event>
<event>
 5   0  0.1240725E-06  0.3170182E+04  0.7818609E-02  0.8196737E-01
        1   -1    0    0  501    0  0.00000000000E+00  0.00000000000E+00  0.13431760250E+04  0.13431760250E+04  0.50400001928E-02 0.  1.
       -1   -1    0    0    0  501  0.00000000000E+00  0.00000000000E+00 -0.18705770374E+04  0.18705770374E+04  0.50400001928E-02 0. -1.
    10030    2    1    2    0    0  0.00000000000E+00  0.00000000000E+00 -0.52740101238E+03  0.32137530624E+04  0.31701824739E+04 0.  0.
        3    1    3    3  502    0 -0.46113510387E+03  0.10727213646E+04 -0.13504119567E+04  0.17852140413E+04  0.10100000352E+00 0.  1.
       -3    1    3    3    0  502  0.46113510387E+03 -0.10727213646E+04  0.82301094434E+03  0.14285390211E+04  0.10100000352E+00 0. -1.
</event>
<event>
 5   0  0.3531437E-06  0.3226092E+04  0.7818609E-02  0.8181960E-01
       -2   -1    0    0    0  501  0.00000000000E+00  0.00000000000E+00  0.14359064026E+04  0.14359064026E+04  0.25500000920E-02 0. -1.
        2   -1    0    0  501    0  0.00000000000E+00  0.00000000000E+00 -0.18120380415E+04  0.18120380415E+04  0.25500000920E-02 0.  1.
    10030    2    1    2    0    0  0.00000000000E+00  0.00000000000E+00 -0.37613163888E+03  0.32479444441E+04  0.32260917690E+04 0.  0.
        1    1    3    3  502    0  0.99763578328E+03 -0.58699964041E+03  0.94296338462E+03  0.14929921898E+04  0.50400001928E-02 0. -1.
       -1    1    3    3    0  502 -0.99763578328E+03  0.58699964041E+03 -0.13190950235E+04  0.17549522543E+04  0.50400001928E-02 0.  1.
</event>
<event>
 5   0  0.3497546E-06  0.3143680E+04  0.7818609E-02  0.8203852E-01
        2   -1    0    0  501    0  0.00000000000E+00  0.00000000000E+00  0.20699965111E+04  0.20699965111E+04  0.25500000920E-02 0. -1.
       -2   -1    0    0    0  501  0.00000000000E+00  0.00000000000E+00 -0.11935675110E+04  0.11935675110E+04  0.25500000920E-02 0.  1.
    10030    2    1    2    0    0  0.00000000000E+00  0.00000000000E+00  0.87642900018E+03  0.32635640221E+04  0.31436797442E+04 0.  0.
        4    1    3    3  502    0 -0.26517038601E+03  0.74779024468E+03  0.18468582881E+04  0.20100728178E+04  0.12699999809E+01 0. -1.
       -4    1    3    3    0  502  0.26517038601E+03 -0.74779024468E+03 -0.97042928788E+03  0.12534912043E+04  0.12699999809E+01 0.  1.
</event>
<event>
 5   0  0.1240725E-06  0.3199690E+04  0.7818609E-02  0.8188899E-01
       -1   -1    0    0    0  501  0.00000000000E+00  0.00000000000E+00  0.13737547122E+04  0.13737547123E+04  0.50400001928E-02 0.  1.
        1   -1    0    0  501    0  0.00000000000E+00  0.00000000000E+00 -0.18631450339E+04  0.18631450339E+04  0.50400001928E-02 0. -1.
    10030    2    1    2    0    0  0.00000000000E+00  0.00000000000E+00 -0.48939032169E+03  0.32368997462E+04  0.31996901537E+04 0.  0.
        3    1    3    3  502    0  0.15866693546E+04 -0.17879835467E+03 -0.34593779495E+03  0.16337568548E+04  0.10100000352E+00 0. -1.
       -3    1    3    3    0  502 -0.15866693546E+04  0.17879835467E+03 -0.14345252674E+03  0.16031428914E+04  0.10100000352E+00 0.  1.
</event>
<event>
 5   0  0.3656086E-06  0.3187257E+04  0.7818609E-02  0.8192191E-01
       -2   -1    0    0    0  501  0.00000000000E+00  0.00000000000E+00  0.13898505142E+04  0.13898505142E+04  0.25500000920E-02 0.  1.
        2   -1    0    0  501    0  0.00000000000E+00  0.00000000000E+00 -0.18272843071E+04  0.18272843071E+04  0.25500000920E-02 0. -1.
    10030    2    1    2    0    0  0.00000000000E+00  0.00000000000E+00 -0.43743379285E+03  0.32171348213E+04  0.31872571492E+04 0.  0.
        3    1    3    3  502    0  0.87445131924E+03  0.10826517514E+02  0.11260140367E+04  0.14257243577E+04  0.10100000352E+00 0.  1.
       -3    1    3    3    0  502 -0.87445131924E+03 -0.10826517514E+02 -0.15634478295E+04  0.17914104636E+04  0.10100000352E+00 0. -1.
</event>
<event>
 5   0  0.3531437E-06  0.2350225E+04  0.7818609E-02  0.8458377E-01
       -2   -1    0    0    0  501  0.00000000000E+00  0.00000000000E+00  0.60553336950E+03  0.60553336951E+03  0.25500000920E-02 0. -1.
        2   -1    0    0  501    0  0.00000000000E+00  0.00000000000E+00 -0.22804513437E+04  0.22804513437E+04  0.25500000920E-02 0.  1.
    10030    2    1    2    0    0  0.00000000000E+00  0.00000000000E+00 -0.16749179742E+04  0.28859847132E+04  0.23502249987E+04 0.  0.
        1    1    3    3  502    0 -0.10801454060E+02 -0.93084163269E+03  0.43175361509E+02  0.93190499968E+03  0.50400001928E-02 0. -1.
       -1    1    3    3    0  502  0.10801454060E+02  0.93084163269E+03 -0.17180933357E+04  0.19540797135E+04  0.50400001928E-02 0.  1.
</event>
<event>
 5   0  0.1273754E-06  0.3187744E+04  0.7818609E-02  0.8192062E-01
        1   -1    0    0  501    0  0.00000000000E+00  0.00000000000E+00  0.22998081735E+04  0.22998081735E+04  0.50400001928E-02 0.  1.
       -1   -1    0    0    0  501  0.00000000000E+00  0.00000000000E+00 -0.11046257900E+04  0.11046257900E+04  0.50400001928E-02 0. -1.
    10030    2    1    2    0    0  0.00000000000E+00  0.00000000000E+00  0.11951823835E+04  0.34044339635E+04  0.31877436663E+04 0.  0.
        2    1    3    3  502    0 -0.41117373081E+03 -0.13834530354E+02 -0.10469436131E+04  0.11248760643E+04  0.25500000920E-02 0. -1.
       -2    1    3    3    0  502  0.41117373081E+03  0.13834530354E+02  0.22421259966E+04  0.22795578992E+04  0.25500000920E-02 0.  1.
</event>
<event>
 5   0  0.1306843E-06  0.3203327E+04  0.7818609E-02  0.8187939E-01
        1   -1    0    0  501    0  0.00000000000E+00  0.00000000000E+00  0.21926789966E+04  0.21926789966E+04  0.50400001928E-02 0. -1.
       -1   -1    0    0    0  501  0.00000000000E+00  0.00000000000E+00 -0.11699504848E+04  0.11699504848E+04  0.50400001928E-02 0.  1.
    10030    2    1    2    0    0  0.00000000000E+00  0.00000000000E+00  0.10227285117E+04  0.33626294814E+04  0.32033269300E+04 0.  0.
        5    1    3    3  502    0  0.11769563850E+04  0.12963693965E+02  0.16516194979E+04  0.20281182030E+04  0.46999998093E+01 0. -1.
       -5    1    3    3    0  502 -0.11769563850E+04 -0.12963693965E+02 -0.62889098620E+03  0.13345112784E+04  0.46999998093E+01 0.  1.
</event>
<event>
 5   0  0.1268836E-06  0.3157824E+04  0.7818609E-02  0.8200045E-01
        1   -1    0    0  501    0  0.00000000000E+00  0.00000000000E+00  0.19129082718E+04  0.19129082718E+04  0.50400001928E-02 0.  1.
       -1   -1    0    0    0  501  0.00000000000E+00  0.00000000000E+00 -0.13032320840E+04  0.13032320840E+04  0.50400001928E-02 0. -1.
    10030    2    1    2    0    0  0.00000000000E+00  0.00000000000E+00  0.60967618780E+03  0.32161403558E+04  0.31578242089E+04 0.  0.
        1    1    3    3  502    0 -0.13701526333E+03  0.13842583530E+04  0.10656399467E+04  0.17522936016E+04  0.50400001928E-02 0.  1.
       -1    1    3    3    0  502  0.13701526333E+03 -0.13842583530E+04 -0.45596375894E+03  0.14638467542E+04  0.50400001928E-02 0. -1.
</event>
<event>
 5   0  0.3745943E-06  0.3225203E+04  0.7818609E-02  0.8182193E-01
       -2   -1    0    0    0  501  0.00000000000E+00  0.00000000000E+00  0.14312076711E+04  0.14312076711E+04  0.25500000920E-02 0. -1.
        2   -1    0    0  501    0  0.00000000000E+00  0.00000000000E+00 -0.18169852533E+04  0.18169852533E+04  0.25500000920E-02 0.  1.
    10030    2    1    2    0    0  0.00000000000E+00  0.00000000000E+00 -0.38577758224E+03  0.32481929244E+04  0.32252027737E+04 0.  0.
        5    1    3    3  502    0  0.10345781202E+04 -0.98936433985E+03 -0.94065523103E+03  0.17129063131E+04  0.46999998093E+01 0.  1.
       -5    1    3    3    0  502 -0.10345781202E+04  0.98936433985E+03  0.55487764879E+03  0.15352866113E+04  0.46999998093E+01 0. -1.
</event>
<event>
 5   0  0.3656086E-06  0.3198535E+04  0.7818609E-02  0.8189204E-01
       -2   -1    0    0    0  501  0.00000000000E+00  0.00000000000E+00  0.12598622972E+04  0.12598622972E+04  0.25500000920E-02 0. -1.
        2   -1    0    0  501    0  0.00000000000E+00  0.00000000000E+00 -0.20301078510E+04  0.20301078510E+04  0.25500000920E-02 0.  1.
    10030    2    1    2    0    0  0.00000000000E+00  0.00000000000E+00 -0.77024555377E+03  0.32899701482E+04  0.31985348776E+04 0.  0.
        3    1    3    3  502    0 -0.10190641366E+04  0.11812095349E+04 -0.74719205882E+03  0.17297524860E+04  0.10100000352E+00 0. -1.
       -3    1    3    3    0  502  0.10190641366E+04 -0.11812095349E+04 -0.23053494951E+02  0.15602176623E+04  0.10100000352E+00 0.  1.
</event>
<event>
 5   0  0.3497546E-06  0.3203293E+04  0.7818609E-02  0.8187948E-01
       -2   -1    0    0    0  501  0.00000000000E+00  0.00000000000E+00  0.13226905293E+04  0.13226905293E+04  0.25500000920E-02 0.  1.
        2   -1    0    0  501    0  0.00000000000E+00  0.00000000000E+00 -0.19394341305E+04  0.19394341305E+04  0.25500000920E-02 0. -1.
    10030    2    1    2    0    0  0.00000000000E+00  0.00000000000E+00 -0.61674360124E+03  0.32621246598E+04  0.32032927788E+04 0.  0.
        4    1    3    3  502    0 -0.63116279728E+03 -0.13254345845E+04 -0.96054461472E+03  0.17543633843E+04  0.12699999809E+01 0. -1.
       -4    1    3    3    0  502  0.63116279728E+03  0.13254345845E+04  0.34380101348E+03  0.15077612756E+04  0.12699999809E+01 0.  1.
</event>
<event>
 5   0  0.3656086E-06  0.3205507E+04  0.7818609E-02  0.8187364E-01
        2   -1    0    0  501    0  0.00000000000E+00  0.00000000000E+00  0.17661897056E+04  0.17661897056E+04  0.25500000920E-02 0.  1.
       -2   -1    0    0    0  501  0.00000000000E+00  0.00000000000E+00 -0.14544412008E+04  0.14544412008E+04  0.25500000920E-02 0. -1.
    10030    2    1    2    0    0  0.00000000000E+00  0.00000000000E+00  0.31174850474E+03  0.32206309064E+04  0.32055071837E+04 0.  0.
        3    1    3    3  502    0  0.32166775834E+03  0.10263215419E+04  0.13497621538E+04  0.17258806263E+04  0.10100000352E+00 0.  1.
       -3    1    3    3    0  502 -0.32166775834E+03 -0.10263215419E+04 -0.10380136490E+04  0.14947502801E+04  0.10100000352E+00 0. -1.
</event>
<event>
 5   0  0.1306843E-06  0.2426903E+04  0.7818609E-02  0.8429500E-01
        1   -1    0    0  501    0  0.00000000000E+00  0.00000000000E+00  0.12479523347E+04  0.12479523347E+04  0.50400001928E-02 0.  1.
       -1   -1    0    0    0  501  0.00000000000E+00  0.00000000000E+00 -0.11799039975E+04  0.11799039975E+04  0.50400001928E-02 0. -1.
    10030    2    1    2    0    0  0.00000000000E+00  0.00000000000E+00  0.68048337165E+02  0.24278563322E+04  0.24269025102E+04 0.  0.
        5    1    3    3  502    0 -0.53585779322E+03  0.94482086694E+03  0.57517282034E+03  0.12290955652E+04  0.46999998093E+01 0.  1.
       -5    1    3    3    0  502  0.53585779322E+03 -0.94482086694E+03 -0.50712448318E+03  0.11987607670E+04  0.46999998093E+01 0. -1.
</event>
<event>
 5   0  0.1273980E-06  0.3184903E+04  0.7818609E-02  0.8192816E-01
       -1   -1    0    0    0  501  0.00000000000E+00  0.00000000000E+00  0.23263825862E+04  0.23263825863E+04  0.50400001928E-02 0. -1.
        1   -1    0    0  501    0  0.00000000000E+00  0.00000000000E+00 -0.10900623167E+04  0.10900623167E+04  0.50400001928E-02 0.  1.
    10030    2    1    2    0    0  0.00000000000E+00  0.00000000000E+00  0.12363202695E+04  0.34164449030E+04  0.31849031329E+04 0.  0.
        4    1    3    3  502    0  0.39764408575E+03  0.81945972555E+02  0.22699312594E+04  0.23059543570E+04  0.12699999809E+01 0. -1.
       -4    1    3    3    0  502 -0.39764408575E+03 -0.81945972555E+02 -0.10336109899E+04  0.11104905459E+04  0.12699999809E+01 0.  1.
</event>
<event>
 5   0  0.1306843E-06  0.3204431E+04  0.7818609E-02  0.8187648E-01
        1   -1    0    0  501    0  0.00000000000E+00  0.00000000000E+00  0.14526887176E+04  0.14526887176E+04  0.50400001928E-02 0.  1.
       -1   -1    0    0    0  501  0.00000000000E+00  0.00000000000E+00 -0.17671327379E+04  0.17671327379E+04  0.50400001928E-02 0. -1.
    10030    2    1    2    0    0  0.00000000000E+00  0.00000000000E+00 -0.31444402034E+03  0.32198214555E+04  0.32044305522E+04 0.  0.
        5    1    3    3  502    0  0.13605058251E+04 -0.37963310501E+03 -0.91714430534E+03  0.16841238557E+04  0.46999998093E+01 0. -1.
       -5    1    3    3    0  502 -0.13605058251E+04  0.37963310501E+03  0.60270028500E+03  0.15356975998E+04  0.46999998093E+01 0.  1.
</event>
<event>
 5   0  0.1273980E-06  0.3216675E+04  0.7818609E-02  0.8184427E-01
        1   -1    0    0  501    0  0.00000000000E+00  0.00000000000E+00  0.23504687390E+04  0.23504687390E+04  0.50400001928E-02 0.  1.
       -1   -1    0    0    0  501  0.00000000000E+00  0.00000000000E+00 -0.11005246763E+04  0.11005246763E+04  0.50400001928E-02 0. -1.
    10030    2    1    2    0    0  0.00000000000E+00  0.00000000000E+00  0.12499440627E+04  0.34509934153E+04  0.32166745861E+04 0.  0.
        4    1    3    3  502    0 -0.50899519286E+03  0.15253991823E+04  0.65585177563E+03  0.17366812996E+04  0.12699999809E+01 0.  1.
       -4    1    3    3    0  502  0.50899519286E+03 -0.15253991823E+04  0.59409228706E+03  0.17143121158E+04  0.12699999809E+01 0. -1.
</event>
<event>
 5   0  0.3656086E-06  0.3209543E+04  0.7818609E-02  0.8186301E-01
        2   -1    0    0  501    0  0.00000000000E+00  0.00000000000E+00  0.18132143722E+04  0.18132143722E+04  0.25500000920E-02 0.  1.
       -2   -1    0    0    0  501  0.00000000000E+00  0.00000000000E+00 -0.14202910560E+04  0.14202910560E+04  0.25500000920E-02 0. -1.
    10030    2    1    2    0    0  0.00000000000E+00  0.00000000000E+00  0.39292331615E+03  0.32335054282E+04  0.32095433666E+04 0.  0.
        3    1    3    3  502    0 -0.67303779660E+03 -0.33949084335E+03 -0.12308221315E+04  0.14433146012E+04  0.10100000352E+00 0. -1.
       -3    1    3    3    0  502  0.67303779660E+03  0.33949084335E+03  0.16237454476E+04  0.17901908271E+04  0.10100000352E+00 0.  1.
</event>
<event>
 5   0  0.1240725E-06  0.3159966E+04  0.7818609E-02  0.8199471E-01
       -1   -1    0    0    0  501  0.00000000000E+00  0.00000000000E+00  0.16239632437E+04  0.16239632437E+04  0.50400001928E-02 0. -1.
        1   -1    0    0  501    0  0.00000000000E+00  0.00000000000E+00 -0.15371940787E+04  0.15371940788E+04  0.50400001928E-02 0.  1.
    10030    2    1    2    0    0  0.00000000000E+00  0.00000000000E+00  0.86769164950E+02  0.31611573225E+04  0.31599662545E+04 0.  0.
        3    1    3    3  502    0 -0.13563359285E+04 -0.58367537994E+03  0.60575532317E+03  0.15960149191E+04  0.10100000352E+00 0. -1.
       -3    1    3    3    0  502  0.13563359285E+04  0.58367537994E+03 -0.51898615822E+03  0.15651424034E+04  0.10100000352E+00 0.  1.
</event>
<event>
 5   0  0.3745943E-06  0.3202349E+04  0.7818609E-02  0.8188197E-01
        2   -1    0    0  501    0  0.00000000000E+00  0.00000000000E+00  0.14198868089E+04  0.14198868089E+04  0.25500000920E-02 0. -1.
       -2   -1    0    0    0  501  0.00000000000E+00  0.00000000000E+00 -0.18056088280E+04  0.18056088280E+04  0.25500000920E-02 0.  1.
    10030    2    1    2    0    0  0.00000000000E+00  0.00000000000E+00 -0.38572201908E+03  0.32254956369E+04  0.32023492357E+04 0.  0.
        5    1    3    3  502    0  0.53715918833E+03  0.29648596753E+03  0.12967791131E+04  0.14346086856E+04  0.46999998093E+01 0. -1.
       -5    1    3    3    0  502 -0.53715918833E+03 -0.29648596753E+03 -0.16825011322E+04  0.17908869513E+04  0.46999998093E+01 0.  1.
</event>
<event>
 5   0  0.3656086E-06  0.3201893E+04  0.7818609E-02  0.8188317E-01
        2   -1    0    0  501    0  0.00000000000E+00  0.00000000000E+00  0.15821796670E+04  0.15821796670E+04  0.25500000920E-02 0.  1.
       -2   -1    0    0    0  501  0.00000000000E+00  0.00000000000E+00 -0.16199361834E+04  0.16199361834E+04  0.25500000920E-02 0. -1.
    10030    2    1    2    0    0  0.00000000000E+00  0.00000000000E+00 -0.37756516455E+02  0.32021158504E+04  0.32018932470E+04 0.  0.
        3    1    3    3  502    0  0.10594415034E+04  0.42333249113E+02 -0.12184705831E+04  0.16152024564E+04  0.10100000352E+00 0. -1.
       -3    1    3    3    0  502 -0.10594415034E+04 -0.42333249113E+02  0.11807140666E+04  0.15869133941E+04  0.10100000352E+00 0.  1.
</event>
<event>
 5   0  0.1240725E-06  0.3189993E+04  0.7818609E-02  0.8191465E-01
        1   -1    0    0  501    0  0.00000000000E+00  0.00000000000E+00  0.20806935406E+04  0.20806935406E+04  0.50400001928E-02 0.  1.
       -1   -1    0    0    0  501  0.00000000000E+00  0.00000000000E+00 -0.12226757293E+04  0.12226757293E+04  0.50400001928E-02 0. -1.
    10030    2    1    2    0    0  0.00000000000E+00  0.00000000000E+00  0.85801781128E+03  0.33033692699E+04  0.31899927851E+04 0.  0.
        3    1    3    3  502    0  0.74825398674E+03  0.52112841446E+03  0.17841659924E+04  0.20036734145E+04  0.10100000352E+00 0.  1.
       -3    1    3    3    0  502 -0.74825398674E+03 -0.52112841446E+03 -0.92614818116E+03  0.12996958555E+04  0.10100000352E+00 0. -1.
</event>
<event>
 5   0  0.3497546E-06  0.3186368E+04  0.7818609E-02  0.8192427E-01
       -2   -1    0    0    0  501  0.00000000000E+00  0.00000000000E+00  0.12403360756E+04  0.12403360756E+04  0.25500000920E-02 0. -1.
        2   -1    0    0  501    0  0.00000000000E+00  0.00000000000E+00 -0.20464098921E+04  0.20464098921E+04  0.25500000920E-02 0.  1.
    10030    2    1    2    0    0  0.00000000000E+00  0.00000000000E+00 -0.80607381655E+03  0.32867459677E+04  0.31863684750E+04 0.  0.
        4    1    3    3  502    0  0.71897668302E+03  0.97860849932E+03  0.66077759821E+03  0.13824726807E+04  0.12699999809E+01 0. -1.
       -4    1    3    3    0  502 -0.71897668302E+03 -0.97860849932E+03 -0.14668514148E+04  0.19042732870E+04  0.12699999809E+01 0.  1.
</event>
<event>
 5   0  0.3745943E-06  0.3152802E+04  0.7818609E-02  0.8201395E-01
       -2   -1    0    0    0  501  0.00000000000E+00  0.00000000000E+00  0.21213436033E+04  0.21213436033E+04  0.25500000920E-02 0.  1.
        2   -1    0    0  501    0  0.00000000000E+00  0.00000000000E+00 -0.11714460132E+04  0.11714460132E+04  0.25500000920E-02 0. -1.
    10030    2    1    2    0    0  0.00000000000E+00  0.00000000000E+00  0.94989759012E+03  0.32927896164E+04  0.31528016154E+04 0.  0.
        5    1    3    3  502    0  0.55370647908E+03 -0.15270821302E+03  0.20081591125E+04  0.20886923599E+04  0.46999998093E+01 0.  1.
       -5    1    3    3    0  502 -0.55370647908E+03  0.15270821302E+03 -0.10582615224E+04  0.12040972565E+04  0.46999998093E+01 0. -1.
</event>
<event>
 5   0  0.1273754E-06  0.3228789E+04  0.7818609E-02  0.8181255E-01
       -1   -1    0    0    0  501  0.00000000000E+00  0.00000000000E+00  0.19206484236E+04  0.19206484236E+04  0.50400001928E-02 0. -1.
        1   -1    0    0  501    0  0.00000000000E+00  0.00000000000E+00 -0.13569742118E+04  0.13569742118E+04  0.50400001928E-02 0.  1.
    10030    2    1    2    0    0  0.00000000000E+00  0.00000000000E+00  0.56367421181E+03  0.32776226353E+04  0.32287894825E+04 0.  0.
        2    1    3    3  502    0 -0.16067880195E+04 -0.15037156943E+03  0.32598079846E+03  0.16464029973E+04  0.25500000920E-02 0.  1.
       -2    1    3    3    0  502  0.16067880195E+04  0.15037156943E+03  0.23769341335E+03  0.16312196380E+04  0.25500000920E-02 0. -1.
</event>
<event>
 5   0  0.1273980E-06  0.3081140E+04  0.7818609E-02  0.8220933E-01
       -1   -1    0    0    0  501  0.00000000000E+00  0.00000000000E+00  0.18954725719E+04  0.18954725719E+04  0.50400001928E-02 0. -1.
        1   -1    0    0  501    0  0.00000000000E+00  0.00000000000E+00 -0.12521186413E+04  0.12521186413E+04  0.50400001928E-02 0.  1.
    10030    2    1    2    0    0  0.00000000000E+00  0.00000000000E+00  0.64335393064E+03  0.31475912132E+04  0.30811404002E+04 0.  0.
        4    1    3    3  502    0  0.11765423051E+04 -0.71566152421E+03 -0.38381965490E+03  0.14295951711E+04  0.12699999809E+01 0.  1.
       -4    1    3    3    0  502 -0.11765423051E+04  0.71566152421E+03  0.10271735855E+04  0.17179960421E+04  0.12699999809E+01 0. -1.
</event>
<event>
 5   0  0.1240725E-06  0.3144454E+04  0.7818609E-02  0.8203643E-01
       -1   -1    0    0    0  501  0.00000000000E+00  0.00000000000E+00  0.13742577275E+04  0.13742577275E+04  0.50400001928E-02 0. -1.
        1   -1    0    0  501    0  0.00000000000E+00  0.00000000000E+00 -0.17987148774E+04  0.17987148774E+04  0.50400001928E-02 0.  1.
    10030    2    1    2    0    0  0.00000000000E+00  0.00000000000E+00 -0.42445714989E+03  0.31729726050E+04  0.31444540512E+04 0.  0.
        3    1    3    3  502    0  0.78354766620E+03  0.10358812516E+04  0.68175282355E+03  0.14668959865E+04  0.10100000352E+00 0. -1.
       -3    1    3    3    0  502 -0.78354766620E+03 -0.10358812516E+04 -0.11062099734E+04  0.17060766185E+04  0.10100000352E+00 0.  1.
</event>
<event>
 5   0  0.1306843E-06  0.3189756E+04  0.7818609E-02  0.8191528E-01
       -1   -1    0    0    0  501  0.00000000000E+00  0.00000000000E+00  0.34000326582E+04  0.34000326582E+04  0.50400001928E-02 0. -1.
        1   -1    0    0  501    0  0.00000000000E+00  0.00000000000E+00 -0.74812101968E+03  0.74812101969E+03  0.50400001928E-02 0.  1.
    10030    2    1    2    0    0  0.00000000000E+00  0.00000000000E+00  0.26519116385E+04  0.41481536779E+04  0.31897560403E+04 0.  0.
        5    1    3    3  502    0 -0.13965473995E+04 -0.70882813080E+03  0.17178929885E+04  0.23246419870E+04  0.46999998093E+01 0.  1.
       -5    1    3    3    0  502  0.13965473995E+04  0.70882813080E+03  0.93401865004E+03  0.18235116908E+04  0.46999998093E+01 0. -1.
</event>
<event>
 5   0  0.3531437E-06  0.3213626E+04  0.7818609E-02  0.8185228E-01
        2   -1    0    0  501    0  0.00000000000E+00  0.00000000000E+00  0.19189654154E+04  0.19189654154E+04  0.25500000920E-02 0.  1.
       -2   -1    0    0    0  501  0.00000000000E+00  0.00000000000E+00 -0.13454377090E+04  0.13454377090E+04  0.25500000920E-02 0. -1.
    10030    2    1    2    0    0  0.00000000000E+00  0.00000000000E+00  0.57352770636E+03  0.32644031244E+04  0.32136262584E+04 0.  0.
        1    1    3    3  502    0 -0.44542820003E+03 -0.10670555136E+03 -0.12777193088E+04  0.13573352527E+04  0.50400001928E-02 0. -1.
       -1    1    3    3    0  502  0.44542820003E+03  0.10670555136E+03  0.18512470152E+04  0.19070678717E+04  0.50400001928E-02 0.  1.
</event>
<event>
 5   0  0.1268836E-06  0.3142715E+04  0.7818609E-02  0.8204112E-01
        1   -1    0    0  501    0  0.00000000000E+00  0.00000000000E+00  0.14150721353E+04  0.14150721354E+04  0.50400001928E-02 0.  1.
       -1   -1    0    0    0  501  0.00000000000E+00  0.00000000000E+00 -0.17449032380E+04  0.17449032380E+04  0.50400001928E-02 0. -1.
    10030    2    1    2    0    0  0.00000000000E+00  0.00000000000E+00 -0.32983110266E+03  0.31599753734E+04  0.31427147188E+04 0.  0.
        1    1    3    3  502    0  0.57148650418E+03  0.72310601786E+03  0.11147426770E+04  0.14464198469E+04  0.50400001928E-02 0.  1.
       -1    1    3    3    0  502 -0.57148650418E+03 -0.72310601786E+03 -0.14445737796E+04  0.17135555265E+04  0.50400001928E-02 0. -1.
</event>
<event>
 5   0  0.3531437E-06  0.3171751E+04  0.7818609E-02  0.8196318E-01
        2   -1    0    0  501    0  0.00000000000E+00  0.00000000000E+00  0.26094867215E+04  0.26094867215E+04  0.25500000920E-02 0. -1.
       -2   -1    0    0    0  501  0.00000000000E+00  0.00000000000E+00 -0.96379144665E+03  0.96379144665E+03  0.25500000920E-02 0.  1.
    10030    2    1    2    0    0  0.00000000000E+00  0.00000000000E+00  0.16456952748E+04  0.35732781681E+04  0.31717509249E+04 0.  0.
        1    1    3    3  502    0 -0.72114373835E+03  0.14036351625E+04  0.64557078640E+03  0.17049931382E+04  0.50400001928E-02 0.  1.
       -1    1    3    3    0  502  0.72114373835E+03 -0.14036351625E+04  0.10001244884E+04  0.18682850300E+04  0.50400001928E-02 0. -1.
</event>
<event>
 5   0  0.1240725E-06  0.3143032E+04  0.7818609E-02  0.8204027E-01
        1   -1    0    0  501    0  0.00000000000E+00  0.00000000000E+00  0.17356143039E+04  0.17356143039E+04  0.50400001928E-02 0.  1.
       -1   -1    0    0    0  501  0.00000000000E+00  0.00000000000E+00 -0.14229324400E+04  0.14229324400E+04  0.50400001928E-02 0. -1.
    10030    2    1    2    0    0  0.00000000000E+00  0.00000000000E+00  0.31268186398E+03  0.31585467439E+04  0.31430315915E+04 0.  0.
        3    1    3    3  502    0 -0.54740297158E+03  0.67909926118E+03 -0.11573365723E+04  0.14492252315E+04  0.10100000352E+00 0. -1.
       -3    1    3    3    0  502  0.54740297158E+03 -0.67909926118E+03  0.14700184362E+04  0.17093215124E+04  0.10100000352E+00 0.  1.
</event>
<event>
 5   0  0.1273754E-06  0.3300009E+04  0.7818609E-02  0.8162893E-01
        1   -1    0    0  501    0  0.00000000000E+00  0.00000000000E+00  0.24675772044E+04  0.24675772044E+04  0.50400001928E-02 0. -1.
       -1   -1    0    0    0  501  0.00000000000E+00  0.00000000000E+00 -0.11033146616E+04  0.11033146616E+04  0.50400001928E-02 0.  1.
    10030    2    1    2    0    0  0.00000000000E+00  0.00000000000E+00  0.13642625427E+04  0.35708918660E+04  0.33000085505E+04 0.  0.
        2    1    3    3  502    0  0.12477205873E+03 -0.93361169490E+03  0.21480738862E+04  0.23455106659E+04  0.25500000920E-02 0. -1.
       -2    1    3    3    0  502 -0.12477205873E+03  0.93361169490E+03 -0.78381134342E+03  0.12253812001E+04  0.25500000920E-02 0.  1.
</event>
<event>
 5   0  0.1306843E-06  0.2738161E+04  0.7818609E-02  0.8322728E-01
        1   -1    0    0  501    0  0.00000000000E+00  0.00000000000E+00  0.79172764716E+03  0.79172764717E+03  0.50400001928E-02 0.  1.
       -1   -1    0    0    0  501  0.00000000000E+00  0.00000000000E+00 -0.23674575197E+04  0.23674575197E+04  0.50400001928E-02 0. -1.
    10030    2    1    2    0    0  0.00000000000E+00  0.00000000000E+00 -0.15757298726E+04  0.31591851669E+04  0.27381611142E+04 0.  0.
        5    1    3    3  502    0 -0.12820786624E+04  0.40314423708E+02 -0.23573421189E+03  0.13042023072E+04  0.46999998093E+01 0. -1.
       -5    1    3    3    0  502  0.12820786624E+04 -0.40314423708E+02 -0.13399956607E+04  0.18549828597E+04  0.46999998093E+01 0.  1.
</event>
<event>
 5   0  0.3745943E-06  0.3184034E+04  0.7818609E-02  0.8193047E-01
       -2   -1    0    0    0  501  0.00000000000E+00  0.00000000000E+00  0.22175701658E+04  0.22175701658E+04  0.25500000920E-02 0.  1.
        2   -1    0    0  501    0  0.00000000000E+00  0.00000000000E+00 -0.11429257868E+04  0.11429257868E+04  0.25500000920E-02 0. -1.
    10030    2    1    2    0    0  0.00000000000E+00  0.00000000000E+00  0.10746443791E+04  0.33604959526E+04  0.31840339989E+04 0.  0.
        5    1    3    3  502    0 -0.84155445202E+03 -0.11224205365E+04  0.13316652605E+04  0.19342689090E+04  0.46999998093E+01 0.  1.
       -5    1    3    3    0  502  0.84155445202E+03  0.11224205365E+04 -0.25702088145E+03  0.14262270436E+04  0.46999998093E+01 0. -1.
</event>
<event>
 5   0  0.3745943E-06  0.3178866E+04  0.7818609E-02  0.8194421E-01
       -2   -1    0    0    0  501  0.00000000000E+00  0.00000000000E+00  0.23609097818E+04  0.23609097818E+04  0.25500000920E-02 0.  1.
        2   -1    0    0  501    0  0.00000000000E+00  0.00000000000E+00 -0.10700527023E+04  0.10700527023E+04  0.25500000920E-02 0. -1.
    10030    2    1    2    0    0  0.00000000000E+00  0.00000000000E+00  0.12908570795E+04  0.34309624842E+04  0.31788663967E+04 0.  0.
        5    1    3    3  502    0 -0.14766406643E+04  0.26420742874E+03  0.78406070606E+02  0.15021460710E+04  0.46999998093E+01 0. -1.
       -5    1    3    3    0  502  0.14766406643E+04 -0.26420742874E+03  0.12124510089E+04  0.19288164132E+04  0.46999998093E+01 0.  1.
</event>
<event>
 5   0  0.3745943E-06  0.3206816E+04  0.7818609E-02  0.8187019E-01
       -2   -1    0    0    0  501  0.00000000000E+00  0.00000000000E+00  0.88473141764E+03  0.88473141765E+03  0.25500000920E-02 0. -1.
        2   -1    0    0  501    0  0.00000000000E+00  0.00000000000E+00 -0.29058725373E+04  0.29058725373E+04  0.25500000920E-02 0.  1.
    10030    2    1    2    0    0  0.00000000000E+00  0.00000000000E+00 -0.20211411197E+04  0.37906039550E+04  0.32068156975E+04 0.  0.
        5    1    3    3  502    0 -0.20768829153E+03  0.14502419084E+04 -0.24037104245E+03  0.14846334050E+04  0.46999998093E+01 0. -1.
       -5    1    3    3    0  502  0.20768829153E+03 -0.14502419084E+04 -0.17807700773E+04  0.23059705500E+04  0.46999998093E+01 0.  1.
</event>
<event>
 5   0  0.1273980E-06  0.3302010E+04  0.7818609E-02  0.8162384E-01
       -1   -1    0    0    0  501  0.00000000000E+00  0.00000000000E+00  0.17454575000E+04  0.17454575001E+04  0.50400001928E-02 0.  1.
        1   -1    0    0  501    0  0.00000000000E+00  0.00000000000E+00 -0.15616637320E+04  0.15616637320E+04  0.50400001928E-02 0. -1.
    10030    2    1    2    0    0  0.00000000000E+00  0.00000000000E+00  0.18379376803E+03  0.33071212321E+04  0.33020100991E+04 0.  0.
        4    1    3    3  502    0  0.75930924578E+03  0.14069535121E+04 -0.32074491032E+03  0.16306279852E+04  0.12699999809E+01 0. -1.
       -4    1    3    3    0  502 -0.75930924578E+03 -0.14069535121E+04  0.50453867835E+03  0.16764932468E+04  0.12699999809E+01 0.  1.
</event>
<event>
 5   0  0.3758062E-06  0.3204005E+04  0.7818609E-02  0.8187760E-01
       -2   -1    0    0    0  501  0.00000000000E+00  0.00000000000E+00  0.17903220329E+04  0.17903220329E+04  0.25500000920E-02 0. -1.
        2   -1    0    0  501    0  0.00000000000E+00  0.00000000000E+00 -0.14334921983E+04  0.14334921983E+04  0.25500000920E-02 0.  1.
    10030    2    1    2    0    0  0.00000000000E+00  0.00000000000E+00  0.35682983470E+03  0.32238142312E+04  0.32040054099E+04 0.  0.
        2    1    3    3  502    0 -0.42590521885E+03  0.38884388311E+03 -0.13254216657E+04  0.14454540507E+04  0.25500000920E-02 0.  1.
       -2    1    3    3    0  502  0.42590521885E+03 -0.38884388311E+03  0.16822515004E+04  0.17783601805E+04  0.25500000920E-02 0. -1.
</event>
<event>
 5   0  0.3656086E-06  0.3172926E+04  0.7818609E-02  0.8196004E-01
       -2   -1    0    0    0  501  0.00000000000E+00  0.00000000000E+00  0.11269441859E+04  0.11269441859E+04  0.25500000920E-02 0. -1.
        2   -1    0    0  501    0  0.00000000000E+00  0.00000000000E+00 -0.22333530020E+04  0.22333530020E+04  0.25500000920E-02 0.  1.
    10030    2    1    2    0    0  0.00000000000E+00  0.00000000000E+00 -0.11064088162E+04  0.33602971879E+04  0.31729255778E+04 0.  0.
        3    1    3    3  502    0  0.47741598622E+03 -0.11922502051E+04  0.43318167510E+03  0.13553718859E+04  0.10100000352E+00 0. -1.
       -3    1    3    3    0  502 -0.47741598622E+03  0.11922502051E+04 -0.15395904913E+04  0.20049253019E+04  0.10100000352E+00 0.  1.
</event>
<event>
 5   0  0.1240725E-06  0.3191308E+04  0.7818609E-02  0.8191117E-01
        1   -1    0    0  501    0  0.00000000000E+00  0.00000000000E+00  0.11406108252E+04  0.11406108252E+04  0.50400001928E-02 0. -1.
       -1   -1    0    0    0  501  0.00000000000E+00  0.00000000000E+00 -0.22322350575E+04  0.22322350575E+04  0.50400001928E-02 0.  1.
    10030    2    1    2    0    0  0.00000000000E+00  0.00000000000E+00 -0.10916242323E+04  0.33728458827E+04  0.31913078641E+04 0.  0.
        3    1    3    3  502    0  0.18597585526E+03 -0.10188845065E+04  0.73707354584E+03  0.12712159842E+04  0.10100000352E+00 0.  1.
       -3    1    3    3    0  502 -0.18597585526E+03  0.10188845065E+04 -0.18286977782E+04  0.21016298985E+04  0.10100000352E+00 0. -1.
</event>
<event>
 5   0  0.3656086E-06  0.3220218E+04  0.7818609E-02  0.8183498E-01
       -2   -1    0    0    0  501  0.00000000000E+00  0.00000000000E+00  0.89245823184E+03  0.89245823184E+03  0.25500000920E-02 0. -1.
        2   -1    0    0  501    0  0.00000000000E+00  0.00000000000E+00 -0.29048432619E+04  0.29048432619E+04  0.25500000920E-02 0.  1.
    10030    2    1    2    0    0  0.00000000000E+00  0.00000000000E+00 -0.20123850301E+04  0.37973014938E+04  0.32202181798E+04 0.  0.
        3    1    3    3  502    0 -0.14682968874E+04  0.56236704993E+03 -0.14151898435E+04  0.21153994308E+04  0.10100000352E+00 0. -1.
       -3    1    3    3    0  502  0.14682968874E+04 -0.56236704993E+03 -0.59719518656E+03  0.16819020630E+04  0.10100000352E+00 0.  1.
</event>
<event>
 5   0  0.1273980E-06  0.3172936E+04  0.7818609E-02  0.8196001E-01
        1   -1    0    0  501    0  0.00000000000E+00  0.00000000000E+00  0.29193011390E+04  0.29193011390E+04  0.50400001928E-02 0. -1.
       -1   -1    0    0    0  501  0.00000000000E+00  0.00000000000E+00 -0.86215178864E+03  0.86215178865E+03  0.50400001928E-02 0.  1.
    10030    2    1    2    0    0  0.00000000000E+00  0.00000000000E+00  0.20571493503E+04  0.37814529276E+04  0.31729359896E+04 0.  0.
        4    1    3    3  502    0 -0.12548904762E+04 -0.69461934097E+03  0.18365590548E+04  0.23302782905E+04  0.12699999809E+01 0. -1.
       -4    1    3    3    0  502  0.12548904762E+04  0.69461934097E+03  0.22059029550E+03  0.14511746372E+04  0.12699999809E+01 0.  1.
</event>
<event>
 5   0  0.3745943E-06  0.3206915E+04  0.7818609E-02  0.8186993E-01
       -2   -1    0    0    0  501  0.00000000000E+00  0.00000000000E+00  0.12745347683E+04  0.12745347683E+04  0.25500000920E-02 0. -1.
        2   -1    0    0  501    0  0.00000000000E+00  0.00000000000E+00 -0.20172659163E+04  0.20172659163E+04  0.25500000920E-02 0.  1.
    10030    2    1    2    0    0  0.00000000000E+00  0.00000000000E+00 -0.74273114797E+03  0.32918006846E+04  0.32069147462E+04 0.  0.
        5    1    3    3  502    0 -0.15000270252E+04 -0.53899754011E+03 -0.55049565471E+03  0.16863175800E+04  0.46999998093E+01 0. -1.
       -5    1    3    3    0  502  0.15000270252E+04  0.53899754011E+03 -0.19223549326E+03  0.16054831047E+04  0.46999998093E+01 0.  1.
</event>
<event>
 5   0  0.1240725E-06  0.3188893E+04  0.7818609E-02  0.8191757E-01
       -1   -1    0    0    0  501  0.00000000000E+00  0.00000000000E+00  0.23856072588E+04  0.23856072589E+04  0.50400001928E-02 0.  1.
        1   -1    0    0  501    0  0.00000000000E+00  0.00000000000E+00 -0.10656653014E+04  0.10656653014E+04  0.50400001928E-02 0. -1.
    10030    2    1    2    0    0  0.00000000000E+00  0.00000000000E+00  0.13199419574E+04  0.34512725603E+04  0.31888925216E+04 0.  0.
        3    1    3    3  502    0  0.99648215494E+02  0.71150683229E+03 -0.88055290324E+03  0.11364616865E+04  0.10100000352E+00 0. -1.
       -3    1    3    3    0  502 -0.99648215494E+02 -0.71150683229E+03  0.22004948607E+04  0.23148108738E+04  0.10100000352E+00 0.  1.
</event>
<event>
 5   0  0.3758062E-06  0.3151049E+04  0.7818609E-02  0.8201866E-01
       -2   -1    0    0    0  501  0.00000000000E+00  0.00000000000E+00  0.12012793117E+04  0.12012793117E+04  0.25500000920E-02 0.  1.
        2   -1    0    0  501    0  0.00000000000E+00  0.00000000000E+00 -0.20663610238E+04  0.20663610238E+04  0.25500000920E-02 0. -1.
    10030    2    1    2    0    0  0.00000000000E+00  0.00000000000E+00 -0.86508171204E+03  0.32676403355E+04  0.31510485546E+04 0.  0.
        2    1    3    3  502    0  0.56155052143E+03  0.57070355219E+03  0.97458774132E+03  0.12612940966E+04  0.25500000920E-02 0.  1.
       -2    1    3    3    0  502 -0.56155052143E+03 -0.57070355219E+03 -0.18396694534E+04  0.20063462389E+04  0.25500000920E-02 0. -1.
</event>
<event>
 5   0  0.1306843E-06  0.3208407E+04  0.7818609E-02  0.8186600E-01
        1   -1    0    0  501    0  0.00000000000E+00  0.00000000000E+00  0.19350692443E+04  0.19350692443E+04  0.50400001928E-02 0.  1.
       -1   -1    0    0    0  501  0.00000000000E+00  0.00000000000E+00 -0.13299105684E+04  0.13299105684E+04  0.50400001928E-02 0. -1.
    10030    2    1    2    0    0  0.00000000000E+00  0.00000000000E+00  0.60515867594E+03  0.32649798127E+04  0.32084071055E+04 0.  0.
        5    1    3    3  502    0 -0.10236312728E+04 -0.99373410789E+03  0.10490796401E+04  0.17708525182E+04  0.46999998093E+01 0.  1.
       -5    1    3    3    0  502  0.10236312728E+04  0.99373410789E+03 -0.44392096417E+03  0.14941272945E+04  0.46999998093E+01 0. -1.
</event>
<event>
 5   0  0.1273754E-06  0.3517179E+04  0.7818609E-02  0.8109731E-01
       -1   -1    0    0    0  501  0.00000000000E+00  0.00000000000E+00  0.12718295390E+04  0.12718295390E+04  0.50400001928E-02 0.  1.
        1   -1    0    0  501    0  0.00000000000E+00  0.00000000000E+00 -0.24316437215E+04  0.24316437215E+04  0.50400001928E-02 0. -1.
    10030    2    1    2    0    0  0.00000000000E+00  0.00000000000E+00 -0.11598141825E+04  0.37034732605E+04  0.35171785927E+04 0.  0.
        2    1    3    3  502    0  0.13371661594E+04  0.11084990937E+04 -0.86990870437E+03  0.19425562366E+04  0.25500000920E-02 0.  1.
       -2    1    3    3    0  502 -0.13371661594E+04 -0.11084990937E+04 -0.28990547818E+03  0.17609170238E+04  0.25500000920E-02 0. -1.
</event>
<event>
 5   0  0.1306843E-06  0.3214912E+04  0.7818609E-02  0.8184890E-01
        1   -1    0    0  501    0  0.00000000000E+00  0.00000000000E+00  0.22872201856E+04  0.22872201856E+04  0.50400001928E-02 0. -1.
       -1   -1    0    0    0  501  0.00000000000E+00  0.00000000000E+00 -0.11297186320E+04  0.11297186320E+04  0.50400001928E-02 0.  1.
    10030    2    1    2    0    0  0.00000000000E+00  0.00000000000E+00  0.11575015536E+04  0.34169388177E+04  0.32149122907E+04 0.  0.
        5    1    3    3  502    0 -0.11896628050E+04 -0.98768460358E+03  0.11173584982E+03  0.15502662532E+04  0.46999998093E+01 0.  1.
       -5    1    3    3    0  502  0.11896628050E+04  0.98768460358E+03  0.10457657038E+04  0.18666725645E+04  0.46999998093E+01 0. -1.
</event>
<event>
 5   0  0.3745943E-06  0.3268380E+04  0.7818609E-02  0.8170988E-01
        2   -1    0    0  501    0  0.00000000000E+00  0.00000000000E+00  0.11554787942E+04  0.11554787943E+04  0.25500000920E-02 0. -1.
       -2   -1    0    0    0  501  0.00000000000E+00  0.00000000000E+00 -0.23112298697E+04  0.23112298697E+04  0.25500000920E-02 0.  1.
    10030    2    1    2    0    0  0.00000000000E+00  0.00000000000E+00 -0.11557510755E+04  0.34667086640E+04  0.32683800900E+04 0.  0.
        5    1    3    3  502    0  0.18823529363E+03  0.16180932055E+04 -0.43999979502E+03  0.16873885318E+04  0.46999998093E+01 0.  1.
       -5    1    3    3    0  502 -0.18823529363E+03 -0.16180932055E+04 -0.71575128048E+03  0.17793201322E+04  0.46999998093E+01 0. -1.
</event>
<event>
 5   0  0.1306843E-06  0.3191031E+04  0.7818609E-02  0.8191190E-01
       -1   -1    0    0    0  501  0.00000000000E+00  0.00000000000E+00  0.11870136956E+04  0.11870136957E+04  0.50400001928E-02 0. -1.
        1   -1    0    0  501    0  0.00000000000E+00  0.00000000000E+00 -0.21445998843E+04  0.21445998843E+04  0.50400001928E-02 0.  1.
    10030    2    1    2    0    0  0.00000000000E+00  0.00000000000E+00 -0.95758618870E+03  0.33316135800E+04  0.31910308268E+04 0.  0.
        5    1    3    3  502    0  0.55902899744E+03 -0.99989849355E+03  0.68069018818E+03  0.13325432975E+04  0.46999998093E+01 0. -1.
       -5    1    3    3    0  502 -0.55902899744E+03  0.99989849355E+03 -0.16382763769E+04  0.19990702825E+04  0.46999998093E+01 0.  1.
</event>
<event>
 5   0  0.3531437E-06  0.3117752E+04  0.7818609E-02  0.8210883E-01
        2   -1    0    0  501    0  0.00000000000E+00  0.00000000000E+00  0.23008122093E+04  0.23008122093E+04  0.25500000920E-02 0.  1.
       -2   -1    0    0    0  501  0.00000000000E+00  0.00000000000E+00 -0.10561895340E+04  0.10561895340E+04  0.25500000920E-02 0. -1.
    10030    2    1    2    0    0  0.00000000000E+00  0.00000000000E+00  0.12446226752E+04  0.33570017433E+04  0.31177516099E+04 0.  0.
        1    1    3    3  502    0 -0.40264493944E+03  0.67864081965E+03  0.20698803975E+04  0.22151932578E+04  0.50400001928E-02 0.  1.
       -1    1    3    3    0  502  0.40264493944E+03 -0.67864081965E+03 -0.82525772228E+03  0.11418084855E+04  0.50400001928E-02 0. -1.
</event>
<event>
 5   0  0.3745943E-06  0.3157817E+04  0.7818609E-02  0.8200047E-01
        2   -1    0    0  501    0  0.00000000000E+00  0.00000000000E+00  0.18343276837E+04  0.18343276837E+04  0.25500000920E-02 0.  1.
       -2   -1    0    0    0  501  0.00000000000E+00  0.00000000000E+00 -0.13590545755E+04  0.13590545755E+04  0.25500000920E-02 0. -1.
    10030    2    1    2    0    0  0.00000000000E+00  0.00000000000E+00  0.47527310817E+03  0.31933822592E+04  0.31578166074E+04 0.  0.
        5    1    3    3  502    0 -0.45538149652E+02  0.11878204067E+04 -0.81326848782E+03  0.14402842653E+04  0.46999998093E+01 0. -1.
       -5    1    3    3    0  502  0.45538149652E+02 -0.11878204067E+04  0.12885415960E+04  0.17530979939E+04  0.46999998093E+01 0.  1.
</event>
<event>
 5   0  0.3745943E-06  0.3147296E+04  0.7818609E-02  0.8202876E-01
       -2   -1    0    0    0  501  0.00000000000E+00  0.00000000000E+00  0.15275963077E+04  0.15275963077E+04  0.25500000920E-02 0.  1.
        2   -1    0    0  501    0  0.00000000000E+00  0.00000000000E+00 -0.16210882803E+04  0.16210882803E+04  0.25500000920E-02 0. -1.
    10030    2    1    2    0    0  0.00000000000E+00  0.00000000000E+00 -0.93491972562E+02  0.31486845880E+04  0.31472962819E+04 0.  0.
        5    1    3    3  502    0 -0.12256749845E+04  0.24176652622E+03 -0.10040464172E+04  0.16027668323E+04  0.46999998093E+01 0. -1.
       -5    1    3    3    0  502  0.12256749845E+04 -0.24176652622E+03  0.91055444465E+03  0.15459177557E+04  0.46999998093E+01 0.  1.
</event>
<event>
 5   0  0.1306843E-06  0.3152486E+04  0.7818609E-02  0.8201479E-01
       -1   -1    0    0    0  501  0.00000000000E+00  0.00000000000E+00  0.15467337468E+04  0.15467337468E+04  0.50400001928E-02 0.  1.
        1   -1    0    0  501    0  0.00000000000E+00  0.00000000000E+00 -0.16063151451E+04  0.16063151451E+04  0.50400001928E-02 0. -1.
    10030    2    1    2    0    0  0.00000000000E+00  0.00000000000E+00 -0.59581398289E+02  0.31530488919E+04  0.31524859035E+04 0.  0.
        5    1    3    3  502    0 -0.25059821989E+03 -0.77418193053E+03 -0.13799808994E+04  0.16020382337E+04  0.46999998093E+01 0. -1.
       -5    1    3    3    0  502  0.25059821989E+03  0.77418193053E+03  0.13203995011E+04  0.15510106582E+04  0.46999998093E+01 0.  1.
</event>
<event>
 5   0  0.1306843E-06  0.3094407E+04  0.7818609E-02  0.8217275E-01
       -1   -1    0    0    0  501  0.00000000000E+00  0.00000000000E+00  0.17111382755E+04  0.17111382755E+04  0.50400001928E-02 0.  1.
        1   -1    0    0  501    0  0.00000000000E+00  0.00000000000E+00 -0.13989740457E+04  0.13989740457E+04  0.50400001928E-02 0. -1.
    10030    2    1    2    0    0  0.00000000000E+00  0.00000000000E+00  0.31216422974E+03  0.31101123212E+04  0.30944065900E+04 0.  0.
        5    1    3    3  502    0  0.12813934386E+04 -0.70377559963E+03  0.66515728919E+03  0.16061524051E+04  0.46999998093E+01 0.  1.
       -5    1    3    3    0  502 -0.12813934386E+04  0.70377559963E+03 -0.35299305946E+03  0.15039599161E+04  0.46999998093E+01 0. -1.
</event>
<event>
 5   0  0.3745943E-06  0.3181966E+04  0.7818609E-02  0.8193596E-01
       -2   -1    0    0    0  501  0.00000000000E+00  0.00000000000E+00  0.27149995020E+04  0.27149995020E+04  0.25500000920E-02 0. -1.
        2   -1    0    0  501    0  0.00000000000E+00  0.00000000000E+00 -0.93231234173E+03  0.93231234173E+03  0.25500000920E-02 0.  1.
    10030    2    1    2    0    0  0.00000000000E+00  0.00000000000E+00  0.17826871603E+04  0.36473118437E+04  0.31819664005E+04 0.  0.
        5    1    3    3  502    0 -0.55342820504E+03 -0.42948583900E+03  0.25286947658E+04  0.26239398188E+04  0.46999998093E+01 0. -1.
       -5    1    3    3    0  502  0.55342820504E+03  0.42948583900E+03 -0.74600760550E+03  0.10233720250E+04  0.46999998093E+01 0.  1.
</event>
<event>
 5   0  0.1273980E-06  0.3333494E+04  0.7818609E-02  0.8154425E-01
        1   -1    0    0  501    0  0.00000000000E+00  0.00000000000E+00  0.28550244612E+04  0.28550244612E+04  0.50400001928E-02 0. -1.
       -1   -1    0    0    0  501  0.00000000000E+00  0.00000000000E+00 -0.97303757246E+03  0.97303757247E+03  0.50400001928E-02 0.  1.
    10030    2    1    2    0    0  0.00000000000E+00  0.00000000000E+00  0.18819868888E+04  0.38280620337E+04  0.33334943054E+04 0.  0.
        4    1    3    3  502    0  0.93005195846E+03 -0.80213415366E+03 -0.35295686835E+03  0.12778873228E+04  0.12699999809E+01 0.  1.
       -4    1    3    3    0  502 -0.93005195846E+03  0.80213415366E+03  0.22349437571E+04  0.25501747109E+04  0.12699999809E+01 0. -1.
</event>
<event>
 5   0  0.3531437E-06  0.3214139E+04  0.7818609E-02  0.8185093E-01
       -2   -1    0    0    0  501  0.00000000000E+00  0.00000000000E+00  0.23614447997E+04  0.23614447997E+04  0.25500000920E-02 0. -1.
        2   -1    0    0  501    0  0.00000000000E+00  0.00000000000E+00 -0.10936833740E+04  0.10936833740E+04  0.25500000920E-02 0.  1.
    10030    2    1    2    0    0  0.00000000000E+00  0.00000000000E+00  0.12677614257E+04  0.34551281737E+04  0.32141393349E+04 0.  0.
        1    1    3    3  502    0 -0.11703145509E+04  0.88209062137E+03 -0.75077406004E+02  0.14674319845E+04  0.50400001928E-02 0.  1.
       -1    1    3    3    0  502  0.11703145509E+04 -0.88209062137E+03  0.13428388317E+04  0.19876961891E+04  0.50400001928E-02 0. -1.
</event>
<event>
 5   0  0.1306843E-06  0.3281896E+04  0.7818609E-02  0.8167517E-01
       -1   -1    0    0    0  501  0.00000000000E+00  0.00000000000E+00  0.10383140571E+04  0.10383140571E+04  0.50400001928E-02 0. -1.
        1   -1    0    0  501    0  0.00000000000E+00  0.00000000000E+00 -0.25933489501E+04  0.25933489501E+04  0.50400001928E-02 0.  1.
    10030    2    1    2    0    0  0.00000000000E+00  0.00000000000E+00 -0.15550348931E+04  0.36316630072E+04  0.32818962018E+04 0.  0.
        5    1    3    3  502    0 -0.76794411406E+02  0.16383711950E+04 -0.83318844027E+03  0.18396691608E+04  0.46999998093E+01 0.  1.
       -5    1    3    3    0  502  0.76794411406E+02 -0.16383711950E+04 -0.72184645281E+03  0.17919938464E+04  0.46999998093E+01 0. -1.
</event>
<event>
 5   0  0.1268836E-06  0.3195107E+04  0.7818609E-02  0.8190110E-01
        1   -1    0    0  501    0  0.00000000000E+00  0.00000000000E+00  0.91837575857E+03  0.91837575858E+03  0.50400001928E-02 0.  1.
       -1   -1    0    0    0  501  0.00000000000E+00  0.00000000000E+00 -0.27790127166E+04  0.27790127166E+04  0.50400001928E-02 0. -1.
    10030    2    1    2    0    0  0.00000000000E+00  0.00000000000E+00 -0.18606369581E+04  0.36973884752E+04  0.31951074547E+04 0.  0.
        1    1    3    3  502    0 -0.13902361206E+03  0.72550205729E+03 -0.25695069248E+04  0.26735831082E+04  0.50400001928E-02 0. -1.
       -1    1    3    3    0  502  0.13902361206E+03 -0.72550205729E+03  0.70886996672E+03  0.10238053670E+04  0.50400001928E-02 0.  1.
</event>
<event>
 5   0  0.1268836E-06  0.2950842E+04  0.7818609E-02  0.8257909E-01
        1   -1    0    0  501    0  0.00000000000E+00  0.00000000000E+00  0.26154077114E+04  0.26154077114E+04  0.50400001928E-02 0.  1.
       -1   -1    0    0    0  501  0.00000000000E+00  0.00000000000E+00 -0.83232430749E+03  0.83232430750E+03  0.50400001928E-02 0. -1.
    10030    2    1    2    0    0  0.00000000000E+00  0.00000000000E+00  0.17830834039E+04  0.34477320189E+04  0.29508421931E+04 0.  0.
        1    1    3    3  502    0 -0.30906603617E+03  0.70720425920E+03  0.23607452969E+04  0.24837024853E+04  0.50400001928E-02 0.  1.
       -1    1    3    3    0  502  0.30906603617E+03 -0.70720425920E+03 -0.57766189297E+03  0.96402953355E+03  0.50400001928E-02 0. -1.
</event>
<event>
 5   0  0.1273980E-06  0.3160545E+04  0.7818609E-02  0.8199315E-01
       -1   -1    0    0    0  501  0.00000000000E+00  0.00000000000E+00  0.20199435327E+04  0.20199435327E+04  0.50400001928E-02 0. -1.
        1   -1    0    0  501    0  0.00000000000E+00  0.00000000000E+00 -0.12363028194E+04  0.12363028194E+04  0.50400001928E-02 0.  1.
    10030    2    1    2    0    0  0.00000000000E+00  0.00000000000E+00  0.78364071325E+03  0.32562463521E+04  0.31605454495E+04 0.  0.
        4    1    3    3  502    0  0.12483696991E+04 -0.75727915161E+02  0.13870401261E+04  0.18676304632E+04  0.12699999809E+01 0. -1.
       -4    1    3    3    0  502 -0.12483696991E+04  0.75727915161E+02 -0.60339941283E+03  0.13886158889E+04  0.12699999809E+01 0.  1.
</event>
<event>
 5   0  0.3497546E-06  0.3237170E+04  0.7818609E-02  0.8179069E-01
       -2   -1    0    0    0  501  0.00000000000E+00  0.00000000000E+00  0.30706943032E+04  0.30706943032E+04  0.25500000920E-02 0. -1.
        2   -1    0    0  501    0  0.00000000000E+00  0.00000000000E+00 -0.85316771767E+03  0.85316771767E+03  0.25500000920E-02 0.  1.
    10030    2    1    2    0    0  0.00000000000E+00  0.00000000000E+00  0.22175265855E+04  0.39238620208E+04  0.32371699061E+04 0.  0.
        4    1    3    3  502    0 -0.18333293257E+02 -0.13398682535E+04  0.22092204123E+04  0.25838420016E+04  0.12699999809E+01 0. -1.
       -4    1    3    3    0  502  0.18333293257E+02  0.13398682535E+04  0.83061731890E+01  0.13400200192E+04  0.12699999809E+01 0.  1.
</event>
<event>
 5   0  0.3531437E-06  0.3269150E+04  0.7818609E-02  0.8170790E-01
       -2   -1    0    0    0  501  0.00000000000E+00  0.00000000000E+00  0.28168579614E+04  0.28168579614E+04  0.25500000920E-02 0. -1.
        2   -1    0    0  501    0  0.00000000000E+00  0.00000000000E+00 -0.94851625987E+03  0.94851625988E+03  0.25500000920E-02 0.  1.
    10030    2    1    2    0    0  0.00000000000E+00  0.00000000000E+00  0.18683417015E+04  0.37653742212E+04  0.32691500902E+04 0.  0.
        1    1    3    3  502    0  0.10000209425E+04 -0.64632622224E+03 -0.35565705490E+03  0.12426871738E+04  0.50400001928E-02 0.  1.
       -1    1    3    3    0  502 -0.10000209425E+04  0.64632622224E+03  0.22239987564E+04  0.25226870475E+04  0.50400001928E-02 0. -1.
</event>
<event>
 5   0  0.1273980E-06  0.3225521E+04  0.7818609E-02  0.8182110E-01
        1   -1    0    0  501    0  0.00000000000E+00  0.00000000000E+00  0.16292516726E+04  0.16292516726E+04  0.50400001928E-02 0.  1.
       -1   -1    0    0    0  501  0.00000000000E+00  0.00000000000E+00 -0.15964359506E+04  0.15964359507E+04  0.50400001928E-02 0. -1.
    10030    2    1    2    0    0  0.00000000000E+00  0.00000000000E+00  0.32815721924E+02  0.32256876232E+04  0.32255206977E+04 0.  0.
        4    1    3    3  502    0 -0.90242471920E+03  0.12933183079E+04 -0.32117695079E+03  0.16094094774E+04  0.12699999809E+01 0. -1.
       -4    1    3    3    0  502  0.90242471920E+03 -0.12933183079E+04  0.35399267272E+03  0.16162781458E+04  0.12699999809E+01 0.  1.
</event>
<event>
 5   0  0.3745943E-06  0.3125212E+04  0.7818609E-02  0.8208853E-01
        2   -1    0    0  501    0  0.00000000000E+00  0.00000000000E+00  0.15025897130E+04  0.15025897130E+04  0.25500000920E-02 0.  1.
       -2   -1    0    0    0  501  0.00000000000E+00  0.00000000000E+00 -0.16250193616E+04  0.16250193616E+04  0.25500000920E-02 0. -1.
    10030    2    1    2    0    0  0.00000000000E+00  0.00000000000E+00 -0.12242964866E+03  0.31276090746E+04  0.31252119135E+04 0.  0.
        5    1    3    3  502    0  0.16977237644E+03 -0.15521271972E+04 -0.12285581780E+03  0.15662174620E+04  0.46999998093E+01 0.  1.
       -5    1    3    3    0  502 -0.16977237644E+03  0.15521271972E+04  0.42616913488E+00  0.15613916126E+04  0.46999998093E+01 0. -1.
</event>
<event>
 5   0  0.3656086E-06  0.3167130E+04  0.7818609E-02  0.8197552E-01
        2   -1    0    0  501    0  0.00000000000E+00  0.00000000000E+00  0.23921073651E+04  0.23921073651E+04  0.25500000920E-02 0.  1.
       -2   -1    0    0    0  501  0.00000000000E+00  0.00000000000E+00 -0.10483130729E+04  0.10483130729E+04  0.25500000920E-02 0. -1.
    10030    2    1    2    0    0  0.00000000000E+00  0.00000000000E+00  0.13437942923E+04  0.34404204380E+04  0.31671295664E+04 0.  0.
        3    1    3    3  502    0 -0.44936114080E+03  0.10196126049E+04 -0.55042847601E+03  0.12427818861E+04  0.10100000352E+00 0. -1.
       -3    1    3    3    0  502  0.44936114080E+03 -0.10196126049E+04  0.18942227683E+04  0.21976385520E+04  0.10100000352E+00 0.  1.
</event>
<event>
 5   0  0.3497546E-06  0.3190973E+04  0.7818609E-02  0.8191205E-01
       -2   -1    0    0    0  501  0.00000000000E+00  0.00000000000E+00  0.15211072654E+04  0.15211072654E+04  0.25500000920E-02 0. -1.
        2   -1    0    0  501    0  0.00000000000E+00  0.00000000000E+00 -0.16735024298E+04  0.16735024298E+04  0.25500000920E-02 0.  1.
    10030    2    1    2    0    0  0.00000000000E+00  0.00000000000E+00 -0.15239516438E+03  0.31946096953E+04  0.31909727073E+04 0.  0.
        4    1    3    3  502    0 -0.87234302188E+03  0.16405230460E+03  0.12510885904E+04  0.15339881943E+04  0.12699999809E+01 0. -1.
       -4    1    3    3    0  502  0.87234302188E+03 -0.16405230460E+03 -0.14034837548E+04  0.16606215009E+04  0.12699999809E+01 0.  1.
</event>
<event>
 5   0  0.3758062E-06  0.3233292E+04  0.7818609E-02  0.8180080E-01
       -2   -1    0    0    0  501  0.00000000000E+00  0.00000000000E+00  0.14270421178E+04  0.14270421178E+04  0.25500000920E-02 0.  1.
        2   -1    0    0  501    0  0.00000000000E+00  0.00000000000E+00 -0.18314415101E+04  0.18314415101E+04  0.25500000920E-02 0. -1.
    10030    2    1    2    0    0  0.00000000000E+00  0.00000000000E+00 -0.40439939227E+03  0.32584836278E+04  0.32332919269E+04 0.  0.
        2    1    3    3  502    0  0.60646334003E+03 -0.16633813260E+03  0.12987254505E+04  0.14429670658E+04  0.25500000920E-02 0.  1.
       -2    1    3    3    0  502 -0.60646334003E+03  0.16633813260E+03 -0.17031248427E+04  0.18155165621E+04  0.25500000920E-02 0. -1.
</event>
<event>
 5   0  0.3758062E-06  0.3231101E+04  0.7818609E-02  0.8180652E-01
       -2   -1    0    0    0  501  0.00000000000E+00  0.00000000000E+00  0.15870379611E+04  0.15870379611E+04  0.25500000920E-02 0.  1.
        2   -1    0    0  501    0  0.00000000000E+00  0.00000000000E+00 -0.16445750312E+04  0.16445750312E+04  0.25500000920E-02 0. -1.
    10030    2    1    2    0    0  0.00000000000E+00  0.00000000000E+00 -0.57537070057E+02  0.32316129923E+04  0.32311007440E+04 0.  0.
        2    1    3    3  502    0  0.75985885643E+03  0.72932591025E+03  0.11964567952E+04  0.15939920413E+04  0.25500000920E-02 0.  1.
       -2    1    3    3    0  502 -0.75985885643E+03 -0.72932591025E+03 -0.12539938653E+04  0.16376209510E+04  0.25500000920E-02 0. -1.
</event>
<event>
 5   0  0.3758062E-06  0.3174777E+04  0.7818609E-02  0.8195510E-01
        2   -1    0    0  501    0  0.00000000000E+00  0.00000000000E+00  0.16486328311E+04  0.16486328311E+04  0.25500000920E-02 0.  1.
       -2   -1    0    0    0  501  0.00000000000E+00  0.00000000000E+00 -0.15284193192E+04  0.15284193192E+04  0.25500000920E-02 0. -1.
    10030    2    1    2    0    0  0.00000000000E+00  0.00000000000E+00  0.12021351199E+03  0.31770521503E+04  0.31747770122E+04 0.  0.
        2    1    3    3  502    0  0.11151139269E+04 -0.53977614803E+03 -0.93305844906E+03  0.15509466236E+04  0.25500000920E-02 0. -1.
       -2    1    3    3    0  502 -0.11151139269E+04  0.53977614803E+03  0.10532719610E+04  0.16261055267E+04  0.25500000920E-02 0.  1.
</event>
<event>
 5   0  0.3656086E-06  0.3205864E+04  0.7818609E-02  0.8187270E-01
        2   -1    0    0  501    0  0.00000000000E+00  0.00000000000E+00  0.14149281249E+04  0.14149281249E+04  0.25500000920E-02 0. -1.
       -2   -1    0    0    0  501  0.00000000000E+00  0.00000000000E+00 -0.18159164077E+04  0.18159164077E+04  0.25500000920E-02 0.  1.
    10030    2    1    2    0    0  0.00000000000E+00  0.00000000000E+00 -0.40098828277E+03  0.32308445326E+04  0.32058641255E+04 0.  0.
        3    1    3    3  502    0 -0.78171599551E+03  0.71649633015E+03 -0.14119190569E+04  0.17657752751E+04  0.10100000352E+00 0.  1.
       -3    1    3    3    0  502  0.78171599551E+03 -0.71649633015E+03  0.10109307742E+04  0.14650692575E+04  0.10100000352E+00 0. -1.
</event>
<event>
 5   0  0.3497546E-06  0.3448603E+04  0.7818609E-02  0.8126079E-01
        2   -1    0    0  501    0  0.00000000000E+00  0.00000000000E+00  0.82255917364E+03  0.82255917365E+03  0.25500000920E-02 0. -1.
       -2   -1    0    0    0  501  0.00000000000E+00  0.00000000000E+00 -0.36145924161E+04  0.36145924161E+04  0.25500000920E-02 0.  1.
    10030    2    1    2    0    0  0.00000000000E+00  0.00000000000E+00 -0.27920332424E+04  0.44371515897E+04  0.34486032830E+04 0.  0.
        4    1    3    3  502    0  0.86145056499E+02  0.12578127116E+04 -0.29095155466E+04  0.31709298505E+04  0.12699999809E+01 0.  1.
       -4    1    3    3    0  502 -0.86145056499E+02 -0.12578127116E+04  0.11748230414E+03  0.12662217392E+04  0.12699999809E+01 0. -1.
</event>
<event>
 5   0  0.3531437E-06  0.3128991E+04  0.7818609E-02  0.8207826E-01
       -2   -1    0    0    0  501  0.00000000000E+00  0.00000000000E+00  0.21265184292E+04  0.21265184292E+04  0.25500000920E-02 0.  1.
        2   -1    0    0  501    0  0.00000000000E+00  0.00000000000E+00 -0.11510110307E+04  0.11510110307E+04  0.25500000920E-02 0. -1.
    10030    2    1    2    0    0  0.00000000000E+00  0.00000000000E+00  0.97550739846E+03  0.32775294599E+04  0.31289909997E+04 0.  0.
        1    1    3    3  502    0 -0.12888626373E+04 -0.10602356938E+02  0.14166236034E+04  0.19152289006E+04  0.50400001928E-02 0.  1.
       -1    1    3    3    0  502  0.12888626373E+04  0.10602356938E+02 -0.44111620499E+03  0.13623005594E+04  0.50400001928E-02 0. -1.
</event>
<event>
 5   0  0.1268836E-06  0.2824033E+04  0.7818609E-02  0.8295846E-01
       -1   -1    0    0    0  501  0.00000000000E+00  0.00000000000E+00  0.80484560339E+03  0.80484560340E+03  0.50400001928E-02 0. -1.
        1   -1    0    0  501    0  0.00000000000E+00  0.00000000000E+00 -0.24772332016E+04  0.24772332016E+04  0.50400001928E-02 0.  1.
    10030    2    1    2    0    0  0.00000000000E+00  0.00000000000E+00 -0.16723875982E+04  0.32820788050E+04  0.28240327554E+04 0.  0.
        1    1    3    3  502    0  0.58022573893E+03  0.97503220552E+03 -0.18130195099E+04  0.21387822361E+04  0.50400001928E-02 0.  1.
       -1    1    3    3    0  502 -0.58022573893E+03 -0.97503220552E+03  0.14063191172E+03  0.11432965689E+04  0.50400001928E-02 0. -1.
</event>
<event>
 5   0  0.1240725E-06  0.3190482E+04  0.7818609E-02  0.8191335E-01
       -1   -1    0    0    0  501  0.00000000000E+00  0.00000000000E+00  0.13429138348E+04  0.13429138349E+04  0.50400001928E-02 0. -1.
        1   -1    0    0  501    0  0.00000000000E+00  0.00000000000E+00 -0.18949787113E+04  0.18949787113E+04  0.50400001928E-02 0.  1.
    10030    2    1    2    0    0  0.00000000000E+00  0.00000000000E+00 -0.55206487647E+03  0.32378925462E+04  0.31904815487E+04 0.  0.
        3    1    3    3  502    0  0.78196269591E+03 -0.13740985417E+04 -0.60316382942E+02  0.15821664060E+04  0.10100000352E+00 0.  1.
       -3    1    3    3    0  502 -0.78196269591E+03  0.13740985417E+04 -0.49174849353E+03  0.16557261402E+04  0.10100000352E+00 0. -1.
</event>
<event>
 5   0  0.1268836E-06  0.3220114E+04  0.7818609E-02  0.8183525E-01
       -1   -1    0    0    0  501  0.00000000000E+00  0.00000000000E+00  0.13312317423E+04  0.13312317423E+04  0.50400001928E-02 0. -1.
        1   -1    0    0  501    0  0.00000000000E+00  0.00000000000E+00 -0.19472823356E+04  0.19472823356E+04  0.50400001928E-02 0.  1.
    10030    2    1    2    0    0  0.00000000000E+00  0.00000000000E+00 -0.61605059327E+03  0.32785140779E+04  0.32201143187E+04 0.  0.
        1    1    3    3  502    0 -0.30972760970E+03  0.20146772699E+02  0.13004834985E+04  0.13370095043E+04  0.50400001928E-02 0. -1.
       -1    1    3    3    0  502  0.30972760970E+03 -0.20146772699E+02 -0.19165340917E+04  0.19415045736E+04  0.50400001928E-02 0.  1.
</event>
<event>
 5   0  0.3497546E-06  0.2574757E+04  0.7818609E-02  0.8376827E-01
        2   -1    0    0  501    0  0.00000000000E+00  0.00000000000E+00  0.19758842108E+04  0.19758842108E+04  0.25500000920E-02 0.  1.
       -2   -1    0    0    0  501  0.00000000000E+00  0.00000000000E+00 -0.83878569828E+03  0.83878569828E+03  0.25500000920E-02 0. -1.
    10030    2    1    2    0    0  0.00000000000E+00  0.00000000000E+00  0.11370985125E+04  0.28146699090E+04  0.25747570118E+04 0.  0.
        4    1    3    3  502    0  0.26431544362E+02 -0.42975891394E+03 -0.75773867156E+03  0.87152788706E+03  0.12699999809E+01 0. -1.
       -4    1    3    3    0  502 -0.26431544362E+02  0.42975891394E+03  0.18948371840E+04  0.19431420220E+04  0.12699999809E+01 0.  1.
</event>
<event>
 5   0  0.3758062E-06  0.3013423E+04  0.7818609E-02  0.8239908E-01
       -2   -1    0    0    0  501  0.00000000000E+00  0.00000000000E+00  0.11127945403E+04  0.11127945403E+04  0.25500000920E-02 0.  1.
        2   -1    0    0  501    0  0.00000000000E+00  0.00000000000E+00 -0.20400710096E+04  0.20400710096E+04  0.25500000920E-02 0. -1.
    10030    2    1    2    0    0  0.00000000000E+00  0.00000000000E+00 -0.92727646934E+03  0.31528655499E+04  0.30134232237E+04 0.  0.
        2    1    3    3  502    0  0.29469965482E+03 -0.94415790327E+03 -0.16528505764E+04  0.19261871822E+04  0.25500000920E-02 0. -1.
       -2    1    3    3    0  502 -0.29469965482E+03  0.94415790327E+03  0.72557410707E+03  0.12266783677E+04  0.25500000920E-02 0.  1.
</event>
<event>
 5   0  0.3758062E-06  0.3231121E+04  0.7818609E-02  0.8180646E-01
       -2   -1    0    0    0  501  0.00000000000E+00  0.00000000000E+00  0.14034025887E+04  0.14034025887E+04  0.25500000920E-02 0. -1.
        2   -1    0    0  501    0  0.00000000000E+00  0.00000000000E+00 -0.18597913541E+04  0.18597913541E+04  0.25500000920E-02 0.  1.
    10030    2    1    2    0    0  0.00000000000E+00  0.00000000000E+00 -0.45638876544E+03  0.32631939427E+04  0.32311211681E+04 0.  0.
        2    1    3    3  502    0 -0.29609777196E+02 -0.28533976097E+03  0.13774741029E+04  0.14070289344E+04  0.25500000920E-02 0. -1.
       -2    1    3    3    0  502  0.29609777196E+02  0.28533976097E+03 -0.18338628684E+04  0.18561650083E+04  0.25500000920E-02 0.  1.
</event>
<event>
 5   0  0.3531437E-06  0.3231358E+04  0.7818609E-02  0.8180584E-01
        2   -1    0    0  501    0  0.00000000000E+00  0.00000000000E+00  0.11571114535E+04  0.11571114535E+04  0.25500000920E-02 0. -1.
       -2   -1    0    0    0  501  0.00000000000E+00  0.00000000000E+00 -0.22559788240E+04  0.22559788240E+04  0.25500000920E-02 0.  1.
    10030    2    1    2    0    0  0.00000000000E+00  0.00000000000E+00 -0.10988673704E+04  0.34130902775E+04  0.32313581888E+04 0.  0.
        1    1    3    3  502    0  0.11076389417E+04 -0.72485020868E+03 -0.15278947313E+04  0.20215672534E+04  0.50400001928E-02 0.  1.
       -1    1    3    3    0  502 -0.11076389417E+04  0.72485020868E+03  0.42902736086E+03  0.13915230241E+04  0.50400001928E-02 0. -1.
</event>
<event>
 5   0  0.3745943E-06  0.3288819E+04  0.7818609E-02  0.8165746E-01
       -2   -1    0    0    0  501  0.00000000000E+00  0.00000000000E+00  0.17554662227E+04  0.17554662227E+04  0.25500000920E-02 0.  1.
        2   -1    0    0  501    0  0.00000000000E+00  0.00000000000E+00 -0.15403787326E+04  0.15403787327E+04  0.25500000920E-02 0. -1.
    10030    2    1    2    0    0  0.00000000000E+00  0.00000000000E+00  0.21508749003E+03  0.32958449553E+04  0.32888191408E+04 0.  0.
        5    1    3    3  502    0  0.15868679127E+04 -0.27130287704E+03  0.44338011220E+03  0.16698392250E+04  0.46999998093E+01 0. -1.
       -5    1    3    3    0  502 -0.15868679127E+04  0.27130287704E+03 -0.22829262217E+03  0.16260057303E+04  0.46999998093E+01 0.  1.
</event>
<event>
 5   0  0.1273754E-06  0.3237816E+04  0.7818609E-02  0.8178901E-01
        1   -1    0    0  501    0  0.00000000000E+00  0.00000000000E+00  0.20131084105E+04  0.20131084105E+04  0.50400001928E-02 0.  1.
       -1   -1    0    0    0  501  0.00000000000E+00  0.00000000000E+00 -0.13018985217E+04  0.13018985218E+04  0.50400001928E-02 0. -1.
    10030    2    1    2    0    0  0.00000000000E+00  0.00000000000E+00  0.71120988872E+03  0.33150069322E+04  0.32378158464E+04 0.  0.
        2    1    3    3  502    0 -0.69202381282E+03  0.36918562850E+03  0.18055842575E+04  0.19685856590E+04  0.25500000920E-02 0.  1.
       -2    1    3    3    0  502  0.69202381282E+03 -0.36918562850E+03 -0.10943743688E+04  0.13464212732E+04  0.25500000920E-02 0. -1.
</event>
<event>
 5   0  0.1240725E-06  0.3218708E+04  0.7818609E-02  0.8183894E-01
        1   -1    0    0  501    0  0.00000000000E+00  0.00000000000E+00  0.28683857611E+04  0.28683857611E+04  0.50400001928E-02 0.  1.
       -1   -1    0    0    0  501  0.00000000000E+00  0.00000000000E+00 -0.90295413780E+03  0.90295413781E+03  0.50400001928E-02 0. -1.
    10030    2    1    2    0    0  0.00000000000E+00  0.00000000000E+00  0.19654316233E+04  0.37713398989E+04  0.32187083072E+04 0.  0.
        3    1    3    3  502    0  0.12035340538E+04 -0.60186670302E+03 -0.51620248139E+02  0.13466263057E+04  0.10100000352E+00 0. -1.
       -3    1    3    3    0  502 -0.12035340538E+04  0.60186670302E+03  0.20170518714E+04  0.24247135932E+04  0.10100000352E+00 0.  1.
</event>
<event>
 5   0  0.1268836E-06  0.3085785E+04  0.7818609E-02  0.8219650E-01
        1   -1    0    0  501    0  0.00000000000E+00  0.00000000000E+00  0.20998724302E+04  0.20998724302E+04  0.50400001928E-02 0. -1.
       -1   -1    0    0    0  501  0.00000000000E+00  0.00000000000E+00 -0.11336481948E+04  0.11336481949E+04  0.50400001928E-02 0.  1.
    10030    2    1    2    0    0  0.00000000000E+00  0.00000000000E+00  0.96622423536E+03  0.32335206251E+04  0.30857845614E+04 0.  0.
        1    1    3    3  502    0 -0.31629155339E+03  0.63957743060E+03  0.19166042488E+04  0.20451091616E+04  0.50400001928E-02 0. -1.
       -1    1    3    3    0  502  0.31629155339E+03 -0.63957743060E+03 -0.95038001342E+03  0.11884114634E+04  0.50400001928E-02 0.  1.
</event>
<event>
 5   0  0.1273754E-06  0.3333088E+04  0.7818609E-02  0.8154527E-01
        1   -1    0    0  501    0  0.00000000000E+00  0.00000000000E+00  0.18366206682E+04  0.18366206682E+04  0.50400001928E-02 0.  1.
       -1   -1    0    0    0  501  0.00000000000E+00  0.00000000000E+00 -0.15122170112E+04  0.15122170112E+04  0.50400001928E-02 0. -1.
    10030    2    1    2    0    0  0.00000000000E+00  0.00000000000E+00  0.32440365703E+03  0.33488376794E+04  0.33330880682E+04 0.  0.
        2    1    3    3  502    0  0.60222681581E+03 -0.15423094632E+04  0.35276459496E+03  0.16928787545E+04  0.25500000920E-02 0.  1.
       -2    1    3    3    0  502 -0.60222681581E+03  0.15423094632E+04 -0.28360937929E+02  0.16559589249E+04  0.25500000920E-02 0. -1.
</event>
<event>
 5   0  0.3656086E-06  0.3169345E+04  0.7818609E-02  0.8196960E-01
       -2   -1    0    0    0  501  0.00000000000E+00  0.00000000000E+00  0.94838760492E+03  0.94838760492E+03  0.25500000920E-02 0. -1.
        2   -1    0    0  501    0  0.00000000000E+00  0.00000000000E+00 -0.26478494588E+04  0.26478494589E+04  0.25500000920E-02 0.  1.
    10030    2    1    2    0    0  0.00000000000E+00  0.00000000000E+00 -0.16994618539E+04  0.35962370638E+04  0.31693454255E+04 0.  0.
        3    1    3    3  502    0 -0.14180476615E+04  0.70359544799E+03 -0.76726535928E+03  0.17591480513E+04  0.10100000352E+00 0. -1.
       -3    1    3    3    0  502  0.14180476615E+04 -0.70359544799E+03 -0.93219649465E+03  0.18370890124E+04  0.10100000352E+00 0.  1.
</event>
<event>
 5   0  0.1273754E-06  0.3180551E+04  0.7818609E-02  0.8193972E-01
        1   -1    0    0  501    0  0.00000000000E+00  0.00000000000E+00  0.22734368816E+04  0.22734368816E+04  0.50400001928E-02 0.  1.
       -1   -1    0    0    0  501  0.00000000000E+00  0.00000000000E+00 -0.11124024471E+04  0.11124024471E+04  0.50400001928E-02 0. -1.
    10030    2    1    2    0    0  0.00000000000E+00  0.00000000000E+00  0.11610344345E+04  0.33858393287E+04  0.31805513676E+04 0.  0.
        2    1    3    3  502    0  0.74557116628E+03 -0.84998743486E+03  0.17710104182E+04  0.21011503765E+04  0.25500000920E-02 0.  1.
       -2    1    3    3    0  502 -0.74557116628E+03  0.84998743486E+03 -0.60997598362E+03  0.12846889522E+04  0.25500000920E-02 0. -1.
</event>
<event>
 5   0  0.3745943E-06  0.3299899E+04  0.7818609E-02  0.8162921E-01
        2   -1    0    0  501    0  0.00000000000E+00  0.00000000000E+00  0.18716964277E+04  0.18716964277E+04  0.25500000920E-02 0. -1.
       -2   -1    0    0    0  501  0.00000000000E+00  0.00000000000E+00 -0.14544739293E+04  0.14544739293E+04  0.25500000920E-02 0.  1.
    10030    2    1    2    0    0  0.00000000000E+00  0.00000000000E+00  0.41722249844E+03  0.33261703570E+04  0.32998991849E+04 0.  0.
        5    1    3    3  502    0 -0.12460303591E+04  0.93169475362E+03 -0.34500156495E+03  0.15936420362E+04  0.46999998093E+01 0. -1.
       -5    1    3    3    0  502  0.12460303591E+04 -0.93169475362E+03  0.76222406340E+03  0.17325283208E+04  0.46999998093E+01 0.  1.
</event>
<event>
 5   0  0.3531437E-06  0.3189613E+04  0.7818609E-02  0.8191566E-01
        2   -1    0    0  501    0  0.00000000000E+00  0.00000000000E+00  0.18011130615E+04  0.18011130616E+04  0.25500000920E-02 0.  1.
       -2   -1    0    0    0  501  0.00000000000E+00  0.00000000000E+00 -0.14121308187E+04  0.14121308187E+04  0.25500000920E-02 0. -1.
    10030    2    1    2    0    0  0.00000000000E+00  0.00000000000E+00  0.38898224283E+03  0.32132438803E+04  0.31896126801E+04 0.  0.
        1    1    3    3  502    0 -0.12650777896E+03 -0.10695101348E+04 -0.99046793453E+03  0.14631756135E+04  0.50400001928E-02 0. -1.
       -1    1    3    3    0  502  0.12650777896E+03  0.10695101348E+04  0.13794501774E+04  0.17500682668E+04  0.50400001928E-02 0.  1.
</event>
<event>
 5   0  0.1306843E-06  0.3305697E+04  0.7818609E-02  0.8161447E-01
        1   -1    0    0  501    0  0.00000000000E+00  0.00000000000E+00  0.15621109956E+04  0.15621109956E+04  0.50400001928E-02 0.  1.
       -1   -1    0    0    0  501  0.00000000000E+00  0.00000000000E+00 -0.17488563510E+04  0.17488563510E+04  0.50400001928E-02 0. -1.
    10030    2    1    2    0    0  0.00000000000E+00  0.00000000000E+00 -0.18674535532E+03  0.33109673466E+04  0.33056967409E+04 0.  0.
        5    1    3    3  502    0  0.10148681092E+04  0.61971214540E+03  0.10564495035E+04  0.15906313419E+04  0.46999998093E+01 0.  1.
       -5    1    3    3    0  502 -0.10148681092E+04 -0.61971214540E+03 -0.12431948588E+04  0.17203360048E+04  0.46999998093E+01 0. -1.
</event>
<event>
 5   0  0.1240725E-06  0.3226994E+04  0.7818609E-02  0.8181724E-01
       -1   -1    0    0    0  501  0.00000000000E+00  0.00000000000E+00  0.10738241393E+04  0.10738241393E+04  0.50400001928E-02 0.  1.
        1   -1    0    0  501    0  0.00000000000E+00  0.00000000000E+00 -0.24243932468E+04  0.24243932468E+04  0.50400001928E-02 0. -1.
    10030    2    1    2    0    0  0.00000000000E+00  0.00000000000E+00 -0.13505691075E+04  0.34982173860E+04  0.32269936421E+04 0.  0.
        3    1    3    3  502    0  0.15524700943E+04 -0.43726136733E+03 -0.72389882689E+03  0.17678773767E+04  0.10100000352E+00 0.  1.
       -3    1    3    3    0  502 -0.15524700943E+04  0.43726136733E+03 -0.62667028059E+03  0.17303400094E+04  0.10100000352E+00 0. -1.
</event>
<event>
 5   0  0.1268836E-06  0.3146746E+04  0.7818609E-02  0.8203025E-01
       -1   -1    0    0    0  501  0.00000000000E+00  0.00000000000E+00  0.90781683429E+03  0.90781683431E+03  0.50400001928E-02 0.  1.
        1   -1    0    0  501    0  0.00000000000E+00  0.00000000000E+00 -0.27268743604E+04  0.27268743604E+04  0.50400001928E-02 0. -1.
    10030    2    1    2    0    0  0.00000000000E+00  0.00000000000E+00 -0.18190575261E+04  0.36346911947E+04  0.31467459061E+04 0.  0.
        1    1    3    3  502    0 -0.13966109728E+04  0.59251874724E+03 -0.13912079147E+04  0.20584120426E+04  0.50400001928E-02 0. -1.
       -1    1    3    3    0  502  0.13966109728E+04 -0.59251874724E+03 -0.42784961136E+03  0.15762791521E+04  0.50400001928E-02 0.  1.
</event>
<event>
 5   0  0.1306843E-06  0.3225685E+04  0.7818609E-02  0.8182067E-01
       -1   -1    0    0    0  501  0.00000000000E+00  0.00000000000E+00  0.10490241763E+04  0.10490241763E+04  0.50400001928E-02 0. -1.
        1   -1    0    0  501    0  0.00000000000E+00  0.00000000000E+00 -0.24796960442E+04  0.24796960443E+04  0.50400001928E-02 0.  1.
    10030    2    1    2    0    0  0.00000000000E+00  0.00000000000E+00 -0.14306718679E+04  0.35287202206E+04  0.32256851058E+04 0.  0.
        5    1    3    3  502    0  0.14591548337E+04 -0.68586665050E+03 -0.67032282019E+03  0.17461101524E+04  0.46999998093E+01 0.  1.
       -5    1    3    3    0  502 -0.14591548337E+04  0.68586665050E+03 -0.76034904773E+03  0.17826100682E+04  0.46999998093E+01 0. -1.
</event>
<event>
 5   0  0.3758062E-06  0.3220377E+04  0.7818609E-02  0.8183456E-01
       -2   -1    0    0    0  501  0.00000000000E+00  0.00000000000E+00  0.12362600685E+04  0.12362600685E+04  0.25500000920E-02 0. -1.
        2   -1    0    0  501    0  0.00000000000E+00  0.00000000000E+00 -0.20972183715E+04  0.20972183715E+04  0.25500000920E-02 0.  1.
    10030    2    1    2    0    0  0.00000000000E+00  0.00000000000E+00 -0.86095830297E+03  0.33334784400E+04  0.32203772000E+04 0.  0.
        2    1    3    3  502    0 -0.63907667126E+03 -0.12871883142E+04  0.32127391299E+03  0.14725792594E+04  0.25500000920E-02 0. -1.
       -2    1    3    3    0  502  0.63907667126E+03  0.12871883142E+04 -0.11822322160E+04  0.18608991806E+04  0.25500000920E-02 0.  1.
</event>
<event>
 5   0  0.1273754E-06  0.3184282E+04  0.7818609E-02  0.8192981E-01
        1   -1    0    0  501    0  0.00000000000E+00  0.00000000000E+00  0.20222562116E+04  0.20222562116E+04  0.50400001928E-02 0.  1.
       -1   -1    0    0    0  501  0.00000000000E+00  0.00000000000E+00 -0.12535073769E+04  0.12535073770E+04  0.50400001928E-02 0. -1.
    10030    2    1    2    0    0  0.00000000000E+00  0.00000000000E+00  0.76874883462E+03  0.32757635885E+04  0.31842820725E+04 0.  0.
        2    1    3    3  502    0 -0.76085950712E+03 -0.33267032049E+02  0.18227198654E+04  0.19754294704E+04  0.25500000920E-02 0.  1.
       -2    1    3    3    0  502  0.76085950712E+03  0.33267032049E+02 -0.10539710308E+04  0.13003341181E+04  0.25500000920E-02 0. -1.
</event>
<event>
 5   0  0.3745943E-06  0.3147071E+04  0.7818609E-02  0.8202937E-01
        2   -1    0    0  501    0  0.00000000000E+00  0.00000000000E+00  0.16389114751E+04  0.16389114751E+04  0.25500000920E-02 0. -1.
       -2   -1    0    0    0  501  0.00000000000E+00  0.00000000000E+00 -0.15107670312E+04  0.15107670312E+04  0.25500000920E-02 0.  1.
    10030    2    1    2    0    0  0.00000000000E+00  0.00000000000E+00  0.12814444385E+03  0.31496785063E+04  0.31470706530E+04 0.  0.
        5    1    3    3  502    0 -0.12517781449E+04  0.94433547754E+03 -0.67464673333E+02  0.15694876840E+04  0.46999998093E+01 0. -1.
       -5    1    3    3    0  502  0.12517781449E+04 -0.94433547754E+03  0.19560911719E+03  0.15801908223E+04  0.46999998093E+01 0.  1.
</event>
<event>
 5   0  0.1268836E-06  0.3242624E+04  0.7818609E-02  0.8177650E-01
       -1   -1    0    0    0  501  0.00000000000E+00  0.00000000000E+00  0.15657467494E+04  0.15657467494E+04  0.50400001928E-02 0.  1.
        1   -1    0    0  501    0  0.00000000000E+00  0.00000000000E+00 -0.16788494853E+04  0.16788494854E+04  0.50400001928E-02 0. -1.
    10030    2    1    2    0    0  0.00000000000E+00  0.00000000000E+00 -0.11310273598E+03  0.32445962347E+04  0.32426243226E+04 0.  0.
        1    1    3    3  502    0  0.11645861139E+04 -0.51575574734E+03  0.94724776693E+03  0.15873068826E+04  0.50400001928E-02 0.  1.
       -1    1    3    3    0  502 -0.11645861139E+04  0.51575574734E+03 -0.10603505029E+04  0.16572893521E+04  0.50400001928E-02 0. -1.
</event>
<event>
 5   0  0.3656086E-06  0.3169842E+04  0.7818609E-02  0.8196828E-01
        2   -1    0    0  501    0  0.00000000000E+00  0.00000000000E+00  0.23650229188E+04  0.23650229188E+04  0.25500000920E-02 0.  1.
       -2   -1    0    0    0  501  0.00000000000E+00  0.00000000000E+00 -0.10621351673E+04  0.10621351673E+04  0.25500000920E-02 0. -1.
    10030    2    1    2    0    0  0.00000000000E+00  0.00000000000E+00  0.13028877515E+04  0.34271580862E+04  0.31698416450E+04 0.  0.
        3    1    3    3  502    0 -0.15376755649E+04 -0.17626282760E+03  0.10204075529E+04  0.18538463560E+04  0.10100000352E+00 0.  1.
       -3    1    3    3    0  502  0.15376755649E+04  0.17626282760E+03  0.28248019855E+03  0.15733117301E+04  0.10100000352E+00 0. -1.
</event>
<event>
 5   0  0.3745943E-06  0.3202179E+04  0.7818609E-02  0.8188242E-01
        2   -1    0    0  501    0  0.00000000000E+00  0.00000000000E+00  0.21543230762E+04  0.21543230762E+04  0.25500000920E-02 0.  1.
       -2   -1    0    0    0  501  0.00000000000E+00  0.00000000000E+00 -0.11899270324E+04  0.11899270324E+04  0.25500000920E-02 0. -1.
    10030    2    1    2    0    0  0.00000000000E+00  0.00000000000E+00  0.96439604382E+03  0.33442501086E+04  0.32021787988E+04 0.  0.
        5    1    3    3  502    0 -0.14052087397E+04 -0.75863438904E+03  0.60276447440E+03  0.17068933300E+04  0.46999998093E+01 0.  1.
       -5    1    3    3    0  502  0.14052087397E+04  0.75863438904E+03  0.36163156942E+03  0.16373567786E+04  0.46999998093E+01 0. -1.
</event>
<event>
 5   0  0.3745943E-06  0.2412165E+04  0.7818609E-02  0.8434963E-01
       -2   -1    0    0    0  501  0.00000000000E+00  0.00000000000E+00  0.11316251841E+04  0.11316251841E+04  0.25500000920E-02 0.  1.
        2   -1    0    0  501    0  0.00000000000E+00  0.00000000000E+00 -0.12854388377E+04  0.12854388377E+04  0.25500000920E-02 0. -1.
    10030    2    1    2    0    0  0.00000000000E+00  0.00000000000E+00 -0.15381365357E+03  0.24170640218E+04  0.24121649706E+04 0.  0.
        5    1    3    3  502    0 -0.80714358844E+03  0.32769214265E+03 -0.91271717168E+03  0.12617201109E+04  0.46999998093E+01 0. -1.
       -5    1    3    3    0  502  0.80714358844E+03 -0.32769214265E+03  0.75890351810E+03  0.11553439109E+04  0.46999998093E+01 0.  1.
</event>
<event>
 5   0  0.3656086E-06  0.2932979E+04  0.7818609E-02  0.8263132E-01
       -2   -1    0    0    0  501  0.00000000000E+00  0.00000000000E+00  0.15721843898E+04  0.15721843898E+04  0.25500000920E-02 0. -1.
        2   -1    0    0  501    0  0.00000000000E+00  0.00000000000E+00 -0.13679001322E+04  0.13679001322E+04  0.25500000920E-02 0.  1.
    10030    2    1    2    0    0  0.00000000000E+00  0.00000000000E+00  0.20428425752E+03  0.29400845220E+04  0.29329788507E+04 0.  0.
        3    1    3    3  502    0 -0.63009305866E+03  0.12243432317E+04 -0.40361723160E+03  0.14349008647E+04  0.10100000352E+00 0.  1.
       -3    1    3    3    0  502  0.63009305866E+03 -0.12243432317E+04  0.60790148912E+03  0.15051836573E+04  0.10100000352E+00 0. -1.
</event>
<event>
 5   0  0.1268836E-06  0.2968889E+04  0.7818609E-02  0.8252671E-01
       -1   -1    0    0    0  501  0.00000000000E+00  0.00000000000E+00  0.18201175321E+04  0.18201175321E+04  0.50400001928E-02 0. -1.
        1   -1    0    0  501    0  0.00000000000E+00  0.00000000000E+00 -0.12106774039E+04  0.12106774039E+04  0.50400001928E-02 0.  1.
    10030    2    1    2    0    0  0.00000000000E+00  0.00000000000E+00  0.60944012821E+03  0.30307949359E+04  0.29688887945E+04 0.  0.
        1    1    3    3  502    0  0.17050980745E+02  0.67414302755E+03  0.16547227516E+04  0.17868595195E+04  0.50400001928E-02 0. -1.
       -1    1    3    3    0  502 -0.17050980745E+02 -0.67414302755E+03 -0.10452826234E+04  0.12439354165E+04  0.50400001928E-02 0.  1.
</event>
<event>
 5   0  0.1273980E-06  0.3189962E+04  0.7818609E-02  0.8191473E-01
        1   -1    0    0  501    0  0.00000000000E+00  0.00000000000E+00  0.25086213378E+04  0.25086213378E+04  0.50400001928E-02 0.  1.
       -1   -1    0    0    0  501  0.00000000000E+00  0.00000000000E+00 -0.10140884365E+04  0.10140884365E+04  0.50400001928E-02 0. -1.
    10030    2    1    2    0    0  0.00000000000E+00  0.00000000000E+00  0.14945329013E+04  0.35227097744E+04  0.31899616865E+04 0.  0.
        4    1    3    3  502    0  0.14955187476E+04  0.39563542486E+02  0.13579620937E+04  0.20204465495E+04  0.12699999809E+01 0.  1.
       -4    1    3    3    0  502 -0.14955187476E+04 -0.39563542486E+02  0.13657080760E+03  0.15022632249E+04  0.12699999809E+01 0. -1.
</event>
<event>
 5   0  0.1306843E-06  0.3203319E+04  0.7818609E-02  0.8187941E-01
        1   -1    0    0  501    0  0.00000000000E+00  0.00000000000E+00  0.15055692753E+04  0.15055692754E+04  0.50400001928E-02 0. -1.
       -1   -1    0    0    0  501  0.00000000000E+00  0.00000000000E+00 -0.17038820686E+04  0.17038820686E+04  0.50400001928E-02 0.  1.
    10030    2    1    2    0    0  0.00000000000E+00  0.00000000000E+00 -0.19831279326E+03  0.32094513440E+04  0.32033185863E+04 0.  0.
        5    1    3    3  502    0  0.15111515981E+04 -0.33028512841E+03  0.31711825951E+03  0.15790039579E+04  0.46999998093E+01 0. -1.
       -5    1    3    3    0  502 -0.15111515981E+04  0.33028512841E+03 -0.51543105277E+03  0.16304473861E+04  0.46999998093E+01 0.  1.
</event>
<event>
 5   0  0.3758062E-06  0.3165857E+04  0.7818609E-02  0.8197893E-01
       -2   -1    0    0    0  501  0.00000000000E+00  0.00000000000E+00  0.12772806729E+04  0.12772806729E+04  0.25500000920E-02 0. -1.
        2   -1    0    0  501    0  0.00000000000E+00  0.00000000000E+00 -0.19617167092E+04  0.19617167092E+04  0.25500000920E-02 0.  1.
    10030    2    1    2    0    0  0.00000000000E+00  0.00000000000E+00 -0.68443603631E+03  0.32389973821E+04  0.31658571278E+04 0.  0.
        2    1    3    3  502    0  0.96276547396E+03  0.75275969412E+03  0.68705511834E+03  0.14020018725E+04  0.25500000920E-02 0.  1.
       -2    1    3    3    0  502 -0.96276547396E+03 -0.75275969412E+03 -0.13714911547E+04  0.18369955096E+04  0.25500000920E-02 0. -1.
</event>
<event>
 5   0  0.1240725E-06  0.3125743E+04  0.7818609E-02  0.8208708E-01
        1   -1    0    0  501    0  0.00000000000E+00  0.00000000000E+00  0.17490271359E+04  0.17490271359E+04  0.50400001928E-02 0. -1.
       -1   -1    0    0    0  501  0.00000000000E+00  0.00000000000E+00 -0.13965292733E+04  0.13965292733E+04  0.50400001928E-02 0.  1.
    10030    2    1    2    0    0  0.00000000000E+00  0.00000000000E+00  0.35249786258E+03  0.31455564092E+04  0.31257431725E+04 0.  0.
        3    1    3    3  502    0  0.13768148998E+04  0.53865916010E+03 -0.33371228928E+03  0.15156308460E+04  0.10100000352E+00 0.  1.
       -3    1    3    3    0  502 -0.13768148998E+04 -0.53865916010E+03  0.68621015186E+03  0.16299255633E+04  0.10100000352E+00 0. -1.
</event>
<event>
 5   0  0.1273980E-06  0.3191322E+04  0.7818609E-02  0.8191113E-01
       -1   -1    0    0    0  501  0.00000000000E+00  0.00000000000E+00  0.22899282160E+04  0.22899282160E+04  0.50400001928E-02 0.  1.
        1   -1    0    0  501    0  0.00000000000E+00  0.00000000000E+00 -0.11118840590E+04  0.11118840590E+04  0.50400001928E-02 0. -1.
    10030    2    1    2    0    0  0.00000000000E+00  0.00000000000E+00  0.11780441570E+04  0.34018122750E+04  0.31913224091E+04 0.  0.
        4    1    3    3  502    0  0.11195320491E+04  0.16603952288E+03 -0.60998377160E+03  0.12856916219E+04  0.12699999809E+01 0. -1.
       -4    1    3    3    0  502 -0.11195320491E+04 -0.16603952288E+03  0.17880279286E+04  0.21161206531E+04  0.12699999809E+01 0.  1.
</event>
<event>
 5   0  0.3497546E-06  0.3158557E+04  0.7818609E-02  0.8199849E-01
       -2   -1    0    0    0  501  0.00000000000E+00  0.00000000000E+00  0.12109882773E+04  0.12109882773E+04  0.25500000920E-02 0. -1.
        2   -1    0    0  501    0  0.00000000000E+00  0.00000000000E+00 -0.20595746560E+04  0.20595746560E+04  0.25500000920E-02 0.  1.
    10030    2    1    2    0    0  0.00000000000E+00  0.00000000000E+00 -0.84858637873E+03  0.32705629332E+04  0.31585571165E+04 0.  0.
        4    1    3    3  502    0  0.49843740654E+03 -0.29159302805E+03  0.10977475219E+04  0.12403699355E+04  0.12699999809E+01 0. -1.
       -4    1    3    3    0  502 -0.49843740654E+03  0.29159302805E+03 -0.19463339006E+04  0.20301929977E+04  0.12699999809E+01 0.  1.
</event>
<event>
 5   0  0.1273980E-06  0.3196952E+04  0.7818609E-02  0.8189622E-01
       -1   -1    0    0    0  501  0.00000000000E+00  0.00000000000E+00  0.15828739221E+04  0.15828739221E+04  0.50400001928E-02 0.  1.
        1   -1    0    0  501    0  0.00000000000E+00  0.00000000000E+00 -0.16142323523E+04  0.16142323523E+04  0.50400001928E-02 0. -1.
    10030    2    1    2    0    0  0.00000000000E+00  0.00000000000E+00 -0.31358430229E+02  0.31971062744E+04  0.31969524831E+04 0.  0.
        4    1    3    3  502    0  0.11506714169E+04  0.53921177779E+03 -0.98543232976E+03  0.16080648434E+04  0.12699999809E+01 0. -1.
       -4    1    3    3    0  502 -0.11506714169E+04 -0.53921177779E+03  0.95407389953E+03  0.15890414311E+04  0.12699999809E+01 0.  1.
</event>
<event>
 5   0  0.1273980E-06  0.3205726E+04  0.7818609E-02  0.8187307E-01
        1   -1    0    0  501    0  0.00000000000E+00  0.00000000000E+00  0.18635321570E+04  0.18635321570E+04  0.50400001928E-02 0.  1.
       -1   -1    0    0    0  501  0.00000000000E+00  0.00000000000E+00 -0.13786561018E+04  0.13786561018E+04  0.50400001928E-02 0. -1.
    10030    2    1    2    0    0  0.00000000000E+00  0.00000000000E+00  0.48487605523E+03  0.32421882588E+04  0.32057261138E+04 0.  0.
        4    1    3    3  502    0 -0.75187712170E+03 -0.11223241318E+04  0.11149424715E+04  0.17515789992E+04  0.12699999809E+01 0.  1.
       -4    1    3    3    0  502  0.75187712170E+03  0.11223241318E+04 -0.63006641623E+03  0.14906092596E+04  0.12699999809E+01 0. -1.
</event>
<event>
 5   0  0.1268836E-06  0.3221293E+04  0.7818609E-02  0.8183216E-01
        1   -1    0    0  501    0  0.00000000000E+00  0.00000000000E+00  0.23374896686E+04  0.23374896686E+04  0.50400001928E-02 0. -1.
       -1   -1    0    0    0  501  0.00000000000E+00  0.00000000000E+00 -0.11098152775E+04  0.11098152776E+04  0.50400001928E-02 0.  1.
    10030    2    1    2    0    0  0.00000000000E+00  0.00000000000E+00  0.12276743910E+04  0.34473049461E+04  0.32212927500E+04 0.  0.
        1    1    3    3  502    0  0.50337520261E+03  0.15117231733E+04  0.86592382884E+03  0.18134270387E+04  0.50400001928E-02 0. -1.
       -1    1    3    3    0  502 -0.50337520261E+03 -0.15117231733E+04  0.36175056216E+03  0.16338779074E+04  0.50400001928E-02 0.  1.
</event>
<event>
 5   0  0.3531437E-06  0.3095329E+04  0.7818609E-02  0.8217021E-01
       -2   -1    0    0    0  501  0.00000000000E+00  0.00000000000E+00  0.83226839729E+03  0.83226839729E+03  0.25500000920E-02 0.  1.
        2   -1    0    0  501    0  0.00000000000E+00  0.00000000000E+00 -0.28779960456E+04  0.28779960456E+04  0.25500000920E-02 0. -1.
    10030    2    1    2    0    0  0.00000000000E+00  0.00000000000E+00 -0.20457276484E+04  0.37102644429E+04  0.30953288396E+04 0.  0.
        1    1    3    3  502    0 -0.40241631217E+03 -0.11845463260E+04  0.69288533688E+02  0.12529524283E+04  0.50400001928E-02 0.  1.
       -1    1    3    3    0  502  0.40241631217E+03  0.11845463260E+04 -0.21150161820E+04  0.24573120146E+04  0.50400001928E-02 0. -1.
</event>
<event>
 5   0  0.1240725E-06  0.3191178E+04  0.7818609E-02  0.8191151E-01
       -1   -1    0    0    0  501  0.00000000000E+00  0.00000000000E+00  0.13790290998E+04  0.13790290998E+04  0.50400001928E-02 0. -1.
        1   -1    0    0  501    0  0.00000000000E+00  0.00000000000E+00 -0.18461566405E+04  0.18461566405E+04  0.50400001928E-02 0.  1.
    10030    2    1    2    0    0  0.00000000000E+00  0.00000000000E+00 -0.46712754070E+03  0.32251857403E+04  0.31911776698E+04 0.  0.
        3    1    3    3  502    0 -0.15775145442E+04 -0.23947887202E+03 -0.23478174880E+03  0.16127692790E+04  0.10100000352E+00 0. -1.
       -3    1    3    3    0  502  0.15775145442E+04  0.23947887202E+03 -0.23234579189E+03  0.16124164613E+04  0.10100000352E+00 0.  1.
</event>
<event>
 5   0  0.3758062E-06  0.3193887E+04  0.7818609E-02  0.8190434E-01
        2   -1    0    0  501    0  0.00000000000E+00  0.00000000000E+00  0.27194487949E+04  0.27194487949E+04  0.25500000920E-02 0.  1.
       -2   -1    0    0    0  501  0.00000000000E+00  0.00000000000E+00 -0.93777384656E+03  0.93777384656E+03  0.25500000920E-02 0. -1.
    10030    2    1    2    0    0  0.00000000000E+00  0.00000000000E+00  0.17816749484E+04  0.36572226415E+04  0.31938866335E+04 0.  0.
        2    1    3    3  502    0 -0.17330527754E+03 -0.24430856098E+03  0.26869939439E+04  0.27036378912E+04  0.25500000920E-02 0.  1.
       -2    1    3    3    0  502  0.17330527754E+03  0.24430856098E+03 -0.90531899556E+03  0.95358475026E+03  0.25500000920E-02 0. -1.
</event>
<event>
 5   0  0.3656086E-06  0.3192934E+04  0.7818609E-02  0.8190686E-01
       -2   -1    0    0    0  501  0.00000000000E+00  0.00000000000E+00  0.18367688956E+04  0.18367688956E+04  0.25500000920E-02 0. -1.
        2   -1    0    0  501    0  0.00000000000E+00  0.00000000000E+00 -0.13876036858E+04  0.13876036859E+04  0.25500000920E-02 0.  1.
    10030    2    1    2    0    0  0.00000000000E+00  0.00000000000E+00  0.44916520973E+03  0.32243725814E+04  0.31929342552E+04 0.  0.
        3    1    3    3  502    0  0.61081438048E+03  0.58978285614E+03  0.15898443679E+04  0.18023715347E+04  0.10100000352E+00 0. -1.
       -3    1    3    3    0  502 -0.61081438048E+03 -0.58978285614E+03 -0.11406791582E+04  0.14220010467E+04  0.10100000352E+00 0.  1.
</event>
<event>
 5   0  0.1306843E-06  0.3222329E+04  0.7818609E-02  0.8182945E-01
        1   -1    0    0  501    0  0.00000000000E+00  0.00000000000E+00  0.15357531052E+04  0.15357531052E+04  0.50400001928E-02 0. -1.
       -1   -1    0    0    0  501  0.00000000000E+00  0.00000000000E+00 -0.16902788965E+04  0.16902788965E+04  0.50400001928E-02 0.  1.
    10030    2    1    2    0    0  0.00000000000E+00  0.00000000000E+00 -0.15452579131E+03  0.32260320016E+04  0.32223290111E+04 0.  0.
        5    1    3    3  502    0 -0.52590248177E+02  0.84053053471E+02  0.15326890356E+04  0.15358998730E+04  0.46999998093E+01 0. -1.
       -5    1    3    3    0  502  0.52590248177E+02 -0.84053053471E+02 -0.16872148269E+04  0.16901321286E+04  0.46999998093E+01 0.  1.
</event>
<event>
 5   0  0.3497546E-06  0.3191602E+04  0.7818609E-02  0.8191039E-01
        2   -1    0    0  501    0  0.00000000000E+00  0.00000000000E+00  0.16976508757E+04  0.16976508757E+04  0.25500000920E-02 0.  1.
       -2   -1    0    0    0  501  0.00000000000E+00  0.00000000000E+00 -0.15000614080E+04  0.15000614080E+04  0.25500000920E-02 0. -1.
    10030    2    1    2    0    0  0.00000000000E+00  0.00000000000E+00  0.19758946777E+03  0.31977122837E+04  0.31916018316E+04 0.  0.
        4    1    3    3  502    0 -0.13371874756E+04 -0.38403467825E+01 -0.77378819742E+03  0.15449384714E+04  0.12699999809E+01 0. -1.
       -4    1    3    3    0  502  0.13371874756E+04  0.38403467825E+01  0.97137766520E+03  0.16527738123E+04  0.12699999809E+01 0.  1.
</event>
<event>
 5   0  0.3497546E-06  0.2322472E+04  0.7818609E-02  0.8469113E-01
       -2   -1    0    0    0  501  0.00000000000E+00  0.00000000000E+00  0.94444764942E+03  0.94444764943E+03  0.25500000920E-02 0.  1.
        2   -1    0    0  501    0  0.00000000000E+00  0.00000000000E+00 -0.14277862951E+04  0.14277862951E+04  0.25500000920E-02 0. -1.
    10030    2    1    2    0    0  0.00000000000E+00  0.00000000000E+00 -0.48333864566E+03  0.23722339445E+04  0.23224723122E+04 0.  0.
        4    1    3    3  502    0  0.50274150204E+03  0.51685860453E+03  0.68809555335E+03  0.99667895453E+03  0.12699999809E+01 0.  1.
       -4    1    3    3    0  502 -0.50274150204E+03 -0.51685860453E+03 -0.11714341990E+04  0.13755549900E+04  0.12699999809E+01 0. -1.
</event>
<event>
 5   0  0.3758062E-06  0.3158375E+04  0.7818609E-02  0.8199897E-01
        2   -1    0    0  501    0  0.00000000000E+00  0.00000000000E+00  0.16489401263E+04  0.16489401263E+04  0.25500000920E-02 0. -1.
       -2   -1    0    0    0  501  0.00000000000E+00  0.00000000000E+00 -0.15123857856E+04  0.15123857856E+04  0.25500000920E-02 0.  1.
    10030    2    1    2    0    0  0.00000000000E+00  0.00000000000E+00  0.13655434070E+03  0.31613259119E+04  0.31583752838E+04 0.  0.
        2    1    3    3  502    0  0.15678219904E+04 -0.17176428974E+03 -0.10947537344E+02  0.15772408229E+04  0.25500000920E-02 0.  1.
       -2    1    3    3    0  502 -0.15678219904E+04  0.17176428974E+03  0.14750187805E+03  0.15840850889E+04  0.25500000920E-02 0. -1.
</event>
<event>
 5   0  0.1306843E-06  0.3182250E+04  0.7818609E-02  0.8193521E-01
        1   -1    0    0  501    0  0.00000000000E+00  0.00000000000E+00  0.18478070845E+04  0.18478070845E+04  0.50400001928E-02 0.  1.
       -1   -1    0    0    0  501  0.00000000000E+00  0.00000000000E+00 -0.13700987471E+04  0.13700987471E+04  0.50400001928E-02 0. -1.
    10030    2    1    2    0    0  0.00000000000E+00  0.00000000000E+00  0.47770833744E+03  0.32179058316E+04  0.31822496265E+04 0.  0.
        5    1    3    3  502    0  0.89049548273E+03 -0.49713297216E+02  0.15712684250E+04  0.18067540425E+04  0.46999998093E+01 0.  1.
       -5    1    3    3    0  502 -0.89049548273E+03  0.49713297216E+02 -0.10935600876E+04  0.14111517891E+04  0.46999998093E+01 0. -1.
</event>
<event>
 5   0  0.3656086E-06  0.3093626E+04  0.7818609E-02  0.8217489E-01
        2   -1    0    0  501    0  0.00000000000E+00  0.00000000000E+00  0.11231965829E+04  0.11231965829E+04  0.25500000920E-02 0. -1.
       -2   -1    0    0    0  501  0.00000000000E+00  0.00000000000E+00 -0.21301972501E+04  0.21301972501E+04  0.25500000920E-02 0.  1.
    10030    2    1    2    0    0  0.00000000000E+00  0.00000000000E+00 -0.10070006671E+04  0.32533938330E+04  0.30936258806E+04 0.  0.
        3    1    3    3  502    0  0.14443977468E+04  0.37195569861E+03 -0.72461687703E+02  0.14932804824E+04  0.10100000352E+00 0. -1.
       -3    1    3    3    0  502 -0.14443977468E+04 -0.37195569861E+03 -0.93453897943E+03  0.17601133506E+04  0.10100000352E+00 0.  1.
</event>
<event>
 5   0  0.1185575E-06  0.3113868E+04  0.7818609E-02  0.8211942E-01
        3   -1    0    0  501    0  0.00000000000E+00  0.00000000000E+00  0.24205322816E+04  0.24205322837E+04  0.10100000352E+00 0. -1.
       -3   -1    0    0    0  501  0.00000000000E+00  0.00000000000E+00 -0.10014507771E+04  0.10014507822E+04  0.10100000352E+00 0.  1.
    10030    2    1    2    0    0  0.00000000000E+00  0.00000000000E+00  0.14190815045E+04  0.34219830659E+04  0.31138682996E+04 0.  0.
        1    1    3    3  502    0  0.35091683014E+03  0.12831949783E+04 -0.17939433662E+03  0.13423540152E+04  0.50400001928E-02 0.  1.
       -1    1    3    3    0  502 -0.35091683014E+03 -0.12831949783E+04  0.15984758411E+04  0.20796290507E+04  0.50400001928E-02 0. -1.
</event>
<event>
 5   0  0.1240725E-06  0.3163331E+04  0.7818609E-02  0.8198569E-01
        1   -1    0    0  501    0  0.00000000000E+00  0.00000000000E+00  0.21539433907E+04  0.21539433907E+04  0.50400001928E-02 0. -1.
       -1   -1    0    0    0  501  0.00000000000E+00  0.00000000000E+00 -0.11614354277E+04  0.11614354277E+04  0.50400001928E-02 0.  1.
    10030    2    1    2    0    0  0.00000000000E+00  0.00000000000E+00  0.99250796297E+03  0.33153788184E+04  0.31633312588E+04 0.  0.
        3    1    3    3  502    0  0.17681286032E+03  0.20251962818E+03 -0.11373133164E+04  0.11686567406E+04  0.10100000352E+00 0.  1.
       -3    1    3    3    0  502 -0.17681286032E+03 -0.20251962818E+03  0.21298212794E+04  0.21467220779E+04  0.10100000352E+00 0. -1.
</event>
<event>
 5   0  0.1185575E-06  0.3226083E+04  0.7818609E-02  0.8181962E-01
       -3   -1    0    0    0  501  0.00000000000E+00  0.00000000000E+00  0.11746479276E+04  0.11746479319E+04  0.10100000352E+00 0.  1.
        3   -1    0    0  501    0  0.00000000000E+00  0.00000000000E+00 -0.22150496213E+04  0.22150496236E+04  0.10100000352E+00 0. -1.
    10030    2    1    2    0    0  0.00000000000E+00  0.00000000000E+00 -0.10404016937E+04  0.33896975556E+04  0.32260833582E+04 0.  0.
        3    1    3    3  502    0  0.47081615253E+03  0.37334957725E+03 -0.20930654578E+04  0.21776089587E+04  0.10100000352E+00 0. -1.
       -3    1    3    3    0  502 -0.47081615253E+03 -0.37334957725E+03  0.10526637640E+04  0.12120885969E+04  0.10100000352E+00 0.  1.
</event>
<event>
 5   0  0.3497546E-06  0.3183294E+04  0.7818609E-02  0.8193243E-01
        2   -1    0    0  501    0  0.00000000000E+00  0.00000000000E+00  0.16160589936E+04  0.16160589936E+04  0.25500000920E-02 0.  1.
       -2   -1    0    0    0  501  0.00000000000E+00  0.00000000000E+00 -0.15676037873E+04  0.15676037873E+04  0.25500000920E-02 0. -1.
    10030    2    1    2    0    0  0.00000000000E+00  0.00000000000E+00  0.48455206305E+02  0.31836627809E+04  0.31832940165E+04 0.  0.
        4    1    3    3  502    0  0.83500026013E+03  0.25480821569E+03 -0.13067856612E+04  0.15715734276E+04  0.12699999809E+01 0. -1.
       -4    1    3    3    0  502 -0.83500026013E+03 -0.25480821569E+03  0.13552408675E+04  0.16120893533E+04  0.12699999809E+01 0.  1.
</event>
<event>
 5   0  0.1273980E-06  0.3203761E+04  0.7818609E-02  0.8187825E-01
        1   -1    0    0  501    0  0.00000000000E+00  0.00000000000E+00  0.22278531402E+04  0.22278531402E+04  0.50400001928E-02 0. -1.
       -1   -1    0    0    0  501  0.00000000000E+00  0.00000000000E+00 -0.11517909228E+04  0.11517909228E+04  0.50400001928E-02 0.  1.
    10030    2    1    2    0    0  0.00000000000E+00  0.00000000000E+00  0.10760622174E+04  0.33796440630E+04  0.32037609301E+04 0.  0.
        4    1    3    3  502    0 -0.99243239752E+03 -0.25358886784E+03  0.18372238818E+04  0.21034786859E+04  0.12699999809E+01 0. -1.
       -4    1    3    3    0  502  0.99243239752E+03  0.25358886784E+03 -0.76116166434E+03  0.12761653771E+04  0.12699999809E+01 0.  1.
</event>
<event>
 5   0  0.1240725E-06  0.3088297E+04  0.7818609E-02  0.8218957E-01
        1   -1    0    0  501    0  0.00000000000E+00  0.00000000000E+00  0.19549926152E+04  0.19549926152E+04  0.50400001928E-02 0.  1.
       -1   -1    0    0    0  501  0.00000000000E+00  0.00000000000E+00 -0.12196435073E+04  0.12196435074E+04  0.50400001928E-02 0. -1.
    10030    2    1    2    0    0  0.00000000000E+00  0.00000000000E+00  0.73534910786E+03  0.31746361226E+04  0.30882966503E+04 0.  0.
        3    1    3    3  502    0 -0.48072111885E+03  0.13108979803E+04  0.10455400794E+04  0.17443337916E+04  0.10100000352E+00 0.  1.
       -3    1    3    3    0  502  0.48072111885E+03 -0.13108979803E+04 -0.31019097150E+03  0.14303023309E+04  0.10100000352E+00 0. -1.
</event>
<event>
 5   0  0.3758062E-06  0.3239557E+04  0.7818609E-02  0.8178448E-01
       -2   -1    0    0    0  501  0.00000000000E+00  0.00000000000E+00  0.14643062959E+04  0.14643062959E+04  0.25500000920E-02 0.  1.
        2   -1    0    0  501    0  0.00000000000E+00  0.00000000000E+00 -0.17917584038E+04  0.17917584038E+04  0.25500000920E-02 0. -1.
    10030    2    1    2    0    0  0.00000000000E+00  0.00000000000E+00 -0.32745210794E+03  0.32560646997E+04  0.32395574459E+04 0.  0.
        2    1    3    3  502    0 -0.42235588439E+02 -0.38590647098E+03  0.14168567183E+04  0.14690781495E+04  0.25500000920E-02 0.  1.
       -2    1    3    3    0  502  0.42235588439E+02  0.38590647098E+03 -0.17443088262E+04  0.17869865502E+04  0.25500000920E-02 0. -1.
</event>
<event>
 5   0  0.1240725E-06  0.3247943E+04  0.7818609E-02  0.8176269E-01
        1   -1    0    0  501    0  0.00000000000E+00  0.00000000000E+00  0.16567487243E+04  0.16567487243E+04  0.50400001928E-02 0. -1.
       -1   -1    0    0    0  501  0.00000000000E+00  0.00000000000E+00 -0.15918430911E+04  0.15918430911E+04  0.50400001928E-02 0.  1.
    10030    2    1    2    0    0  0.00000000000E+00  0.00000000000E+00  0.64905633212E+02  0.32485918154E+04  0.32479433557E+04 0.  0.
        3    1    3    3  502    0  0.55678977464E+03 -0.15250244271E+04  0.72079458295E+02  0.16250876330E+04  0.10100000352E+00 0.  1.
       -3    1    3    3    0  502 -0.55678977464E+03  0.15250244271E+04 -0.71738250829E+01  0.16235041824E+04  0.10100000352E+00 0. -1.
</event>
<event>
 5   0  0.3497546E-06  0.3141205E+04  0.7818609E-02  0.8204520E-01
       -2   -1    0    0    0  501  0.00000000000E+00  0.00000000000E+00  0.14724467040E+04  0.14724467040E+04  0.25500000920E-02 0. -1.
        2   -1    0    0  501    0  0.00000000000E+00  0.00000000000E+00 -0.16753015952E+04  0.16753015952E+04  0.25500000920E-02 0.  1.
    10030    2    1    2    0    0  0.00000000000E+00  0.00000000000E+00 -0.20285489118E+03  0.31477482992E+04  0.31412050631E+04 0.  0.
        4    1    3    3  502    0 -0.40547366996E+03 -0.21363424938E+03 -0.16068023962E+04  0.16708872023E+04  0.12699999809E+01 0.  1.
       -4    1    3    3    0  502  0.40547366996E+03  0.21363424938E+03  0.14039475050E+04  0.14768610968E+04  0.12699999809E+01 0. -1.
</event>
<event>
 5   0  0.3531437E-06  0.2488635E+04  0.7818609E-02  0.8407045E-01
       -2   -1    0    0    0  501  0.00000000000E+00  0.00000000000E+00  0.85767753478E+03  0.85767753479E+03  0.25500000920E-02 0. -1.
        2   -1    0    0  501    0  0.00000000000E+00  0.00000000000E+00 -0.18052548235E+04  0.18052548235E+04  0.25500000920E-02 0.  1.
    10030    2    1    2    0    0  0.00000000000E+00  0.00000000000E+00 -0.94757728870E+03  0.26629323583E+04  0.24886353744E+04 0.  0.
        1    1    3    3  502    0 -0.11086367200E+01  0.21671090772E+03 -0.17849058768E+04  0.17980138586E+04  0.50400001928E-02 0.  1.
       -1    1    3    3    0  502  0.11086367200E+01 -0.21671090772E+03  0.83732858811E+03  0.86491849968E+03  0.50400001928E-02 0. -1.
</event>
<event>
 5   0  0.3531437E-06  0.3477602E+04  0.7818609E-02  0.8119119E-01
       -2   -1    0    0    0  501  0.00000000000E+00  0.00000000000E+00  0.29889572840E+04  0.29889572840E+04  0.25500000920E-02 0. -1.
        2   -1    0    0  501    0  0.00000000000E+00  0.00000000000E+00 -0.10115328601E+04  0.10115328601E+04  0.25500000920E-02 0.  1.
    10030    2    1    2    0    0  0.00000000000E+00  0.00000000000E+00  0.19774244239E+04  0.40004901441E+04  0.34776017657E+04 0.  0.
        1    1    3    3  502    0  0.12010069090E+04  0.86805550554E+03  0.20351535310E+04  0.25174963458E+04  0.50400001928E-02 0. -1.
       -1    1    3    3    0  502 -0.12010069090E+04 -0.86805550554E+03 -0.57729107160E+02  0.14829937983E+04  0.50400001928E-02 0.  1.
</event>
<event>
 5   0  0.3656086E-06  0.3154317E+04  0.7818609E-02  0.8200987E-01
       -2   -1    0    0    0  501  0.00000000000E+00  0.00000000000E+00  0.10415873126E+04  0.10415873126E+04  0.25500000920E-02 0. -1.
        2   -1    0    0  501    0  0.00000000000E+00  0.00000000000E+00 -0.23881144022E+04  0.23881144022E+04  0.25500000920E-02 0.  1.
    10030    2    1    2    0    0  0.00000000000E+00  0.00000000000E+00 -0.13465270896E+04  0.34297017148E+04  0.31543174618E+04 0.  0.
        3    1    3    3  502    0  0.15431668086E+04 -0.12382228673E+03 -0.34574512788E+03  0.15862646253E+04  0.10100000352E+00 0. -1.
       -3    1    3    3    0  502 -0.15431668086E+04  0.12382228673E+03 -0.10007819618E+04  0.18434370895E+04  0.10100000352E+00 0.  1.
</event>
<event>
 5   0  0.3745943E-06  0.3202721E+04  0.7818609E-02  0.8188099E-01
        2   -1    0    0  501    0  0.00000000000E+00  0.00000000000E+00  0.10197923018E+04  0.10197923018E+04  0.25500000920E-02 0.  1.
       -2   -1    0    0    0  501  0.00000000000E+00  0.00000000000E+00 -0.25145853205E+04  0.25145853205E+04  0.25500000920E-02 0. -1.
    10030    2    1    2    0    0  0.00000000000E+00  0.00000000000E+00 -0.14947930188E+04  0.35343776223E+04  0.32027205635E+04 0.  0.
        5    1    3    3  502    0  0.19838705798E+02 -0.15470324153E+04 -0.29154716607E+03  0.15743966172E+04  0.46999998093E+01 0. -1.
       -5    1    3    3    0  502 -0.19838705798E+02  0.15470324153E+04 -0.12032458527E+04  0.19599810051E+04  0.46999998093E+01 0.  1.
</event>
<event>
 5   0  0.1240725E-06  0.3194433E+04  0.7818609E-02  0.8190289E-01
        1   -1    0    0  501    0  0.00000000000E+00  0.00000000000E+00  0.17291784098E+04  0.17291784098E+04  0.50400001928E-02 0. -1.
       -1   -1    0    0    0  501  0.00000000000E+00  0.00000000000E+00 -0.14753250616E+04  0.14753250616E+04  0.50400001928E-02 0.  1.
    10030    2    1    2    0    0  0.00000000000E+00  0.00000000000E+00  0.25385334821E+03  0.32045034715E+04  0.31944328098E+04 0.  0.
        3    1    3    3  502    0  0.55913990164E+03 -0.77145426674E+03  0.14128888855E+04  0.17041226858E+04  0.10100000352E+00 0. -1.
       -3    1    3    3    0  502 -0.55913990164E+03  0.77145426674E+03 -0.11590355373E+04  0.15003807857E+04  0.10100000352E+00 0.  1.
</event>
<event>
 5   0  0.1273980E-06  0.3178852E+04  0.7818609E-02  0.8194425E-01
        1   -1    0    0  501    0  0.00000000000E+00  0.00000000000E+00  0.25764591406E+04  0.25764591406E+04  0.50400001928E-02 0.  1.
       -1   -1    0    0    0  501  0.00000000000E+00  0.00000000000E+00 -0.98052184889E+03  0.98052184890E+03  0.50400001928E-02 0. -1.
    10030    2    1    2    0    0  0.00000000000E+00  0.00000000000E+00  0.15959372917E+04  0.35569809895E+04  0.31788516670E+04 0.  0.
        4    1    3    3  502    0 -0.82252433414E+03 -0.13470196804E+04  0.58784227369E+03  0.16842115221E+04  0.12699999809E+01 0.  1.
       -4    1    3    3    0  502  0.82252433414E+03  0.13470196804E+04  0.10080950180E+04  0.18727694674E+04  0.12699999809E+01 0. -1.
</event>
<event>
 5   0  0.3497546E-06  0.3095924E+04  0.7818609E-02  0.8216857E-01
        2   -1    0    0  501    0  0.00000000000E+00  0.00000000000E+00  0.17992551927E+04  0.17992551927E+04  0.25500000920E-02 0. -1.
       -2   -1    0    0    0  501  0.00000000000E+00  0.00000000000E+00 -0.13317659629E+04  0.13317659629E+04  0.25500000920E-02 0.  1.
    10030    2    1    2    0    0  0.00000000000E+00  0.00000000000E+00  0.46748922979E+03  0.31310211557E+04  0.30959243042E+04 0.  0.
        4    1    3    3  502    0 -0.14278370261E+04 -0.51175553542E+03 -0.78908726265E+02  0.15188286608E+04  0.12699999809E+01 0.  1.
       -4    1    3    3    0  502  0.14278370261E+04  0.51175553542E+03  0.54639795605E+03  0.16121924948E+04  0.12699999809E+01 0. -1.
</event>
<event>
 5   0  0.1240725E-06  0.3055539E+04  0.7818609E-02  0.8228047E-01
       -1   -1    0    0    0  501  0.00000000000E+00  0.00000000000E+00  0.11044948575E+04  0.11044948575E+04  0.50400001928E-02 0. -1.
        1   -1    0    0  501    0  0.00000000000E+00  0.00000000000E+00 -0.21132551546E+04  0.21132551546E+04  0.50400001928E-02 0.  1.
    10030    2    1    2    0    0  0.00000000000E+00  0.00000000000E+00 -0.10087602970E+04  0.32177500121E+04  0.30555388729E+04 0.  0.
        3    1    3    3  502    0 -0.17289869837E+03  0.11673314757E+04  0.51745276317E+03  0.12885317638E+04  0.10100000352E+00 0. -1.
       -3    1    3    3    0  502  0.17289869837E+03 -0.11673314757E+04 -0.15262130602E+04  0.19292182483E+04  0.10100000352E+00 0.  1.
</event>
<event>
 5   0  0.1273754E-06  0.3236958E+04  0.7818609E-02  0.8179124E-01
        1   -1    0    0  501    0  0.00000000000E+00  0.00000000000E+00  0.13082071104E+04  0.13082071104E+04  0.50400001928E-02 0.  1.
       -1   -1    0    0    0  501  0.00000000000E+00  0.00000000000E+00 -0.20023385504E+04  0.20023385504E+04  0.50400001928E-02 0. -1.
    10030    2    1    2    0    0  0.00000000000E+00  0.00000000000E+00 -0.69413144001E+03  0.33105456608E+04  0.32369575400E+04 0.  0.
        2    1    3    3  502    0 -0.63663909052E+03  0.38415306440E+03  0.11231796030E+04  0.13470023494E+04  0.25500000920E-02 0.  1.
       -2    1    3    3    0  502  0.63663909052E+03 -0.38415306440E+03 -0.18173110431E+04  0.19635433114E+04  0.25500000920E-02 0. -1.
</event>
<event>
 5   0  0.1240725E-06  0.3233603E+04  0.7818609E-02  0.8179999E-01
        1   -1    0    0  501    0  0.00000000000E+00  0.00000000000E+00  0.14524897108E+04  0.14524897108E+04  0.50400001928E-02 0.  1.
       -1   -1    0    0    0  501  0.00000000000E+00  0.00000000000E+00 -0.17997005376E+04  0.17997005376E+04  0.50400001928E-02 0. -1.
    10030    2    1    2    0    0  0.00000000000E+00  0.00000000000E+00 -0.34721082684E+03  0.32521902484E+04  0.32336026431E+04 0.  0.
        3    1    3    3  502    0  0.80690917199E+02  0.11954977130E+04  0.91813916822E+03  0.15095381242E+04  0.10100000352E+00 0.  1.
       -3    1    3    3    0  502 -0.80690917199E+02 -0.11954977130E+04 -0.12653499951E+04  0.17426521242E+04  0.10100000352E+00 0. -1.
</event>
<event>
 5   0  0.1240725E-06  0.3205512E+04  0.7818609E-02  0.8187363E-01
        1   -1    0    0  501    0  0.00000000000E+00  0.00000000000E+00  0.21769063520E+04  0.21769063520E+04  0.50400001928E-02 0.  1.
       -1   -1    0    0    0  501  0.00000000000E+00  0.00000000000E+00 -0.11800355118E+04  0.11800355119E+04  0.50400001928E-02 0. -1.
    10030    2    1    2    0    0  0.00000000000E+00  0.00000000000E+00  0.99687084012E+03  0.33569418638E+04  0.32055120036E+04 0.  0.
        3    1    3    3  502    0 -0.11842035669E+03  0.70157617858E+03  0.20024543994E+04  0.21251014439E+04  0.10100000352E+00 0.  1.
       -3    1    3    3    0  502  0.11842035669E+03 -0.70157617858E+03 -0.10055835593E+04  0.12318404199E+04  0.10100000352E+00 0. -1.
</event>
<event>
 5   0  0.1306843E-06  0.3169127E+04  0.7818609E-02  0.8197018E-01
       -1   -1    0    0    0  501  0.00000000000E+00  0.00000000000E+00  0.16006886908E+04  0.16006886908E+04  0.50400001928E-02 0.  1.
        1   -1    0    0  501    0  0.00000000000E+00  0.00000000000E+00 -0.15686012190E+04  0.15686012190E+04  0.50400001928E-02 0. -1.
    10030    2    1    2    0    0  0.00000000000E+00  0.00000000000E+00  0.32087471870E+02  0.31692899098E+04  0.31691274708E+04 0.  0.
        5    1    3    3  502    0  0.65829019686E+03  0.14356757648E+04  0.14375798180E+03  0.15859379976E+04  0.46999998093E+01 0.  1.
       -5    1    3    3    0  502 -0.65829019686E+03 -0.14356757648E+04 -0.11167050993E+03  0.15833519122E+04  0.46999998093E+01 0. -1.
</event>
<event>
 5   0  0.1273754E-06  0.3201250E+04  0.7818609E-02  0.8188487E-01
       -1   -1    0    0    0  501  0.00000000000E+00  0.00000000000E+00  0.14921119430E+04  0.14921119431E+04  0.50400001928E-02 0. -1.
        1   -1    0    0  501    0  0.00000000000E+00  0.00000000000E+00 -0.17170292545E+04  0.17170292545E+04  0.50400001928E-02 0.  1.
    10030    2    1    2    0    0  0.00000000000E+00  0.00000000000E+00 -0.22491731149E+03  0.32091411976E+04  0.32012496668E+04 0.  0.
        2    1    3    3  502    0 -0.65175817006E+02 -0.16194109755E+03  0.14825408977E+04  0.14927827436E+04  0.25500000920E-02 0. -1.
       -2    1    3    3    0  502  0.65175817006E+02  0.16194109755E+03 -0.17074582092E+04  0.17163584540E+04  0.25500000920E-02 0.  1.
</event>
<event>
 5   0  0.1273754E-06  0.3131382E+04  0.7818609E-02  0.8207178E-01
        1   -1    0    0  501    0  0.00000000000E+00  0.00000000000E+00  0.85439391374E+03  0.85439391376E+03  0.50400001928E-02 0. -1.
       -1   -1    0    0    0  501  0.00000000000E+00  0.00000000000E+00 -0.28691553261E+04  0.28691553261E+04  0.50400001928E-02 0.  1.
    10030    2    1    2    0    0  0.00000000000E+00  0.00000000000E+00 -0.20147614123E+04  0.37235492399E+04  0.31313823454E+04 0.  0.
        2    1    3    3  502    0  0.18266091989E+03 -0.64119588424E+03  0.67716565634E+03  0.95028969254E+03  0.25500000920E-02 0. -1.
       -2    1    3    3    0  502 -0.18266091989E+03  0.64119588424E+03 -0.26919270687E+04  0.27732595473E+04  0.25500000920E-02 0.  1.
</event>
<event>
 5   0  0.3745943E-06  0.3203860E+04  0.7818609E-02  0.8187798E-01
        2   -1    0    0  501    0  0.00000000000E+00  0.00000000000E+00  0.18753626682E+04  0.18753626682E+04  0.25500000920E-02 0. -1.
       -2   -1    0    0    0  501  0.00000000000E+00  0.00000000000E+00 -0.13683647212E+04  0.13683647212E+04  0.25500000920E-02 0.  1.
    10030    2    1    2    0    0  0.00000000000E+00  0.00000000000E+00  0.50699794700E+03  0.32437273895E+04  0.32038602434E+04 0.  0.
        5    1    3    3  502    0 -0.12643219353E+04 -0.10211443081E+03  0.12440499446E+04  0.17766878364E+04  0.46999998093E+01 0. -1.
       -5    1    3    3    0  502  0.12643219353E+04  0.10211443081E+03 -0.73705199765E+03  0.14670395531E+04  0.46999998093E+01 0.  1.
</event>
<event>
 5   0  0.1240725E-06  0.3176401E+04  0.7818609E-02  0.8195078E-01
        1   -1    0    0  501    0  0.00000000000E+00  0.00000000000E+00  0.18806086602E+04  0.18806086602E+04  0.50400001928E-02 0.  1.
       -1   -1    0    0    0  501  0.00000000000E+00  0.00000000000E+00 -0.13412574707E+04  0.13412574707E+04  0.50400001928E-02 0. -1.
    10030    2    1    2    0    0  0.00000000000E+00  0.00000000000E+00  0.53935118951E+03  0.32218661309E+04  0.31764007398E+04 0.  0.
        3    1    3    3  502    0 -0.53179359153E+03  0.51983420205E+03 -0.11537457644E+04  0.13726475588E+04  0.10100000352E+00 0. -1.
       -3    1    3    3    0  502  0.53179359153E+03 -0.51983420205E+03  0.16930969540E+04  0.18492185721E+04  0.10100000352E+00 0.  1.
</event>
<event>
 5   0  0.3745943E-06  0.3170189E+04  0.7818609E-02  0.8196735E-01
        2   -1    0    0  501    0  0.00000000000E+00  0.00000000000E+00  0.23632419704E+04  0.23632419704E+04  0.25500000920E-02 0. -1.
       -2   -1    0    0    0  501  0.00000000000E+00  0.00000000000E+00 -0.10631687599E+04  0.10631687599E+04  0.25500000920E-02 0.  1.
    10030    2    1    2    0    0  0.00000000000E+00  0.00000000000E+00  0.13000732105E+04  0.34264107303E+04  0.31701892909E+04 0.  0.
        5    1    3    3  502    0  0.35706436397E+03  0.88963836701E+03  0.20144227073E+04  0.22308904764E+04  0.46999998093E+01 0. -1.
       -5    1    3    3    0  502 -0.35706436397E+03 -0.88963836701E+03 -0.71434949677E+03  0.11955202539E+04  0.46999998093E+01 0.  1.
</event>
<event>
 5   0  0.1240725E-06  0.3187203E+04  0.7818609E-02  0.8192205E-01
        1   -1    0    0  501    0  0.00000000000E+00  0.00000000000E+00  0.18359470133E+04  0.18359470133E+04  0.50400001928E-02 0. -1.
       -1   -1    0    0    0  501  0.00000000000E+00  0.00000000000E+00 -0.13832456745E+04  0.13832456745E+04  0.50400001928E-02 0.  1.
    10030    2    1    2    0    0  0.00000000000E+00  0.00000000000E+00  0.45270133883E+03  0.32191926878E+04  0.31872030150E+04 0.  0.
        3    1    3    3  502    0 -0.11804941987E+04  0.58868181619E+03  0.11294461975E+04  0.17365948166E+04  0.10100000352E+00 0.  1.
       -3    1    3    3    0  502  0.11804941987E+04 -0.58868181619E+03 -0.67674485862E+03  0.14825978712E+04  0.10100000352E+00 0. -1.
</event>
<event>
 5   0  0.3497546E-06  0.3146813E+04  0.7818609E-02  0.8203007E-01
       -2   -1    0    0    0  501  0.00000000000E+00  0.00000000000E+00  0.13493277225E+04  0.13493277225E+04  0.25500000920E-02 0.  1.
        2   -1    0    0  501    0  0.00000000000E+00  0.00000000000E+00 -0.18346977161E+04  0.18346977161E+04  0.25500000920E-02 0. -1.
    10030    2    1    2    0    0  0.00000000000E+00  0.00000000000E+00 -0.48536999354E+03  0.31840254386E+04  0.31468133029E+04 0.  0.
        4    1    3    3  502    0 -0.14595073498E+04  0.57825799206E+03 -0.13626103381E+03  0.15757895455E+04  0.12699999809E+01 0. -1.
       -4    1    3    3    0  502  0.14595073498E+04 -0.57825799206E+03 -0.34910895973E+03  0.16082358932E+04  0.12699999809E+01 0.  1.
</event>
<event>
 5   0  0.1273980E-06  0.3233404E+04  0.7818609E-02  0.8180051E-01
       -1   -1    0    0    0  501  0.00000000000E+00  0.00000000000E+00  0.10788731758E+04  0.10788731758E+04  0.50400001928E-02 0. -1.
        1   -1    0    0  501    0  0.00000000000E+00  0.00000000000E+00 -0.24226435027E+04  0.24226435028E+04  0.50400001928E-02 0.  1.
    10030    2    1    2    0    0  0.00000000000E+00  0.00000000000E+00 -0.13437703270E+04  0.35015166785E+04  0.32334038347E+04 0.  0.
        4    1    3    3  502    0 -0.16134826880E+04  0.40392057443E+01 -0.56155070161E+03  0.17084154949E+04  0.12699999809E+01 0. -1.
       -4    1    3    3    0  502  0.16134826880E+04 -0.40392057443E+01 -0.78221962535E+03  0.17931011837E+04  0.12699999809E+01 0.  1.
</event>
<event>
 5   0  0.3497546E-06  0.3251120E+04  0.7818609E-02  0.8175445E-01
        2   -1    0    0  501    0  0.00000000000E+00  0.00000000000E+00  0.21114497755E+04  0.21114497755E+04  0.25500000920E-02 0. -1.
       -2   -1    0    0    0  501  0.00000000000E+00  0.00000000000E+00 -0.12514838647E+04  0.12514838647E+04  0.25500000920E-02 0.  1.
    10030    2    1    2    0    0  0.00000000000E+00  0.00000000000E+00  0.85996591082E+03  0.33629336402E+04  0.32511200071E+04 0.  0.
        4    1    3    3  502    0  0.73400395885E+03  0.42705308947E+02  0.19296228977E+04  0.20649531944E+04  0.12699999809E+01 0. -1.
       -4    1    3    3    0  502 -0.73400395885E+03 -0.42705308947E+02 -0.10696569869E+04  0.12979804457E+04  0.12699999809E+01 0.  1.
</event>
<event>
 5   0  0.3758062E-06  0.3007570E+04  0.7818609E-02  0.8241573E-01
        2   -1    0    0  501    0  0.00000000000E+00  0.00000000000E+00  0.18775267186E+04  0.18775267186E+04  0.25500000920E-02 0. -1.
       -2   -1    0    0    0  501  0.00000000000E+00  0.00000000000E+00 -0.12044404956E+04  0.12044404956E+04  0.25500000920E-02 0.  1.
    10030    2    1    2    0    0  0.00000000000E+00  0.00000000000E+00  0.67308622298E+03  0.30819672142E+04  0.30075699237E+04 0.  0.
        2    1    3    3  502    0 -0.27950112939E+03  0.35843241821E+03 -0.11323641181E+04  0.12201816159E+04  0.25500000920E-02 0.  1.
       -2    1    3    3    0  502  0.27950112939E+03 -0.35843241821E+03  0.18054503411E+04  0.18617855983E+04  0.25500000920E-02 0. -1.
</event>
<event>
 5   0  0.1268836E-06  0.3228475E+04  0.7818609E-02  0.8181337E-01
        1   -1    0    0  501    0  0.00000000000E+00  0.00000000000E+00  0.18628421107E+04  0.18628421107E+04  0.50400001928E-02 0. -1.
       -1   -1    0    0    0  501  0.00000000000E+00  0.00000000000E+00 -0.13988099805E+04  0.13988099806E+04  0.50400001928E-02 0.  1.
    10030    2    1    2    0    0  0.00000000000E+00  0.00000000000E+00  0.46403213018E+03  0.32616520913E+04  0.32284746471E+04 0.  0.
        1    1    3    3  502    0  0.64681463673E+03  0.18004742609E+03  0.17150854224E+04  0.18418209077E+04  0.50400001928E-02 0. -1.
       -1    1    3    3    0  502 -0.64681463673E+03 -0.18004742609E+03 -0.12510532922E+04  0.14198311836E+04  0.50400001928E-02 0.  1.
</event>
<event>
 5   0  0.1185575E-06  0.3211938E+04  0.7818609E-02  0.8185671E-01
        3   -1    0    0  501    0  0.00000000000E+00  0.00000000000E+00  0.29364243077E+04  0.29364243094E+04  0.10100000352E+00 0. -1.
       -3   -1    0    0    0  501  0.00000000000E+00  0.00000000000E+00 -0.87832568973E+03  0.87832569554E+03  0.10100000352E+00 0.  1.
    10030    2    1    2    0    0  0.00000000000E+00  0.00000000000E+00  0.20580986180E+04  0.38147500050E+04  0.32119383056E+04 0.  0.
        5    1    3    3  502    0  0.24175217812E+03  0.14855949071E+04  0.36386613642E+03  0.15485015334E+04  0.46999998093E+01 0.  1.
       -5    1    3    3    0  502 -0.24175217812E+03 -0.14855949071E+04  0.16942324815E+04  0.22662484716E+04  0.46999998093E+01 0. -1.
</event>
<event>
 5   0  0.1268836E-06  0.3290702E+04  0.7818609E-02  0.8165265E-01
       -1   -1    0    0    0  501  0.00000000000E+00  0.00000000000E+00  0.11219398431E+04  0.11219398431E+04  0.50400001928E-02 0. -1.
        1   -1    0    0  501    0  0.00000000000E+00  0.00000000000E+00 -0.24129455317E+04  0.24129455318E+04  0.50400001928E-02 0.  1.
    10030    2    1    2    0    0  0.00000000000E+00  0.00000000000E+00 -0.12910056887E+04  0.35348853748E+04  0.32907018894E+04 0.  0.
        1    1    3    3  502    0  0.91401668120E+03 -0.12835006216E+04 -0.13666631891E+03  0.15816061526E+04  0.50400001928E-02 0. -1.
       -1    1    3    3    0  502 -0.91401668120E+03  0.12835006216E+04 -0.11543393698E+04  0.19532792222E+04  0.50400001928E-02 0.  1.
</event>
<event>
 5   0  0.3745943E-06  0.3188437E+04  0.7818609E-02  0.8191878E-01
        2   -1    0    0  501    0  0.00000000000E+00  0.00000000000E+00  0.30933370808E+04  0.30933370808E+04  0.25500000920E-02 0.  1.
       -2   -1    0    0    0  501  0.00000000000E+00  0.00000000000E+00 -0.82161525182E+03  0.82161525182E+03  0.25500000920E-02 0. -1.
    10030    2    1    2    0    0  0.00000000000E+00  0.00000000000E+00  0.22717218290E+04  0.39149523327E+04  0.31884371875E+04 0.  0.
        5    1    3    3  502    0  0.34423492932E+03  0.71326825375E+03 -0.56296645991E+03  0.97170088677E+03  0.46999998093E+01 0. -1.
       -5    1    3    3    0  502 -0.34423492932E+03 -0.71326825375E+03  0.28346882889E+04  0.29432514459E+04  0.46999998093E+01 0.  1.
</event>
<event>
 5   0  0.3656086E-06  0.3208406E+04  0.7818609E-02  0.8186601E-01
        2   -1    0    0  501    0  0.00000000000E+00  0.00000000000E+00  0.15265578156E+04  0.15265578156E+04  0.25500000920E-02 0. -1.
       -2   -1    0    0    0  501  0.00000000000E+00  0.00000000000E+00 -0.16857975692E+04  0.16857975692E+04  0.25500000920E-02 0.  1.
    10030    2    1    2    0    0  0.00000000000E+00  0.00000000000E+00 -0.15923975355E+03  0.32123553848E+04  0.32084061182E+04 0.  0.
        3    1    3    3  502    0 -0.10686355694E+04  0.10983426866E+04  0.39544156770E+03  0.15826284090E+04  0.10100000352E+00 0. -1.
       -3    1    3    3    0  502  0.10686355694E+04 -0.10983426866E+04 -0.55468132125E+03  0.16297269758E+04  0.10100000352E+00 0.  1.
</event>
<event>
 5   0  0.3656086E-06  0.3174708E+04  0.7818609E-02  0.8195529E-01
        2   -1    0    0  501    0  0.00000000000E+00  0.00000000000E+00  0.16883262017E+04  0.16883262017E+04  0.25500000920E-02 0.  1.
       -2   -1    0    0    0  501  0.00000000000E+00  0.00000000000E+00 -0.14924208976E+04  0.14924208976E+04  0.25500000920E-02 0. -1.
    10030    2    1    2    0    0  0.00000000000E+00  0.00000000000E+00  0.19590530413E+03  0.31807470993E+04  0.31747083679E+04 0.  0.
        3    1    3    3  502    0  0.61623744244E+03  0.83578719624E+03  0.13008213839E+04  0.16644594035E+04  0.10100000352E+00 0.  1.
       -3    1    3    3    0  502 -0.61623744244E+03 -0.83578719624E+03 -0.11049160798E+04  0.15162876958E+04  0.10100000352E+00 0. -1.
</event>
<event>
 5   0  0.1273754E-06  0.3109713E+04  0.7818609E-02  0.8213077E-01
        1   -1    0    0  501    0  0.00000000000E+00  0.00000000000E+00  0.29853968202E+04  0.29853968202E+04  0.50400001928E-02 0.  1.
       -1   -1    0    0    0  501  0.00000000000E+00  0.00000000000E+00 -0.80980125400E+03  0.80980125402E+03  0.50400001928E-02 0. -1.
    10030    2    1    2    0    0  0.00000000000E+00  0.00000000000E+00  0.21755955662E+04  0.37951980742E+04  0.31097125840E+04 0.  0.
        2    1    3    3  502    0  0.46651969654E+03  0.38410771251E+03  0.28362149587E+04  0.28998783861E+04  0.25500000920E-02 0.  1.
       -2    1    3    3    0  502 -0.46651969654E+03 -0.38410771251E+03 -0.66061939255E+03  0.89531968810E+03  0.25500000920E-02 0. -1.
</event>
<event>
 5   0  0.3497546E-06  0.3231040E+04  0.7818609E-02  0.8180667E-01
        2   -1    0    0  501    0  0.00000000000E+00  0.00000000000E+00  0.10974093178E+04  0.10974093178E+04  0.25500000920E-02 0. -1.
       -2   -1    0    0    0  501  0.00000000000E+00  0.00000000000E+00 -0.23782416145E+04  0.23782416145E+04  0.25500000920E-02 0.  1.
    10030    2    1    2    0    0  0.00000000000E+00  0.00000000000E+00 -0.12808322967E+04  0.34756509323E+04  0.32310397755E+04 0.  0.
        4    1    3    3  502    0  0.16611954965E+03 -0.15137741873E+04 -0.60337017805E+02  0.15240571392E+04  0.12699999809E+01 0.  1.
       -4    1    3    3    0  502 -0.16611954965E+03  0.15137741873E+04 -0.12204952789E+04  0.19515937931E+04  0.12699999809E+01 0. -1.
</event>
<event>
 5   0  0.1268836E-06  0.3162523E+04  0.7818609E-02  0.8198785E-01
       -1   -1    0    0    0  501  0.00000000000E+00  0.00000000000E+00  0.18784676510E+04  0.18784676510E+04  0.50400001928E-02 0. -1.
        1   -1    0    0  501    0  0.00000000000E+00  0.00000000000E+00 -0.13310786596E+04  0.13310786596E+04  0.50400001928E-02 0.  1.
    10030    2    1    2    0    0  0.00000000000E+00  0.00000000000E+00  0.54738899141E+03  0.32095463107E+04  0.31625231719E+04 0.  0.
        1    1    3    3  502    0 -0.46588271894E+03 -0.41147853351E+03  0.17492827380E+04  0.18564351292E+04  0.50400001928E-02 0. -1.
       -1    1    3    3    0  502  0.46588271894E+03  0.41147853351E+03 -0.12018937466E+04  0.13531111815E+04  0.50400001928E-02 0.  1.
</event>
<event>
 5   0  0.3656086E-06  0.3200742E+04  0.7818609E-02  0.8188621E-01
        2   -1    0    0  501    0  0.00000000000E+00  0.00000000000E+00  0.20510095363E+04  0.20510095363E+04  0.25500000920E-02 0. -1.
       -2   -1    0    0    0  501  0.00000000000E+00  0.00000000000E+00 -0.12487446749E+04  0.12487446749E+04  0.25500000920E-02 0.  1.
    10030    2    1    2    0    0  0.00000000000E+00  0.00000000000E+00  0.80226486137E+03  0.32997542112E+04  0.32007419369E+04 0.  0.
        3    1    3    3  502    0  0.12422053292E+04 -0.69740502803E+03  0.11528943825E+04  0.18326519911E+04  0.10100000352E+00 0. -1.
       -3    1    3    3    0  502 -0.12422053292E+04  0.69740502803E+03 -0.35062952112E+03  0.14671022201E+04  0.10100000352E+00 0.  1.
</event>
<event>
 5   0  0.1268836E-06  0.3152123E+04  0.7818609E-02  0.8201577E-01
       -1   -1    0    0    0  501  0.00000000000E+00  0.00000000000E+00  0.14434408894E+04  0.14434408894E+04  0.50400001928E-02 0. -1.
        1   -1    0    0  501    0  0.00000000000E+00  0.00000000000E+00 -0.17208674540E+04  0.17208674541E+04  0.50400001928E-02 0.  1.
    10030    2    1    2    0    0  0.00000000000E+00  0.00000000000E+00 -0.27742656464E+03  0.31643083435E+04  0.31521233786E+04 0.  0.
        1    1    3    3  502    0 -0.11386806641E+04 -0.83342712504E+03 -0.84340695400E+03  0.16439372609E+04  0.50400001928E-02 0.  1.
       -1    1    3    3    0  502  0.11386806641E+04  0.83342712504E+03  0.56598038936E+03  0.15203710826E+04  0.50400001928E-02 0. -1.
</event>
<event>
 5   0  0.3745943E-06  0.3177659E+04  0.7818609E-02  0.8194742E-01
       -2   -1    0    0    0  501  0.00000000000E+00  0.00000000000E+00  0.15240077588E+04  0.15240077588E+04  0.25500000920E-02 0.  1.
        2   -1    0    0  501    0  0.00000000000E+00  0.00000000000E+00 -0.16564083679E+04  0.16564083679E+04  0.25500000920E-02 0. -1.
    10030    2    1    2    0    0  0.00000000000E+00  0.00000000000E+00 -0.13240060902E+03  0.31804161267E+04  0.31776590153E+04 0.  0.
        5    1    3    3  502    0 -0.12154686218E+04 -0.39004847780E+03  0.88058840139E+03  0.15507932836E+04  0.46999998093E+01 0.  1.
       -5    1    3    3    0  502  0.12154686218E+04  0.39004847780E+03 -0.10129890104E+04  0.16296228431E+04  0.46999998093E+01 0. -1.
</event>
<event>
 5   0  0.1273980E-06  0.3111412E+04  0.7818609E-02  0.8212613E-01
        1   -1    0    0  501    0  0.00000000000E+00  0.00000000000E+00  0.12033606841E+04  0.12033606841E+04  0.50400001928E-02 0.  1.
       -1   -1    0    0    0  501  0.00000000000E+00  0.00000000000E+00 -0.20112190398E+04  0.20112190398E+04  0.50400001928E-02 0. -1.
    10030    2    1    2    0    0  0.00000000000E+00  0.00000000000E+00 -0.80785835567E+03  0.32145797239E+04  0.31114124893E+04 0.  0.
        4    1    3    3  502    0  0.96163245228E+03 -0.12051191289E+04 -0.61859542516E+03  0.16612377919E+04  0.12699999809E+01 0.  1.
       -4    1    3    3    0  502 -0.96163245228E+03  0.12051191289E+04 -0.18926293051E+03  0.15533419321E+04  0.12699999809E+01 0. -1.
</event>
<event>
 5   0  0.3758062E-06  0.3215469E+04  0.7818609E-02  0.8184744E-01
        2   -1    0    0  501    0  0.00000000000E+00  0.00000000000E+00  0.23386946487E+04  0.23386946487E+04  0.25500000920E-02 0. -1.
       -2   -1    0    0    0  501  0.00000000000E+00  0.00000000000E+00 -0.11052363987E+04  0.11052363987E+04  0.25500000920E-02 0.  1.
    10030    2    1    2    0    0  0.00000000000E+00  0.00000000000E+00  0.12334582500E+04  0.34439310474E+04  0.32154691423E+04 0.  0.
        2    1    3    3  502    0  0.12340639984E+04 -0.93679410277E+03  0.10765497512E+04  0.18866521963E+04  0.25500000920E-02 0. -1.
       -2    1    3    3    0  502 -0.12340639984E+04  0.93679410277E+03  0.15690849875E+03  0.15572788511E+04  0.25500000920E-02 0.  1.
</event>
<event>
 5   0  0.3656086E-06  0.3211563E+04  0.7818609E-02  0.8185770E-01
        2   -1    0    0  501    0  0.00000000000E+00  0.00000000000E+00  0.19699484299E+04  0.19699484299E+04  0.25500000920E-02 0.  1.
       -2   -1    0    0    0  501  0.00000000000E+00  0.00000000000E+00 -0.13089351632E+04  0.13089351632E+04  0.25500000920E-02 0. -1.
    10030    2    1    2    0    0  0.00000000000E+00  0.00000000000E+00  0.66101326670E+03  0.32788835931E+04  0.32115633387E+04 0.  0.
        3    1    3    3  502    0 -0.13618953802E+04  0.75939187439E+03 -0.61068785459E+02  0.15605013464E+04  0.10100000352E+00 0. -1.
       -3    1    3    3    0  502  0.13618953802E+04 -0.75939187439E+03  0.72208205216E+03  0.17183822467E+04  0.10100000352E+00 0.  1.
</event>
<event>
 5   0  0.1306843E-06  0.3188506E+04  0.7818609E-02  0.8191859E-01
        1   -1    0    0  501    0  0.00000000000E+00  0.00000000000E+00  0.19073351025E+04  0.19073351025E+04  0.50400001928E-02 0.  1.
       -1   -1    0    0    0  501  0.00000000000E+00  0.00000000000E+00 -0.13325618867E+04  0.13325618867E+04  0.50400001928E-02 0. -1.
    10030    2    1    2    0    0  0.00000000000E+00  0.00000000000E+00  0.57477321581E+03  0.32398969892E+04  0.31885056454E+04 0.  0.
        5    1    3    3  502    0 -0.72507426174E+03  0.18175262756E+03 -0.11434475551E+04  0.13661116733E+04  0.46999998093E+01 0. -1.
       -5    1    3    3    0  502  0.72507426174E+03 -0.18175262756E+03  0.17182207709E+04  0.18737853159E+04  0.46999998093E+01 0.  1.
</event>
<event>
 5   0  0.1185575E-06  0.3206782E+04  0.7818609E-02  0.8187028E-01
       -4   -1    0    0    0  501  0.00000000000E+00  0.00000000000E+00  0.12993825519E+04  0.12993831725E+04  0.12699999809E+01 0. -1.
        4   -1    0    0  501    0  0.00000000000E+00  0.00000000000E+00 -0.19785248413E+04  0.19785252489E+04  0.12699999809E+01 0.  1.
    10030    2    1    2    0    0  0.00000000000E+00  0.00000000000E+00 -0.67914228945E+03  0.32779084215E+04  0.32067817778E+04 0.  0.
        5    1    3    3  502    0  0.47263977535E+03 -0.11303014209E+04 -0.13968584901E+04  0.18580111385E+04  0.46999998093E+01 0.  1.
       -5    1    3    3    0  502 -0.47263977535E+03  0.11303014209E+04  0.71771620069E+03  0.14198972830E+04  0.46999998093E+01 0. -1.
</event>
<event>
 5   0  0.3497546E-06  0.3147074E+04  0.7818609E-02  0.8202936E-01
        2   -1    0    0  501    0  0.00000000000E+00  0.00000000000E+00  0.20408123406E+04  0.20408123406E+04  0.25500000920E-02 0.  1.
       -2   -1    0    0    0  501  0.00000000000E+00  0.00000000000E+00 -0.12132518610E+04  0.12132518610E+04  0.25500000920E-02 0. -1.
    10030    2    1    2    0    0  0.00000000000E+00  0.00000000000E+00  0.82756047954E+03  0.32540642016E+04  0.31470744321E+04 0.  0.
        4    1    3    3  502    0  0.13775021262E+03 -0.18227504174E+02  0.20344558045E+04  0.20391957720E+04  0.12699999809E+01 0.  1.
       -4    1    3    3    0  502 -0.13775021262E+03  0.18227504174E+02 -0.12068953250E+04  0.12148684297E+04  0.12699999809E+01 0. -1.
</event>
<event>
 5   0  0.3758062E-06  0.3088998E+04  0.7818609E-02  0.8218764E-01
        2   -1    0    0  501    0  0.00000000000E+00  0.00000000000E+00  0.19929167314E+04  0.19929167314E+04  0.25500000920E-02 0. -1.
       -2   -1    0    0    0  501  0.00000000000E+00  0.00000000000E+00 -0.11969776192E+04  0.11969776192E+04  0.25500000920E-02 0.  1.
    10030    2    1    2    0    0  0.00000000000E+00  0.00000000000E+00  0.79593911220E+03  0.31898943505E+04  0.30889977172E+04 0.  0.
        2    1    3    3  502    0  0.12524321803E+03 -0.14967927806E+04  0.76944456063E+03  0.16876372310E+04  0.25500000920E-02 0. -1.
       -2    1    3    3    0  502 -0.12524321803E+03  0.14967927806E+04  0.26494551569E+02  0.15022571195E+04  0.25500000920E-02 0.  1.
</event>
<event>
 5   0  0.1273754E-06  0.2596914E+04  0.7818609E-02  0.8369250E-01
       -1   -1    0    0    0  501  0.00000000000E+00  0.00000000000E+00  0.14374695453E+04  0.14374695453E+04  0.50400001928E-02 0. -1.
        1   -1    0    0  501    0  0.00000000000E+00  0.00000000000E+00 -0.11728874671E+04  0.11728874671E+04  0.50400001928E-02 0.  1.
    10030    2    1    2    0    0  0.00000000000E+00  0.00000000000E+00  0.26458207819E+03  0.26103570124E+04  0.25969135635E+04 0.  0.
        2    1    3    3  502    0 -0.39137105310E+02  0.46846930321E+03  0.13489264639E+04  0.14284949444E+04  0.25500000920E-02 0. -1.
       -2    1    3    3    0  502  0.39137105310E+02 -0.46846930321E+03 -0.10843443857E+04  0.11818620680E+04  0.25500000920E-02 0.  1.
</event>
<event>
 5   0  0.3497546E-06  0.2327397E+04  0.7818609E-02  0.8467197E-01
        2   -1    0    0  501    0  0.00000000000E+00  0.00000000000E+00  0.20070587024E+04  0.20070587024E+04  0.25500000920E-02 0.  1.
       -2   -1    0    0    0  501  0.00000000000E+00  0.00000000000E+00 -0.67471564676E+03  0.67471564677E+03  0.25500000920E-02 0. -1.
    10030    2    1    2    0    0  0.00000000000E+00  0.00000000000E+00  0.13323430556E+04  0.26817743491E+04  0.23273967521E+04 0.  0.
        4    1    3    3  502    0  0.65149746468E+03 -0.96294362242E+03  0.60875536769E+03  0.13123620221E+04  0.12699999809E+01 0.  1.
       -4    1    3    3    0  502 -0.65149746468E+03  0.96294362242E+03  0.72358768791E+03  0.13694123270E+04  0.12699999809E+01 0. -1.
</event>
<event>
 5   0  0.3745943E-06  0.3215888E+04  0.7818609E-02  0.8184634E-01
       -2   -1    0    0    0  501  0.00000000000E+00  0.00000000000E+00  0.14482471492E+04  0.14482471492E+04  0.25500000920E-02 0.  1.
        2   -1    0    0  501    0  0.00000000000E+00  0.00000000000E+00 -0.17852508310E+04  0.17852508310E+04  0.25500000920E-02 0. -1.
    10030    2    1    2    0    0  0.00000000000E+00  0.00000000000E+00 -0.33700368182E+03  0.32334979802E+04  0.32158883230E+04 0.  0.
        5    1    3    3  502    0 -0.43065730310E+03  0.77241833734E+03 -0.15187501388E+04  0.17574754265E+04  0.46999998093E+01 0. -1.
       -5    1    3    3    0  502  0.43065730310E+03 -0.77241833734E+03  0.11817464570E+04  0.14760225537E+04  0.46999998093E+01 0.  1.
</event>
<event>
 5   0  0.3497546E-06  0.3122989E+04  0.7818609E-02  0.8209457E-01
       -2   -1    0    0    0  501  0.00000000000E+00  0.00000000000E+00  0.17904776928E+04  0.17904776929E+04  0.25500000920E-02 0.  1.
        2   -1    0    0  501    0  0.00000000000E+00  0.00000000000E+00 -0.13617956511E+04  0.13617956511E+04  0.25500000920E-02 0. -1.
    10030    2    1    2    0    0  0.00000000000E+00  0.00000000000E+00  0.42868204172E+03  0.31522733440E+04  0.31229887836E+04 0.  0.
        4    1    3    3  502    0  0.85577181786E+03  0.11263050910E+04 -0.45318818968E+03  0.14853584451E+04  0.12699999809E+01 0. -1.
       -4    1    3    3    0  502 -0.85577181786E+03 -0.11263050910E+04  0.88187023140E+03  0.16669148989E+04  0.12699999809E+01 0.  1.
</event>
<event>
 5   0  0.3758062E-06  0.3240301E+04  0.7818609E-02  0.8178254E-01
        2   -1    0    0  501    0  0.00000000000E+00  0.00000000000E+00  0.16214673152E+04  0.16214673152E+04  0.25500000920E-02 0. -1.
       -2   -1    0    0    0  501  0.00000000000E+00  0.00000000000E+00 -0.16188348385E+04  0.16188348385E+04  0.25500000920E-02 0.  1.
    10030    2    1    2    0    0  0.00000000000E+00  0.00000000000E+00  0.26324766986E+01  0.32403021537E+04  0.32403010844E+04 0.  0.
        2    1    3    3  502    0 -0.43676499475E+03 -0.12190285398E+04  0.97501750862E+03  0.16209421284E+04  0.25500000920E-02 0. -1.
       -2    1    3    3    0  502  0.43676499475E+03  0.12190285398E+04 -0.97238503192E+03  0.16193600253E+04  0.25500000920E-02 0.  1.
</event>
<event>
 5   0  0.3745943E-06  0.3159160E+04  0.7818609E-02  0.8199687E-01
       -2   -1    0    0    0  501  0.00000000000E+00  0.00000000000E+00  0.11535794476E+04  0.11535794476E+04  0.25500000920E-02 0. -1.
        2   -1    0    0  501    0  0.00000000000E+00  0.00000000000E+00 -0.21628970816E+04  0.21628970816E+04  0.25500000920E-02 0.  1.
    10030    2    1    2    0    0  0.00000000000E+00  0.00000000000E+00 -0.10093176339E+04  0.33164765292E+04  0.31591604079E+04 0.  0.
        5    1    3    3  502    0 -0.12861527526E+03  0.11000506667E+04  0.67765578680E+03  0.12984193520E+04  0.46999998093E+01 0. -1.
       -5    1    3    3    0  502  0.12861527526E+03 -0.11000506667E+04 -0.16869734207E+04  0.20180571772E+04  0.46999998093E+01 0.  1.
</event>
<event>
 5   0  0.1268836E-06  0.2361933E+04  0.7818609E-02  0.8453894E-01
       -1   -1    0    0    0  501  0.00000000000E+00  0.00000000000E+00  0.10837949865E+04  0.10837949865E+04  0.50400001928E-02 0.  1.
        1   -1    0    0  501    0  0.00000000000E+00  0.00000000000E+00 -0.12868498103E+04  0.12868498103E+04  0.50400001928E-02 0. -1.
    10030    2    1    2    0    0  0.00000000000E+00  0.00000000000E+00 -0.20305482383E+03  0.23706447968E+04  0.23619325755E+04 0.  0.
        1    1    3    3  502    0 -0.62179817754E+03  0.44072548036E+03 -0.10069688266E+04  0.12628769301E+04  0.50400001928E-02 0. -1.
       -1    1    3    3    0  502  0.62179817754E+03 -0.44072548036E+03  0.80391400280E+03  0.11077678667E+04  0.50400001928E-02 0.  1.
</event>
<event>
 5   0  0.3656086E-06  0.3146729E+04  0.7818609E-02  0.8203029E-01
       -2   -1    0    0    0  501  0.00000000000E+00  0.00000000000E+00  0.11704592737E+04  0.11704592737E+04  0.25500000920E-02 0.  1.
        2   -1    0    0  501    0  0.00000000000E+00  0.00000000000E+00 -0.21149609707E+04  0.21149609707E+04  0.25500000920E-02 0. -1.
    10030    2    1    2    0    0  0.00000000000E+00  0.00000000000E+00 -0.94450169705E+03  0.32854202444E+04  0.31467288931E+04 0.  0.
        3    1    3    3  502    0 -0.11712714257E+04 -0.35809558083E+03 -0.15033858115E+04  0.19391436527E+04  0.10100000352E+00 0. -1.
       -3    1    3    3    0  502  0.11712714257E+04  0.35809558083E+03  0.55888411444E+03  0.13462765916E+04  0.10100000352E+00 0.  1.
</event>
<event>
 5   0  0.1268836E-06  0.3195557E+04  0.7818609E-02  0.8189991E-01
        1   -1    0    0  501    0  0.00000000000E+00  0.00000000000E+00  0.19686877851E+04  0.19686877851E+04  0.50400001928E-02 0.  1.
       -1   -1    0    0    0  501  0.00000000000E+00  0.00000000000E+00 -0.12967503484E+04  0.12967503484E+04  0.50400001928E-02 0. -1.
    10030    2    1    2    0    0  0.00000000000E+00  0.00000000000E+00  0.67193743671E+03  0.32654381336E+04  0.31955572731E+04 0.  0.
        1    1    3    3  502    0 -0.13337708008E+04  0.15330437076E+03  0.12211978047E+04  0.18148748875E+04  0.50400001928E-02 0.  1.
       -1    1    3    3    0  502  0.13337708008E+04 -0.15330437076E+03 -0.54926036797E+03  0.14505632461E+04  0.50400001928E-02 0. -1.
</event>
<event>
 5   0  0.3758062E-06  0.3188865E+04  0.7818609E-02  0.8191764E-01
       -2   -1    0    0    0  501  0.00000000000E+00  0.00000000000E+00  0.10931186489E+04  0.10931186489E+04  0.25500000920E-02 0.  1.
        2   -1    0    0  501    0  0.00000000000E+00  0.00000000000E+00 -0.23256532862E+04  0.23256532862E+04  0.25500000920E-02 0. -1.
    10030    2    1    2    0    0  0.00000000000E+00  0.00000000000E+00 -0.12325346374E+04  0.34187719351E+04  0.31888649880E+04 0.  0.
        2    1    3    3  502    0  0.51704409347E+03 -0.13617427028E+04 -0.13115096458E+04  0.19600345237E+04  0.25500000920E-02 0. -1.
       -2    1    3    3    0  502 -0.51704409347E+03  0.13617427028E+04  0.78975008429E+02  0.14587374113E+04  0.25500000920E-02 0.  1.
</event>
<event>
 5   0  0.3745943E-06  0.3218303E+04  0.7818609E-02  0.8184000E-01
       -2   -1    0    0    0  501  0.00000000000E+00  0.00000000000E+00  0.18569717133E+04  0.18569717133E+04  0.25500000920E-02 0. -1.
        2   -1    0    0  501    0  0.00000000000E+00  0.00000000000E+00 -0.13944040687E+04  0.13944040687E+04  0.25500000920E-02 0.  1.
    10030    2    1    2    0    0  0.00000000000E+00  0.00000000000E+00  0.46256764466E+03  0.32513757820E+04  0.32183032253E+04 0.  0.
        5    1    3    3  502    0  0.56616626169E+03 -0.13368587837E+04 -0.46982992955E+03  0.15259416424E+04  0.46999998093E+01 0. -1.
       -5    1    3    3    0  502 -0.56616626169E+03  0.13368587837E+04  0.93239757421E+03  0.17254341395E+04  0.46999998093E+01 0.  1.
</event>
<event>
 5   0  0.1240725E-06  0.3187835E+04  0.7818609E-02  0.8192037E-01
       -1   -1    0    0    0  501  0.00000000000E+00  0.00000000000E+00  0.91274581865E+03  0.91274581866E+03  0.50400001928E-02 0. -1.
        1   -1    0    0  501    0  0.00000000000E+00  0.00000000000E+00 -0.27834394406E+04  0.27834394406E+04  0.50400001928E-02 0.  1.
    10030    2    1    2    0    0  0.00000000000E+00  0.00000000000E+00 -0.18706936220E+04  0.36961852593E+04  0.31878348206E+04 0.  0.
        3    1    3    3  502    0 -0.91320293122E+02 -0.22654371558E+03 -0.27616107125E+04  0.27723916008E+04  0.10100000352E+00 0.  1.
       -3    1    3    3    0  502  0.91320293122E+02  0.22654371558E+03  0.89091709051E+03  0.92379365843E+03  0.10100000352E+00 0. -1.
</event>
<event>
 5   0  0.1268836E-06  0.2942011E+04  0.7818609E-02  0.8260487E-01
        1   -1    0    0  501    0  0.00000000000E+00  0.00000000000E+00  0.14281407496E+04  0.14281407496E+04  0.50400001928E-02 0. -1.
       -1   -1    0    0    0  501  0.00000000000E+00  0.00000000000E+00 -0.15151568412E+04  0.15151568412E+04  0.50400001928E-02 0.  1.
    10030    2    1    2    0    0  0.00000000000E+00  0.00000000000E+00 -0.87016091647E+02  0.29432975909E+04  0.29420110313E+04 0.  0.
        1    1    3    3  502    0  0.54286057112E+03 -0.13123649496E+04  0.33987992751E+03  0.14603142559E+04  0.50400001928E-02 0. -1.
       -1    1    3    3    0  502 -0.54286057112E+03  0.13123649496E+04 -0.42689601915E+03  0.14829833350E+04  0.50400001928E-02 0.  1.
</event>
<event>
 5   0  0.1306843E-06  0.3047232E+04  0.7818609E-02  0.8230371E-01
       -1   -1    0    0    0  501  0.00000000000E+00  0.00000000000E+00  0.93556948377E+03  0.93556948378E+03  0.50400001928E-02 0. -1.
        1   -1    0    0  501    0  0.00000000000E+00  0.00000000000E+00 -0.24812758782E+04  0.24812758782E+04  0.50400001928E-02 0.  1.
    10030    2    1    2    0    0  0.00000000000E+00  0.00000000000E+00 -0.15457063944E+04  0.34168453620E+04  0.30472321818E+04 0.  0.
        5    1    3    3  502    0  0.11994880045E+04 -0.93007209399E+03 -0.92151814348E+03  0.17756754635E+04  0.46999998093E+01 0. -1.
       -5    1    3    3    0  502 -0.11994880045E+04  0.93007209399E+03 -0.62418825093E+03  0.16411698984E+04  0.46999998093E+01 0.  1.
</event>
<event>
 5   0  0.1185575E-06  0.3173560E+04  0.7818609E-02  0.8195835E-01
       -3   -1    0    0    0  501  0.00000000000E+00  0.00000000000E+00  0.17368633050E+04  0.17368633079E+04  0.10100000352E+00 0. -1.
        3   -1    0    0  501    0  0.00000000000E+00  0.00000000000E+00 -0.14496655503E+04  0.14496655538E+04  0.10100000352E+00 0.  1.
    10030    2    1    2    0    0  0.00000000000E+00  0.00000000000E+00  0.28719775468E+03  0.31865288617E+04  0.31735600886E+04 0.  0.
        1    1    3    3  502    0  0.54681574858E+03  0.15857367816E+03  0.16307719513E+04  0.17273014304E+04  0.50400001928E-02 0. -1.
       -1    1    3    3    0  502 -0.54681574858E+03 -0.15857367816E+03 -0.13435741966E+04  0.14592274313E+04  0.50400001928E-02 0.  1.
</event>
<event>
 5   0  0.1240725E-06  0.3274330E+04  0.7818609E-02  0.8169458E-01
        1   -1    0    0  501    0  0.00000000000E+00  0.00000000000E+00  0.19552684717E+04  0.19552684717E+04  0.50400001928E-02 0.  1.
       -1   -1    0    0    0  501  0.00000000000E+00  0.00000000000E+00 -0.13708137030E+04  0.13708137031E+04  0.50400001928E-02 0. -1.
    10030    2    1    2    0    0  0.00000000000E+00  0.00000000000E+00  0.58445476864E+03  0.33260821748E+04  0.32743297416E+04 0.  0.
        3    1    3    3  502    0  0.92571160141E+03  0.14120775494E+03  0.16563702945E+04  0.19027464786E+04  0.10100000352E+00 0.  1.
       -3    1    3    3    0  502 -0.92571160141E+03 -0.14120775494E+03 -0.10719155259E+04  0.14233356961E+04  0.10100000352E+00 0. -1.
</event>
<event>
 5   0  0.3745943E-06  0.3194906E+04  0.7818609E-02  0.8190164E-01
       -2   -1    0    0    0  501  0.00000000000E+00  0.00000000000E+00  0.19300150674E+04  0.19300150674E+04  0.25500000920E-02 0. -1.
        2   -1    0    0  501    0  0.00000000000E+00  0.00000000000E+00 -0.13221951627E+04  0.13221951627E+04  0.25500000920E-02 0.  1.
    10030    2    1    2    0    0  0.00000000000E+00  0.00000000000E+00  0.60781990467E+03  0.32522102301E+04  0.31949063122E+04 0.  0.
        5    1    3    3  502    0 -0.74185692979E+03  0.57255666081E+03  0.16208145630E+04  0.18722272222E+04  0.46999998093E+01 0. -1.
       -5    1    3    3    0  502  0.74185692979E+03 -0.57255666081E+03 -0.10129946583E+04  0.13799830078E+04  0.46999998093E+01 0.  1.
</event>
<event>
 5   0  0.1185575E-06  0.3103203E+04  0.7818609E-02  0.8214859E-01
       -3   -1    0    0    0  501  0.00000000000E+00  0.00000000000E+00  0.26831750268E+04  0.26831750287E+04  0.10100000352E+00 0. -1.
        3   -1    0    0  501    0  0.00000000000E+00  0.00000000000E+00 -0.89724569028E+03  0.89724569596E+03  0.10100000352E+00 0.  1.
    10030    2    1    2    0    0  0.00000000000E+00  0.00000000000E+00  0.17859293365E+04  0.35804207246E+04  0.31032030179E+04 0.  0.
        1    1    3    3  502    0  0.25957184181E+03 -0.36338421949E+03 -0.82149589625E+03  0.93503002071E+03  0.50400001928E-02 0.  1.
       -1    1    3    3    0  502 -0.25957184181E+03  0.36338421949E+03  0.26074252327E+04  0.26453907039E+04  0.50400001928E-02 0. -1.
</event>
<event>
 5   0  0.3745943E-06  0.2891236E+04  0.7818609E-02  0.8275490E-01
       -2   -1    0    0    0  501  0.00000000000E+00  0.00000000000E+00  0.20016735966E+04  0.20016735966E+04  0.25500000920E-02 0.  1.
        2   -1    0    0  501    0  0.00000000000E+00  0.00000000000E+00 -0.10440323242E+04  0.10440323242E+04  0.25500000920E-02 0. -1.
    10030    2    1    2    0    0  0.00000000000E+00  0.00000000000E+00  0.95764127238E+03  0.30457059208E+04  0.28912363704E+04 0.  0.
        5    1    3    3  502    0  0.71830598591E+03 -0.92165641272E+03 -0.41775377576E+03  0.12409489674E+04  0.46999998093E+01 0.  1.
       -5    1    3    3    0  502 -0.71830598591E+03  0.92165641272E+03  0.13753950481E+04  0.18047569534E+04  0.46999998093E+01 0. -1.
</event>
<event>
 5   0  0.1268836E-06  0.3137975E+04  0.7818609E-02  0.8205393E-01
       -1   -1    0    0    0  501  0.00000000000E+00  0.00000000000E+00  0.10616002408E+04  0.10616002408E+04  0.50400001928E-02 0. -1.
        1   -1    0    0  501    0  0.00000000000E+00  0.00000000000E+00 -0.23188789468E+04  0.23188789468E+04  0.50400001928E-02 0.  1.
    10030    2    1    2    0    0  0.00000000000E+00  0.00000000000E+00 -0.12572787061E+04  0.33804791876E+04  0.31379754290E+04 0.  0.
        1    1    3    3  502    0 -0.11242441870E+04 -0.85069385938E+02  0.54681154215E+03  0.12530621114E+04  0.50400001928E-02 0. -1.
       -1    1    3    3    0  502  0.11242441870E+04  0.85069385938E+02 -0.18040902482E+04  0.21274170762E+04  0.50400001928E-02 0.  1.
</event>
<event>
 5   0  0.1306843E-06  0.3125647E+04  0.7818609E-02  0.8208734E-01
        1   -1    0    0  501    0  0.00000000000E+00  0.00000000000E+00  0.17489362055E+04  0.17489362055E+04  0.50400001928E-02 0. -1.
       -1   -1    0    0    0  501  0.00000000000E+00  0.00000000000E+00 -0.13965163205E+04  0.13965163205E+04  0.50400001928E-02 0.  1.
    10030    2    1    2    0    0  0.00000000000E+00  0.00000000000E+00  0.35241988508E+03  0.31454525260E+04  0.31256474238E+04 0.  0.
        5    1    3    3  502    0  0.97806573674E+03 -0.58775743298E+03  0.12508360093E+04  0.16931285237E+04  0.46999998093E+01 0. -1.
       -5    1    3    3    0  502 -0.97806573674E+03  0.58775743298E+03 -0.89841612426E+03  0.14523240023E+04  0.46999998093E+01 0.  1.
</event>
<event>
 5   0  0.3656086E-06  0.2725661E+04  0.7818609E-02  0.8326727E-01
       -2   -1    0    0    0  501  0.00000000000E+00  0.00000000000E+00  0.76052426538E+03  0.76052426539E+03  0.25500000920E-02 0. -1.
        2   -1    0    0  501    0  0.00000000000E+00  0.00000000000E+00 -0.24421406347E+04  0.24421406347E+04  0.25500000920E-02 0.  1.
    10030    2    1    2    0    0  0.00000000000E+00  0.00000000000E+00 -0.16816163693E+04  0.32026649001E+04  0.27256611764E+04 0.  0.
        3    1    3    3  502    0  0.98850547157E+03  0.76600343870E+03 -0.20434716804E+03  0.12671472332E+04  0.10100000352E+00 0. -1.
       -3    1    3    3    0  502 -0.98850547157E+03 -0.76600343870E+03 -0.14772692013E+04  0.19355176669E+04  0.10100000352E+00 0.  1.
</event>
<event>
 5   0  0.3745943E-06  0.3045547E+04  0.7818609E-02  0.8230843E-01
       -2   -1    0    0    0  501  0.00000000000E+00  0.00000000000E+00  0.14534823707E+04  0.14534823707E+04  0.25500000920E-02 0. -1.
        2   -1    0    0  501    0  0.00000000000E+00  0.00000000000E+00 -0.15953684152E+04  0.15953684152E+04  0.25500000920E-02 0.  1.
    10030    2    1    2    0    0  0.00000000000E+00  0.00000000000E+00 -0.14188604450E+03  0.30488507858E+04  0.30455474819E+04 0.  0.
        5    1    3    3  502    0 -0.18520329018E+02  0.10127297767E+04  0.10673272613E+04  0.14714530832E+04  0.46999998093E+01 0. -1.
       -5    1    3    3    0  502  0.18520329018E+02 -0.10127297767E+04 -0.12092133058E+04  0.15773977026E+04  0.46999998093E+01 0.  1.
</event>
<event>
 5   0  0.1185575E-06  0.3216756E+04  0.7818609E-02  0.8184406E-01
        3   -1    0    0  501    0  0.00000000000E+00  0.00000000000E+00  0.11740604266E+04  0.11740604310E+04  0.10100000352E+00 0.  1.
       -3   -1    0    0    0  501  0.00000000000E+00  0.00000000000E+00 -0.22033622981E+04  0.22033623004E+04  0.10100000352E+00 0. -1.
    10030    2    1    2    0    0  0.00000000000E+00  0.00000000000E+00 -0.10293018714E+04  0.33774227314E+04  0.32167564353E+04 0.  0.
        5    1    3    3  502    0 -0.11988145886E+04 -0.12542156246E+03 -0.16327191398E+04  0.20294533416E+04  0.46999998093E+01 0. -1.
       -5    1    3    3    0  502  0.11988145886E+04  0.12542156246E+03  0.60341726835E+03  0.13479693898E+04  0.46999998093E+01 0.  1.
</event>
<event>
 5   0  0.3497546E-06  0.3207550E+04  0.7818609E-02  0.8186826E-01
        2   -1    0    0  501    0  0.00000000000E+00  0.00000000000E+00  0.16308284733E+04  0.16308284733E+04  0.25500000920E-02 0. -1.
       -2   -1    0    0    0  501  0.00000000000E+00  0.00000000000E+00 -0.15771705081E+04  0.15771705081E+04  0.25500000920E-02 0.  1.
    10030    2    1    2    0    0  0.00000000000E+00  0.00000000000E+00  0.53657965152E+02  0.32079989814E+04  0.32075502003E+04 0.  0.
        4    1    3    3  502    0  0.78887932417E+03  0.59484066745E+03  0.12903057601E+04  0.16251327870E+04  0.12699999809E+01 0. -1.
       -4    1    3    3    0  502 -0.78887932417E+03 -0.59484066745E+03 -0.12366477950E+04  0.15828661944E+04  0.12699999809E+01 0.  1.
</event>
<event>
 5   0  0.1240725E-06  0.3175759E+04  0.7818609E-02  0.8195249E-01
        1   -1    0    0  501    0  0.00000000000E+00  0.00000000000E+00  0.14765923287E+04  0.14765923287E+04  0.50400001928E-02 0. -1.
       -1   -1    0    0    0  501  0.00000000000E+00  0.00000000000E+00 -0.17075543735E+04  0.17075543735E+04  0.50400001928E-02 0.  1.
    10030    2    1    2    0    0  0.00000000000E+00  0.00000000000E+00 -0.23096204478E+03  0.31841467022E+04  0.31757592408E+04 0.  0.
        3    1    3    3  502    0 -0.60525419547E+03  0.76324826436E+03 -0.13727790049E+04  0.16832714460E+04  0.10100000352E+00 0.  1.
       -3    1    3    3    0  502  0.60525419547E+03 -0.76324826436E+03  0.11418169602E+04  0.15008752563E+04  0.10100000352E+00 0. -1.
</event>
<event>
 5   0  0.1273980E-06  0.3177065E+04  0.7818609E-02  0.8194901E-01
       -1   -1    0    0    0  501  0.00000000000E+00  0.00000000000E+00  0.14139569637E+04  0.14139569637E+04  0.50400001928E-02 0.  1.
        1   -1    0    0  501    0  0.00000000000E+00  0.00000000000E+00 -0.17846624174E+04  0.17846624174E+04  0.50400001928E-02 0. -1.
    10030    2    1    2    0    0  0.00000000000E+00  0.00000000000E+00 -0.37070545370E+03  0.31986193812E+04  0.31770652200E+04 0.  0.
        4    1    3    3  502    0  0.15847904167E+04 -0.57794901044E+02 -0.27835543019E+03  0.16100882814E+04  0.12699999809E+01 0.  1.
       -4    1    3    3    0  502 -0.15847904167E+04  0.57794901044E+02 -0.92350023505E+02  0.15885310998E+04  0.12699999809E+01 0. -1.
</event>
<event>
 5   0  0.1273980E-06  0.3164138E+04  0.7818609E-02  0.8198353E-01
       -1   -1    0    0    0  501  0.00000000000E+00  0.00000000000E+00  0.18339213472E+04  0.18339213472E+04  0.50400001928E-02 0. -1.
        1   -1    0    0  501    0  0.00000000000E+00  0.00000000000E+00 -0.13648036341E+04  0.13648036341E+04  0.50400001928E-02 0.  1.
    10030    2    1    2    0    0  0.00000000000E+00  0.00000000000E+00  0.46911771304E+03  0.31987249813E+04  0.31641381255E+04 0.  0.
        4    1    3    3  502    0 -0.19892597581E+02 -0.97909781150E+03 -0.10215660691E+04  0.14151420729E+04  0.12699999809E+01 0.  1.
       -4    1    3    3    0  502  0.19892597581E+02  0.97909781150E+03  0.14906837822E+04  0.17835829084E+04  0.12699999809E+01 0. -1.
</event>
<event>
 5   0  0.1273980E-06  0.3083934E+04  0.7818609E-02  0.8220161E-01
        1   -1    0    0  501    0  0.00000000000E+00  0.00000000000E+00  0.16414121740E+04  0.16414121741E+04  0.50400001928E-02 0. -1.
       -1   -1    0    0    0  501  0.00000000000E+00  0.00000000000E+00 -0.14485471804E+04  0.14485471804E+04  0.50400001928E-02 0.  1.
    10030    2    1    2    0    0  0.00000000000E+00  0.00000000000E+00  0.19286499366E+03  0.30899593545E+04  0.30839344848E+04 0.  0.
        4    1    3    3  502    0  0.25214504806E+03 -0.10960620247E+04 -0.96048957206E+03  0.14790101143E+04  0.12699999809E+01 0.  1.
       -4    1    3    3    0  502 -0.25214504806E+03  0.10960620247E+04  0.11533545657E+04  0.16109492402E+04  0.12699999809E+01 0. -1.
</event>
<event>
 5   0  0.1268836E-06  0.3490700E+04  0.7818609E-02  0.8115998E-01
       -1   -1    0    0    0  501  0.00000000000E+00  0.00000000000E+00  0.15823566877E+04  0.15823566877E+04  0.50400001928E-02 0. -1.
        1   -1    0    0  501    0  0.00000000000E+00  0.00000000000E+00 -0.19251323262E+04  0.19251323262E+04  0.50400001928E-02 0.  1.
    10030    2    1    2    0    0  0.00000000000E+00  0.00000000000E+00 -0.34277563854E+03  0.35074890139E+04  0.34906996496E+04 0.  0.
        1    1    3    3  502    0  0.13555038472E+04 -0.78459118374E+02 -0.12733391199E+04  0.18614346691E+04  0.50400001928E-02 0.  1.
       -1    1    3    3    0  502 -0.13555038472E+04  0.78459118374E+02  0.93056348137E+03  0.16460543448E+04  0.50400001928E-02 0. -1.
</event>
<event>
 5   0  0.1306843E-06  0.3135956E+04  0.7818609E-02  0.8205939E-01
        1   -1    0    0  501    0  0.00000000000E+00  0.00000000000E+00  0.18800134409E+04  0.18800134409E+04  0.50400001928E-02 0.  1.
       -1   -1    0    0    0  501  0.00000000000E+00  0.00000000000E+00 -0.13077329281E+04  0.13077329281E+04  0.50400001928E-02 0. -1.
    10030    2    1    2    0    0  0.00000000000E+00  0.00000000000E+00  0.57228051279E+03  0.31877463690E+04  0.31359563019E+04 0.  0.
        5    1    3    3  502    0 -0.89189191955E+03  0.78525929714E+03  0.13259858479E+04  0.17805515771E+04  0.46999998093E+01 0.  1.
       -5    1    3    3    0  502  0.89189191955E+03 -0.78525929714E+03 -0.75370533515E+03  0.14071947918E+04  0.46999998093E+01 0. -1.
</event>
<event>
 5   0  0.3497546E-06  0.3176648E+04  0.7818609E-02  0.8195012E-01
       -2   -1    0    0    0  501  0.00000000000E+00  0.00000000000E+00  0.15461777080E+04  0.15461777080E+04  0.25500000920E-02 0. -1.
        2   -1    0    0  501    0  0.00000000000E+00  0.00000000000E+00 -0.16316192545E+04  0.16316192545E+04  0.25500000920E-02 0.  1.
    10030    2    1    2    0    0  0.00000000000E+00  0.00000000000E+00 -0.85441546488E+02  0.31777969625E+04  0.31766481198E+04 0.  0.
        4    1    3    3  502    0  0.92775422342E+03 -0.65332104744E+03  0.10690836229E+04  0.15590053546E+04  0.12699999809E+01 0. -1.
       -4    1    3    3    0  502 -0.92775422342E+03  0.65332104744E+03 -0.11545251694E+04  0.16187916079E+04  0.12699999809E+01 0.  1.
</event>
<event>
 5   0  0.1306843E-06  0.3142261E+04  0.7818609E-02  0.8204234E-01
        1   -1    0    0  501    0  0.00000000000E+00  0.00000000000E+00  0.11071311855E+04  0.11071311855E+04  0.50400001928E-02 0.  1.
       -1   -1    0    0    0  501  0.00000000000E+00  0.00000000000E+00 -0.22295923760E+04  0.22295923760E+04  0.50400001928E-02 0. -1.
    10030    2    1    2    0    0  0.00000000000E+00  0.00000000000E+00 -0.11224611905E+04  0.33367235615E+04  0.31422611289E+04 0.  0.
        5    1    3    3  502    0 -0.19107882170E+03 -0.36271357839E+03 -0.21717856173E+04  0.22101464009E+04  0.46999998093E+01 0. -1.
       -5    1    3    3    0  502  0.19107882170E+03  0.36271357839E+03  0.10493244268E+04  0.11265771606E+04  0.46999998093E+01 0.  1.
</event>
<event>
 5   0  0.3497546E-06  0.3209800E+04  0.7818609E-02  0.8186234E-01
        2   -1    0    0  501    0  0.00000000000E+00  0.00000000000E+00  0.15007005063E+04  0.15007005063E+04  0.25500000920E-02 0. -1.
       -2   -1    0    0    0  501  0.00000000000E+00  0.00000000000E+00 -0.17163343664E+04  0.17163343664E+04  0.25500000920E-02 0.  1.
    10030    2    1    2    0    0  0.00000000000E+00  0.00000000000E+00 -0.21563386009E+03  0.32170348727E+04  0.32097999020E+04 0.  0.
        4    1    3    3  502    0  0.24669323841E+03 -0.14980603130E+04 -0.62923951162E+03  0.16434677457E+04  0.12699999809E+01 0.  1.
       -4    1    3    3    0  502 -0.24669323841E+03  0.14980603130E+04  0.41360565152E+03  0.15735671270E+04  0.12699999809E+01 0. -1.
</event>
<event>
 5   0  0.1268836E-06  0.2737343E+04  0.7818609E-02  0.8322989E-01
        1   -1    0    0  501    0  0.00000000000E+00  0.00000000000E+00  0.15002815733E+04  0.15002815733E+04  0.50400001928E-02 0.  1.
       -1   -1    0    0    0  501  0.00000000000E+00  0.00000000000E+00 -0.12486065374E+04  0.12486065374E+04  0.50400001928E-02 0. -1.
    10030    2    1    2    0    0  0.00000000000E+00  0.00000000000E+00  0.25167503593E+03  0.27488881107E+04  0.27373427847E+04 0.  0.
        1    1    3    3  502    0 -0.45117672512E+03 -0.64326178616E+03 -0.99956540482E+03  0.12714075512E+04  0.50400001928E-02 0. -1.
       -1    1    3    3    0  502  0.45117672512E+03  0.64326178616E+03  0.12512404408E+04  0.14774805594E+04  0.50400001928E-02 0.  1.
</event>
<event>
 5   0  0.3531437E-06  0.3172533E+04  0.7818609E-02  0.8196109E-01
       -2   -1    0    0    0  501  0.00000000000E+00  0.00000000000E+00  0.11972403908E+04  0.11972403908E+04  0.25500000920E-02 0. -1.
        2   -1    0    0  501    0  0.00000000000E+00  0.00000000000E+00 -0.21017005269E+04  0.21017005269E+04  0.25500000920E-02 0.  1.
    10030    2    1    2    0    0  0.00000000000E+00  0.00000000000E+00 -0.90446013612E+03  0.32989409178E+04  0.31725325910E+04 0.  0.
        1    1    3    3  502    0  0.10730263756E+04  0.10207713158E+04 -0.10430970785E+04  0.18114665873E+04  0.50400001928E-02 0.  1.
       -1    1    3    3    0  502 -0.10730263756E+04 -0.10207713158E+04  0.13863694237E+03  0.14874743304E+04  0.50400001928E-02 0. -1.
</event>
<event>
 5   0  0.1240725E-06  0.3351539E+04  0.7818609E-02  0.8149904E-01
       -1   -1    0    0    0  501  0.00000000000E+00  0.00000000000E+00  0.16672407724E+04  0.16672407724E+04  0.50400001928E-02 0. -1.
        1   -1    0    0  501    0  0.00000000000E+00  0.00000000000E+00 -0.16843413703E+04  0.16843413703E+04  0.50400001928E-02 0.  1.
    10030    2    1    2    0    0  0.00000000000E+00  0.00000000000E+00 -0.17100597938E+02  0.33515821427E+04  0.33515385167E+04 0.  0.
        3    1    3    3  502    0  0.16364953196E+04 -0.26312104705E+03 -0.25523747876E+03  0.16770497301E+04  0.10100000352E+00 0.  1.
       -3    1    3    3    0  502 -0.16364953196E+04  0.26312104705E+03  0.23813688082E+03  0.16745324126E+04  0.10100000352E+00 0. -1.
</event>
<event>
 5   0  0.3758062E-06  0.3233954E+04  0.7818609E-02  0.8179907E-01
       -2   -1    0    0    0  501  0.00000000000E+00  0.00000000000E+00  0.18722093294E+04  0.18722093294E+04  0.25500000920E-02 0.  1.
        2   -1    0    0  501    0  0.00000000000E+00  0.00000000000E+00 -0.13965399865E+04  0.13965399865E+04  0.25500000920E-02 0. -1.
    10030    2    1    2    0    0  0.00000000000E+00  0.00000000000E+00  0.47566934284E+03  0.32687493159E+04  0.32339543544E+04 0.  0.
        2    1    3    3  502    0  0.95365499727E+03  0.12734864466E+04  0.52971424032E+03  0.16768490570E+04  0.25500000920E-02 0.  1.
       -2    1    3    3    0  502 -0.95365499727E+03 -0.12734864466E+04 -0.54044897477E+02  0.15919002589E+04  0.25500000920E-02 0. -1.
</event>
<event>
 5   0  0.1268836E-06  0.3158184E+04  0.7818609E-02  0.8199949E-01
        1   -1    0    0  501    0  0.00000000000E+00  0.00000000000E+00  0.18864817735E+04  0.18864817735E+04  0.50400001928E-02 0. -1.
       -1   -1    0    0    0  501  0.00000000000E+00  0.00000000000E+00 -0.13217894921E+04  0.13217894921E+04  0.50400001928E-02 0.  1.
    10030    2    1    2    0    0  0.00000000000E+00  0.00000000000E+00  0.56469228137E+03  0.32082712656E+04  0.31581841524E+04 0.  0.
        1    1    3    3  502    0  0.97914130063E+03 -0.29925300264E+03  0.15036026301E+04  0.18190906837E+04  0.50400001928E-02 0. -1.
       -1    1    3    3    0  502 -0.97914130063E+03  0.29925300264E+03 -0.93891034870E+03  0.13891805819E+04  0.50400001928E-02 0.  1.
</event>
<event>
 5   0  0.1240725E-06  0.3122744E+04  0.7818609E-02  0.8209524E-01
       -1   -1    0    0    0  501  0.00000000000E+00  0.00000000000E+00  0.18893351594E+04  0.18893351594E+04  0.50400001928E-02 0.  1.
        1   -1    0    0  501    0  0.00000000000E+00  0.00000000000E+00 -0.12903386926E+04  0.12903386927E+04  0.50400001928E-02 0. -1.
    10030    2    1    2    0    0  0.00000000000E+00  0.00000000000E+00  0.59899646672E+03  0.31796738520E+04  0.31227438317E+04 0.  0.
        3    1    3    3  502    0 -0.12767699278E+04  0.57442937563E+03 -0.40431337231E+03  0.14572507915E+04  0.10100000352E+00 0. -1.
       -3    1    3    3    0  502  0.12767699278E+04 -0.57442937563E+03  0.10033098390E+04  0.17224230605E+04  0.10100000352E+00 0.  1.
</event>
<event>
 5   0  0.1268836E-06  0.3104419E+04  0.7818609E-02  0.8214526E-01
        1   -1    0    0  501    0  0.00000000000E+00  0.00000000000E+00  0.15262804439E+04  0.15262804439E+04  0.50400001928E-02 0. -1.
       -1   -1    0    0    0  501  0.00000000000E+00  0.00000000000E+00 -0.15785793039E+04  0.15785793039E+04  0.50400001928E-02 0.  1.
    10030    2    1    2    0    0  0.00000000000E+00  0.00000000000E+00 -0.52298860040E+02  0.31048597478E+04  0.31044192505E+04 0.  0.
        1    1    3    3  502    0  0.11859623911E+04  0.49678975660E+03  0.84348407740E+03  0.15377815984E+04  0.50400001928E-02 0. -1.
       -1    1    3    3    0  502 -0.11859623911E+04 -0.49678975660E+03 -0.89578293744E+03  0.15670781494E+04  0.50400001928E-02 0.  1.
</event>
<event>
 5   0  0.3745943E-06  0.2662281E+04  0.7818609E-02  0.8347348E-01
       -2   -1    0    0    0  501  0.00000000000E+00  0.00000000000E+00  0.15192870231E+04  0.15192870231E+04  0.25500000920E-02 0. -1.
        2   -1    0    0  501    0  0.00000000000E+00  0.00000000000E+00 -0.11662934605E+04  0.11662934605E+04  0.25500000920E-02 0.  1.
    10030    2    1    2    0    0  0.00000000000E+00  0.00000000000E+00  0.35299356263E+03  0.26855804836E+04  0.26622806161E+04 0.  0.
        5    1    3    3  502    0 -0.10783166243E+04 -0.25136207454E+03  0.92185641027E+03  0.14407605512E+04  0.46999998093E+01 0. -1.
       -5    1    3    3    0  502  0.10783166243E+04  0.25136207454E+03 -0.56886284764E+03  0.12448199324E+04  0.46999998093E+01 0.  1.
</event>
<event>
 5   0  0.3656086E-06  0.3238272E+04  0.7818609E-02  0.8178782E-01
       -2   -1    0    0    0  501  0.00000000000E+00  0.00000000000E+00  0.13471625705E+04  0.13471625705E+04  0.25500000920E-02 0.  1.
        2   -1    0    0  501    0  0.00000000000E+00  0.00000000000E+00 -0.19460167865E+04  0.19460167865E+04  0.25500000920E-02 0. -1.
    10030    2    1    2    0    0  0.00000000000E+00  0.00000000000E+00 -0.59885421600E+03  0.32931793571E+04  0.32382717468E+04 0.  0.
        3    1    3    3  502    0 -0.54370310127E+03  0.43909464107E+03  0.11858799068E+04  0.13764913112E+04  0.10100000352E+00 0.  1.
       -3    1    3    3    0  502  0.54370310127E+03 -0.43909464107E+03 -0.17847341228E+04  0.19166880459E+04  0.10100000352E+00 0. -1.
</event>
<event>
 5   0  0.3531437E-06  0.3122205E+04  0.7818609E-02  0.8209670E-01
       -2   -1    0    0    0  501  0.00000000000E+00  0.00000000000E+00  0.18904187984E+04  0.18904187984E+04  0.25500000920E-02 0.  1.
        2   -1    0    0  501    0  0.00000000000E+00  0.00000000000E+00 -0.12891543224E+04  0.12891543224E+04  0.25500000920E-02 0. -1.
    10030    2    1    2    0    0  0.00000000000E+00  0.00000000000E+00  0.60126447592E+03  0.31795731208E+04  0.31222053521E+04 0.  0.
        1    1    3    3  502    0 -0.11091211886E+04  0.33979804532E+03 -0.76327828894E+03  0.13885986710E+04  0.50400001928E-02 0. -1.
       -1    1    3    3    0  502  0.11091211886E+04 -0.33979804532E+03  0.13645427649E+04  0.17909744498E+04  0.50400001928E-02 0.  1.
</event>
<event>
 5   0  0.1273754E-06  0.3084438E+04  0.7818609E-02  0.8220022E-01
        1   -1    0    0  501    0  0.00000000000E+00  0.00000000000E+00  0.21388324124E+04  0.21388324125E+04  0.50400001928E-02 0. -1.
       -1   -1    0    0    0  501  0.00000000000E+00  0.00000000000E+00 -0.11120269610E+04  0.11120269610E+04  0.50400001928E-02 0.  1.
    10030    2    1    2    0    0  0.00000000000E+00  0.00000000000E+00  0.10268054515E+04  0.32508593734E+04  0.30844379116E+04 0.  0.
        2    1    3    3  502    0 -0.14362020391E+04 -0.40667157401E+03  0.92211622617E+03  0.17545245512E+04  0.25500000920E-02 0. -1.
       -2    1    3    3    0  502  0.14362020391E+04  0.40667157401E+03  0.10468922531E+03  0.14963348222E+04  0.25500000920E-02 0.  1.
</event>
<event>
 5   0  0.1268836E-06  0.3200422E+04  0.7818609E-02  0.8188706E-01
       -1   -1    0    0    0  501  0.00000000000E+00  0.00000000000E+00  0.17896749406E+04  0.17896749406E+04  0.50400001928E-02 0. -1.
        1   -1    0    0  501    0  0.00000000000E+00  0.00000000000E+00 -0.14308046176E+04  0.14308046176E+04  0.50400001928E-02 0.  1.
    10030    2    1    2    0    0  0.00000000000E+00  0.00000000000E+00  0.35887032304E+03  0.32204795582E+04  0.32004219528E+04 0.  0.
        1    1    3    3  502    0  0.17333157007E+03  0.15710469214E+04 -0.72016703723E+02  0.15822195385E+04  0.50400001928E-02 0.  1.
       -1    1    3    3    0  502 -0.17333157007E+03 -0.15710469214E+04  0.43088702676E+03  0.16382600197E+04  0.50400001928E-02 0. -1.
</event>
<event>
 5   0  0.3745943E-06  0.3218727E+04  0.7818609E-02  0.8183889E-01
        2   -1    0    0  501    0  0.00000000000E+00  0.00000000000E+00  0.22009015333E+04  0.22009015333E+04  0.25500000920E-02 0. -1.
       -2   -1    0    0    0  501  0.00000000000E+00  0.00000000000E+00 -0.11768137190E+04  0.11768137190E+04  0.25500000920E-02 0.  1.
    10030    2    1    2    0    0  0.00000000000E+00  0.00000000000E+00  0.10240878143E+04  0.33777152523E+04  0.32187271513E+04 0.  0.
        5    1    3    3  502    0 -0.14909069381E+04 -0.32300948248E+03 -0.26010556877E+02  0.15257251597E+04  0.46999998093E+01 0.  1.
       -5    1    3    3    0  502  0.14909069381E+04  0.32300948248E+03  0.10500983712E+04  0.18519900926E+04  0.46999998093E+01 0. -1.
</event>
<event>
 5   0  0.1306843E-06  0.3206267E+04  0.7818609E-02  0.8187164E-01
       -1   -1    0    0    0  501  0.00000000000E+00  0.00000000000E+00  0.14158605311E+04  0.14158605311E+04  0.50400001928E-02 0.  1.
        1   -1    0    0  501    0  0.00000000000E+00  0.00000000000E+00 -0.18151767679E+04  0.18151767679E+04  0.50400001928E-02 0. -1.
    10030    2    1    2    0    0  0.00000000000E+00  0.00000000000E+00 -0.39931623683E+03  0.32310372990E+04  0.32062670773E+04 0.  0.
        5    1    3    3  502    0  0.37616523851E+03  0.20097317469E+03 -0.17569526638E+04  0.18079809890E+04  0.46999998093E+01 0. -1.
       -5    1    3    3    0  502 -0.37616523851E+03 -0.20097317469E+03  0.13576364270E+04  0.14230563100E+04  0.46999998093E+01 0.  1.
</event>
<event>
 5   0  0.1273980E-06  0.3266979E+04  0.7818609E-02  0.8171349E-01
        1   -1    0    0  501    0  0.00000000000E+00  0.00000000000E+00  0.20123566986E+04  0.20123566986E+04  0.50400001928E-02 0.  1.
       -1   -1    0    0    0  501  0.00000000000E+00  0.00000000000E+00 -0.13259519062E+04  0.13259519062E+04  0.50400001928E-02 0. -1.
    10030    2    1    2    0    0  0.00000000000E+00  0.00000000000E+00  0.68640479238E+03  0.33383086048E+04  0.32669791554E+04 0.  0.
        4    1    3    3  502    0  0.97302821197E+03 -0.12848306725E+04  0.71477629200E+02  0.16132837391E+04  0.12699999809E+01 0. -1.
       -4    1    3    3    0  502 -0.97302821197E+03  0.12848306725E+04  0.61492716318E+03  0.17250248657E+04  0.12699999809E+01 0.  1.
</event>
<event>
 5   0  0.3656086E-06  0.3189925E+04  0.7818609E-02  0.8191483E-01
        2   -1    0    0  501    0  0.00000000000E+00  0.00000000000E+00  0.22559022901E+04  0.22559022901E+04  0.25500000920E-02 0. -1.
       -2   -1    0    0    0  501  0.00000000000E+00  0.00000000000E+00 -0.11276667074E+04  0.11276667074E+04  0.25500000920E-02 0.  1.
    10030    2    1    2    0    0  0.00000000000E+00  0.00000000000E+00  0.11282355826E+04  0.33835689975E+04  0.31899253332E+04 0.  0.
        3    1    3    3  502    0  0.51394331770E+03  0.13057866716E+04 -0.23998410644E+03  0.14236604044E+04  0.10100000352E+00 0.  1.
       -3    1    3    3    0  502 -0.51394331770E+03 -0.13057866716E+04  0.13682196891E+04  0.19599085931E+04  0.10100000352E+00 0. -1.
</event>
<event>
 5   0  0.1185575E-06  0.3208560E+04  0.7818609E-02  0.8186560E-01
       -3   -1    0    0    0  501  0.00000000000E+00  0.00000000000E+00  0.22763194509E+04  0.22763194532E+04  0.10100000352E+00 0.  1.
        3   -1    0    0  501    0  0.00000000000E+00  0.00000000000E+00 -0.11306475790E+04  0.11306475835E+04  0.10100000352E+00 0. -1.
    10030    2    1    2    0    0  0.00000000000E+00  0.00000000000E+00  0.11456718719E+04  0.34069670367E+04  0.32085604796E+04 0.  0.
        2    1    3    3  502    0  0.15983829170E+03  0.27997626874E+03  0.22415688999E+04  0.22646337725E+04  0.25500000920E-02 0.  1.
       -2    1    3    3    0  502 -0.15983829170E+03 -0.27997626874E+03 -0.10958970280E+04  0.11423332642E+04  0.25500000920E-02 0. -1.
</event>
<event>
 5   0  0.3745943E-06  0.3164252E+04  0.7818609E-02  0.8198322E-01
        2   -1    0    0  501    0  0.00000000000E+00  0.00000000000E+00  0.23620796647E+04  0.23620796647E+04  0.25500000920E-02 0. -1.
       -2   -1    0    0    0  501  0.00000000000E+00  0.00000000000E+00 -0.10597115368E+04  0.10597115368E+04  0.25500000920E-02 0.  1.
    10030    2    1    2    0    0  0.00000000000E+00  0.00000000000E+00  0.13023681279E+04  0.34217912015E+04  0.31642522475E+04 0.  0.
        5    1    3    3  502    0  0.12002293977E+04 -0.88114958537E+03  0.72740617817E+02  0.14907342105E+04  0.46999998093E+01 0.  1.
       -5    1    3    3    0  502 -0.12002293977E+04  0.88114958537E+03  0.12296275101E+04  0.19310569910E+04  0.46999998093E+01 0. -1.
</event>
<event>
 5   0  0.3497546E-06  0.3157728E+04  0.7818609E-02  0.8200071E-01
        2   -1    0    0  501    0  0.00000000000E+00  0.00000000000E+00  0.10744603640E+04  0.10744603640E+04  0.25500000920E-02 0.  1.
       -2   -1    0    0    0  501  0.00000000000E+00  0.00000000000E+00 -0.23200588338E+04  0.23200588338E+04  0.25500000920E-02 0. -1.
    10030    2    1    2    0    0  0.00000000000E+00  0.00000000000E+00 -0.12455984698E+04  0.33945191978E+04  0.31577278281E+04 0.  0.
        4    1    3    3  502    0  0.75898312652E+03 -0.60843744988E+03  0.71406313479E+03  0.12067059667E+04  0.12699999809E+01 0.  1.
       -4    1    3    3    0  502 -0.75898312652E+03  0.60843744988E+03 -0.19596616046E+04  0.21878132311E+04  0.12699999809E+01 0. -1.
</event>
<event>
 5   0  0.3531437E-06  0.2941289E+04  0.7818609E-02  0.8260698E-01
       -2   -1    0    0    0  501  0.00000000000E+00  0.00000000000E+00  0.89687765994E+03  0.89687765994E+03  0.25500000920E-02 0.  1.
        2   -1    0    0  501    0  0.00000000000E+00  0.00000000000E+00 -0.24114722045E+04  0.24114722045E+04  0.25500000920E-02 0. -1.
    10030    2    1    2    0    0  0.00000000000E+00  0.00000000000E+00 -0.15145945446E+04  0.33083498645E+04  0.29412892056E+04 0.  0.
        1    1    3    3  502    0 -0.31991051493E+03 -0.14344025708E+04 -0.69628733497E+03  0.16262439932E+04  0.50400001928E-02 0. -1.
       -1    1    3    3    0  502  0.31991051493E+03  0.14344025708E+04 -0.81830720962E+03  0.16821058712E+04  0.50400001928E-02 0.  1.
</event>
<event>
 5   0  0.3531437E-06  0.3187318E+04  0.7818609E-02  0.8192175E-01
        2   -1    0    0  501    0  0.00000000000E+00  0.00000000000E+00  0.11566215056E+04  0.11566215056E+04  0.25500000920E-02 0.  1.
       -2   -1    0    0    0  501  0.00000000000E+00  0.00000000000E+00 -0.21958337050E+04  0.21958337050E+04  0.25500000920E-02 0. -1.
    10030    2    1    2    0    0  0.00000000000E+00  0.00000000000E+00 -0.10392121994E+04  0.33524552107E+04  0.31873176723E+04 0.  0.
        1    1    3    3  502    0 -0.83539772347E+03 -0.37803939811E+03 -0.18905741607E+04  0.21012077003E+04  0.50400001928E-02 0. -1.
       -1    1    3    3    0  502  0.83539772347E+03  0.37803939811E+03  0.85136196129E+03  0.12512475103E+04  0.50400001928E-02 0.  1.
</event>
<event>
 5   0  0.1273754E-06  0.3221336E+04  0.7818609E-02  0.8183205E-01
        1   -1    0    0  501    0  0.00000000000E+00  0.00000000000E+00  0.18207587474E+04  0.18207587474E+04  0.50400001928E-02 0. -1.
       -1   -1    0    0    0  501  0.00000000000E+00  0.00000000000E+00 -0.14248187865E+04  0.14248187865E+04  0.50400001928E-02 0.  1.
    10030    2    1    2    0    0  0.00000000000E+00  0.00000000000E+00  0.39593996090E+03  0.32455775339E+04  0.32213359148E+04 0.  0.
        2    1    3    3  502    0 -0.53230309443E+03 -0.77505100115E+03 -0.11196176377E+04  0.14620513991E+04  0.25500000920E-02 0.  1.
       -2    1    3    3    0  502  0.53230309443E+03  0.77505100115E+03  0.15155575986E+04  0.17835261348E+04  0.25500000920E-02 0. -1.
</event>
<event>
 5   0  0.3531437E-06  0.3240496E+04  0.7818609E-02  0.8178203E-01
       -2   -1    0    0    0  501  0.00000000000E+00  0.00000000000E+00  0.11480455657E+04  0.11480455657E+04  0.25500000920E-02 0.  1.
        2   -1    0    0  501    0  0.00000000000E+00  0.00000000000E+00 -0.22866720774E+04  0.22866720774E+04  0.25500000920E-02 0. -1.
    10030    2    1    2    0    0  0.00000000000E+00  0.00000000000E+00 -0.11386265117E+04  0.34347176431E+04  0.32404960970E+04 0.  0.
        1    1    3    3  502    0 -0.98686979948E+03  0.12321398231E+04 -0.18258455627E+03  0.15891562745E+04  0.50400001928E-02 0.  1.
       -1    1    3    3    0  502  0.98686979948E+03 -0.12321398231E+04 -0.95604195540E+03  0.18455613686E+04  0.50400001928E-02 0. -1.
</event>
<event>
 5   0  0.1306843E-06  0.3291555E+04  0.7818609E-02  0.8165047E-01
        1   -1    0    0  501    0  0.00000000000E+00  0.00000000000E+00  0.26144806496E+04  0.26144806496E+04  0.50400001928E-02 0.  1.
       -1   -1    0    0    0  501  0.00000000000E+00  0.00000000000E+00 -0.10359932458E+04  0.10359932459E+04  0.50400001928E-02 0. -1.
    10030    2    1    2    0    0  0.00000000000E+00  0.00000000000E+00  0.15784874038E+04  0.36504738955E+04  0.32915554344E+04 0.  0.
        5    1    3    3  502    0 -0.10343782940E+04  0.11938139983E+04  0.13016066611E+04  0.20467858481E+04  0.46999998093E+01 0.  1.
       -5    1    3    3    0  502  0.10343782940E+04 -0.11938139983E+04  0.27688074268E+03  0.16036880474E+04  0.46999998093E+01 0. -1.
</event>
<event>
 5   0  0.1240725E-06  0.3181145E+04  0.7818609E-02  0.8193815E-01
       -1   -1    0    0    0  501  0.00000000000E+00  0.00000000000E+00  0.11342387930E+04  0.11342387930E+04  0.50400001928E-02 0.  1.
        1   -1    0    0  501    0  0.00000000000E+00  0.00000000000E+00 -0.22305008304E+04  0.22305008304E+04  0.50400001928E-02 0. -1.
    10030    2    1    2    0    0  0.00000000000E+00  0.00000000000E+00 -0.10962620374E+04  0.33647396234E+04  0.31811448063E+04 0.  0.
        3    1    3    3  502    0 -0.13699197174E+04 -0.30844571896E+03  0.24204659572E+03  0.14249229307E+04  0.10100000352E+00 0.  1.
       -3    1    3    3    0  502  0.13699197174E+04  0.30844571896E+03 -0.13383086332E+04  0.19398166927E+04  0.10100000352E+00 0. -1.
</event>
<event>
 5   0  0.3497546E-06  0.3192232E+04  0.7818609E-02  0.8190872E-01
       -2   -1    0    0    0  501  0.00000000000E+00  0.00000000000E+00  0.16867958533E+04  0.16867958533E+04  0.25500000920E-02 0.  1.
        2   -1    0    0  501    0  0.00000000000E+00  0.00000000000E+00 -0.15103110143E+04  0.15103110143E+04  0.25500000920E-02 0. -1.
    10030    2    1    2    0    0  0.00000000000E+00  0.00000000000E+00  0.17648483898E+03  0.31971068677E+04  0.31922320443E+04 0.  0.
        4    1    3    3  502    0 -0.10629169957E+04 -0.98617482840E+03  0.75653302032E+03  0.16354440240E+04  0.12699999809E+01 0.  1.
       -4    1    3    3    0  502  0.10629169957E+04  0.98617482840E+03 -0.58004818134E+03  0.15616628437E+04  0.12699999809E+01 0. -1.
</event>
<event>
 5   0  0.1268836E-06  0.3162768E+04  0.7818609E-02  0.8198720E-01
       -1   -1    0    0    0  501  0.00000000000E+00  0.00000000000E+00  0.20511002712E+04  0.20511002712E+04  0.50400001928E-02 0.  1.
        1   -1    0    0  501    0  0.00000000000E+00  0.00000000000E+00 -0.12192356533E+04  0.12192356533E+04  0.50400001928E-02 0. -1.
    10030    2    1    2    0    0  0.00000000000E+00  0.00000000000E+00  0.83186461789E+03  0.32703359245E+04  0.31627675091E+04 0.  0.
        1    1    3    3  502    0  0.43430989705E+03 -0.65689923420E+03 -0.10020705610E+04  0.12744752253E+04  0.50400001928E-02 0. -1.
       -1    1    3    3    0  502 -0.43430989705E+03  0.65689923420E+03  0.18339351789E+04  0.19958606993E+04  0.50400001928E-02 0.  1.
</event>
<event>
 5   0  0.3656086E-06  0.3222528E+04  0.7818609E-02  0.8182893E-01
       -2   -1    0    0    0  501  0.00000000000E+00  0.00000000000E+00  0.12392131796E+04  0.12392131796E+04  0.25500000920E-02 0. -1.
        2   -1    0    0  501    0  0.00000000000E+00  0.00000000000E+00 -0.20950164930E+04  0.20950164930E+04  0.25500000920E-02 0.  1.
    10030    2    1    2    0    0  0.00000000000E+00  0.00000000000E+00 -0.85580331346E+03  0.33342296726E+04  0.32225282308E+04 0.  0.
        3    1    3    3  502    0  0.52453303658E+03 -0.11545932091E+03  0.11438685315E+04  0.12636854786E+04  0.10100000352E+00 0. -1.
       -3    1    3    3    0  502 -0.52453303658E+03  0.11545932091E+03 -0.19996718450E+04  0.20705441940E+04  0.10100000352E+00 0.  1.
</event>
<event>
 5   0  0.3656086E-06  0.2286266E+04  0.7818609E-02  0.8483356E-01
        2   -1    0    0  501    0  0.00000000000E+00  0.00000000000E+00  0.84138393222E+03  0.84138393222E+03  0.25500000920E-02 0. -1.
       -2   -1    0    0    0  501  0.00000000000E+00  0.00000000000E+00 -0.15530999679E+04  0.15530999679E+04  0.25500000920E-02 0.  1.
    10030    2    1    2    0    0  0.00000000000E+00  0.00000000000E+00 -0.71171603569E+03  0.23944839001E+04  0.22862662646E+04 0.  0.
        3    1    3    3  502    0  0.79250811075E+02  0.14917005340E+03  0.82824115911E+03  0.84529037835E+03  0.10100000352E+00 0. -1.
       -3    1    3    3    0  502 -0.79250811075E+02 -0.14917005340E+03 -0.15399571948E+04  0.15491935218E+04  0.10100000352E+00 0.  1.
</event>
<event>
 5   0  0.3656086E-06  0.3179154E+04  0.7818609E-02  0.8194344E-01
        2   -1    0    0  501    0  0.00000000000E+00  0.00000000000E+00  0.17309335053E+04  0.17309335053E+04  0.25500000920E-02 0. -1.
       -2   -1    0    0    0  501  0.00000000000E+00  0.00000000000E+00 -0.14597644026E+04  0.14597644026E+04  0.25500000920E-02 0.  1.
    10030    2    1    2    0    0  0.00000000000E+00  0.00000000000E+00  0.27116910273E+03  0.31906979078E+04  0.31791540474E+04 0.  0.
        3    1    3    3  502    0 -0.18432246151E+03 -0.33189379908E+03  0.16847654379E+04  0.17270098015E+04  0.10100000352E+00 0. -1.
       -3    1    3    3    0  502  0.18432246151E+03  0.33189379908E+03 -0.14135963351E+04  0.14636881063E+04  0.10100000352E+00 0.  1.
</event>
<event>
 5   0  0.1273754E-06  0.3135965E+04  0.7818609E-02  0.8205936E-01
        1   -1    0    0  501    0  0.00000000000E+00  0.00000000000E+00  0.24686980319E+04  0.24686980319E+04  0.50400001928E-02 0.  1.
       -1   -1    0    0    0  501  0.00000000000E+00  0.00000000000E+00 -0.99589682946E+03  0.99589682947E+03  0.50400001928E-02 0. -1.
    10030    2    1    2    0    0  0.00000000000E+00  0.00000000000E+00  0.14728012025E+04  0.34645948614E+04  0.31359646318E+04 0.  0.
        2    1    3    3  502    0 -0.10053394463E+04  0.91314382251E+03 -0.12931634593E+03  0.13642806750E+04  0.25500000920E-02 0. -1.
       -2    1    3    3    0  502  0.10053394463E+04 -0.91314382251E+03  0.16021175484E+04  0.21003141864E+04  0.25500000920E-02 0.  1.
</event>
<event>
 5   0  0.3745943E-06  0.3191281E+04  0.7818609E-02  0.8191124E-01
       -2   -1    0    0    0  501  0.00000000000E+00  0.00000000000E+00  0.13075675766E+04  0.13075675766E+04  0.25500000920E-02 0. -1.
        2   -1    0    0  501    0  0.00000000000E+00  0.00000000000E+00 -0.19471794822E+04  0.19471794822E+04  0.25500000920E-02 0.  1.
    10030    2    1    2    0    0  0.00000000000E+00  0.00000000000E+00 -0.63961190564E+03  0.32547470589E+04  0.31912810950E+04 0.  0.
        5    1    3    3  502    0 -0.48584472196E+03 -0.23835417147E+03 -0.18507206119E+04  0.19282237106E+04  0.46999998093E+01 0.  1.
       -5    1    3    3    0  502  0.48584472196E+03  0.23835417147E+03  0.12111087063E+04  0.13265233482E+04  0.46999998093E+01 0. -1.
</event>
<event>
 5   0  0.3745943E-06  0.2506612E+04  0.7818609E-02  0.8400634E-01
        2   -1    0    0  501    0  0.00000000000E+00  0.00000000000E+00  0.20746539344E+04  0.20746539344E+04  0.25500000920E-02 0. -1.
       -2   -1    0    0    0  501  0.00000000000E+00  0.00000000000E+00 -0.75712656075E+03  0.75712656075E+03  0.25500000920E-02 0.  1.
    10030    2    1    2    0    0  0.00000000000E+00  0.00000000000E+00  0.13175273737E+04  0.28317804952E+04  0.25066117355E+04 0.  0.
        5    1    3    3  502    0 -0.12246772149E+04 -0.82061193275E+02  0.37255031103E+03  0.12827252802E+04  0.46999998093E+01 0.  1.
       -5    1    3    3    0  502  0.12246772149E+04  0.82061193275E+02  0.94497706265E+03  0.15490552150E+04  0.46999998093E+01 0. -1.
</event>
<event>
 5   0  0.3497546E-06  0.3315952E+04  0.7818609E-02  0.8158848E-01
        2   -1    0    0  501    0  0.00000000000E+00  0.00000000000E+00  0.21139869589E+04  0.21139869589E+04  0.25500000920E-02 0. -1.
       -2   -1    0    0    0  501  0.00000000000E+00  0.00000000000E+00 -0.13003319146E+04  0.13003319146E+04  0.25500000920E-02 0.  1.
    10030    2    1    2    0    0  0.00000000000E+00  0.00000000000E+00  0.81365504422E+03  0.34143188735E+04  0.33159521768E+04 0.  0.
        4    1    3    3  502    0 -0.13459929299E+04  0.38492888692E+03 -0.50778826352E+03  0.14892003723E+04  0.12699999809E+01 0.  1.
       -4    1    3    3    0  502  0.13459929299E+04 -0.38492888692E+03  0.13214433077E+04  0.19251185012E+04  0.12699999809E+01 0. -1.
</event>
<event>
 5   0  0.3497546E-06  0.3223158E+04  0.7818609E-02  0.8182728E-01
       -2   -1    0    0    0  501  0.00000000000E+00  0.00000000000E+00  0.89540421929E+03  0.89540421929E+03  0.25500000920E-02 0. -1.
        2   -1    0    0  501    0  0.00000000000E+00  0.00000000000E+00 -0.29005746776E+04  0.29005746776E+04  0.25500000920E-02 0.  1.
    10030    2    1    2    0    0  0.00000000000E+00  0.00000000000E+00 -0.20051704583E+04  0.37959788969E+04  0.32231579575E+04 0.  0.
        4    1    3    3  502    0 -0.76705561202E+03 -0.10240817144E+04  0.15138097247E+03  0.12884236420E+04  0.12699999809E+01 0. -1.
       -4    1    3    3    0  502  0.76705561202E+03  0.10240817144E+04 -0.21565514308E+04  0.25075552548E+04  0.12699999809E+01 0.  1.
</event>
<event>
 5   0  0.1273980E-06  0.2992352E+04  0.7818609E-02  0.8245918E-01
        1   -1    0    0  501    0  0.00000000000E+00  0.00000000000E+00  0.81583067258E+03  0.81583067260E+03  0.50400001928E-02 0.  1.
       -1   -1    0    0    0  501  0.00000000000E+00  0.00000000000E+00 -0.27438808098E+04  0.27438808098E+04  0.50400001928E-02 0. -1.
    10030    2    1    2    0    0  0.00000000000E+00  0.00000000000E+00 -0.19280501372E+04  0.35597114824E+04  0.29923516682E+04 0.  0.
        4    1    3    3  502    0 -0.14898299522E+04  0.11278930638E+03 -0.87016092284E+03  0.17290160088E+04  0.12699999809E+01 0.  1.
       -4    1    3    3    0  502  0.14898299522E+04 -0.11278930638E+03 -0.10578892143E+04  0.18306954736E+04  0.12699999809E+01 0. -1.
</event>
<event>
 5   0  0.3656086E-06  0.3196782E+04  0.7818609E-02  0.8189667E-01
        2   -1    0    0  501    0  0.00000000000E+00  0.00000000000E+00  0.90409328496E+03  0.90409328496E+03  0.25500000920E-02 0. -1.
       -2   -1    0    0    0  501  0.00000000000E+00  0.00000000000E+00 -0.28258745702E+04  0.28258745702E+04  0.25500000920E-02 0.  1.
    10030    2    1    2    0    0  0.00000000000E+00  0.00000000000E+00 -0.19217812852E+04  0.37299678552E+04  0.31967822716E+04 0.  0.
        3    1    3    3  502    0 -0.12672842102E+04  0.25662775238E+03 -0.20572911309E+04  0.24298793962E+04  0.10100000352E+00 0.  1.
       -3    1    3    3    0  502  0.12672842102E+04 -0.25662775238E+03  0.13550984567E+03  0.13000884589E+04  0.10100000352E+00 0. -1.
</event>
<event>
 5   0  0.1273980E-06  0.3207058E+04  0.7818609E-02  0.8186956E-01
       -1   -1    0    0    0  501  0.00000000000E+00  0.00000000000E+00  0.94970444695E+03  0.94970444697E+03  0.50400001928E-02 0. -1.
        1   -1    0    0  501    0  0.00000000000E+00  0.00000000000E+00 -0.27074799238E+04  0.27074799238E+04  0.50400001928E-02 0.  1.
    10030    2    1    2    0    0  0.00000000000E+00  0.00000000000E+00 -0.17577754768E+04  0.36571843707E+04  0.32070582930E+04 0.  0.
        4    1    3    3  502    0 -0.10811637342E+04  0.11838896520E+04 -0.91102840176E+03  0.18440401541E+04  0.12699999809E+01 0. -1.
       -4    1    3    3    0  502  0.10811637342E+04 -0.11838896520E+04 -0.84674707504E+03  0.18131442166E+04  0.12699999809E+01 0.  1.
</event>
<event>
 5   0  0.3531437E-06  0.3073967E+04  0.7818609E-02  0.8222919E-01
       -2   -1    0    0    0  501  0.00000000000E+00  0.00000000000E+00  0.91872959873E+03  0.91872959874E+03  0.25500000920E-02 0. -1.
        2   -1    0    0  501    0  0.00000000000E+00  0.00000000000E+00 -0.25712885398E+04  0.25712885398E+04  0.25500000920E-02 0.  1.
    10030    2    1    2    0    0  0.00000000000E+00  0.00000000000E+00 -0.16525589411E+04  0.34900181385E+04  0.30739673963E+04 0.  0.
        1    1    3    3  502    0  0.68376473850E+03 -0.20092626318E+03 -0.23723585186E+04  0.24770931597E+04  0.50400001928E-02 0.  1.
       -1    1    3    3    0  502 -0.68376473850E+03  0.20092626318E+03  0.71979957757E+03  0.10129249788E+04  0.50400001928E-02 0. -1.
</event>
<event>
 5   0  0.3758062E-06  0.2976601E+04  0.7818609E-02  0.8250444E-01
       -2   -1    0    0    0  501  0.00000000000E+00  0.00000000000E+00  0.18320408076E+04  0.18320408076E+04  0.25500000920E-02 0.  1.
        2   -1    0    0  501    0  0.00000000000E+00  0.00000000000E+00 -0.12090553644E+04  0.12090553644E+04  0.25500000920E-02 0. -1.
    10030    2    1    2    0    0  0.00000000000E+00  0.00000000000E+00  0.62298544315E+03  0.30410961720E+04  0.29766012607E+04 0.  0.
        2    1    3    3  502    0  0.29619684136E+03 -0.30717136477E+02  0.18012933780E+04  0.18257420258E+04  0.25500000920E-02 0.  1.
       -2    1    3    3    0  502 -0.29619684136E+03  0.30717136477E+02 -0.11783079349E+04  0.12153541462E+04  0.25500000920E-02 0. -1.
</event>
<event>
 5   0  0.1273980E-06  0.2332619E+04  0.7818609E-02  0.8465170E-01
       -1   -1    0    0    0  501  0.00000000000E+00  0.00000000000E+00  0.29255991935E+04  0.29255991935E+04  0.50400001928E-02 0.  1.
        1   -1    0    0  501    0  0.00000000000E+00  0.00000000000E+00 -0.46495718392E+03  0.46495718395E+03  0.50400001928E-02 0. -1.
    10030    2    1    2    0    0  0.00000000000E+00  0.00000000000E+00  0.24606420096E+04  0.33905563775E+04  0.23326194395E+04 0.  0.
        4    1    3    3  502    0  0.76768386972E+03 -0.57761827535E+02  0.25038096320E+04  0.26194921719E+04  0.12699999809E+01 0.  1.
       -4    1    3    3    0  502 -0.76768386972E+03  0.57761827535E+02 -0.43167622420E+02  0.77106420554E+03  0.12699999809E+01 0. -1.
</event>
<event>
 5   0  0.1273754E-06  0.3248176E+04  0.7818609E-02  0.8176209E-01
       -1   -1    0    0    0  501  0.00000000000E+00  0.00000000000E+00  0.10558466210E+04  0.10558466210E+04  0.50400001928E-02 0. -1.
        1   -1    0    0  501    0  0.00000000000E+00  0.00000000000E+00 -0.24981492397E+04  0.24981492397E+04  0.50400001928E-02 0.  1.
    10030    2    1    2    0    0  0.00000000000E+00  0.00000000000E+00 -0.14423026187E+04  0.35539958608E+04  0.32481763706E+04 0.  0.
        2    1    3    3  502    0  0.13876916378E+04  0.67783363494E+01 -0.16443506291E+04  0.21516558784E+04  0.25500000920E-02 0.  1.
       -2    1    3    3    0  502 -0.13876916378E+04 -0.67783363494E+01  0.20204801042E+03  0.14023399824E+04  0.25500000920E-02 0. -1.
</event>
<event>
 5   0  0.3497546E-06  0.3340404E+04  0.7818609E-02  0.8152690E-01
       -2   -1    0    0    0  501  0.00000000000E+00  0.00000000000E+00  0.12692011404E+04  0.12692011404E+04  0.25500000920E-02 0. -1.
        2   -1    0    0  501    0  0.00000000000E+00  0.00000000000E+00 -0.21978985305E+04  0.21978985305E+04  0.25500000920E-02 0.  1.
    10030    2    1    2    0    0  0.00000000000E+00  0.00000000000E+00 -0.92869739009E+03  0.34670996709E+04  0.33404043596E+04 0.  0.
        4    1    3    3  502    0  0.12028861062E+04  0.90296400900E+03  0.28934346410E+03  0.15316658380E+04  0.12699999809E+01 0.  1.
       -4    1    3    3    0  502 -0.12028861062E+04 -0.90296400900E+03 -0.12180408542E+04  0.19354338329E+04  0.12699999809E+01 0. -1.
</event>
<event>
 5   0  0.3497546E-06  0.2871382E+04  0.7818609E-02  0.8281443E-01
       -2   -1    0    0    0  501  0.00000000000E+00  0.00000000000E+00  0.10661954507E+04  0.10661954507E+04  0.25500000920E-02 0. -1.
        2   -1    0    0  501    0  0.00000000000E+00  0.00000000000E+00 -0.19332377833E+04  0.19332377833E+04  0.25500000920E-02 0.  1.
    10030    2    1    2    0    0  0.00000000000E+00  0.00000000000E+00 -0.86704233260E+03  0.29994332340E+04  0.28713824752E+04 0.  0.
        4    1    3    3  502    0  0.33123051184E+03 -0.68913800432E+03  0.83581620780E+03  0.11327908841E+04  0.12699999809E+01 0. -1.
       -4    1    3    3    0  502 -0.33123051184E+03  0.68913800432E+03 -0.17028585404E+04  0.18666423499E+04  0.12699999809E+01 0.  1.
</event>
<event>
 5   0  0.1273980E-06  0.2409480E+04  0.7818609E-02  0.8435963E-01
       -1   -1    0    0    0  501  0.00000000000E+00  0.00000000000E+00  0.61487943121E+03  0.61487943123E+03  0.50400001928E-02 0.  1.
        1   -1    0    0  501    0  0.00000000000E+00  0.00000000000E+00 -0.23604612196E+04  0.23604612196E+04  0.50400001928E-02 0. -1.
    10030    2    1    2    0    0  0.00000000000E+00  0.00000000000E+00 -0.17455817884E+04  0.29753406508E+04  0.24094804852E+04 0.  0.
        4    1    3    3  502    0 -0.64926453851E+03  0.61853708756E+03  0.12067806180E+03  0.90481897480E+03  0.12699999809E+01 0.  1.
       -4    1    3    3    0  502  0.64926453851E+03 -0.61853708756E+03 -0.18662598502E+04  0.20705216761E+04  0.12699999809E+01 0. -1.
</event>
<event>
 5   0  0.1273754E-06  0.3216205E+04  0.7818609E-02  0.8184550E-01
        1   -1    0    0  501    0  0.00000000000E+00  0.00000000000E+00  0.15258920462E+04  0.15258920462E+04  0.50400001928E-02 0. -1.
       -1   -1    0    0    0  501  0.00000000000E+00  0.00000000000E+00 -0.16947424809E+04  0.16947424809E+04  0.50400001928E-02 0.  1.
    10030    2    1    2    0    0  0.00000000000E+00  0.00000000000E+00 -0.16885043471E+03  0.32206345271E+04  0.32162052620E+04 0.  0.
        2    1    3    3  502    0 -0.52092546140E+03  0.14647263297E+04 -0.49634012485E+03  0.16319130114E+04  0.25500000920E-02 0.  1.
       -2    1    3    3    0  502  0.52092546140E+03 -0.14647263297E+04  0.32748969014E+03  0.15887215157E+04  0.25500000920E-02 0. -1.
</event>
<event>
 5   0  0.3745943E-06  0.2369414E+04  0.7818609E-02  0.8451044E-01
       -2   -1    0    0    0  501  0.00000000000E+00  0.00000000000E+00  0.76034527984E+03  0.76034527984E+03  0.25500000920E-02 0.  1.
        2   -1    0    0  501    0  0.00000000000E+00  0.00000000000E+00 -0.18459115937E+04  0.18459115937E+04  0.25500000920E-02 0. -1.
    10030    2    1    2    0    0  0.00000000000E+00  0.00000000000E+00 -0.10855663139E+04  0.26062568735E+04  0.23694135707E+04 0.  0.
        5    1    3    3  502    0 -0.70129272562E+03  0.17625013690E+03  0.48944023264E+03  0.87318350253E+03  0.46999998093E+01 0.  1.
       -5    1    3    3    0  502  0.70129272562E+03 -0.17625013690E+03 -0.15750065465E+04  0.17330733710E+04  0.46999998093E+01 0. -1.
</event>
<event>
 5   0  0.3745943E-06  0.2889897E+04  0.7818609E-02  0.8275890E-01
       -2   -1    0    0    0  501  0.00000000000E+00  0.00000000000E+00  0.18776597394E+04  0.18776597395E+04  0.25500000920E-02 0. -1.
        2   -1    0    0  501    0  0.00000000000E+00  0.00000000000E+00 -0.11119569362E+04  0.11119569362E+04  0.25500000920E-02 0.  1.
    10030    2    1    2    0    0  0.00000000000E+00  0.00000000000E+00  0.76570280325E+03  0.29896166757E+04  0.28898974176E+04 0.  0.
        5    1    3    3  502    0  0.43177500801E+03 -0.27058461593E+03 -0.10159176035E+04  0.11365546001E+04  0.46999998093E+01 0.  1.
       -5    1    3    3    0  502 -0.43177500801E+03  0.27058461593E+03  0.17816204068E+04  0.18530620755E+04  0.46999998093E+01 0. -1.
</event>
<event>
 5   0  0.1306843E-06  0.3228237E+04  0.7818609E-02  0.8181399E-01
        1   -1    0    0  501    0  0.00000000000E+00  0.00000000000E+00  0.22936098285E+04  0.22936098286E+04  0.50400001928E-02 0.  1.
       -1   -1    0    0    0  501  0.00000000000E+00  0.00000000000E+00 -0.11359293445E+04  0.11359293445E+04  0.50400001928E-02 0. -1.
    10030    2    1    2    0    0  0.00000000000E+00  0.00000000000E+00  0.11576804840E+04  0.34295391731E+04  0.32282371097E+04 0.  0.
        5    1    3    3  502    0 -0.18725871902E+03  0.15653192325E+04  0.94695332465E+03  0.18390304012E+04  0.46999998093E+01 0.  1.
       -5    1    3    3    0  502  0.18725871902E+03 -0.15653192325E+04  0.21072715939E+03  0.15905087718E+04  0.46999998093E+01 0. -1.
</event>
<event>
 5   0  0.3758062E-06  0.3194978E+04  0.7818609E-02  0.8190145E-01
       -2   -1    0    0    0  501  0.00000000000E+00  0.00000000000E+00  0.86360898456E+03  0.86360898456E+03  0.25500000920E-02 0. -1.
        2   -1    0    0  501    0  0.00000000000E+00  0.00000000000E+00 -0.29550077877E+04  0.29550077877E+04  0.25500000920E-02 0.  1.
    10030    2    1    2    0    0  0.00000000000E+00  0.00000000000E+00 -0.20913988031E+04  0.38186167722E+04  0.31949781063E+04 0.  0.
        2    1    3    3  502    0  0.49299577541E+03 -0.11634592248E+04  0.12246937566E+03  0.12695199684E+04  0.25500000920E-02 0. -1.
       -2    1    3    3    0  502 -0.49299577541E+03  0.11634592248E+04 -0.22138681788E+04  0.25490968038E+04  0.25500000920E-02 0.  1.
</event>
<event>
 5   0  0.1273980E-06  0.3179787E+04  0.7818609E-02  0.8194176E-01
       -1   -1    0    0    0  501  0.00000000000E+00  0.00000000000E+00  0.12683132124E+04  0.12683132124E+04  0.50400001928E-02 0. -1.
        1   -1    0    0  501    0  0.00000000000E+00  0.00000000000E+00 -0.19930108399E+04  0.19930108399E+04  0.50400001928E-02 0.  1.
    10030    2    1    2    0    0  0.00000000000E+00  0.00000000000E+00 -0.72469762750E+03  0.32613240523E+04  0.31797874022E+04 0.  0.
        4    1    3    3  502    0 -0.90311884983E+03 -0.10242283569E+04  0.47283695464E+03  0.14450757014E+04  0.12699999809E+01 0. -1.
       -4    1    3    3    0  502  0.90311884983E+03  0.10242283569E+04 -0.11975345821E+04  0.18162483510E+04  0.12699999809E+01 0.  1.
</event>
<event>
 5   0  0.3656086E-06  0.2661076E+04  0.7818609E-02  0.8347746E-01
        2   -1    0    0  501    0  0.00000000000E+00  0.00000000000E+00  0.88290408778E+03  0.88290408779E+03  0.25500000920E-02 0. -1.
       -2   -1    0    0    0  501  0.00000000000E+00  0.00000000000E+00 -0.20051229502E+04  0.20051229502E+04  0.25500000920E-02 0.  1.
    10030    2    1    2    0    0  0.00000000000E+00  0.00000000000E+00 -0.11222188624E+04  0.28880270380E+04  0.26610759097E+04 0.  0.
        3    1    3    3  502    0  0.15816569060E+03  0.13167506928E+04 -0.67740457559E+03  0.14892030560E+04  0.10100000352E+00 0. -1.
       -3    1    3    3    0  502 -0.15816569060E+03 -0.13167506928E+04 -0.44481428683E+03  0.13988239820E+04  0.10100000352E+00 0.  1.
</event>
<event>
 5   0  0.1185575E-06  0.3194541E+04  0.7818609E-02  0.8190260E-01
        4   -1    0    0  501    0  0.00000000000E+00  0.00000000000E+00  0.15891061745E+04  0.15891066820E+04  0.12699999809E+01 0. -1.
       -4   -1    0    0    0  501  0.00000000000E+00  0.00000000000E+00 -0.16054754135E+04  0.16054759158E+04  0.12699999809E+01 0.  1.
    10030    2    1    2    0    0  0.00000000000E+00  0.00000000000E+00 -0.16369238980E+02  0.31945825978E+04  0.31945406591E+04 0.  0.
        2    1    3    3  502    0  0.23935636729E+03 -0.10565366076E+04  0.11655903189E+04  0.15912768035E+04  0.25500000920E-02 0. -1.
       -2    1    3    3    0  502 -0.23935636729E+03  0.10565366076E+04 -0.11819595579E+04  0.16033057944E+04  0.25500000920E-02 0.  1.
</event>
<event>
 5   0  0.3758062E-06  0.2959265E+04  0.7818609E-02  0.8255460E-01
        2   -1    0    0  501    0  0.00000000000E+00  0.00000000000E+00  0.15927312361E+04  0.15927312361E+04  0.25500000920E-02 0. -1.
       -2   -1    0    0    0  501  0.00000000000E+00  0.00000000000E+00 -0.13745646116E+04  0.13745646116E+04  0.25500000920E-02 0.  1.
    10030    2    1    2    0    0  0.00000000000E+00  0.00000000000E+00  0.21816662454E+03  0.29672958476E+04  0.29592647687E+04 0.  0.
        2    1    3    3  502    0 -0.20122048548E+03 -0.13734712141E+04  0.62272258589E+03  0.15214125932E+04  0.25500000920E-02 0. -1.
       -2    1    3    3    0  502  0.20122048548E+03  0.13734712141E+04 -0.40455596136E+03  0.14458832545E+04  0.25500000920E-02 0.  1.
</event>
<event>
 5   0  0.1240725E-06  0.3205553E+04  0.7818609E-02  0.8187352E-01
        1   -1    0    0  501    0  0.00000000000E+00  0.00000000000E+00  0.18082512680E+04  0.18082512680E+04  0.50400001928E-02 0. -1.
       -1   -1    0    0    0  501  0.00000000000E+00  0.00000000000E+00 -0.14206504180E+04  0.14206504181E+04  0.50400001928E-02 0.  1.
    10030    2    1    2    0    0  0.00000000000E+00  0.00000000000E+00  0.38760084995E+03  0.32289016861E+04  0.32055532564E+04 0.  0.
        3    1    3    3  502    0 -0.64289568875E+03 -0.25729158866E+03  0.16497973118E+04  0.17892302837E+04  0.10100000352E+00 0. -1.
       -3    1    3    3    0  502  0.64289568875E+03  0.25729158866E+03 -0.12621964618E+04  0.14396714023E+04  0.10100000352E+00 0.  1.
</event>
<event>
 5   0  0.3758062E-06  0.3226703E+04  0.7818609E-02  0.8181800E-01
        2   -1    0    0  501    0  0.00000000000E+00  0.00000000000E+00  0.13576636655E+04  0.13576636655E+04  0.25500000920E-02 0.  1.
       -2   -1    0    0    0  501  0.00000000000E+00  0.00000000000E+00 -0.19171931686E+04  0.19171931686E+04  0.25500000920E-02 0. -1.
    10030    2    1    2    0    0  0.00000000000E+00  0.00000000000E+00 -0.55952950307E+03  0.32748568341E+04  0.32267032741E+04 0.  0.
        2    1    3    3  502    0  0.10592920613E+04  0.68539595784E+03  0.74074379235E+03  0.14630682336E+04  0.25500000920E-02 0.  1.
       -2    1    3    3    0  502 -0.10592920613E+04 -0.68539595784E+03 -0.13002732954E+04  0.18117886005E+04  0.25500000920E-02 0. -1.
</event>
<event>
 5   0  0.1306843E-06  0.3126718E+04  0.7818609E-02  0.8208443E-01
        1   -1    0    0  501    0  0.00000000000E+00  0.00000000000E+00  0.19851921392E+04  0.19851921392E+04  0.50400001928E-02 0.  1.
       -1   -1    0    0    0  501  0.00000000000E+00  0.00000000000E+00 -0.12311609682E+04  0.12311609682E+04  0.50400001928E-02 0. -1.
    10030    2    1    2    0    0  0.00000000000E+00  0.00000000000E+00  0.75403117098E+03  0.32163531075E+04  0.31267178167E+04 0.  0.
        5    1    3    3  502    0  0.12117121877E+04  0.95304818983E+03  0.64431422235E+03  0.16708411610E+04  0.46999998093E+01 0. -1.
       -5    1    3    3    0  502 -0.12117121877E+04 -0.95304818983E+03  0.10971694863E+03  0.15455119465E+04  0.46999998093E+01 0.  1.
</event>
<event>
 5   0  0.1273980E-06  0.3178404E+04  0.7818609E-02  0.8194544E-01
        1   -1    0    0  501    0  0.00000000000E+00  0.00000000000E+00  0.26024751587E+04  0.26024751587E+04  0.50400001928E-02 0.  1.
       -1   -1    0    0    0  501  0.00000000000E+00  0.00000000000E+00 -0.97044646193E+03  0.97044646194E+03  0.50400001928E-02 0. -1.
    10030    2    1    2    0    0  0.00000000000E+00  0.00000000000E+00  0.16320286968E+04  0.35729216207E+04  0.31784038825E+04 0.  0.
        4    1    3    3  502    0 -0.79767612430E+03 -0.79555246950E+03  0.20760221421E+04  0.23620034883E+04  0.12699999809E+01 0.  1.
       -4    1    3    3    0  502  0.79767612430E+03  0.79555246950E+03 -0.44399344534E+03  0.12109181324E+04  0.12699999809E+01 0. -1.
</event>
<event>
 5   0  0.3656086E-06  0.2605638E+04  0.7818609E-02  0.8366289E-01
       -2   -1    0    0    0  501  0.00000000000E+00  0.00000000000E+00  0.78575433815E+03  0.78575433816E+03  0.25500000920E-02 0.  1.
        2   -1    0    0  501    0  0.00000000000E+00  0.00000000000E+00 -0.21601370753E+04  0.21601370753E+04  0.25500000920E-02 0. -1.
    10030    2    1    2    0    0  0.00000000000E+00  0.00000000000E+00 -0.13743827372E+04  0.29458914135E+04  0.26056377937E+04 0.  0.
        3    1    3    3  502    0 -0.51115666779E+03  0.82941862940E+03  0.29069527772E+03  0.10167202941E+04  0.10100000352E+00 0.  1.
       -3    1    3    3    0  502  0.51115666779E+03 -0.82941862940E+03 -0.16650780149E+04  0.19291711194E+04  0.10100000352E+00 0. -1.
</event>
<event>
 5   0  0.1240725E-06  0.3185799E+04  0.7818609E-02  0.8192578E-01
        1   -1    0    0  501    0  0.00000000000E+00  0.00000000000E+00  0.18268633606E+04  0.18268633606E+04  0.50400001928E-02 0.  1.
       -1   -1    0    0    0  501  0.00000000000E+00  0.00000000000E+00 -0.13888991449E+04  0.13888991449E+04  0.50400001928E-02 0. -1.
    10030    2    1    2    0    0  0.00000000000E+00  0.00000000000E+00  0.43796421565E+03  0.32157625055E+04  0.31857990894E+04 0.  0.
        3    1    3    3  502    0 -0.79563974937E+03 -0.10683993213E+04  0.11005861093E+04  0.17279495117E+04  0.10100000352E+00 0.  1.
       -3    1    3    3    0  502  0.79563974937E+03  0.10683993213E+04 -0.66262189369E+03  0.14878129939E+04  0.10100000352E+00 0. -1.
</event>
<event>
 5   0  0.1273754E-06  0.3163885E+04  0.7818609E-02  0.8198421E-01
        1   -1    0    0  501    0  0.00000000000E+00  0.00000000000E+00  0.17085970637E+04  0.17085970637E+04  0.50400001928E-02 0. -1.
       -1   -1    0    0    0  501  0.00000000000E+00  0.00000000000E+00 -0.14646765120E+04  0.14646765120E+04  0.50400001928E-02 0.  1.
    10030    2    1    2    0    0  0.00000000000E+00  0.00000000000E+00  0.24392055176E+03  0.31732735757E+04  0.31638849459E+04 0.  0.
        2    1    3    3  502    0  0.95408160030E+03  0.56899425439E+03  0.12515865319E+04  0.16734679586E+04  0.25500000920E-02 0. -1.
       -2    1    3    3    0  502 -0.95408160030E+03 -0.56899425439E+03 -0.10076659802E+04  0.14998056171E+04  0.25500000920E-02 0.  1.
</event>
<event>
 5   0  0.1273754E-06  0.3244869E+04  0.7818609E-02  0.8177067E-01
        1   -1    0    0  501    0  0.00000000000E+00  0.00000000000E+00  0.15146928869E+04  0.15146928869E+04  0.50400001928E-02 0.  1.
       -1   -1    0    0    0  501  0.00000000000E+00  0.00000000000E+00 -0.17378402836E+04  0.17378402836E+04  0.50400001928E-02 0. -1.
    10030    2    1    2    0    0  0.00000000000E+00  0.00000000000E+00 -0.22314739676E+03  0.32525331705E+04  0.32448693756E+04 0.  0.
        2    1    3    3  502    0  0.39198981330E+03 -0.14225280047E+04 -0.78774262663E+03  0.16726566844E+04  0.25500000920E-02 0. -1.
       -2    1    3    3    0  502 -0.39198981330E+03  0.14225280047E+04  0.56459522987E+03  0.15798764861E+04  0.25500000920E-02 0.  1.
</event>
<event>
 5   0  0.3497546E-06  0.3240477E+04  0.7818609E-02  0.8178208E-01
        2   -1    0    0  501    0  0.00000000000E+00  0.00000000000E+00  0.11089946717E+04  0.11089946717E+04  0.25500000920E-02 0.  1.
       -2   -1    0    0    0  501  0.00000000000E+00  0.00000000000E+00 -0.23671644019E+04  0.23671644019E+04  0.25500000920E-02 0. -1.
    10030    2    1    2    0    0  0.00000000000E+00  0.00000000000E+00 -0.12581697303E+04  0.34761590736E+04  0.32404769456E+04 0.  0.
        4    1    3    3  502    0 -0.14048808657E+04 -0.74622299852E+02 -0.14912242874E+04  0.20501244408E+04  0.12699999809E+01 0. -1.
       -4    1    3    3    0  502  0.14048808657E+04  0.74622299852E+02  0.23305455710E+03  0.14260346328E+04  0.12699999809E+01 0.  1.
</event>
<event>
 5   0  0.1268836E-06  0.3179049E+04  0.7818609E-02  0.8194372E-01
        1   -1    0    0  501    0  0.00000000000E+00  0.00000000000E+00  0.13501933222E+04  0.13501933222E+04  0.50400001928E-02 0. -1.
       -1   -1    0    0    0  501  0.00000000000E+00  0.00000000000E+00 -0.18712785451E+04  0.18712785451E+04  0.50400001928E-02 0.  1.
    10030    2    1    2    0    0  0.00000000000E+00  0.00000000000E+00 -0.52108522299E+03  0.32214718673E+04  0.31790487858E+04 0.  0.
        1    1    3    3  502    0 -0.76303230632E+03  0.13649020910E+04 -0.54967767870E+03  0.16575046211E+04  0.50400001928E-02 0. -1.
       -1    1    3    3    0  502  0.76303230632E+03 -0.13649020910E+04  0.28592455719E+02  0.15639672462E+04  0.50400001928E-02 0.  1.
</event>
<event>
 5   0  0.1268836E-06  0.3290437E+04  0.7818609E-02  0.8165333E-01
       -1   -1    0    0    0  501  0.00000000000E+00  0.00000000000E+00  0.12303498842E+04  0.12303498842E+04  0.50400001928E-02 0.  1.
        1   -1    0    0  501    0  0.00000000000E+00  0.00000000000E+00 -0.21999790968E+04  0.21999790968E+04  0.50400001928E-02 0. -1.
    10030    2    1    2    0    0  0.00000000000E+00  0.00000000000E+00 -0.96962921255E+03  0.34303289810E+04  0.32904370695E+04 0.  0.
        1    1    3    3  502    0 -0.53092576119E+03 -0.13321724023E+04 -0.13254322541E+04  0.19527765191E+04  0.50400001928E-02 0. -1.
       -1    1    3    3    0  502  0.53092576119E+03  0.13321724023E+04  0.35580304154E+03  0.14775524619E+04  0.50400001928E-02 0.  1.
</event>
<event>
 5   0  0.3745943E-06  0.3216172E+04  0.7818609E-02  0.8184559E-01
        2   -1    0    0  501    0  0.00000000000E+00  0.00000000000E+00  0.22537311407E+04  0.22537311407E+04  0.25500000920E-02 0.  1.
       -2   -1    0    0    0  501  0.00000000000E+00  0.00000000000E+00 -0.11474040512E+04  0.11474040512E+04  0.25500000920E-02 0. -1.
    10030    2    1    2    0    0  0.00000000000E+00  0.00000000000E+00  0.11063270895E+04  0.34011351919E+04  0.32161717872E+04 0.  0.
        5    1    3    3  502    0  0.26406555120E+03  0.62864375641E+03 -0.98695600906E+03  0.11995948656E+04  0.46999998093E+01 0. -1.
       -5    1    3    3    0  502 -0.26406555120E+03 -0.62864375641E+03  0.20932830985E+04  0.22015403263E+04  0.46999998093E+01 0.  1.
</event>
<event>
 5   0  0.3531437E-06  0.3111318E+04  0.7818609E-02  0.8212639E-01
       -2   -1    0    0    0  501  0.00000000000E+00  0.00000000000E+00  0.22163712741E+04  0.22163712741E+04  0.25500000920E-02 0.  1.
        2   -1    0    0  501    0  0.00000000000E+00  0.00000000000E+00 -0.10919086639E+04  0.10919086639E+04  0.25500000920E-02 0. -1.
    10030    2    1    2    0    0  0.00000000000E+00  0.00000000000E+00  0.11244626102E+04  0.33082799380E+04  0.31113180465E+04 0.  0.
        1    1    3    3  502    0 -0.44411093482E+03  0.14292820529E+04  0.11111762456E+03  0.15008093935E+04  0.50400001928E-02 0. -1.
       -1    1    3    3    0  502  0.44411093482E+03 -0.14292820529E+04  0.10133449857E+04  0.18074705445E+04  0.50400001928E-02 0.  1.
</event>
<event>
 5   0  0.3531437E-06  0.3183892E+04  0.7818609E-02  0.8193084E-01
       -2   -1    0    0    0  501  0.00000000000E+00  0.00000000000E+00  0.93984631427E+03  0.93984631427E+03  0.25500000920E-02 0.  1.
        2   -1    0    0  501    0  0.00000000000E+00  0.00000000000E+00 -0.26964964162E+04  0.26964964162E+04  0.25500000920E-02 0. -1.
    10030    2    1    2    0    0  0.00000000000E+00  0.00000000000E+00 -0.17566501019E+04  0.36363427304E+04  0.31838920950E+04 0.  0.
        1    1    3    3  502    0 -0.78766185202E+03 -0.63940860033E+03  0.52281050237E+03  0.11413086229E+04  0.50400001928E-02 0.  1.
       -1    1    3    3    0  502  0.78766185202E+03  0.63940860033E+03 -0.22794606043E+04  0.24950341075E+04  0.50400001928E-02 0. -1.
</event>
<event>
 5   0  0.1240725E-06  0.3163883E+04  0.7818609E-02  0.8198421E-01
        1   -1    0    0  501    0  0.00000000000E+00  0.00000000000E+00  0.18219643319E+04  0.18219643319E+04  0.50400001928E-02 0. -1.
       -1   -1    0    0    0  501  0.00000000000E+00  0.00000000000E+00 -0.13735385187E+04  0.13735385187E+04  0.50400001928E-02 0.  1.
    10030    2    1    2    0    0  0.00000000000E+00  0.00000000000E+00  0.44842581317E+03  0.31955028506E+04  0.31638825450E+04 0.  0.
        3    1    3    3  502    0 -0.89880048336E+00  0.10958785050E+04  0.13764863967E+04  0.17594502880E+04  0.10100000352E+00 0. -1.
       -3    1    3    3    0  502  0.89880048336E+00 -0.10958785050E+04 -0.92806058355E+03  0.14360525626E+04  0.10100000352E+00 0.  1.
</event>
<event>
 5   0  0.3745943E-06  0.3201145E+04  0.7818609E-02  0.8188515E-01
       -2   -1    0    0    0  501  0.00000000000E+00  0.00000000000E+00  0.13174371267E+04  0.13174371267E+04  0.25500000920E-02 0. -1.
        2   -1    0    0  501    0  0.00000000000E+00  0.00000000000E+00 -0.19445581538E+04  0.19445581538E+04  0.25500000920E-02 0.  1.
    10030    2    1    2    0    0  0.00000000000E+00  0.00000000000E+00 -0.62712102706E+03  0.32619952804E+04  0.32011454867E+04 0.  0.
        5    1    3    3  502    0 -0.51087991071E+03  0.25810825416E+03 -0.18366949804E+04  0.19238213782E+04  0.46999998093E+01 0.  1.
       -5    1    3    3    0  502  0.51087991071E+03 -0.25810825416E+03  0.12095739534E+04  0.13381739023E+04  0.46999998093E+01 0. -1.
</event>
<event>
 5   0  0.3758062E-06  0.3223291E+04  0.7818609E-02  0.8182693E-01
        2   -1    0    0  501    0  0.00000000000E+00  0.00000000000E+00  0.12512140844E+04  0.12512140844E+04  0.25500000920E-02 0. -1.
       -2   -1    0    0    0  501  0.00000000000E+00  0.00000000000E+00 -0.20759043985E+04  0.20759043985E+04  0.25500000920E-02 0.  1.
    10030    2    1    2    0    0  0.00000000000E+00  0.00000000000E+00 -0.82469031412E+03  0.33271184830E+04  0.32232907541E+04 0.  0.
        2    1    3    3  502    0 -0.10801665253E+04 -0.10644985330E+04 -0.97533501389E+03  0.18031071068E+04  0.25500000920E-02 0. -1.
       -2    1    3    3    0  502  0.10801665253E+04  0.10644985330E+04  0.15064469977E+03  0.15240113762E+04  0.25500000920E-02 0.  1.
</event>
<event>
 5   0  0.1306843E-06  0.3181044E+04  0.7818609E-02  0.8193842E-01
       -1   -1    0    0    0  501  0.00000000000E+00  0.00000000000E+00  0.13008547187E+04  0.13008547187E+04  0.50400001928E-02 0.  1.
        1   -1    0    0  501    0  0.00000000000E+00  0.00000000000E+00 -0.19446903328E+04  0.19446903328E+04  0.50400001928E-02 0. -1.
    10030    2    1    2    0    0  0.00000000000E+00  0.00000000000E+00 -0.64383561415E+03  0.32455450515E+04  0.31810435997E+04 0.  0.
        5    1    3    3  502    0  0.46046491204E+03  0.62008993419E+03 -0.17405055199E+04  0.19041851319E+04  0.46999998093E+01 0. -1.
       -5    1    3    3    0  502 -0.46046491204E+03 -0.62008993419E+03  0.10966699058E+04  0.13413599196E+04  0.46999998093E+01 0.  1.
</event>
<event>
 5   0  0.3531437E-06  0.3120939E+04  0.7818609E-02  0.8210015E-01
       -2   -1    0    0    0  501  0.00000000000E+00  0.00000000000E+00  0.12506404524E+04  0.12506404524E+04  0.25500000920E-02 0. -1.
        2   -1    0    0  501    0  0.00000000000E+00  0.00000000000E+00 -0.19470543573E+04  0.19470543573E+04  0.25500000920E-02 0.  1.
    10030    2    1    2    0    0  0.00000000000E+00  0.00000000000E+00 -0.69641390494E+03  0.31976948096E+04  0.31209389242E+04 0.  0.
        1    1    3    3  502    0  0.12278672067E+04  0.52178276061E+03  0.48111288484E+03  0.14182329620E+04  0.50400001928E-02 0. -1.
       -1    1    3    3    0  502 -0.12278672067E+04 -0.52178276061E+03 -0.11775267898E+04  0.17794618476E+04  0.50400001928E-02 0.  1.
</event>
<event>
 5   0  0.3497546E-06  0.3189730E+04  0.7818609E-02  0.8191535E-01
       -2   -1    0    0    0  501  0.00000000000E+00  0.00000000000E+00  0.14079927821E+04  0.14079927821E+04  0.25500000920E-02 0.  1.
        2   -1    0    0  501    0  0.00000000000E+00  0.00000000000E+00 -0.18065397117E+04  0.18065397117E+04  0.25500000920E-02 0. -1.
    10030    2    1    2    0    0  0.00000000000E+00  0.00000000000E+00 -0.39854692958E+03  0.32145324937E+04  0.31897303175E+04 0.  0.
        4    1    3    3  502    0 -0.10421611919E+04 -0.50682138004E+03 -0.13035239974E+04  0.17441743852E+04  0.12699999809E+01 0. -1.
       -4    1    3    3    0  502  0.10421611919E+04  0.50682138004E+03  0.90497706785E+03  0.14703581086E+04  0.12699999809E+01 0.  1.
</event>
<event>
 5   0  0.3531437E-06  0.3135970E+04  0.7818609E-02  0.8205935E-01
        2   -1    0    0  501    0  0.00000000000E+00  0.00000000000E+00  0.19821865466E+04  0.19821865466E+04  0.25500000920E-02 0. -1.
       -2   -1    0    0    0  501  0.00000000000E+00  0.00000000000E+00 -0.12403355579E+04  0.12403355579E+04  0.25500000920E-02 0.  1.
    10030    2    1    2    0    0  0.00000000000E+00  0.00000000000E+00  0.74185098867E+03  0.32225221045E+04  0.31359696785E+04 0.  0.
        1    1    3    3  502    0  0.59884700446E+03  0.12686272398E+03  0.18543272738E+04  0.19527522945E+04  0.50400001928E-02 0. -1.
       -1    1    3    3    0  502 -0.59884700446E+03 -0.12686272398E+03 -0.11124762851E+04  0.12697698100E+04  0.50400001928E-02 0.  1.
</event>
<event>
 5   0  0.3758062E-06  0.3204519E+04  0.7818609E-02  0.8187625E-01
       -2   -1    0    0    0  501  0.00000000000E+00  0.00000000000E+00  0.93930760916E+03  0.93930760916E+03  0.25500000920E-02 0.  1.
        2   -1    0    0  501    0  0.00000000000E+00  0.00000000000E+00 -0.27331149951E+04  0.27331149951E+04  0.25500000920E-02 0. -1.
    10030    2    1    2    0    0  0.00000000000E+00  0.00000000000E+00 -0.17938073860E+04  0.36724226043E+04  0.32045191288E+04 0.  0.
        2    1    3    3  502    0  0.91131409882E+03 -0.11862549847E+04 -0.15547808374E+04  0.21575536442E+04  0.25500000920E-02 0.  1.
       -2    1    3    3    0  502 -0.91131409882E+03  0.11862549847E+04 -0.23902654860E+03  0.15148689601E+04  0.25500000920E-02 0. -1.
</event>
<event>
 5   0  0.1273754E-06  0.3185063E+04  0.7818609E-02  0.8192773E-01
       -1   -1    0    0    0  501  0.00000000000E+00  0.00000000000E+00  0.14633332069E+04  0.14633332069E+04  0.50400001928E-02 0. -1.
        1   -1    0    0  501    0  0.00000000000E+00  0.00000000000E+00 -0.17331368341E+04  0.17331368341E+04  0.50400001928E-02 0.  1.
    10030    2    1    2    0    0  0.00000000000E+00  0.00000000000E+00 -0.26980362723E+03  0.31964700410E+04  0.31850630647E+04 0.  0.
        2    1    3    3  502    0  0.10005676313E+04 -0.12385639228E+04 -0.16632698797E+03  0.16008875171E+04  0.25500000920E-02 0.  1.
       -2    1    3    3    0  502 -0.10005676313E+04  0.12385639228E+04 -0.10347663926E+03  0.15955825239E+04  0.25500000920E-02 0. -1.
</event>
<event>
 5   0  0.1273754E-06  0.3156642E+04  0.7818609E-02  0.8200363E-01
        1   -1    0    0  501    0  0.00000000000E+00  0.00000000000E+00  0.27563265923E+04  0.27563265923E+04  0.50400001928E-02 0.  1.
       -1   -1    0    0    0  501  0.00000000000E+00  0.00000000000E+00 -0.90377444467E+03  0.90377444469E+03  0.50400001928E-02 0. -1.
    10030    2    1    2    0    0  0.00000000000E+00  0.00000000000E+00  0.18525521476E+04  0.36601010370E+04  0.31566422257E+04 0.  0.
        2    1    3    3  502    0  0.88105444526E+03  0.11077788802E+02  0.24445986549E+04  0.25985461775E+04  0.25500000920E-02 0.  1.
       -2    1    3    3    0  502 -0.88105444526E+03 -0.11077788802E+02 -0.59204650730E+03  0.10615548595E+04  0.25500000920E-02 0. -1.
</event>
<event>
 5   0  0.3531437E-06  0.3029627E+04  0.7818609E-02  0.8235321E-01
        2   -1    0    0  501    0  0.00000000000E+00  0.00000000000E+00  0.17152819889E+04  0.17152819889E+04  0.25500000920E-02 0. -1.
       -2   -1    0    0    0  501  0.00000000000E+00  0.00000000000E+00 -0.13377746039E+04  0.13377746039E+04  0.25500000920E-02 0.  1.
    10030    2    1    2    0    0  0.00000000000E+00  0.00000000000E+00  0.37750738506E+03  0.30530565928E+04  0.30296274908E+04 0.  0.
        1    1    3    3  502    0 -0.19858713738E+03  0.13130409279E+04 -0.54568091430E+03  0.14357161940E+04  0.50400001928E-02 0.  1.
       -1    1    3    3    0  502  0.19858713738E+03 -0.13130409279E+04  0.92318829936E+03  0.16173403988E+04  0.50400001928E-02 0. -1.
</event>
<event>
 5   0  0.1268836E-06  0.3207614E+04  0.7818609E-02  0.8186809E-01
        1   -1    0    0  501    0  0.00000000000E+00  0.00000000000E+00  0.15388391919E+04  0.15388391919E+04  0.50400001928E-02 0.  1.
       -1   -1    0    0    0  501  0.00000000000E+00  0.00000000000E+00 -0.16715179519E+04  0.16715179519E+04  0.50400001928E-02 0. -1.
    10030    2    1    2    0    0  0.00000000000E+00  0.00000000000E+00 -0.13267875996E+03  0.32103571438E+04  0.32076142750E+04 0.  0.
        1    1    3    3  502    0  0.10937215277E+04 -0.11719168737E+04 -0.15488500691E+02  0.16030769890E+04  0.50400001928E-02 0. -1.
       -1    1    3    3    0  502 -0.10937215277E+04  0.11719168737E+04 -0.11719025927E+03  0.16072801548E+04  0.50400001928E-02 0.  1.
</event>
<event>
 5   0  0.1306843E-06  0.3002349E+04  0.7818609E-02  0.8243060E-01
       -1   -1    0    0    0  501  0.00000000000E+00  0.00000000000E+00  0.10922644496E+04  0.10922644496E+04  0.50400001928E-02 0.  1.
        1   -1    0    0  501    0  0.00000000000E+00  0.00000000000E+00 -0.20631676855E+04  0.20631676855E+04  0.50400001928E-02 0. -1.
    10030    2    1    2    0    0  0.00000000000E+00  0.00000000000E+00 -0.97090323591E+03  0.31554321352E+04  0.30023488915E+04 0.  0.
        5    1    3    3  502    0  0.78274040105E+03 -0.12699968416E+04 -0.30981361666E+03  0.15236735477E+04  0.46999998093E+01 0.  1.
       -5    1    3    3    0  502 -0.78274040105E+03  0.12699968416E+04 -0.66108961925E+03  0.16317585874E+04  0.46999998093E+01 0. -1.
</event>
<event>
 5   0  0.3531437E-06  0.3240434E+04  0.7818609E-02  0.8178219E-01
        2   -1    0    0  501    0  0.00000000000E+00  0.00000000000E+00  0.25868951992E+04  0.25868951992E+04  0.25500000920E-02 0. -1.
       -2   -1    0    0    0  501  0.00000000000E+00  0.00000000000E+00 -0.10147700233E+04  0.10147700233E+04  0.25500000920E-02 0.  1.
    10030    2    1    2    0    0  0.00000000000E+00  0.00000000000E+00  0.15721251758E+04  0.36016652225E+04  0.32404343546E+04 0.  0.
        1    1    3    3  502    0 -0.92023761234E+03 -0.92446678398E+03  0.18542527318E+04  0.22670971067E+04  0.50400001928E-02 0. -1.
       -1    1    3    3    0  502  0.92023761234E+03  0.92446678398E+03 -0.28212755598E+03  0.13345681158E+04  0.50400001928E-02 0.  1.
</event>
<event>
 5   0  0.1273980E-06  0.3162325E+04  0.7818609E-02  0.8198839E-01
       -1   -1    0    0    0  501  0.00000000000E+00  0.00000000000E+00  0.17392526340E+04  0.17392526340E+04  0.50400001928E-02 0. -1.
        1   -1    0    0  501    0  0.00000000000E+00  0.00000000000E+00 -0.14374416672E+04  0.14374416673E+04  0.50400001928E-02 0.  1.
    10030    2    1    2    0    0  0.00000000000E+00  0.00000000000E+00  0.30181096679E+03  0.31766943013E+04  0.31623245919E+04 0.  0.
        4    1    3    3  502    0  0.25797140695E+03  0.14482929304E+04  0.73316933922E+03  0.16436668008E+04  0.12699999809E+01 0. -1.
       -4    1    3    3    0  502 -0.25797140695E+03 -0.14482929304E+04 -0.43135837243E+03  0.15330275005E+04  0.12699999809E+01 0.  1.
</event>
<event>
 5   0  0.3758062E-06  0.3406641E+04  0.7818609E-02  0.8136278E-01
       -2   -1    0    0    0  501  0.00000000000E+00  0.00000000000E+00  0.14040083340E+04  0.14040083340E+04  0.25500000920E-02 0. -1.
        2   -1    0    0  501    0  0.00000000000E+00  0.00000000000E+00 -0.20664412093E+04  0.20664412093E+04  0.25500000920E-02 0.  1.
    10030    2    1    2    0    0  0.00000000000E+00  0.00000000000E+00 -0.66243287526E+03  0.34704495433E+04  0.34066409730E+04 0.  0.
        2    1    3    3  502    0 -0.58286840147E+03  0.64891541160E+03 -0.18216558862E+04  0.20197170477E+04  0.25500000920E-02 0.  1.
       -2    1    3    3    0  502  0.58286840147E+03 -0.64891541160E+03  0.11592230110E+04  0.14507324957E+04  0.25500000920E-02 0. -1.
</event>
<event>
 5   0  0.1273980E-06  0.3172783E+04  0.7818609E-02  0.8196042E-01
        1   -1    0    0  501    0  0.00000000000E+00  0.00000000000E+00  0.13351399619E+04  0.13351399619E+04  0.50400001928E-02 0. -1.
       -1   -1    0    0    0  501  0.00000000000E+00  0.00000000000E+00 -0.18849242617E+04  0.18849242617E+04  0.50400001928E-02 0.  1.
    10030    2    1    2    0    0  0.00000000000E+00  0.00000000000E+00 -0.54978429978E+03  0.32200642236E+04  0.31727828208E+04 0.  0.
        4    1    3    3  502    0  0.56173661827E+03 -0.13662896359E+04  0.31194663587E+03  0.15098369826E+04  0.12699999809E+01 0. -1.
       -4    1    3    3    0  502 -0.56173661827E+03  0.13662896359E+04 -0.86173093565E+03  0.17102272410E+04  0.12699999809E+01 0.  1.
</event>
<event>
 5   0  0.1268836E-06  0.2702517E+04  0.7818609E-02  0.8334189E-01
       -1   -1    0    0    0  501  0.00000000000E+00  0.00000000000E+00  0.81390112620E+03  0.81390112621E+03  0.50400001928E-02 0. -1.
        1   -1    0    0  501    0  0.00000000000E+00  0.00000000000E+00 -0.22433920332E+04  0.22433920333E+04  0.50400001928E-02 0.  1.
    10030    2    1    2    0    0  0.00000000000E+00  0.00000000000E+00 -0.14294909070E+04  0.30572931595E+04  0.27025168287E+04 0.  0.
        1    1    3    3  502    0  0.23304160774E+03  0.48452725215E+03 -0.21171741201E+04  0.21843766397E+04  0.50400001928E-02 0.  1.
       -1    1    3    3    0  502 -0.23304160774E+03 -0.48452725215E+03  0.68768321305E+03  0.87291651981E+03  0.50400001928E-02 0. -1.
</event>
<event>
 5   0  0.3745943E-06  0.3239615E+04  0.7818609E-02  0.8178433E-01
        2   -1    0    0  501    0  0.00000000000E+00  0.00000000000E+00  0.15559511675E+04  0.15559511675E+04  0.25500000920E-02 0.  1.
       -2   -1    0    0    0  501  0.00000000000E+00  0.00000000000E+00 -0.16862840448E+04  0.16862840448E+04  0.25500000920E-02 0. -1.
    10030    2    1    2    0    0  0.00000000000E+00  0.00000000000E+00 -0.13033287727E+03  0.32422352123E+04  0.32396145624E+04 0.  0.
        5    1    3    3  502    0 -0.77873655018E+03 -0.77455098886E+03  0.11263400810E+04  0.15732208735E+04  0.46999998093E+01 0.  1.
       -5    1    3    3    0  502  0.77873655018E+03  0.77455098886E+03 -0.12566729582E+04  0.16690143387E+04  0.46999998093E+01 0. -1.
</event>
<event>
 5   0  0.1240725E-06  0.3130097E+04  0.7818609E-02  0.8207526E-01
        1   -1    0    0  501    0  0.00000000000E+00  0.00000000000E+00  0.17244248768E+04  0.17244248768E+04  0.50400001928E-02 0.  1.
       -1   -1    0    0    0  501  0.00000000000E+00  0.00000000000E+00 -0.14204026024E+04  0.14204026024E+04  0.50400001928E-02 0. -1.
    10030    2    1    2    0    0  0.00000000000E+00  0.00000000000E+00  0.30402227442E+03  0.31448274792E+04  0.31300974954E+04 0.  0.
        3    1    3    3  502    0  0.25357529130E+03  0.12966654593E+04  0.99484852516E+03  0.16538939929E+04  0.10100000352E+00 0.  1.
       -3    1    3    3    0  502 -0.25357529130E+03 -0.12966654593E+04 -0.69082625074E+03  0.14909334863E+04  0.10100000352E+00 0. -1.
</event>
<event>
 5   0  0.1240725E-06  0.3184063E+04  0.7818609E-02  0.8193039E-01
        1   -1    0    0  501    0  0.00000000000E+00  0.00000000000E+00  0.20987518824E+04  0.20987518824E+04  0.50400001928E-02 0.  1.
       -1   -1    0    0    0  501  0.00000000000E+00  0.00000000000E+00 -0.12076529186E+04  0.12076529186E+04  0.50400001928E-02 0. -1.
    10030    2    1    2    0    0  0.00000000000E+00  0.00000000000E+00  0.89109896383E+03  0.33064048011E+04  0.31840627106E+04 0.  0.
        3    1    3    3  502    0 -0.38320045789E+02 -0.83680561932E+03  0.18513965522E+04  0.20320879100E+04  0.10100000352E+00 0.  1.
       -3    1    3    3    0  502  0.38320045789E+02  0.83680561932E+03 -0.96029758834E+03  0.12743168910E+04  0.10100000352E+00 0. -1.
</event>
<event>
 5   0  0.3758062E-06  0.3202557E+04  0.7818609E-02  0.8188142E-01
       -2   -1    0    0    0  501  0.00000000000E+00  0.00000000000E+00  0.13766600080E+04  0.13766600080E+04  0.25500000920E-02 0.  1.
        2   -1    0    0  501    0  0.00000000000E+00  0.00000000000E+00 -0.18625457246E+04  0.18625457246E+04  0.25500000920E-02 0. -1.
    10030    2    1    2    0    0  0.00000000000E+00  0.00000000000E+00 -0.48588571664E+03  0.32392057325E+04  0.32025566112E+04 0.  0.
        2    1    3    3  502    0 -0.73581567358E+03  0.14121439414E+04 -0.72140603542E+02  0.15939822720E+04  0.25500000920E-02 0.  1.
       -2    1    3    3    0  502  0.73581567358E+03 -0.14121439414E+04 -0.41374511310E+03  0.16452234606E+04  0.25500000920E-02 0. -1.
</event>
<event>
 5   0  0.3497546E-06  0.3426770E+04  0.7818609E-02  0.8131367E-01
        2   -1    0    0  501    0  0.00000000000E+00  0.00000000000E+00  0.13457419187E+04  0.13457419187E+04  0.25500000920E-02 0.  1.
       -2   -1    0    0    0  501  0.00000000000E+00  0.00000000000E+00 -0.21814648100E+04  0.21814648100E+04  0.25500000920E-02 0. -1.
    10030    2    1    2    0    0  0.00000000000E+00  0.00000000000E+00 -0.83572289128E+03  0.35272067287E+04  0.34267702806E+04 0.  0.
        4    1    3    3  502    0 -0.86415930587E+03  0.37592655578E+03  0.10550205279E+04  0.14146243347E+04  0.12699999809E+01 0.  1.
       -4    1    3    3    0  502  0.86415930587E+03 -0.37592655578E+03 -0.18907434192E+04  0.21125823940E+04  0.12699999809E+01 0. -1.
</event>
<event>
 5   0  0.1240725E-06  0.3257908E+04  0.7818609E-02  0.8173689E-01
        1   -1    0    0  501    0  0.00000000000E+00  0.00000000000E+00  0.73385514861E+03  0.73385514863E+03  0.50400001928E-02 0.  1.
       -1   -1    0    0    0  501  0.00000000000E+00  0.00000000000E+00 -0.36158235679E+04  0.36158235679E+04  0.50400001928E-02 0. -1.
    10030    2    1    2    0    0  0.00000000000E+00  0.00000000000E+00 -0.28819684193E+04  0.43496787165E+04  0.32579077592E+04 0.  0.
        3    1    3    3  502    0 -0.99864955730E+03 -0.14631737519E+03  0.26607344295E+03  0.10437934661E+04  0.10100000352E+00 0.  1.
       -3    1    3    3    0  502  0.99864955730E+03  0.14631737519E+03 -0.31480418622E+04  0.33058852504E+04  0.10100000352E+00 0. -1.
</event>
<event>
 5   0  0.3758062E-06  0.2599655E+04  0.7818609E-02  0.8368318E-01
       -2   -1    0    0    0  501  0.00000000000E+00  0.00000000000E+00  0.79494722305E+03  0.79494722306E+03  0.25500000920E-02 0. -1.
        2   -1    0    0  501    0  0.00000000000E+00  0.00000000000E+00 -0.21253636840E+04  0.21253636840E+04  0.25500000920E-02 0.  1.
    10030    2    1    2    0    0  0.00000000000E+00  0.00000000000E+00 -0.13304164610E+04  0.29203109071E+04  0.25996553299E+04 0.  0.
        2    1    3    3  502    0 -0.89520498619E+03  0.82293946513E+03 -0.11811291543E+04  0.16951953899E+04  0.25500000920E-02 0. -1.
       -2    1    3    3    0  502  0.89520498619E+03 -0.82293946513E+03 -0.14928730660E+03  0.12251155172E+04  0.25500000920E-02 0.  1.
</event>
<event>
 5   0  0.3497546E-06  0.3280109E+04  0.7818609E-02  0.8167975E-01
       -2   -1    0    0    0  501  0.00000000000E+00  0.00000000000E+00  0.26696307445E+04  0.26696307445E+04  0.25500000920E-02 0. -1.
        2   -1    0    0  501    0  0.00000000000E+00  0.00000000000E+00 -0.10075470801E+04  0.10075470801E+04  0.25500000920E-02 0.  1.
    10030    2    1    2    0    0  0.00000000000E+00  0.00000000000E+00  0.16620836644E+04  0.36771778245E+04  0.32801089381E+04 0.  0.
        4    1    3    3  502    0  0.10721768369E+04 -0.72771210179E+03  0.19580486282E+04  0.23479957657E+04  0.12699999809E+01 0. -1.
       -4    1    3    3    0  502 -0.10721768369E+04  0.72771210179E+03 -0.29596496375E+03  0.13291820588E+04  0.12699999809E+01 0.  1.
</event>
<event>
 5   0  0.3656086E-06  0.3193450E+04  0.7818609E-02  0.8190549E-01
       -2   -1    0    0    0  501  0.00000000000E+00  0.00000000000E+00  0.16396986323E+04  0.16396986323E+04  0.25500000920E-02 0. -1.
        2   -1    0    0  501    0  0.00000000000E+00  0.00000000000E+00 -0.15548779464E+04  0.15548779464E+04  0.25500000920E-02 0.  1.
    10030    2    1    2    0    0  0.00000000000E+00  0.00000000000E+00  0.84820685855E+02  0.31945765787E+04  0.31934503235E+04 0.  0.
        3    1    3    3  502    0 -0.51109869890E+03 -0.15098480995E+04  0.13554563920E+03  0.15997611678E+04  0.10100000352E+00 0. -1.
       -3    1    3    3    0  502  0.51109869890E+03  0.15098480995E+04 -0.50724953350E+02  0.15948154109E+04  0.10100000352E+00 0.  1.
</event>
<event>
 5   0  0.1240725E-06  0.3119653E+04  0.7818609E-02  0.8210365E-01
        1   -1    0    0  501    0  0.00000000000E+00  0.00000000000E+00  0.17517393336E+04  0.17517393337E+04  0.50400001928E-02 0. -1.
       -1   -1    0    0    0  501  0.00000000000E+00  0.00000000000E+00 -0.13889390416E+04  0.13889390416E+04  0.50400001928E-02 0.  1.
    10030    2    1    2    0    0  0.00000000000E+00  0.00000000000E+00  0.36280029202E+03  0.31406783753E+04  0.31196532828E+04 0.  0.
        3    1    3    3  502    0 -0.47926661661E+02 -0.17634273696E+03  0.17409256486E+04  0.17504901742E+04  0.10100000352E+00 0. -1.
       -3    1    3    3    0  502  0.47926661661E+02  0.17634273696E+03 -0.13781253566E+04  0.13901882011E+04  0.10100000352E+00 0.  1.
</event>
<event>
 5   0  0.3758062E-06  0.3188594E+04  0.7818609E-02  0.8191836E-01
       -2   -1    0    0    0  501  0.00000000000E+00  0.00000000000E+00  0.87595822429E+03  0.87595822430E+03  0.25500000920E-02 0.  1.
        2   -1    0    0  501    0  0.00000000000E+00  0.00000000000E+00 -0.29017175019E+04  0.29017175019E+04  0.25500000920E-02 0. -1.
    10030    2    1    2    0    0  0.00000000000E+00  0.00000000000E+00 -0.20257592776E+04  0.37776757262E+04  0.31885942422E+04 0.  0.
        2    1    3    3  502    0 -0.74349342590E+03 -0.75524449952E+03  0.39821584948E+03  0.11321451282E+04  0.25500000920E-02 0.  1.
       -2    1    3    3    0  502  0.74349342590E+03  0.75524449952E+03 -0.24239751271E+04  0.26455305980E+04  0.25500000920E-02 0. -1.
</event>
<event>
 5   0  0.1185575E-06  0.3181593E+04  0.7818609E-02  0.8193696E-01
       -3   -1    0    0    0  501  0.00000000000E+00  0.00000000000E+00  0.11009187557E+04  0.11009187603E+04  0.10100000352E+00 0.  1.
        3   -1    0    0  501    0  0.00000000000E+00  0.00000000000E+00 -0.22986552805E+04  0.22986552827E+04  0.10100000352E+00 0. -1.
    10030    2    1    2    0    0  0.00000000000E+00  0.00000000000E+00 -0.11977365248E+04  0.33995740430E+04  0.31815925086E+04 0.  0.
        4    1    3    3  502    0  0.10972744401E+04 -0.11409572026E+04 -0.76726194787E+03  0.17591154153E+04  0.12699999809E+01 0. -1.
       -4    1    3    3    0  502 -0.10972744401E+04  0.11409572026E+04 -0.43047457697E+03  0.16404586277E+04  0.12699999809E+01 0.  1.
</event>
<event>
 5   0  0.1273980E-06  0.3237865E+04  0.7818609E-02  0.8178888E-01
        1   -1    0    0  501    0  0.00000000000E+00  0.00000000000E+00  0.20412927141E+04  0.20412927141E+04  0.50400001928E-02 0.  1.
       -1   -1    0    0    0  501  0.00000000000E+00  0.00000000000E+00 -0.12839621495E+04  0.12839621495E+04  0.50400001928E-02 0. -1.
    10030    2    1    2    0    0  0.00000000000E+00  0.00000000000E+00  0.75733056460E+03  0.33252548637E+04  0.32378650874E+04 0.  0.
        4    1    3    3  502    0  0.11507785612E+04  0.71079791962E+03  0.12922915939E+04  0.18707068600E+04  0.12699999809E+01 0.  1.
       -4    1    3    3    0  502 -0.11507785612E+04 -0.71079791962E+03 -0.53496102928E+03  0.14545480037E+04  0.12699999809E+01 0. -1.
</event>
<event>
 5   0  0.3758062E-06  0.3209529E+04  0.7818609E-02  0.8186305E-01
       -2   -1    0    0    0  501  0.00000000000E+00  0.00000000000E+00  0.15513349359E+04  0.15513349359E+04  0.25500000920E-02 0. -1.
        2   -1    0    0  501    0  0.00000000000E+00  0.00000000000E+00 -0.16600338040E+04  0.16600338040E+04  0.25500000920E-02 0.  1.
    10030    2    1    2    0    0  0.00000000000E+00  0.00000000000E+00 -0.10869886803E+03  0.32113687399E+04  0.32095285853E+04 0.  0.
        2    1    3    3  502    0 -0.15418846189E+04 -0.30261900932E+03  0.27184667063E+03  0.15946432376E+04  0.25500000920E-02 0. -1.
       -2    1    3    3    0  502  0.15418846189E+04  0.30261900932E+03 -0.38054553866E+03  0.16167255023E+04  0.25500000920E-02 0.  1.
</event>
<event>
 5   0  0.1306843E-06  0.3280679E+04  0.7818609E-02  0.8167829E-01
       -1   -1    0    0    0  501  0.00000000000E+00  0.00000000000E+00  0.16187652609E+04  0.16187652609E+04  0.50400001928E-02 0.  1.
        1   -1    0    0  501    0  0.00000000000E+00  0.00000000000E+00 -0.16622017173E+04  0.16622017173E+04  0.50400001928E-02 0. -1.
    10030    2    1    2    0    0  0.00000000000E+00  0.00000000000E+00 -0.43436456369E+02  0.32809669782E+04  0.32806794397E+04 0.  0.
        5    1    3    3  502    0  0.26637324394E+03  0.13055632162E+04 -0.97848503973E+03  0.16531500475E+04  0.46999998093E+01 0. -1.
       -5    1    3    3    0  502 -0.26637324394E+03 -0.13055632162E+04  0.93504858336E+03  0.16278169307E+04  0.46999998093E+01 0.  1.
</event>
<event>
 5   0  0.1306843E-06  0.3134326E+04  0.7818609E-02  0.8206380E-01
        1   -1    0    0  501    0  0.00000000000E+00  0.00000000000E+00  0.19932658113E+04  0.19932658113E+04  0.50400001928E-02 0.  1.
       -1   -1    0    0    0  501  0.00000000000E+00  0.00000000000E+00 -0.12321487381E+04  0.12321487381E+04  0.50400001928E-02 0. -1.
    10030    2    1    2    0    0  0.00000000000E+00  0.00000000000E+00  0.76111707319E+03  0.32254145494E+04  0.31343260546E+04 0.  0.
        5    1    3    3  502    0  0.95209744634E+03 -0.37824120883E+02  0.16609268956E+04  0.19148421485E+04  0.46999998093E+01 0.  1.
       -5    1    3    3    0  502 -0.95209744634E+03  0.37824120883E+02 -0.89980982236E+03  0.13105724008E+04  0.46999998093E+01 0. -1.
</event>
<event>
 5   0  0.1240725E-06  0.3182931E+04  0.7818609E-02  0.8193340E-01
        1   -1    0    0  501    0  0.00000000000E+00  0.00000000000E+00  0.17291517995E+04  0.17291517995E+04  0.50400001928E-02 0.  1.
       -1   -1    0    0    0  501  0.00000000000E+00  0.00000000000E+00 -0.14647422408E+04  0.14647422408E+04  0.50400001928E-02 0. -1.
    10030    2    1    2    0    0  0.00000000000E+00  0.00000000000E+00  0.26440955874E+03  0.31938940403E+04  0.31829305248E+04 0.  0.
        3    1    3    3  502    0  0.99129147071E+03 -0.11127693426E+04 -0.42815160720E+03  0.15505573832E+04  0.10100000352E+00 0. -1.
       -3    1    3    3    0  502 -0.99129147071E+03  0.11127693426E+04  0.69256116595E+03  0.16433366571E+04  0.10100000352E+00 0.  1.
</event>
<event>
 5   0  0.1273754E-06  0.3212184E+04  0.7818609E-02  0.8185607E-01
       -1   -1    0    0    0  501  0.00000000000E+00  0.00000000000E+00  0.13012129176E+04  0.13012129176E+04  0.50400001928E-02 0.  1.
        1   -1    0    0  501    0  0.00000000000E+00  0.00000000000E+00 -0.19824047956E+04  0.19824047956E+04  0.50400001928E-02 0. -1.
    10030    2    1    2    0    0  0.00000000000E+00  0.00000000000E+00 -0.68119187802E+03  0.32836177131E+04  0.32121835115E+04 0.  0.
        2    1    3    3  502    0 -0.22680453824E+03  0.75927109840E+02  0.12829059819E+04  0.13050107214E+04  0.25500000920E-02 0.  1.
       -2    1    3    3    0  502  0.22680453824E+03 -0.75927109840E+02 -0.19640978599E+04  0.19786069918E+04  0.25500000920E-02 0. -1.
</event>
<event>
 5   0  0.3745943E-06  0.3210125E+04  0.7818609E-02  0.8186148E-01
       -2   -1    0    0    0  501  0.00000000000E+00  0.00000000000E+00  0.28435221431E+04  0.28435221431E+04  0.25500000920E-02 0. -1.
        2   -1    0    0  501    0  0.00000000000E+00  0.00000000000E+00 -0.90599828970E+03  0.90599828971E+03  0.25500000920E-02 0.  1.
    10030    2    1    2    0    0  0.00000000000E+00  0.00000000000E+00  0.19375238534E+04  0.37495204328E+04  0.32101253548E+04 0.  0.
        5    1    3    3  502    0 -0.10871626482E+04  0.56279460129E+03 -0.24370857985E+03  0.12482292853E+04  0.46999998093E+01 0.  1.
       -5    1    3    3    0  502  0.10871626482E+04 -0.56279460129E+03  0.21812324332E+04  0.25012911475E+04  0.46999998093E+01 0. -1.
</event>
<event>
 5   0  0.1273980E-06  0.3168518E+04  0.7818609E-02  0.8197181E-01
        1   -1    0    0  501    0  0.00000000000E+00  0.00000000000E+00  0.23294728481E+04  0.23294728481E+04  0.50400001928E-02 0. -1.
       -1   -1    0    0    0  501  0.00000000000E+00  0.00000000000E+00 -0.10774440475E+04  0.10774440475E+04  0.50400001928E-02 0.  1.
    10030    2    1    2    0    0  0.00000000000E+00  0.00000000000E+00  0.12520288006E+04  0.34069168956E+04  0.31685180473E+04 0.  0.
        4    1    3    3  502    0 -0.14619651739E+04 -0.35416588198E+03  0.11605063885E+04  0.18998821891E+04  0.12699999809E+01 0.  1.
       -4    1    3    3    0  502  0.14619651739E+04  0.35416588198E+03  0.91522412053E+02  0.15070347065E+04  0.12699999809E+01 0. -1.
</event>
<event>
 5   0  0.1306843E-06  0.3224598E+04  0.7818609E-02  0.8182351E-01
       -1   -1    0    0    0  501  0.00000000000E+00  0.00000000000E+00  0.17030765808E+04  0.17030765808E+04  0.50400001928E-02 0. -1.
        1   -1    0    0  501    0  0.00000000000E+00  0.00000000000E+00 -0.15263603268E+04  0.15263603268E+04  0.50400001928E-02 0.  1.
    10030    2    1    2    0    0  0.00000000000E+00  0.00000000000E+00  0.17671625397E+03  0.32294369076E+04  0.32245982859E+04 0.  0.
        5    1    3    3  502    0  0.60928028112E+03  0.14778974274E+04  0.29863310257E+03  0.16262247959E+04  0.46999998093E+01 0.  1.
       -5    1    3    3    0  502 -0.60928028112E+03 -0.14778974274E+04 -0.12191684860E+03  0.16032121116E+04  0.46999998093E+01 0. -1.
</event>
<event>
 5   0  0.3758062E-06  0.3207152E+04  0.7818609E-02  0.8186931E-01
        2   -1    0    0  501    0  0.00000000000E+00  0.00000000000E+00  0.15798428667E+04  0.15798428667E+04  0.25500000920E-02 0.  1.
       -2   -1    0    0    0  501  0.00000000000E+00  0.00000000000E+00 -0.16276659421E+04  0.16276659421E+04  0.25500000920E-02 0. -1.
    10030    2    1    2    0    0  0.00000000000E+00  0.00000000000E+00 -0.47823075431E+02  0.32075088089E+04  0.32071522746E+04 0.  0.
        2    1    3    3  502    0 -0.12528651506E+04 -0.71238781882E+03 -0.72704654815E+03  0.16142379543E+04  0.25500000920E-02 0. -1.
       -2    1    3    3    0  502  0.12528651506E+04  0.71238781882E+03  0.67922347272E+03  0.15932708545E+04  0.25500000920E-02 0.  1.
</event>
<event>
 5   0  0.1273754E-06  0.3204245E+04  0.7818609E-02  0.8187697E-01
        1   -1    0    0  501    0  0.00000000000E+00  0.00000000000E+00  0.14333949673E+04  0.14333949673E+04  0.50400001928E-02 0. -1.
       -1   -1    0    0    0  501  0.00000000000E+00  0.00000000000E+00 -0.17907117097E+04  0.17907117097E+04  0.50400001928E-02 0.  1.
    10030    2    1    2    0    0  0.00000000000E+00  0.00000000000E+00 -0.35731674239E+03  0.32241066770E+04  0.32042454041E+04 0.  0.
        2    1    3    3  502    0 -0.42388055380E+03 -0.19673522961E+03 -0.17206119646E+04  0.17829427941E+04  0.25500000920E-02 0.  1.
       -2    1    3    3    0  502  0.42388055380E+03  0.19673522961E+03  0.13632952222E+04  0.14411638829E+04  0.25500000920E-02 0. -1.
</event>
<event>
 5   0  0.3745943E-06  0.3199863E+04  0.7818609E-02  0.8188853E-01
       -2   -1    0    0    0  501  0.00000000000E+00  0.00000000000E+00  0.13181221820E+04  0.13181221820E+04  0.25500000920E-02 0.  1.
        2   -1    0    0  501    0  0.00000000000E+00  0.00000000000E+00 -0.19419904164E+04  0.19419904164E+04  0.25500000920E-02 0. -1.
    10030    2    1    2    0    0  0.00000000000E+00  0.00000000000E+00 -0.62386823440E+03  0.32601125984E+04  0.31998629002E+04 0.  0.
        5    1    3    3  502    0  0.25222679654E+03 -0.14051069865E+04  0.42403454634E+03  0.14892183812E+04  0.46999998093E+01 0.  1.
       -5    1    3    3    0  502 -0.25222679654E+03  0.14051069865E+04 -0.10479027807E+04  0.17708942172E+04  0.46999998093E+01 0. -1.
</event>
<event>
 5   0  0.1268836E-06  0.3152558E+04  0.7818609E-02  0.8201460E-01
        1   -1    0    0  501    0  0.00000000000E+00  0.00000000000E+00  0.13047723271E+04  0.13047723271E+04  0.50400001928E-02 0. -1.
       -1   -1    0    0    0  501  0.00000000000E+00  0.00000000000E+00 -0.19042832771E+04  0.19042832771E+04  0.50400001928E-02 0.  1.
    10030    2    1    2    0    0  0.00000000000E+00  0.00000000000E+00 -0.59951095002E+03  0.32090556042E+04  0.31525584042E+04 0.  0.
        1    1    3    3  502    0  0.12726728656E+04 -0.92994433299E+03 -0.31276884948E+03  0.16069589412E+04  0.50400001928E-02 0. -1.
       -1    1    3    3    0  502 -0.12726728656E+04  0.92994433299E+03 -0.28674210054E+03  0.16020966630E+04  0.50400001928E-02 0.  1.
</event>
<event>
 5   0  0.3656086E-06  0.3189051E+04  0.7818609E-02  0.8191715E-01
        2   -1    0    0  501    0  0.00000000000E+00  0.00000000000E+00  0.28753252822E+04  0.28753252822E+04  0.25500000920E-02 0. -1.
       -2   -1    0    0    0  501  0.00000000000E+00  0.00000000000E+00 -0.88425187002E+03  0.88425187002E+03  0.25500000920E-02 0.  1.
    10030    2    1    2    0    0  0.00000000000E+00  0.00000000000E+00  0.19910734122E+04  0.37595771522E+04  0.31890511176E+04 0.  0.
        3    1    3    3  502    0 -0.98536413450E+01  0.44542218675E+03  0.28004552065E+04  0.28356740632E+04  0.10100000352E+00 0. -1.
       -3    1    3    3    0  502  0.98536413450E+01 -0.44542218675E+03 -0.80938179435E+03  0.92390308903E+03  0.10100000352E+00 0.  1.
</event>
<event>
 5   0  0.3745943E-06  0.3195584E+04  0.7818609E-02  0.8189984E-01
       -2   -1    0    0    0  501  0.00000000000E+00  0.00000000000E+00  0.16235927263E+04  0.16235927263E+04  0.25500000920E-02 0.  1.
        2   -1    0    0  501    0  0.00000000000E+00  0.00000000000E+00 -0.15724015367E+04  0.15724015367E+04  0.25500000920E-02 0. -1.
    10030    2    1    2    0    0  0.00000000000E+00  0.00000000000E+00  0.51191189574E+02  0.31959942630E+04  0.31955842645E+04 0.  0.
        5    1    3    3  502    0 -0.14127072030E+04  0.25043009067E+03 -0.67767364555E+03  0.15867326592E+04  0.46999998093E+01 0. -1.
       -5    1    3    3    0  502  0.14127072030E+04 -0.25043009067E+03  0.72886483513E+03  0.16092616039E+04  0.46999998093E+01 0.  1.
</event>
<event>
 5   0  0.1268836E-06  0.3193221E+04  0.7818609E-02  0.8190610E-01
        1   -1    0    0  501    0  0.00000000000E+00  0.00000000000E+00  0.23720481297E+04  0.23720481297E+04  0.50400001928E-02 0.  1.
       -1   -1    0    0    0  501  0.00000000000E+00  0.00000000000E+00 -0.10746686941E+04  0.10746686941E+04  0.50400001928E-02 0. -1.
    10030    2    1    2    0    0  0.00000000000E+00  0.00000000000E+00  0.12973794356E+04  0.34467168238E+04  0.31932214868E+04 0.  0.
        1    1    3    3  502    0 -0.42656754839E+03  0.14114727171E+04  0.13096322212E+04  0.19721439246E+04  0.50400001928E-02 0.  1.
       -1    1    3    3    0  502  0.42656754839E+03 -0.14114727171E+04 -0.12252785619E+02  0.14745728992E+04  0.50400001928E-02 0. -1.
</event>
<event>
 5   0  0.3758062E-06  0.2416963E+04  0.7818609E-02  0.8433180E-01
        2   -1    0    0  501    0  0.00000000000E+00  0.00000000000E+00  0.10954786576E+04  0.10954786576E+04  0.25500000920E-02 0.  1.
       -2   -1    0    0    0  501  0.00000000000E+00  0.00000000000E+00 -0.13331406899E+04  0.13331406899E+04  0.25500000920E-02 0. -1.
    10030    2    1    2    0    0  0.00000000000E+00  0.00000000000E+00 -0.23766203227E+03  0.24286193475E+04  0.24169627000E+04 0.  0.
        2    1    3    3  502    0  0.77347534343E+02 -0.78364175305E+02 -0.13280899529E+04  0.13326464303E+04  0.25500000920E-02 0. -1.
       -2    1    3    3    0  502 -0.77347534343E+02  0.78364175305E+02  0.10904279207E+04  0.10959729172E+04  0.25500000920E-02 0.  1.
</event>
<event>
 5   0  0.3745943E-06  0.3230496E+04  0.7818609E-02  0.8180809E-01
        2   -1    0    0  501    0  0.00000000000E+00  0.00000000000E+00  0.17215002183E+04  0.17215002183E+04  0.25500000920E-02 0.  1.
       -2   -1    0    0    0  501  0.00000000000E+00  0.00000000000E+00 -0.15155541278E+04  0.15155541278E+04  0.25500000920E-02 0. -1.
    10030    2    1    2    0    0  0.00000000000E+00  0.00000000000E+00  0.20594609046E+03  0.32370543461E+04  0.32304964088E+04 0.  0.
        5    1    3    3  502    0 -0.75954601837E+03  0.76894032077E+03  0.13057535803E+04  0.16950498144E+04  0.46999998093E+01 0.  1.
       -5    1    3    3    0  502  0.75954601837E+03 -0.76894032077E+03 -0.10998074899E+04  0.15420045317E+04  0.46999998093E+01 0. -1.
</event>
<event>
 5   0  0.1273754E-06  0.3200312E+04  0.7818609E-02  0.8188735E-01
        1   -1    0    0  501    0  0.00000000000E+00  0.00000000000E+00  0.13995782260E+04  0.13995782260E+04  0.50400001928E-02 0. -1.
       -1   -1    0    0    0  501  0.00000000000E+00  0.00000000000E+00 -0.18294789806E+04  0.18294789806E+04  0.50400001928E-02 0.  1.
    10030    2    1    2    0    0  0.00000000000E+00  0.00000000000E+00 -0.42990075463E+03  0.32290572066E+04  0.32003118261E+04 0.  0.
        2    1    3    3  502    0 -0.12212503711E+04 -0.51267500865E+03 -0.11209077257E+04  0.17351432976E+04  0.25500000920E-02 0.  1.
       -2    1    3    3    0  502  0.12212503711E+04  0.51267500865E+03  0.69100697110E+03  0.14939139090E+04  0.25500000920E-02 0. -1.
</event>
<event>
 5   0  0.3745943E-06  0.2474526E+04  0.7818609E-02  0.8412117E-01
       -2   -1    0    0    0  501  0.00000000000E+00  0.00000000000E+00  0.19687019387E+04  0.19687019387E+04  0.25500000920E-02 0. -1.
        2   -1    0    0  501    0  0.00000000000E+00  0.00000000000E+00 -0.77757843314E+03  0.77757843314E+03  0.25500000920E-02 0.  1.
    10030    2    1    2    0    0  0.00000000000E+00  0.00000000000E+00  0.11911235056E+04  0.27462803719E+04  0.24745263537E+04 0.  0.
        5    1    3    3  502    0 -0.41939213987E+03 -0.11638282958E+04  0.61808891594E+03  0.13829107228E+04  0.46999998093E+01 0.  1.
       -5    1    3    3    0  502  0.41939213987E+03  0.11638282958E+04  0.57303458967E+03  0.13633696491E+04  0.46999998093E+01 0. -1.
</event>
<event>
 5   0  0.1273980E-06  0.3170400E+04  0.7818609E-02  0.8196678E-01
       -1   -1    0    0    0  501  0.00000000000E+00  0.00000000000E+00  0.85833741250E+03  0.85833741252E+03  0.50400001928E-02 0. -1.
        1   -1    0    0  501    0  0.00000000000E+00  0.00000000000E+00 -0.29275888883E+04  0.29275888883E+04  0.50400001928E-02 0.  1.
    10030    2    1    2    0    0  0.00000000000E+00  0.00000000000E+00 -0.20692514758E+04  0.37859263008E+04  0.31704000197E+04 0.  0.
        4    1    3    3  502    0 -0.66245581147E+03  0.91622515547E+01  0.68508222251E+03  0.95303248292E+03  0.12699999809E+01 0. -1.
       -4    1    3    3    0  502  0.66245581147E+03 -0.91622515547E+01 -0.27543336983E+04  0.28328938179E+04  0.12699999809E+01 0.  1.
</event>
<event>
 5   0  0.1306843E-06  0.3194660E+04  0.7818609E-02  0.8190229E-01
        1   -1    0    0  501    0  0.00000000000E+00  0.00000000000E+00  0.21462450427E+04  0.21462450427E+04  0.50400001928E-02 0. -1.
       -1   -1    0    0    0  501  0.00000000000E+00  0.00000000000E+00 -0.11888035556E+04  0.11888035556E+04  0.50400001928E-02 0.  1.
    10030    2    1    2    0    0  0.00000000000E+00  0.00000000000E+00  0.95744148710E+03  0.33350485982E+04  0.31946603812E+04 0.  0.
        5    1    3    3  502    0 -0.41590681627E+03  0.11778437439E+04 -0.56059275603E+03  0.13691532759E+04  0.46999998093E+01 0. -1.
       -5    1    3    3    0  502  0.41590681627E+03 -0.11778437439E+04  0.15180342431E+04  0.19658953223E+04  0.46999998093E+01 0.  1.
</event>
<event>
 5   0  0.1306843E-06  0.3203894E+04  0.7818609E-02  0.8187790E-01
        1   -1    0    0  501    0  0.00000000000E+00  0.00000000000E+00  0.12417640218E+04  0.12417640218E+04  0.50400001928E-02 0.  1.
       -1   -1    0    0    0  501  0.00000000000E+00  0.00000000000E+00 -0.20666034724E+04  0.20666034724E+04  0.50400001928E-02 0. -1.
    10030    2    1    2    0    0  0.00000000000E+00  0.00000000000E+00 -0.82483945055E+03  0.33083674942E+04  0.32038937807E+04 0.  0.
        5    1    3    3  502    0 -0.94494284143E+03 -0.47563771523E+03 -0.16545851490E+04  0.19638794044E+04  0.46999998093E+01 0.  1.
       -5    1    3    3    0  502  0.94494284143E+03  0.47563771523E+03  0.82974569843E+03  0.13444880899E+04  0.46999998093E+01 0. -1.
</event>
<event>
 5   0  0.1185575E-06  0.3177472E+04  0.7818609E-02  0.8194792E-01
        3   -1    0    0  501    0  0.00000000000E+00  0.00000000000E+00  0.11020519555E+04  0.11020519601E+04  0.10100000352E+00 0.  1.
       -3   -1    0    0    0  501  0.00000000000E+00  0.00000000000E+00 -0.22903472732E+04  0.22903472755E+04  0.10100000352E+00 0. -1.
    10030    2    1    2    0    0  0.00000000000E+00  0.00000000000E+00 -0.11882953177E+04  0.33923992356E+04  0.31774717641E+04 0.  0.
        1    1    3    3  502    0  0.67398717980E+02  0.10653164332E+04  0.66215331220E+03  0.12561403978E+04  0.50400001928E-02 0.  1.
       -1    1    3    3    0  502 -0.67398717980E+02 -0.10653164332E+04 -0.18504486299E+04  0.21362588378E+04  0.50400001928E-02 0. -1.
</event>
<event>
 5   0  0.3656086E-06  0.3306835E+04  0.7818609E-02  0.8161158E-01
       -2   -1    0    0    0  501  0.00000000000E+00  0.00000000000E+00  0.13998369164E+04  0.13998369164E+04  0.25500000920E-02 0.  1.
        2   -1    0    0  501    0  0.00000000000E+00  0.00000000000E+00 -0.19529341653E+04  0.19529341653E+04  0.25500000920E-02 0. -1.
    10030    2    1    2    0    0  0.00000000000E+00  0.00000000000E+00 -0.55309724892E+03  0.33527710818E+04  0.33068349460E+04 0.  0.
        3    1    3    3  502    0  0.16242510955E+04 -0.27487344427E+03 -0.42008604722E+03  0.17000645072E+04  0.10100000352E+00 0. -1.
       -3    1    3    3    0  502 -0.16242510955E+04  0.27487344427E+03 -0.13301120171E+03  0.16527065745E+04  0.10100000352E+00 0.  1.
</event>
<event>
 5   0  0.1306843E-06  0.3189388E+04  0.7818609E-02  0.8191625E-01
       -1   -1    0    0    0  501  0.00000000000E+00  0.00000000000E+00  0.12745925732E+04  0.12745925732E+04  0.50400001928E-02 0. -1.
        1   -1    0    0  501    0  0.00000000000E+00  0.00000000000E+00 -0.19951859698E+04  0.19951859698E+04  0.50400001928E-02 0.  1.
    10030    2    1    2    0    0  0.00000000000E+00  0.00000000000E+00 -0.72059339655E+03  0.32697785430E+04  0.31893881666E+04 0.  0.
        5    1    3    3  502    0 -0.12634121773E+04 -0.96620760588E+03 -0.47834974180E+03  0.16609057869E+04  0.46999998093E+01 0.  1.
       -5    1    3    3    0  502  0.12634121773E+04  0.96620760588E+03 -0.24224365474E+03  0.16088727562E+04  0.46999998093E+01 0. -1.
</event>
<event>
 5   0  0.1306843E-06  0.3213535E+04  0.7818609E-02  0.8185252E-01
        1   -1    0    0  501    0  0.00000000000E+00  0.00000000000E+00  0.18013176230E+04  0.18013176230E+04  0.50400001928E-02 0.  1.
       -1   -1    0    0    0  501  0.00000000000E+00  0.00000000000E+00 -0.14332299858E+04  0.14332299859E+04  0.50400001928E-02 0. -1.
    10030    2    1    2    0    0  0.00000000000E+00  0.00000000000E+00  0.36808763718E+03  0.32345476089E+04  0.32135353935E+04 0.  0.
        5    1    3    3  502    0 -0.61435573180E+03  0.72418759777E+03  0.14885892551E+04  0.17657295100E+04  0.46999998093E+01 0.  1.
       -5    1    3    3    0  502  0.61435573180E+03 -0.72418759777E+03 -0.11205016179E+04  0.14688180989E+04  0.46999998093E+01 0. -1.
</event>
<event>
 5   0  0.3656086E-06  0.3187637E+04  0.7818609E-02  0.8192090E-01
       -2   -1    0    0    0  501  0.00000000000E+00  0.00000000000E+00  0.16184493485E+04  0.16184493486E+04  0.25500000920E-02 0. -1.
        2   -1    0    0  501    0  0.00000000000E+00  0.00000000000E+00 -0.15695623627E+04  0.15695623627E+04  0.25500000920E-02 0.  1.
    10030    2    1    2    0    0  0.00000000000E+00  0.00000000000E+00  0.48886985882E+02  0.31880117112E+04  0.31876368572E+04 0.  0.
        3    1    3    3  502    0  0.83660884006E+02  0.30966298142E+03 -0.15369469616E+04  0.15700625078E+04  0.10100000352E+00 0.  1.
       -3    1    3    3    0  502 -0.83660884006E+02 -0.30966298142E+03  0.15858339475E+04  0.16179492034E+04  0.10100000352E+00 0. -1.
</event>
<event>
 5   0  0.3531437E-06  0.3031587E+04  0.7818609E-02  0.8234768E-01
       -2   -1    0    0    0  501  0.00000000000E+00  0.00000000000E+00  0.30769975641E+04  0.30769975641E+04  0.25500000920E-02 0. -1.
        2   -1    0    0  501    0  0.00000000000E+00  0.00000000000E+00 -0.74671159849E+03  0.74671159850E+03  0.25500000920E-02 0.  1.
    10030    2    1    2    0    0  0.00000000000E+00  0.00000000000E+00  0.23302859656E+04  0.38237091626E+04  0.30315868912E+04 0.  0.
        1    1    3    3  502    0  0.82001478695E+03  0.11698096963E+04  0.52604017096E+03  0.15223656715E+04  0.50400001928E-02 0.  1.
       -1    1    3    3    0  502 -0.82001478695E+03 -0.11698096963E+04  0.18042457946E+04  0.23013434911E+04  0.50400001928E-02 0. -1.
</event>
<event>
 5   0  0.3497546E-06  0.2769261E+04  0.7818609E-02  0.8312876E-01
        2   -1    0    0  501    0  0.00000000000E+00  0.00000000000E+00  0.14736665968E+04  0.14736665968E+04  0.25500000920E-02 0. -1.
       -2   -1    0    0    0  501  0.00000000000E+00  0.00000000000E+00 -0.13009740933E+04  0.13009740933E+04  0.25500000920E-02 0.  1.
    10030    2    1    2    0    0  0.00000000000E+00  0.00000000000E+00  0.17269250350E+03  0.27746406901E+04  0.27692613199E+04 0.  0.
        4    1    3    3  502    0  0.49408953460E+03  0.55302746137E+03 -0.10852140594E+04  0.13144029097E+04  0.12699999809E+01 0.  1.
       -4    1    3    3    0  502 -0.49408953460E+03 -0.55302746137E+03  0.12579065630E+04  0.14602377804E+04  0.12699999809E+01 0. -1.
</event>
<event>
 5   0  0.1273754E-06  0.3224545E+04  0.7818609E-02  0.8182365E-01
       -1   -1    0    0    0  501  0.00000000000E+00  0.00000000000E+00  0.16403553476E+04  0.16403553476E+04  0.50400001928E-02 0.  1.
        1   -1    0    0  501    0  0.00000000000E+00  0.00000000000E+00 -0.15846699609E+04  0.15846699609E+04  0.50400001928E-02 0. -1.
    10030    2    1    2    0    0  0.00000000000E+00  0.00000000000E+00  0.55685386687E+02  0.32250253085E+04  0.32245445226E+04 0.  0.
        2    1    3    3  502    0 -0.15668291082E+03  0.56800985290E+03 -0.14731265911E+04  0.15865959413E+04  0.25500000920E-02 0. -1.
       -2    1    3    3    0  502  0.15668291082E+03 -0.56800985290E+03  0.15288119778E+04  0.16384293671E+04  0.25500000920E-02 0.  1.
</event>
<event>
 5   0  0.3745943E-06  0.3257909E+04  0.7818609E-02  0.8173689E-01
        2   -1    0    0  501    0  0.00000000000E+00  0.00000000000E+00  0.94701847658E+03  0.94701847658E+03  0.25500000920E-02 0.  1.
       -2   -1    0    0    0  501  0.00000000000E+00  0.00000000000E+00 -0.28019441707E+04  0.28019441707E+04  0.25500000920E-02 0. -1.
    10030    2    1    2    0    0  0.00000000000E+00  0.00000000000E+00 -0.18549256942E+04  0.37489626473E+04  0.32579090841E+04 0.  0.
        5    1    3    3  502    0 -0.20046543780E+03 -0.10435219214E+04  0.49327513146E+03  0.11715232979E+04  0.46999998093E+01 0.  1.
       -5    1    3    3    0  502  0.20046543780E+03  0.10435219214E+04 -0.23482008256E+04  0.25774393494E+04  0.46999998093E+01 0. -1.
</event>
<event>
 5   0  0.1273980E-06  0.3221960E+04  0.7818609E-02  0.8183041E-01
       -1   -1    0    0    0  501  0.00000000000E+00  0.00000000000E+00  0.11904997366E+04  0.11904997366E+04  0.50400001928E-02 0. -1.
        1   -1    0    0  501    0  0.00000000000E+00  0.00000000000E+00 -0.21799727683E+04  0.21799727683E+04  0.50400001928E-02 0.  1.
    10030    2    1    2    0    0  0.00000000000E+00  0.00000000000E+00 -0.98947303169E+03  0.33704725049E+04  0.32219602768E+04 0.  0.
        4    1    3    3  502    0  0.62765565565E+03 -0.41917322421E+03 -0.19835736476E+04  0.21223156792E+04  0.12699999809E+01 0.  1.
       -4    1    3    3    0  502 -0.62765565565E+03  0.41917322421E+03  0.99410061590E+03  0.12481568256E+04  0.12699999809E+01 0. -1.
</event>
<event>
 5   0  0.3531437E-06  0.2380562E+04  0.7818609E-02  0.8446817E-01
       -2   -1    0    0    0  501  0.00000000000E+00  0.00000000000E+00  0.92955911737E+03  0.92955911737E+03  0.25500000920E-02 0.  1.
        2   -1    0    0  501    0  0.00000000000E+00  0.00000000000E+00 -0.15241294694E+04  0.15241294694E+04  0.25500000920E-02 0. -1.
    10030    2    1    2    0    0  0.00000000000E+00  0.00000000000E+00 -0.59457035205E+03  0.24536885868E+04  0.23805616517E+04 0.  0.
        1    1    3    3  502    0 -0.33816939354E+03 -0.43435451438E+03  0.79047486306E+03  0.96326159066E+03  0.50400001928E-02 0.  1.
       -1    1    3    3    0  502  0.33816939354E+03  0.43435451438E+03 -0.13850452151E+04  0.14904269961E+04  0.50400001928E-02 0. -1.
</event>
<event>
 5   0  0.3745943E-06  0.2989607E+04  0.7818609E-02  0.8246705E-01
        2   -1    0    0  501    0  0.00000000000E+00  0.00000000000E+00  0.20266242859E+04  0.20266242859E+04  0.25500000920E-02 0. -1.
       -2   -1    0    0    0  501  0.00000000000E+00  0.00000000000E+00 -0.11025418042E+04  0.11025418042E+04  0.25500000920E-02 0.  1.
    10030    2    1    2    0    0  0.00000000000E+00  0.00000000000E+00  0.92408248176E+03  0.31291660901E+04  0.29896073298E+04 0.  0.
        5    1    3    3  502    0 -0.35989525666E+03  0.18983962714E+03  0.19675358378E+04  0.20091747169E+04  0.46999998093E+01 0. -1.
       -5    1    3    3    0  502  0.35989525666E+03 -0.18983962714E+03 -0.10434533561E+04  0.11199913732E+04  0.46999998093E+01 0.  1.
</event>
<event>
 5   0  0.3758062E-06  0.3143949E+04  0.7818609E-02  0.8203779E-01
        2   -1    0    0  501    0  0.00000000000E+00  0.00000000000E+00  0.18249858641E+04  0.18249858641E+04  0.25500000920E-02 0. -1.
       -2   -1    0    0    0  501  0.00000000000E+00  0.00000000000E+00 -0.13540399252E+04  0.13540399252E+04  0.25500000920E-02 0.  1.
    10030    2    1    2    0    0  0.00000000000E+00  0.00000000000E+00  0.47094593889E+03  0.31790257894E+04  0.31439489328E+04 0.  0.
        2    1    3    3  502    0 -0.66533923416E+03  0.13581588392E+04  0.66901291316E+03  0.16537381918E+04  0.25500000920E-02 0. -1.
       -2    1    3    3    0  502  0.66533923416E+03 -0.13581588392E+04 -0.19806697428E+03  0.15252875976E+04  0.25500000920E-02 0.  1.
</event>
<event>
 5   0  0.1268836E-06  0.2888049E+04  0.7818609E-02  0.8276442E-01
        1   -1    0    0  501    0  0.00000000000E+00  0.00000000000E+00  0.16849614107E+04  0.16849614107E+04  0.50400001928E-02 0.  1.
       -1   -1    0    0    0  501  0.00000000000E+00  0.00000000000E+00 -0.12375394627E+04  0.12375394628E+04  0.50400001928E-02 0. -1.
    10030    2    1    2    0    0  0.00000000000E+00  0.00000000000E+00  0.44742194797E+03  0.29225008735E+04  0.28880486415E+04 0.  0.
        1    1    3    3  502    0  0.72438225682E+03 -0.30213284305E+03 -0.10028509318E+04  0.12734692380E+04  0.50400001928E-02 0. -1.
       -1    1    3    3    0  502 -0.72438225682E+03  0.30213284305E+03  0.14502728798E+04  0.16490316354E+04  0.50400001928E-02 0.  1.
</event>
<event>
 5   0  0.1273980E-06  0.3198933E+04  0.7818609E-02  0.8189099E-01
       -1   -1    0    0    0  501  0.00000000000E+00  0.00000000000E+00  0.91589318001E+03  0.91589318003E+03  0.50400001928E-02 0. -1.
        1   -1    0    0  501    0  0.00000000000E+00  0.00000000000E+00 -0.27932225100E+04  0.27932225100E+04  0.50400001928E-02 0.  1.
    10030    2    1    2    0    0  0.00000000000E+00  0.00000000000E+00 -0.18773293300E+04  0.37091156901E+04  0.31989332267E+04 0.  0.
        4    1    3    3  502    0  0.12494282045E+04  0.99529167468E+03 -0.10329720787E+04  0.19022905362E+04  0.12699999809E+01 0.  1.
       -4    1    3    3    0  502 -0.12494282045E+04 -0.99529167468E+03 -0.84435725136E+03  0.18068251539E+04  0.12699999809E+01 0. -1.
</event>
<event>
 5   0  0.3758062E-06  0.3153272E+04  0.7818609E-02  0.8201268E-01
        2   -1    0    0  501    0  0.00000000000E+00  0.00000000000E+00  0.11900645847E+04  0.11900645847E+04  0.25500000920E-02 0. -1.
       -2   -1    0    0    0  501  0.00000000000E+00  0.00000000000E+00 -0.20887783664E+04  0.20887783664E+04  0.25500000920E-02 0.  1.
    10030    2    1    2    0    0  0.00000000000E+00  0.00000000000E+00 -0.89871378168E+03  0.32788429511E+04  0.31532720524E+04 0.  0.
        2    1    3    3  502    0 -0.63746389221E+03  0.29754567328E+03 -0.19165339768E+04  0.20415670760E+04  0.25500000920E-02 0.  1.
       -2    1    3    3    0  502  0.63746389221E+03 -0.29754567328E+03  0.10178201951E+04  0.12372758751E+04  0.25500000920E-02 0. -1.
</event>
<event>
 5   0  0.3745943E-06  0.3234196E+04  0.7818609E-02  0.8179844E-01
       -2   -1    0    0    0  501  0.00000000000E+00  0.00000000000E+00  0.12153938679E+04  0.12153938679E+04  0.25500000920E-02 0. -1.
        2   -1    0    0  501    0  0.00000000000E+00  0.00000000000E+00 -0.21515707885E+04  0.21515707885E+04  0.25500000920E-02 0.  1.
    10030    2    1    2    0    0  0.00000000000E+00  0.00000000000E+00 -0.93617692058E+03  0.33669646564E+04  0.32341960007E+04 0.  0.
        5    1    3    3  502    0  0.76592851827E+03 -0.13588101153E+04 -0.91218257424E+03  0.18069616939E+04  0.46999998093E+01 0.  1.
       -5    1    3    3    0  502 -0.76592851827E+03  0.13588101153E+04 -0.23994346345E+02  0.15600029625E+04  0.46999998093E+01 0. -1.
</event>
<event>
 5   0  0.1273980E-06  0.3103571E+04  0.7818609E-02  0.8214758E-01
       -1   -1    0    0    0  501  0.00000000000E+00  0.00000000000E+00  0.12508654637E+04  0.12508654637E+04  0.50400001928E-02 0.  1.
        1   -1    0    0  501    0  0.00000000000E+00  0.00000000000E+00 -0.19250980589E+04  0.19250980589E+04  0.50400001928E-02 0. -1.
    10030    2    1    2    0    0  0.00000000000E+00  0.00000000000E+00 -0.67423259519E+03  0.31759635227E+04  0.31035712824E+04 0.  0.
        4    1    3    3  502    0  0.56998687298E+03 -0.14412374947E+04 -0.25793899507E+03  0.15711730298E+04  0.12699999809E+01 0. -1.
       -4    1    3    3    0  502 -0.56998687298E+03  0.14412374947E+04 -0.41629360012E+03  0.16047904928E+04  0.12699999809E+01 0.  1.
</event>
<event>
 5   0  0.1273754E-06  0.3061422E+04  0.7818609E-02  0.8226406E-01
        1   -1    0    0  501    0  0.00000000000E+00  0.00000000000E+00  0.84210593706E+03  0.84210593707E+03  0.50400001928E-02 0.  1.
       -1   -1    0    0    0  501  0.00000000000E+00  0.00000000000E+00 -0.27824009248E+04  0.27824009248E+04  0.50400001928E-02 0. -1.
    10030    2    1    2    0    0  0.00000000000E+00  0.00000000000E+00 -0.19402949878E+04  0.36245068619E+04  0.30614221128E+04 0.  0.
        2    1    3    3  502    0 -0.51103382032E+03 -0.81050566579E+03  0.44314921493E+03  0.10556780885E+04  0.25500000920E-02 0.  1.
       -2    1    3    3    0  502  0.51103382032E+03  0.81050566579E+03 -0.23834442027E+04  0.25688287734E+04  0.25500000920E-02 0. -1.
</event>
<event>
 5   0  0.3497546E-06  0.3168850E+04  0.7818609E-02  0.8197093E-01
       -2   -1    0    0    0  501  0.00000000000E+00  0.00000000000E+00  0.12564415244E+04  0.12564415244E+04  0.25500000920E-02 0.  1.
        2   -1    0    0  501    0  0.00000000000E+00  0.00000000000E+00 -0.19980255050E+04  0.19980255050E+04  0.25500000920E-02 0. -1.
    10030    2    1    2    0    0  0.00000000000E+00  0.00000000000E+00 -0.74158398057E+03  0.32544670294E+04  0.31688497669E+04 0.  0.
        4    1    3    3  502    0  0.89044756506E+03  0.10015229278E+04 -0.12388841531E+04  0.18250426293E+04  0.12699999809E+01 0. -1.
       -4    1    3    3    0  502 -0.89044756506E+03 -0.10015229278E+04  0.49730017254E+03  0.14294244001E+04  0.12699999809E+01 0.  1.
</event>
<event>
 5   0  0.1185575E-06  0.3276324E+04  0.7818609E-02  0.8168946E-01
       -3   -1    0    0    0  501  0.00000000000E+00  0.00000000000E+00  0.14838904373E+04  0.14838904407E+04  0.10100000352E+00 0. -1.
        3   -1    0    0  501    0  0.00000000000E+00  0.00000000000E+00 -0.18084725188E+04  0.18084725216E+04  0.10100000352E+00 0.  1.
    10030    2    1    2    0    0  0.00000000000E+00  0.00000000000E+00 -0.32458208150E+03  0.32923629623E+04  0.32763242129E+04 0.  0.
        2    1    3    3  502    0 -0.86377971866E+03  0.10768022966E+04 -0.10486272515E+04  0.17335621423E+04  0.25500000920E-02 0. -1.
       -2    1    3    3    0  502  0.86377971866E+03 -0.10768022966E+04  0.72404517005E+03  0.15588008201E+04  0.25500000920E-02 0.  1.
</event>
<event>
 5   0  0.3497546E-06  0.3124491E+04  0.7818609E-02  0.8209049E-01
       -2   -1    0    0    0  501  0.00000000000E+00  0.00000000000E+00  0.12716894382E+04  0.12716894382E+04  0.25500000920E-02 0. -1.
        2   -1    0    0  501    0  0.00000000000E+00  0.00000000000E+00 -0.19191876556E+04  0.19191876556E+04  0.25500000920E-02 0.  1.
    10030    2    1    2    0    0  0.00000000000E+00  0.00000000000E+00 -0.64749821734E+03  0.31908770938E+04  0.31244907883E+04 0.  0.
        4    1    3    3  502    0 -0.62389478228E+02  0.13532491787E+04 -0.11183773023E+04  0.17566858541E+04  0.12699999809E+01 0.  1.
       -4    1    3    3    0  502  0.62389478228E+02 -0.13532491787E+04  0.47087908500E+03  0.14341912397E+04  0.12699999809E+01 0. -1.
</event>
<event>
 5   0  0.3497546E-06  0.3113344E+04  0.7818609E-02  0.8212085E-01
       -2   -1    0    0    0  501  0.00000000000E+00  0.00000000000E+00  0.14709235588E+04  0.14709235588E+04  0.25500000920E-02 0.  1.
        2   -1    0    0  501    0  0.00000000000E+00  0.00000000000E+00 -0.16474188712E+04  0.16474188712E+04  0.25500000920E-02 0. -1.
    10030    2    1    2    0    0  0.00000000000E+00  0.00000000000E+00 -0.17649531245E+03  0.31183424300E+04  0.31133436873E+04 0.  0.
        4    1    3    3  502    0  0.12477510360E+04 -0.12245397771E+02 -0.10204368789E+04  0.16119322673E+04  0.12699999809E+01 0. -1.
       -4    1    3    3    0  502 -0.12477510360E+04  0.12245397771E+02  0.84394156642E+03  0.15064101627E+04  0.12699999809E+01 0.  1.
</event>
<event>
 5   0  0.3656086E-06  0.3162652E+04  0.7818609E-02  0.8198751E-01
       -2   -1    0    0    0  501  0.00000000000E+00  0.00000000000E+00  0.88782568450E+03  0.88782568451E+03  0.25500000920E-02 0.  1.
        2   -1    0    0  501    0  0.00000000000E+00  0.00000000000E+00 -0.28165340563E+04  0.28165340563E+04  0.25500000920E-02 0. -1.
    10030    2    1    2    0    0  0.00000000000E+00  0.00000000000E+00 -0.19287083718E+04  0.37043597408E+04  0.31626515941E+04 0.  0.
        3    1    3    3  502    0  0.24406028965E+03 -0.33549107894E+03  0.82294507012E+03  0.92160636265E+03  0.10100000352E+00 0.  1.
       -3    1    3    3    0  502 -0.24406028965E+03  0.33549107894E+03 -0.27516534419E+04  0.27827533781E+04  0.10100000352E+00 0. -1.
</event>
<event>
 5   0  0.1273754E-06  0.2928385E+04  0.7818609E-02  0.8264482E-01
       -1   -1    0    0    0  501  0.00000000000E+00  0.00000000000E+00  0.11760402008E+04  0.11760402008E+04  0.50400001928E-02 0. -1.
        1   -1    0    0  501    0  0.00000000000E+00  0.00000000000E+00 -0.18229470033E+04  0.18229470033E+04  0.50400001928E-02 0.  1.
    10030    2    1    2    0    0  0.00000000000E+00  0.00000000000E+00 -0.64690680256E+03  0.29989872041E+04  0.29283845101E+04 0.  0.
        2    1    3    3  502    0 -0.36379778461E+02  0.13031593502E+04  0.35918408313E+03  0.13522429463E+04  0.25500000920E-02 0.  1.
       -2    1    3    3    0  502  0.36379778461E+02 -0.13031593502E+04 -0.10060908857E+04  0.16467442578E+04  0.25500000920E-02 0. -1.
</event>
<event>
 5   0  0.1268836E-06  0.3155058E+04  0.7818609E-02  0.8200788E-01
        1   -1    0    0  501    0  0.00000000000E+00  0.00000000000E+00  0.15754859274E+04  0.15754859274E+04  0.50400001928E-02 0.  1.
       -1   -1    0    0    0  501  0.00000000000E+00  0.00000000000E+00 -0.15795746386E+04  0.15795746387E+04  0.50400001928E-02 0. -1.
    10030    2    1    2    0    0  0.00000000000E+00  0.00000000000E+00 -0.40887112600E+01  0.31550605660E+04  0.31550579167E+04 0.  0.
        1    1    3    3  502    0 -0.99626717481E+03 -0.40575088338E+03 -0.11559151402E+04  0.15790256091E+04  0.50400001928E-02 0. -1.
       -1    1    3    3    0  502  0.99626717481E+03  0.40575088338E+03  0.11518264289E+04  0.15760349569E+04  0.50400001928E-02 0.  1.
</event>
<event>
 5   0  0.1306843E-06  0.3235343E+04  0.7818609E-02  0.8179545E-01
        1   -1    0    0  501    0  0.00000000000E+00  0.00000000000E+00  0.14063693007E+04  0.14063693007E+04  0.50400001928E-02 0. -1.
       -1   -1    0    0    0  501  0.00000000000E+00  0.00000000000E+00 -0.18607213378E+04  0.18607213378E+04  0.50400001928E-02 0.  1.
    10030    2    1    2    0    0  0.00000000000E+00  0.00000000000E+00 -0.45435203710E+03  0.32670906384E+04  0.32353431759E+04 0.  0.
        5    1    3    3  502    0 -0.46857183283E+03  0.53021604608E+03  0.12417980240E+04  0.14292561144E+04  0.46999998093E+01 0. -1.
       -5    1    3    3    0  502  0.46857183283E+03 -0.53021604608E+03 -0.16961500611E+04  0.18378345241E+04  0.46999998093E+01 0.  1.
</event>
<event>
 5   0  0.3531437E-06  0.2526510E+04  0.7818609E-02  0.8393602E-01
       -2   -1    0    0    0  501  0.00000000000E+00  0.00000000000E+00  0.84147819365E+03  0.84147819366E+03  0.25500000920E-02 0.  1.
        2   -1    0    0  501    0  0.00000000000E+00  0.00000000000E+00 -0.18964405884E+04  0.18964405884E+04  0.25500000920E-02 0. -1.
    10030    2    1    2    0    0  0.00000000000E+00  0.00000000000E+00 -0.10549623948E+04  0.27379187821E+04  0.25265101628E+04 0.  0.
        1    1    3    3  502    0 -0.17397448727E+03 -0.17511566310E+03  0.81508848511E+03  0.85164655595E+03  0.50400001928E-02 0.  1.
       -1    1    3    3    0  502  0.17397448727E+03  0.17511566310E+03 -0.18700508799E+04  0.18862722261E+04  0.50400001928E-02 0. -1.
</event>
<event>
 5   0  0.3745943E-06  0.3126472E+04  0.7818609E-02  0.8208510E-01
       -2   -1    0    0    0  501  0.00000000000E+00  0.00000000000E+00  0.11834433812E+04  0.11834433812E+04  0.25500000920E-02 0. -1.
        2   -1    0    0  501    0  0.00000000000E+00  0.00000000000E+00 -0.20649123302E+04  0.20649123302E+04  0.25500000920E-02 0.  1.
    10030    2    1    2    0    0  0.00000000000E+00  0.00000000000E+00 -0.88146894903E+03  0.32483557114E+04  0.31264720244E+04 0.  0.
        5    1    3    3  502    0 -0.51281292298E+03  0.14677623076E+04 -0.60949015509E+03  0.16699711448E+04  0.46999998093E+01 0. -1.
       -5    1    3    3    0  502  0.51281292298E+03 -0.14677623076E+04 -0.27197879394E+03  0.15783845665E+04  0.46999998093E+01 0.  1.
</event>
<event>
 5   0  0.3497546E-06  0.3174371E+04  0.7818609E-02  0.8195619E-01
        2   -1    0    0  501    0  0.00000000000E+00  0.00000000000E+00  0.20968347979E+04  0.20968347979E+04  0.25500000920E-02 0.  1.
       -2   -1    0    0    0  501  0.00000000000E+00  0.00000000000E+00 -0.12014100465E+04  0.12014100465E+04  0.25500000920E-02 0. -1.
    10030    2    1    2    0    0  0.00000000000E+00  0.00000000000E+00  0.89542475144E+03  0.32982448444E+04  0.31743713659E+04 0.  0.
        4    1    3    3  502    0  0.14871879461E+04  0.53866816510E+03  0.58423778310E+03  0.16861870535E+04  0.12699999809E+01 0. -1.
       -4    1    3    3    0  502 -0.14871879461E+04 -0.53866816510E+03  0.31118696833E+03  0.16120577910E+04  0.12699999809E+01 0.  1.
</event>
<event>
 5   0  0.1306843E-06  0.3032743E+04  0.7818609E-02  0.8234442E-01
       -1   -1    0    0    0  501  0.00000000000E+00  0.00000000000E+00  0.11956496742E+04  0.11956496742E+04  0.50400001928E-02 0. -1.
        1   -1    0    0  501    0  0.00000000000E+00  0.00000000000E+00 -0.19231240337E+04  0.19231240337E+04  0.50400001928E-02 0.  1.
    10030    2    1    2    0    0  0.00000000000E+00  0.00000000000E+00 -0.72747435949E+03  0.31187737079E+04  0.30327430648E+04 0.  0.
        5    1    3    3  502    0 -0.72855261455E+00  0.34355756774E+03  0.11550913738E+04  0.12051101630E+04  0.46999998093E+01 0. -1.
       -5    1    3    3    0  502  0.72855261455E+00 -0.34355756774E+03 -0.18825657333E+04  0.19136635449E+04  0.46999998093E+01 0.  1.
</event>
<event>
 5   0  0.1268836E-06  0.2542233E+04  0.7818609E-02  0.8388092E-01
       -1   -1    0    0    0  501  0.00000000000E+00  0.00000000000E+00  0.10682272904E+04  0.10682272904E+04  0.50400001928E-02 0.  1.
        1   -1    0    0  501    0  0.00000000000E+00  0.00000000000E+00 -0.15125404494E+04  0.15125404494E+04  0.50400001928E-02 0. -1.
    10030    2    1    2    0    0  0.00000000000E+00  0.00000000000E+00 -0.44431315900E+03  0.25807677398E+04  0.25422328657E+04 0.  0.
        1    1    3    3  502    0 -0.25229791529E+02 -0.33731966643E+03  0.10216980658E+04  0.10762379093E+04  0.50400001928E-02 0.  1.
       -1    1    3    3    0  502  0.25229791529E+02  0.33731966643E+03 -0.14660112248E+04  0.15045298305E+04  0.50400001928E-02 0. -1.
</event>
<event>
 5   0  0.1273754E-06  0.2897834E+04  0.7818609E-02  0.8273522E-01
       -1   -1    0    0    0  501  0.00000000000E+00  0.00000000000E+00  0.13290361135E+04  0.13290361135E+04  0.50400001928E-02 0.  1.
        1   -1    0    0  501    0  0.00000000000E+00  0.00000000000E+00 -0.15796117211E+04  0.15796117211E+04  0.50400001928E-02 0. -1.
    10030    2    1    2    0    0  0.00000000000E+00  0.00000000000E+00 -0.25057560768E+03  0.29086478346E+04  0.28978343794E+04 0.  0.
        2    1    3    3  502    0  0.11347969223E+04 -0.26969318436E+03  0.73749088659E+03  0.13799968393E+04  0.25500000920E-02 0.  1.
       -2    1    3    3    0  502 -0.11347969223E+04  0.26969318436E+03 -0.98806649426E+03  0.15286509954E+04  0.25500000920E-02 0. -1.
</event>
<event>
 5   0  0.1273754E-06  0.2838408E+04  0.7818609E-02  0.8291442E-01
       -1   -1    0    0    0  501  0.00000000000E+00  0.00000000000E+00  0.10376133316E+04  0.10376133316E+04  0.50400001928E-02 0. -1.
        1   -1    0    0  501    0  0.00000000000E+00  0.00000000000E+00 -0.19411276326E+04  0.19411276326E+04  0.50400001928E-02 0.  1.
    10030    2    1    2    0    0  0.00000000000E+00  0.00000000000E+00 -0.90351430106E+03  0.29787409642E+04  0.28384079411E+04 0.  0.
        2    1    3    3  502    0  0.56399803867E+01  0.88246045786E+03  0.71466763247E+03  0.11355695020E+04  0.25500000920E-02 0. -1.
       -2    1    3    3    0  502 -0.56399803867E+01 -0.88246045786E+03 -0.16181819335E+04  0.18431714622E+04  0.25500000920E-02 0.  1.
</event>
<event>
 5   0  0.1306843E-06  0.2527870E+04  0.7818609E-02  0.8393124E-01
        1   -1    0    0  501    0  0.00000000000E+00  0.00000000000E+00  0.59200956348E+03  0.59200956350E+03  0.50400001928E-02 0. -1.
       -1   -1    0    0    0  501  0.00000000000E+00  0.00000000000E+00 -0.26984894122E+04  0.26984894122E+04  0.50400001928E-02 0.  1.
    10030    2    1    2    0    0  0.00000000000E+00  0.00000000000E+00 -0.21064798487E+04  0.32904989757E+04  0.25278698851E+04 0.  0.
        5    1    3    3  502    0 -0.21932784734E+03 -0.78241267613E+03 -0.23134162820E+04  0.24519770154E+04  0.46999998093E+01 0.  1.
       -5    1    3    3    0  502  0.21932784734E+03  0.78241267613E+03  0.20693643330E+03  0.83852196024E+03  0.46999998093E+01 0. -1.
</event>
<event>
 5   0  0.3531437E-06  0.3116767E+04  0.7818609E-02  0.8211151E-01
       -2   -1    0    0    0  501  0.00000000000E+00  0.00000000000E+00  0.81658909695E+03  0.81658909695E+03  0.25500000920E-02 0.  1.
        2   -1    0    0  501    0  0.00000000000E+00  0.00000000000E+00 -0.29740285854E+04  0.29740285854E+04  0.25500000920E-02 0. -1.
    10030    2    1    2    0    0  0.00000000000E+00  0.00000000000E+00 -0.21574394885E+04  0.37906176824E+04  0.31167671179E+04 0.  0.
        1    1    3    3  502    0  0.76822189869E+03 -0.58836565963E+03  0.40694938766E+03  0.10497365571E+04  0.50400001928E-02 0.  1.
       -1    1    3    3    0  502 -0.76822189869E+03  0.58836565963E+03 -0.25643888761E+04  0.27408811253E+04  0.50400001928E-02 0. -1.
</event>
<event>
 5   0  0.1273980E-06  0.3239703E+04  0.7818609E-02  0.8178410E-01
        1   -1    0    0  501    0  0.00000000000E+00  0.00000000000E+00  0.22239830841E+04  0.22239830841E+04  0.50400001928E-02 0. -1.
       -1   -1    0    0    0  501  0.00000000000E+00  0.00000000000E+00 -0.11798283701E+04  0.11798283701E+04  0.50400001928E-02 0.  1.
    10030    2    1    2    0    0  0.00000000000E+00  0.00000000000E+00  0.10441547140E+04  0.34038114542E+04  0.32397026637E+04 0.  0.
        4    1    3    3  502    0  0.80512016772E+03  0.13767866176E+04  0.22461592656E+03  0.16106563265E+04  0.12699999809E+01 0. -1.
       -4    1    3    3    0  502 -0.80512016772E+03 -0.13767866176E+04  0.81953878748E+03  0.17931551277E+04  0.12699999809E+01 0.  1.
</event>
<event>
 5   0  0.1268836E-06  0.3157957E+04  0.7818609E-02  0.8200010E-01
        1   -1    0    0  501    0  0.00000000000E+00  0.00000000000E+00  0.17494624373E+04  0.17494624373E+04  0.50400001928E-02 0.  1.
       -1   -1    0    0    0  501  0.00000000000E+00  0.00000000000E+00 -0.14251079437E+04  0.14251079437E+04  0.50400001928E-02 0. -1.
    10030    2    1    2    0    0  0.00000000000E+00  0.00000000000E+00  0.32435449363E+03  0.31745703810E+04  0.31579568183E+04 0.  0.
        1    1    3    3  502    0 -0.12462895109E+04  0.23008643472E+03  0.11089363334E+04  0.16840181424E+04  0.50400001928E-02 0.  1.
       -1    1    3    3    0  502  0.12462895109E+04 -0.23008643472E+03 -0.78458183979E+03  0.14905522385E+04  0.50400001928E-02 0. -1.
</event>
<event>
 5   0  0.3497546E-06  0.3260948E+04  0.7818609E-02  0.8172904E-01
       -2   -1    0    0    0  501  0.00000000000E+00  0.00000000000E+00  0.14849861606E+04  0.14849861606E+04  0.25500000920E-02 0. -1.
        2   -1    0    0  501    0  0.00000000000E+00  0.00000000000E+00 -0.17902160595E+04  0.17902160595E+04  0.25500000920E-02 0.  1.
    10030    2    1    2    0    0  0.00000000000E+00  0.00000000000E+00 -0.30522989887E+03  0.32752022200E+04  0.32609483729E+04 0.  0.
        4    1    3    3  502    0 -0.10648324271E+04 -0.41659229127E+03 -0.13200325775E+04  0.17463976791E+04  0.12699999809E+01 0. -1.
       -4    1    3    3    0  502  0.10648324271E+04  0.41659229127E+03  0.10148026786E+04  0.15288045409E+04  0.12699999809E+01 0.  1.
</event>
<event>
 5   0  0.1306843E-06  0.3120162E+04  0.7818609E-02  0.8210226E-01
        1   -1    0    0  501    0  0.00000000000E+00  0.00000000000E+00  0.14078658969E+04  0.14078658969E+04  0.50400001928E-02 0.  1.
       -1   -1    0    0    0  501  0.00000000000E+00  0.00000000000E+00 -0.17287533229E+04  0.17287533229E+04  0.50400001928E-02 0. -1.
    10030    2    1    2    0    0  0.00000000000E+00  0.00000000000E+00 -0.32088742598E+03  0.31366192198E+04  0.31201620775E+04 0.  0.
        5    1    3    3  502    0  0.12399774170E+03 -0.70204383718E+03  0.12345316258E+04  0.14255986162E+04  0.46999998093E+01 0.  1.
       -5    1    3    3    0  502 -0.12399774170E+03  0.70204383718E+03 -0.15554190518E+04  0.17110206036E+04  0.46999998093E+01 0. -1.
</event>
<event>
 5   0  0.1306843E-06  0.3152433E+04  0.7818609E-02  0.8201494E-01
        1   -1    0    0  501    0  0.00000000000E+00  0.00000000000E+00  0.20453951631E+04  0.20453951631E+04  0.50400001928E-02 0. -1.
       -1   -1    0    0    0  501  0.00000000000E+00  0.00000000000E+00 -0.12146594124E+04  0.12146594125E+04  0.50400001928E-02 0.  1.
    10030    2    1    2    0    0  0.00000000000E+00  0.00000000000E+00  0.83073575065E+03  0.32600545755E+04  0.31524330204E+04 0.  0.
        5    1    3    3  502    0 -0.31792866952E+03 -0.41949235753E+03 -0.11210803845E+04  0.12385054685E+04  0.46999998093E+01 0.  1.
       -5    1    3    3    0  502  0.31792866952E+03  0.41949235753E+03  0.19518161351E+04  0.20215491071E+04  0.46999998093E+01 0. -1.
</event>
<event>
 5   0  0.1273754E-06  0.2982990E+04  0.7818609E-02  0.8248605E-01
        1   -1    0    0  501    0  0.00000000000E+00  0.00000000000E+00  0.13619070973E+04  0.13619070973E+04  0.50400001928E-02 0.  1.
       -1   -1    0    0    0  501  0.00000000000E+00  0.00000000000E+00 -0.16334136038E+04  0.16334136038E+04  0.50400001928E-02 0. -1.
    10030    2    1    2    0    0  0.00000000000E+00  0.00000000000E+00 -0.27150650650E+03  0.29953207012E+04  0.29829901642E+04 0.  0.
        2    1    3    3  502    0 -0.13753090185E+04 -0.37689472111E+03 -0.57463322744E+03  0.15374419902E+04  0.25500000920E-02 0. -1.
       -2    1    3    3    0  502  0.13753090185E+04  0.37689472111E+03  0.30312672094E+03  0.14578787110E+04  0.25500000920E-02 0.  1.
</event>
<event>
 5   0  0.3531437E-06  0.3034068E+04  0.7818609E-02  0.8234069E-01
        2   -1    0    0  501    0  0.00000000000E+00  0.00000000000E+00  0.18597362357E+04  0.18597362357E+04  0.25500000920E-02 0. -1.
       -2   -1    0    0    0  501  0.00000000000E+00  0.00000000000E+00 -0.12374830068E+04  0.12374830069E+04  0.25500000920E-02 0.  1.
    10030    2    1    2    0    0  0.00000000000E+00  0.00000000000E+00  0.62225322880E+03  0.30972192425E+04  0.30340678891E+04 0.  0.
        1    1    3    3  502    0  0.76785747860E+03  0.29045994537E+03 -0.99112968211E+03  0.12869771304E+04  0.50400001928E-02 0.  1.
       -1    1    3    3    0  502 -0.76785747860E+03 -0.29045994537E+03  0.16133829109E+04  0.18102421121E+04  0.50400001928E-02 0. -1.
</event>
<event>
 5   0  0.1273980E-06  0.3184284E+04  0.7818609E-02  0.8192980E-01
        1   -1    0    0  501    0  0.00000000000E+00  0.00000000000E+00  0.30255550910E+04  0.30255550910E+04  0.50400001928E-02 0. -1.
       -1   -1    0    0    0  501  0.00000000000E+00  0.00000000000E+00 -0.83783487500E+03  0.83783487502E+03  0.50400001928E-02 0.  1.
    10030    2    1    2    0    0  0.00000000000E+00  0.00000000000E+00  0.21877202160E+04  0.38633899660E+04  0.31842836378E+04 0.  0.
        4    1    3    3  502    0 -0.20769058179E+03 -0.14648500948E+04  0.18075184074E+04  0.23358179689E+04  0.12699999809E+01 0. -1.
       -4    1    3    3    0  502  0.20769058179E+03  0.14648500948E+04  0.38020180862E+03  0.15275719971E+04  0.12699999809E+01 0.  1.
</event>
<event>
 5   0  0.3531437E-06  0.3256338E+04  0.7818609E-02  0.8174095E-01
       -2   -1    0    0    0  501  0.00000000000E+00  0.00000000000E+00  0.13039196237E+04  0.13039196237E+04  0.25500000920E-02 0.  1.
        2   -1    0    0  501    0  0.00000000000E+00  0.00000000000E+00 -0.20330498102E+04  0.20330498102E+04  0.25500000920E-02 0. -1.
    10030    2    1    2    0    0  0.00000000000E+00  0.00000000000E+00 -0.72913018646E+03  0.33369694339E+04  0.32563375399E+04 0.  0.
        1    1    3    3  502    0  0.13370555748E+04 -0.51608405302E+03  0.42714074275E+03  0.14954964307E+04  0.50400001928E-02 0.  1.
       -1    1    3    3    0  502 -0.13370555748E+04  0.51608405302E+03 -0.11562709292E+04  0.18414730033E+04  0.50400001928E-02 0. -1.
</event>
<event>
 5   0  0.3656086E-06  0.3055642E+04  0.7818609E-02  0.8228018E-01
        2   -1    0    0  501    0  0.00000000000E+00  0.00000000000E+00  0.18831481642E+04  0.18831481642E+04  0.25500000920E-02 0.  1.
       -2   -1    0    0    0  501  0.00000000000E+00  0.00000000000E+00 -0.12395398574E+04  0.12395398574E+04  0.25500000920E-02 0. -1.
    10030    2    1    2    0    0  0.00000000000E+00  0.00000000000E+00  0.64360830679E+03  0.31226880215E+04  0.30556421301E+04 0.  0.
        3    1    3    3  502    0  0.31571717192E+03  0.39318096903E+03  0.17956582616E+04  0.18651158703E+04  0.10100000352E+00 0.  1.
       -3    1    3    3    0  502 -0.31571717192E+03 -0.39318096903E+03 -0.11520499548E+04  0.12575721512E+04  0.10100000352E+00 0. -1.
</event>
<event>
 5   0  0.3656086E-06  0.3214873E+04  0.7818609E-02  0.8184900E-01
       -2   -1    0    0    0  501  0.00000000000E+00  0.00000000000E+00  0.12598216973E+04  0.12598216973E+04  0.25500000920E-02 0. -1.
        2   -1    0    0  501    0  0.00000000000E+00  0.00000000000E+00 -0.20509665166E+04  0.20509665166E+04  0.25500000920E-02 0.  1.
    10030    2    1    2    0    0  0.00000000000E+00  0.00000000000E+00 -0.79114481938E+03  0.33107882139E+04  0.32148730103E+04 0.  0.
        3    1    3    3  502    0  0.77048692979E+03 -0.69056990909E+03  0.87129824043E+03  0.13526631296E+04  0.10100000352E+00 0. -1.
       -3    1    3    3    0  502 -0.77048692979E+03  0.69056990909E+03 -0.16624430598E+04  0.19581250843E+04  0.10100000352E+00 0.  1.
</event>
<event>
 5   0  0.1268836E-06  0.3226023E+04  0.7818609E-02  0.8181978E-01
        1   -1    0    0  501    0  0.00000000000E+00  0.00000000000E+00  0.16199412570E+04  0.16199412570E+04  0.50400001928E-02 0. -1.
       -1   -1    0    0    0  501  0.00000000000E+00  0.00000000000E+00 -0.16061112452E+04  0.16061112452E+04  0.50400001928E-02 0.  1.
    10030    2    1    2    0    0  0.00000000000E+00  0.00000000000E+00  0.13830011821E+02  0.32260525023E+04  0.32260228577E+04 0.  0.
        1    1    3    3  502    0  0.12695092649E+04  0.19825722757E+02  0.10017904890E+04  0.16172912591E+04  0.50400001928E-02 0. -1.
       -1    1    3    3    0  502 -0.12695092649E+04 -0.19825722757E+02 -0.98796047718E+03  0.16087612432E+04  0.50400001928E-02 0.  1.
</event>
<event>
 5   0  0.1306843E-06  0.3237567E+04  0.7818609E-02  0.8178966E-01
       -1   -1    0    0    0  501  0.00000000000E+00  0.00000000000E+00  0.17396713141E+04  0.17396713141E+04  0.50400001928E-02 0.  1.
        1   -1    0    0  501    0  0.00000000000E+00  0.00000000000E+00 -0.15062963982E+04  0.15062963982E+04  0.50400001928E-02 0. -1.
    10030    2    1    2    0    0  0.00000000000E+00  0.00000000000E+00  0.23337491587E+03  0.32459677123E+04  0.32375673797E+04 0.  0.
        5    1    3    3  502    0  0.88438343150E+03  0.54046313089E+03 -0.11300034421E+04  0.15333506836E+04  0.46999998093E+01 0. -1.
       -5    1    3    3    0  502 -0.88438343150E+03 -0.54046313089E+03  0.13633783580E+04  0.17126170286E+04  0.46999998093E+01 0.  1.
</event>
<event>
 5   0  0.3656086E-06  0.3132434E+04  0.7818609E-02  0.8206893E-01
       -2   -1    0    0    0  501  0.00000000000E+00  0.00000000000E+00  0.98893051099E+03  0.98893051099E+03  0.25500000920E-02 0. -1.
        2   -1    0    0  501    0  0.00000000000E+00  0.00000000000E+00 -0.24804930971E+04  0.24804930971E+04  0.25500000920E-02 0.  1.
    10030    2    1    2    0    0  0.00000000000E+00  0.00000000000E+00 -0.14915625861E+04  0.34694236081E+04  0.31324337542E+04 0.  0.
        3    1    3    3  502    0 -0.68385187598E+03  0.82387784586E+02  0.81216971200E+03  0.10649229017E+04  0.10100000352E+00 0. -1.
       -3    1    3    3    0  502  0.68385187598E+03 -0.82387784586E+02 -0.23037322981E+04  0.24045007064E+04  0.10100000352E+00 0.  1.
</event>
<event>
 5   0  0.1306843E-06  0.3181597E+04  0.7818609E-02  0.8193694E-01
        1   -1    0    0  501    0  0.00000000000E+00  0.00000000000E+00  0.14348877489E+04  0.14348877489E+04  0.50400001928E-02 0.  1.
       -1   -1    0    0    0  501  0.00000000000E+00  0.00000000000E+00 -0.17636504674E+04  0.17636504674E+04  0.50400001928E-02 0. -1.
    10030    2    1    2    0    0  0.00000000000E+00  0.00000000000E+00 -0.32876271848E+03  0.31985382163E+04  0.31815973655E+04 0.  0.
        5    1    3    3  502    0 -0.12135179059E+04 -0.29316983800E+03  0.82679128977E+03  0.14973911275E+04  0.46999998093E+01 0.  1.
       -5    1    3    3    0  502  0.12135179059E+04  0.29316983800E+03 -0.11555540083E+04  0.17011470888E+04  0.46999998093E+01 0. -1.
</event>
<event>
 5   0  0.3758062E-06  0.3137806E+04  0.7818609E-02  0.8205438E-01
       -2   -1    0    0    0  501  0.00000000000E+00  0.00000000000E+00  0.15112068524E+04  0.15112068524E+04  0.25500000920E-02 0.  1.
        2   -1    0    0  501    0  0.00000000000E+00  0.00000000000E+00 -0.16288022468E+04  0.16288022468E+04  0.25500000920E-02 0. -1.
    10030    2    1    2    0    0  0.00000000000E+00  0.00000000000E+00 -0.11759539437E+03  0.31400090992E+04  0.31378063143E+04 0.  0.
        2    1    3    3  502    0 -0.17002394582E+03  0.66911794758E+03  0.13510313290E+04  0.15172055305E+04  0.25500000920E-02 0.  1.
       -2    1    3    3    0  502  0.17002394582E+03 -0.66911794758E+03 -0.14686267234E+04  0.16228035687E+04  0.25500000920E-02 0. -1.
</event>
<event>
 5   0  0.1240725E-06  0.2791669E+04  0.7818609E-02  0.8305860E-01
        1   -1    0    0  501    0  0.00000000000E+00  0.00000000000E+00  0.10092786763E+04  0.10092786763E+04  0.50400001928E-02 0. -1.
       -1   -1    0    0    0  501  0.00000000000E+00  0.00000000000E+00 -0.19304414468E+04  0.19304414468E+04  0.50400001928E-02 0.  1.
    10030    2    1    2    0    0  0.00000000000E+00  0.00000000000E+00 -0.92116277050E+03  0.29397201231E+04  0.27916685964E+04 0.  0.
        3    1    3    3  502    0 -0.64975479827E+03 -0.96948702338E+03 -0.12668687341E+04  0.17225106055E+04  0.10100000352E+00 0.  1.
       -3    1    3    3    0  502  0.64975479827E+03  0.96948702338E+03  0.34570596357E+03  0.12172095176E+04  0.10100000352E+00 0. -1.
</event>
<event>
 5   0  0.1268836E-06  0.3203661E+04  0.7818609E-02  0.8187851E-01
        1   -1    0    0  501    0  0.00000000000E+00  0.00000000000E+00  0.14813268475E+04  0.14813268475E+04  0.50400001928E-02 0.  1.
       -1   -1    0    0    0  501  0.00000000000E+00  0.00000000000E+00 -0.17321371269E+04  0.17321371269E+04  0.50400001928E-02 0. -1.
    10030    2    1    2    0    0  0.00000000000E+00  0.00000000000E+00 -0.25081027939E+03  0.32134639745E+04  0.32036611742E+04 0.  0.
        1    1    3    3  502    0  0.54151860320E+03 -0.45056431613E+03  0.13176109735E+04  0.14941048418E+04  0.50400001928E-02 0.  1.
       -1    1    3    3    0  502 -0.54151860320E+03  0.45056431613E+03 -0.15684212529E+04  0.17193591327E+04  0.50400001928E-02 0. -1.
</event>
<event>
 5   0  0.1273980E-06  0.3192570E+04  0.7818609E-02  0.8190782E-01
        1   -1    0    0  501    0  0.00000000000E+00  0.00000000000E+00  0.14711995839E+04  0.14711995839E+04  0.50400001928E-02 0. -1.
       -1   -1    0    0    0  501  0.00000000000E+00  0.00000000000E+00 -0.17320050660E+04  0.17320050660E+04  0.50400001928E-02 0.  1.
    10030    2    1    2    0    0  0.00000000000E+00  0.00000000000E+00 -0.26080548213E+03  0.32032046499E+04  0.31925695810E+04 0.  0.
        4    1    3    3  502    0 -0.30511437092E+03 -0.10131617802E+04 -0.13295963175E+04  0.16992408754E+04  0.12699999809E+01 0.  1.
       -4    1    3    3    0  502  0.30511437092E+03  0.10131617802E+04  0.10687908354E+04  0.15039637745E+04  0.12699999809E+01 0. -1.
</event>
<event>
 5   0  0.3497546E-06  0.3123318E+04  0.7818609E-02  0.8209367E-01
       -2   -1    0    0    0  501  0.00000000000E+00  0.00000000000E+00  0.12321117774E+04  0.12321117774E+04  0.25500000920E-02 0. -1.
        2   -1    0    0  501    0  0.00000000000E+00  0.00000000000E+00 -0.19793487099E+04  0.19793487099E+04  0.25500000920E-02 0.  1.
    10030    2    1    2    0    0  0.00000000000E+00  0.00000000000E+00 -0.74723693256E+03  0.32114604873E+04  0.31233180159E+04 0.  0.
        4    1    3    3  502    0  0.14874837421E+04 -0.43487882011E+03 -0.17570326491E+03  0.15596796855E+04  0.12699999809E+01 0. -1.
       -4    1    3    3    0  502 -0.14874837421E+04  0.43487882011E+03 -0.57153366765E+03  0.16517808018E+04  0.12699999809E+01 0.  1.
</event>
<event>
 5   0  0.1240725E-06  0.2468490E+04  0.7818609E-02  0.8414298E-01
        1   -1    0    0  501    0  0.00000000000E+00  0.00000000000E+00  0.26536799976E+04  0.26536799976E+04  0.50400001928E-02 0. -1.
       -1   -1    0    0    0  501  0.00000000000E+00  0.00000000000E+00 -0.57405601646E+03  0.57405601648E+03  0.50400001928E-02 0.  1.
    10030    2    1    2    0    0  0.00000000000E+00  0.00000000000E+00  0.20796239811E+04  0.32277360141E+04  0.24684902013E+04 0.  0.
        3    1    3    3  502    0 -0.65401770236E+03 -0.61932324022E+03  0.21431918598E+04  0.23247734920E+04  0.10100000352E+00 0. -1.
       -3    1    3    3    0  502  0.65401770236E+03  0.61932324022E+03 -0.63567878685E+02  0.90296252208E+03  0.10100000352E+00 0.  1.
</event>
<event>
 5   0  0.1306843E-06  0.3225962E+04  0.7818609E-02  0.8181994E-01
       -1   -1    0    0    0  501  0.00000000000E+00  0.00000000000E+00  0.20169213098E+04  0.20169213098E+04  0.50400001928E-02 0. -1.
        1   -1    0    0  501    0  0.00000000000E+00  0.00000000000E+00 -0.12899399783E+04  0.12899399784E+04  0.50400001928E-02 0.  1.
    10030    2    1    2    0    0  0.00000000000E+00  0.00000000000E+00  0.72698133149E+03  0.33068612882E+04  0.32259618291E+04 0.  0.
        5    1    3    3  502    0  0.15401156203E+04 -0.25954987068E+03  0.77653854467E+03  0.17442352080E+04  0.46999998093E+01 0. -1.
       -5    1    3    3    0  502 -0.15401156203E+04  0.25954987068E+03 -0.49557213178E+02  0.15626260803E+04  0.46999998093E+01 0.  1.
</event>
<event>
 5   0  0.1273980E-06  0.3236179E+04  0.7818609E-02  0.8179327E-01
       -1   -1    0    0    0  501  0.00000000000E+00  0.00000000000E+00  0.15350468507E+04  0.15350468508E+04  0.50400001928E-02 0. -1.
        1   -1    0    0  501    0  0.00000000000E+00  0.00000000000E+00 -0.17056242980E+04  0.17056242980E+04  0.50400001928E-02 0.  1.
    10030    2    1    2    0    0  0.00000000000E+00  0.00000000000E+00 -0.17057744725E+03  0.32406711488E+04  0.32361787387E+04 0.  0.
        4    1    3    3  502    0 -0.83855498358E+02 -0.11929868536E+04 -0.11767385509E+04  0.16777856262E+04  0.12699999809E+01 0.  1.
       -4    1    3    3    0  502  0.83855498358E+02  0.11929868536E+04  0.10061611036E+04  0.15628855226E+04  0.12699999809E+01 0. -1.
</event>
<event>
 5   0  0.3758062E-06  0.3185710E+04  0.7818609E-02  0.8192601E-01
       -2   -1    0    0    0  501  0.00000000000E+00  0.00000000000E+00  0.92569548376E+03  0.92569548377E+03  0.25500000920E-02 0. -1.
        2   -1    0    0  501    0  0.00000000000E+00  0.00000000000E+00 -0.27408439367E+04  0.27408439367E+04  0.25500000920E-02 0.  1.
    10030    2    1    2    0    0  0.00000000000E+00  0.00000000000E+00 -0.18151484529E+04  0.36665394204E+04  0.31857098762E+04 0.  0.
        2    1    3    3  502    0  0.20289325451E+03  0.15470232839E+04 -0.53866440825E+03  0.16506380761E+04  0.25500000920E-02 0. -1.
       -2    1    3    3    0  502 -0.20289325451E+03 -0.15470232839E+04 -0.12764840446E+04  0.20159013443E+04  0.25500000920E-02 0.  1.
</event>
<event>
 5   0  0.3497546E-06  0.3190885E+04  0.7818609E-02  0.8191229E-01
        2   -1    0    0  501    0  0.00000000000E+00  0.00000000000E+00  0.21190335555E+04  0.21190335555E+04  0.25500000920E-02 0. -1.
       -2   -1    0    0    0  501  0.00000000000E+00  0.00000000000E+00 -0.12012250697E+04  0.12012250697E+04  0.25500000920E-02 0.  1.
    10030    2    1    2    0    0  0.00000000000E+00  0.00000000000E+00  0.91780848586E+03  0.33202586252E+04  0.31908846612E+04 0.  0.
        4    1    3    3  502    0  0.33589749448E+03 -0.21418708877E+03  0.20664471700E+04  0.21044972689E+04  0.12699999809E+01 0. -1.
       -4    1    3    3    0  502 -0.33589749448E+03  0.21418708877E+03 -0.11486386841E+04  0.12157613562E+04  0.12699999809E+01 0.  1.
</event>
<event>
 5   0  0.3497546E-06  0.2779682E+04  0.7818609E-02  0.8309604E-01
        2   -1    0    0  501    0  0.00000000000E+00  0.00000000000E+00  0.20407944934E+04  0.20407944934E+04  0.25500000920E-02 0. -1.
       -2   -1    0    0    0  501  0.00000000000E+00  0.00000000000E+00 -0.94652251941E+03  0.94652251941E+03  0.25500000920E-02 0.  1.
    10030    2    1    2    0    0  0.00000000000E+00  0.00000000000E+00  0.10942719740E+04  0.29873170128E+04  0.27796819570E+04 0.  0.
        4    1    3    3  502    0  0.12821336477E+04  0.27238321166E+03  0.10438241464E+04  0.16755983308E+04  0.12699999809E+01 0. -1.
       -4    1    3    3    0  502 -0.12821336477E+04 -0.27238321166E+03  0.50447827636E+02  0.13117186821E+04  0.12699999809E+01 0.  1.
</event>
<event>
 5   0  0.1273980E-06  0.3110175E+04  0.7818609E-02  0.8212951E-01
       -1   -1    0    0    0  501  0.00000000000E+00  0.00000000000E+00  0.10613708894E+04  0.10613708894E+04  0.50400001928E-02 0. -1.
        1   -1    0    0  501    0  0.00000000000E+00  0.00000000000E+00 -0.22784657622E+04  0.22784657622E+04  0.50400001928E-02 0.  1.
    10030    2    1    2    0    0  0.00000000000E+00  0.00000000000E+00 -0.12170948728E+04  0.33398366517E+04  0.31101750643E+04 0.  0.
        4    1    3    3  502    0  0.26642267453E+03  0.14031250192E+04 -0.12692481050E+04  0.19106892018E+04  0.12699999809E+01 0.  1.
       -4    1    3    3    0  502 -0.26642267453E+03 -0.14031250192E+04  0.52153232188E+02  0.14291474499E+04  0.12699999809E+01 0. -1.
</event>
<event>
 5   0  0.3758062E-06  0.3241789E+04  0.7818609E-02  0.8177867E-01
       -2   -1    0    0    0  501  0.00000000000E+00  0.00000000000E+00  0.20338026622E+04  0.20338026622E+04  0.25500000920E-02 0.  1.
        2   -1    0    0  501    0  0.00000000000E+00  0.00000000000E+00 -0.12918159833E+04  0.12918159833E+04  0.25500000920E-02 0. -1.
    10030    2    1    2    0    0  0.00000000000E+00  0.00000000000E+00  0.74198667888E+03  0.33256186455E+04  0.32417888802E+04 0.  0.
        2    1    3    3  502    0 -0.93777606946E+03  0.23364740721E+03  0.17059051776E+04  0.19606446752E+04  0.25500000920E-02 0.  1.
       -2    1    3    3    0  502  0.93777606946E+03 -0.23364740721E+03 -0.96391849876E+03  0.13649739703E+04  0.25500000920E-02 0. -1.
</event>
<event>
 5   0  0.3497546E-06  0.3178443E+04  0.7818609E-02  0.8194534E-01
        2   -1    0    0  501    0  0.00000000000E+00  0.00000000000E+00  0.23861853386E+04  0.23861853387E+04  0.25500000920E-02 0.  1.
       -2   -1    0    0    0  501  0.00000000000E+00  0.00000000000E+00 -0.10584361697E+04  0.10584361697E+04  0.25500000920E-02 0. -1.
    10030    2    1    2    0    0  0.00000000000E+00  0.00000000000E+00  0.13277491690E+04  0.34446215083E+04  0.31784429332E+04 0.  0.
        4    1    3    3  502    0  0.80323132898E+03  0.18476707341E+03  0.21364538274E+04  0.22899248916E+04  0.12699999809E+01 0.  1.
       -4    1    3    3    0  502 -0.80323132898E+03 -0.18476707341E+03 -0.80870465846E+03  0.11546966168E+04  0.12699999809E+01 0. -1.
</event>
<event>
 5   0  0.3745943E-06  0.3189870E+04  0.7818609E-02  0.8191498E-01
       -2   -1    0    0    0  501  0.00000000000E+00  0.00000000000E+00  0.13296660257E+04  0.13296660257E+04  0.25500000920E-02 0. -1.
        2   -1    0    0  501    0  0.00000000000E+00  0.00000000000E+00 -0.19131251696E+04  0.19131251696E+04  0.25500000920E-02 0.  1.
    10030    2    1    2    0    0  0.00000000000E+00  0.00000000000E+00 -0.58345914394E+03  0.32427911953E+04  0.31898699289E+04 0.  0.
        5    1    3    3  502    0  0.88171846462E+03 -0.13163899662E+04 -0.10570336775E+03  0.15879248364E+04  0.46999998093E+01 0. -1.
       -5    1    3    3    0  502 -0.88171846462E+03  0.13163899662E+04 -0.47775577619E+03  0.16548663589E+04  0.46999998093E+01 0.  1.
</event>
<event>
 5   0  0.1273754E-06  0.2773466E+04  0.7818609E-02  0.8311554E-01
       -1   -1    0    0    0  501  0.00000000000E+00  0.00000000000E+00  0.92534653909E+03  0.92534653911E+03  0.50400001928E-02 0.  1.
        1   -1    0    0  501    0  0.00000000000E+00  0.00000000000E+00 -0.20781717671E+04  0.20781717671E+04  0.50400001928E-02 0. -1.
    10030    2    1    2    0    0  0.00000000000E+00  0.00000000000E+00 -0.11528252280E+04  0.30035183062E+04  0.27734664608E+04 0.  0.
        2    1    3    3  502    0  0.45672804888E+03  0.17890703934E+03 -0.19810838234E+04  0.20409069931E+04  0.25500000920E-02 0. -1.
       -2    1    3    3    0  502 -0.45672804888E+03 -0.17890703934E+03  0.82825859534E+03  0.96261131311E+03  0.25500000920E-02 0.  1.
</event>
<event>
 5   0  0.3656086E-06  0.3183364E+04  0.7818609E-02  0.8193225E-01
       -2   -1    0    0    0  501  0.00000000000E+00  0.00000000000E+00  0.17209509930E+04  0.17209509930E+04  0.25500000920E-02 0.  1.
        2   -1    0    0  501    0  0.00000000000E+00  0.00000000000E+00 -0.14721230199E+04  0.14721230199E+04  0.25500000920E-02 0. -1.
    10030    2    1    2    0    0  0.00000000000E+00  0.00000000000E+00  0.24882797309E+03  0.31930740130E+04  0.31833639899E+04 0.  0.
        3    1    3    3  502    0  0.44644781201E+03 -0.14536928536E+03 -0.14010812236E+04  0.14776591228E+04  0.10100000352E+00 0. -1.
       -3    1    3    3    0  502 -0.44644781201E+03  0.14536928536E+03  0.16499091967E+04  0.17154148902E+04  0.10100000352E+00 0.  1.
</event>
<event>
 5   0  0.1306843E-06  0.3184082E+04  0.7818609E-02  0.8193034E-01
        1   -1    0    0  501    0  0.00000000000E+00  0.00000000000E+00  0.17165958316E+04  0.17165958316E+04  0.50400001928E-02 0.  1.
       -1   -1    0    0    0  501  0.00000000000E+00  0.00000000000E+00 -0.14765235326E+04  0.14765235326E+04  0.50400001928E-02 0. -1.
    10030    2    1    2    0    0  0.00000000000E+00  0.00000000000E+00  0.24007229901E+03  0.31931193643E+04  0.31840817461E+04 0.  0.
        5    1    3    3  502    0  0.83544142712E+03  0.57566657293E+03 -0.11103193037E+04  0.15040563246E+04  0.46999998093E+01 0. -1.
       -5    1    3    3    0  502 -0.83544142712E+03 -0.57566657293E+03  0.13503916027E+04  0.16890630397E+04  0.46999998093E+01 0.  1.
</event>
<event>
 5   0  0.1273754E-06  0.2856075E+04  0.7818609E-02  0.8286068E-01
       -1   -1    0    0    0  501  0.00000000000E+00  0.00000000000E+00  0.12989696245E+04  0.12989696245E+04  0.50400001928E-02 0.  1.
        1   -1    0    0  501    0  0.00000000000E+00  0.00000000000E+00 -0.15699297700E+04  0.15699297701E+04  0.50400001928E-02 0. -1.
    10030    2    1    2    0    0  0.00000000000E+00  0.00000000000E+00 -0.27096014552E+03  0.28688993946E+04  0.28560749878E+04 0.  0.
        2    1    3    3  502    0 -0.11685160277E+04 -0.77503972341E+03 -0.40720313317E+03  0.14601132393E+04  0.25500000920E-02 0. -1.
       -2    1    3    3    0  502  0.11685160277E+04  0.77503972341E+03  0.13624298766E+03  0.14087861553E+04  0.25500000920E-02 0.  1.
</event>
<event>
 5   0  0.3531437E-06  0.3216319E+04  0.7818609E-02  0.8184521E-01
       -2   -1    0    0    0  501  0.00000000000E+00  0.00000000000E+00  0.21708330381E+04  0.21708330381E+04  0.25500000920E-02 0.  1.
        2   -1    0    0  501    0  0.00000000000E+00  0.00000000000E+00 -0.11913289991E+04  0.11913289991E+04  0.25500000920E-02 0. -1.
    10030    2    1    2    0    0  0.00000000000E+00  0.00000000000E+00  0.97950403906E+03  0.33621620372E+04  0.32163186101E+04 0.  0.
        1    1    3    3  502    0 -0.58316099631E+03 -0.37891678693E+03  0.20055098377E+04  0.21226691659E+04  0.50400001928E-02 0.  1.
       -1    1    3    3    0  502  0.58316099631E+03  0.37891678693E+03 -0.10260057986E+04  0.12394928712E+04  0.50400001928E-02 0. -1.
</event>
<event>
 5   0  0.1273980E-06  0.3162691E+04  0.7818609E-02  0.8198741E-01
        1   -1    0    0  501    0  0.00000000000E+00  0.00000000000E+00  0.13275793911E+04  0.13275793911E+04  0.50400001928E-02 0.  1.
       -1   -1    0    0    0  501  0.00000000000E+00  0.00000000000E+00 -0.18836184825E+04  0.18836184825E+04  0.50400001928E-02 0. -1.
    10030    2    1    2    0    0  0.00000000000E+00  0.00000000000E+00 -0.55603909136E+03  0.32111978736E+04  0.31626906760E+04 0.  0.
        4    1    3    3  502    0 -0.70034397741E+03  0.11651856542E+04 -0.10981910141E+04  0.17476167806E+04  0.12699999809E+01 0. -1.
       -4    1    3    3    0  502  0.70034397741E+03 -0.11651856542E+04  0.54215192278E+03  0.14635810930E+04  0.12699999809E+01 0.  1.
</event>
<event>
 5   0  0.3656086E-06  0.2900913E+04  0.7818609E-02  0.8272606E-01
        2   -1    0    0  501    0  0.00000000000E+00  0.00000000000E+00  0.19058680200E+04  0.19058680200E+04  0.25500000920E-02 0. -1.
       -2   -1    0    0    0  501  0.00000000000E+00  0.00000000000E+00 -0.11038662311E+04  0.11038662311E+04  0.25500000920E-02 0.  1.
    10030    2    1    2    0    0  0.00000000000E+00  0.00000000000E+00  0.80200178882E+03  0.30097342511E+04  0.29009125104E+04 0.  0.
        3    1    3    3  502    0  0.31070473598E+03  0.96734504364E+03 -0.67297758728E+03  0.12186848278E+04  0.10100000352E+00 0.  1.
       -3    1    3    3    0  502 -0.31070473598E+03 -0.96734504364E+03  0.14749793761E+04  0.17910494233E+04  0.10100000352E+00 0. -1.
</event>
<event>
 5   0  0.1306843E-06  0.2935932E+04  0.7818609E-02  0.8262266E-01
       -1   -1    0    0    0  501  0.00000000000E+00  0.00000000000E+00  0.15853906006E+04  0.15853906006E+04  0.50400001928E-02 0. -1.
        1   -1    0    0  501    0  0.00000000000E+00  0.00000000000E+00 -0.13592390637E+04  0.13592390637E+04  0.50400001928E-02 0.  1.
    10030    2    1    2    0    0  0.00000000000E+00  0.00000000000E+00  0.22615153689E+03  0.29446296643E+04  0.29359324485E+04 0.  0.
        5    1    3    3  502    0 -0.79591633802E+03 -0.36838387241E+03  0.12937261423E+04  0.15629903761E+04  0.46999998093E+01 0. -1.
       -5    1    3    3    0  502  0.79591633802E+03  0.36838387241E+03 -0.10675746054E+04  0.13816392882E+04  0.46999998093E+01 0.  1.
</event>
<event>
 5   0  0.1240725E-06  0.3215118E+04  0.7818609E-02  0.8184836E-01
       -1   -1    0    0    0  501  0.00000000000E+00  0.00000000000E+00  0.12691085858E+04  0.12691085858E+04  0.50400001928E-02 0. -1.
        1   -1    0    0  501    0  0.00000000000E+00  0.00000000000E+00 -0.20362681894E+04  0.20362681894E+04  0.50400001928E-02 0.  1.
    10030    2    1    2    0    0  0.00000000000E+00  0.00000000000E+00 -0.76715960366E+03  0.33053767752E+04  0.32151176912E+04 0.  0.
        3    1    3    3  502    0 -0.12577104103E+04  0.77653699846E+03 -0.10333028304E+04  0.18034854964E+04  0.10100000352E+00 0.  1.
       -3    1    3    3    0  502  0.12577104103E+04 -0.77653699846E+03  0.26614322677E+03  0.15018912788E+04  0.10100000352E+00 0. -1.
</event>
<event>
 5   0  0.1185575E-06  0.3219389E+04  0.7818609E-02  0.8183715E-01
       -3   -1    0    0    0  501  0.00000000000E+00  0.00000000000E+00  0.15809933659E+04  0.15809933691E+04  0.10100000352E+00 0.  1.
        3   -1    0    0  501    0  0.00000000000E+00  0.00000000000E+00 -0.16389161897E+04  0.16389161928E+04  0.10100000352E+00 0. -1.
    10030    2    1    2    0    0  0.00000000000E+00  0.00000000000E+00 -0.57922823756E+02  0.32199095619E+04  0.32193885341E+04 0.  0.
        3    1    3    3  502    0 -0.12087080891E+03 -0.14724849057E+04  0.61012093108E+03  0.15984583544E+04  0.10100000352E+00 0.  1.
       -3    1    3    3    0  502  0.12087080891E+03  0.14724849057E+04 -0.66804375484E+03  0.16214512075E+04  0.10100000352E+00 0. -1.
</event>
<event>
 5   0  0.3758062E-06  0.2840195E+04  0.7818609E-02  0.8290897E-01
        2   -1    0    0  501    0  0.00000000000E+00  0.00000000000E+00  0.12557761713E+04  0.12557761713E+04  0.25500000920E-02 0. -1.
       -2   -1    0    0    0  501  0.00000000000E+00  0.00000000000E+00 -0.16059206534E+04  0.16059206534E+04  0.25500000920E-02 0.  1.
    10030    2    1    2    0    0  0.00000000000E+00  0.00000000000E+00 -0.35014448205E+03  0.28616968247E+04  0.28401949860E+04 0.  0.
        2    1    3    3  502    0 -0.71780759453E+03  0.78123386308E+03  0.77605663924E+03  0.13144725174E+04  0.25500000920E-02 0. -1.
       -2    1    3    3    0  502  0.71780759453E+03 -0.78123386308E+03 -0.11262011213E+04  0.15472243073E+04  0.25500000920E-02 0.  1.
</event>
<event>
 5   0  0.3745943E-06  0.3071012E+04  0.7818609E-02  0.8223739E-01
        2   -1    0    0  501    0  0.00000000000E+00  0.00000000000E+00  0.23566749225E+04  0.23566749225E+04  0.25500000920E-02 0.  1.
       -2   -1    0    0    0  501  0.00000000000E+00  0.00000000000E+00 -0.10004685366E+04  0.10004685366E+04  0.25500000920E-02 0. -1.
    10030    2    1    2    0    0  0.00000000000E+00  0.00000000000E+00  0.13562063859E+04  0.33571434591E+04  0.30710122833E+04 0.  0.
        5    1    3    3  502    0 -0.12340858398E+04  0.52435145306E+03  0.14960444939E+04  0.20090006282E+04  0.46999998093E+01 0.  1.
       -5    1    3    3    0  502  0.12340858398E+04 -0.52435145306E+03 -0.13983810799E+03  0.13481428310E+04  0.46999998093E+01 0. -1.
</event>
<event>
 5   0  0.1273980E-06  0.3066398E+04  0.7818609E-02  0.8225021E-01
        1   -1    0    0  501    0  0.00000000000E+00  0.00000000000E+00  0.16246905870E+04  0.16246905870E+04  0.50400001928E-02 0. -1.
       -1   -1    0    0    0  501  0.00000000000E+00  0.00000000000E+00 -0.14468594460E+04  0.14468594460E+04  0.50400001928E-02 0.  1.
    10030    2    1    2    0    0  0.00000000000E+00  0.00000000000E+00  0.17783114101E+03  0.30715500330E+04  0.30663978364E+04 0.  0.
        4    1    3    3  502    0 -0.10950368405E+04 -0.58430242140E+02 -0.98441529087E+03  0.14736332152E+04  0.12699999809E+01 0.  1.
       -4    1    3    3    0  502  0.10950368405E+04  0.58430242140E+02  0.11622464319E+04  0.15979168178E+04  0.12699999809E+01 0. -1.
</event>
<event>
 5   0  0.3497546E-06  0.3177409E+04  0.7818609E-02  0.8194809E-01
       -2   -1    0    0    0  501  0.00000000000E+00  0.00000000000E+00  0.99092929167E+03  0.99092929167E+03  0.25500000920E-02 0. -1.
        2   -1    0    0  501    0  0.00000000000E+00  0.00000000000E+00 -0.25470850701E+04  0.25470850701E+04  0.25500000920E-02 0.  1.
    10030    2    1    2    0    0  0.00000000000E+00  0.00000000000E+00 -0.15561557784E+04  0.35380143618E+04  0.31774085065E+04 0.  0.
        4    1    3    3  502    0 -0.30383996963E+03  0.82760528704E+03 -0.22497107308E+04  0.24162883154E+04  0.12699999809E+01 0.  1.
       -4    1    3    3    0  502  0.30383996963E+03 -0.82760528704E+03  0.69355495232E+03  0.11217260464E+04  0.12699999809E+01 0. -1.
</event>
<event>
 5   0  0.1306843E-06  0.3203231E+04  0.7818609E-02  0.8187965E-01
        1   -1    0    0  501    0  0.00000000000E+00  0.00000000000E+00  0.14028824454E+04  0.14028824454E+04  0.50400001928E-02 0.  1.
       -1   -1    0    0    0  501  0.00000000000E+00  0.00000000000E+00 -0.18285006998E+04  0.18285006998E+04  0.50400001928E-02 0. -1.
    10030    2    1    2    0    0  0.00000000000E+00  0.00000000000E+00 -0.42561825443E+03  0.32313831452E+04  0.32032305775E+04 0.  0.
        5    1    3    3  502    0  0.14710999277E+04 -0.62330020298E+03 -0.32564612505E+03  0.16305537799E+04  0.46999998093E+01 0.  1.
       -5    1    3    3    0  502 -0.14710999277E+04  0.62330020298E+03 -0.99972129387E+02  0.16008293653E+04  0.46999998093E+01 0. -1.
</event>
<event>
 5   0  0.3758062E-06  0.3224502E+04  0.7818609E-02  0.8182376E-01
       -2   -1    0    0    0  501  0.00000000000E+00  0.00000000000E+00  0.17310308060E+04  0.17310308060E+04  0.25500000920E-02 0. -1.
        2   -1    0    0  501    0  0.00000000000E+00  0.00000000000E+00 -0.15016214576E+04  0.15016214576E+04  0.25500000920E-02 0.  1.
    10030    2    1    2    0    0  0.00000000000E+00  0.00000000000E+00  0.22940934847E+03  0.32326522636E+04  0.32245018232E+04 0.  0.
        2    1    3    3  502    0  0.15351013399E+04 -0.20699510863E+03  0.56301493750E+03  0.16481410494E+04  0.25500000920E-02 0. -1.
       -2    1    3    3    0  502 -0.15351013399E+04  0.20699510863E+03 -0.33360558903E+03  0.15845112142E+04  0.25500000920E-02 0.  1.
</event>
<event>
 5   0  0.3656086E-06  0.3185585E+04  0.7818609E-02  0.8192635E-01
        2   -1    0    0  501    0  0.00000000000E+00  0.00000000000E+00  0.12971372991E+04  0.12971372992E+04  0.25500000920E-02 0. -1.
       -2   -1    0    0    0  501  0.00000000000E+00  0.00000000000E+00 -0.19558359819E+04  0.19558359819E+04  0.25500000920E-02 0.  1.
    10030    2    1    2    0    0  0.00000000000E+00  0.00000000000E+00 -0.65869868277E+03  0.32529732811E+04  0.31855849090E+04 0.  0.
        3    1    3    3  502    0 -0.15471518171E+03 -0.92892987230E+03 -0.16411013744E+04  0.18921049723E+04  0.10100000352E+00 0.  1.
       -3    1    3    3    0  502  0.15471518171E+03  0.92892987230E+03  0.98240269160E+03  0.13608683088E+04  0.10100000352E+00 0. -1.
</event>
<event>
 5   0  0.1273754E-06  0.3187113E+04  0.7818609E-02  0.8192229E-01
       -1   -1    0    0    0  501  0.00000000000E+00  0.00000000000E+00  0.93458450814E+03  0.93458450816E+03  0.50400001928E-02 0.  1.
        1   -1    0    0  501    0  0.00000000000E+00  0.00000000000E+00 -0.27171671861E+04  0.27171671861E+04  0.50400001928E-02 0. -1.
    10030    2    1    2    0    0  0.00000000000E+00  0.00000000000E+00 -0.17825826779E+04  0.36517516942E+04  0.31871130248E+04 0.  0.
        2    1    3    3  502    0  0.12660352755E+04  0.17418929624E+03  0.19945614692E+03  0.12934334093E+04  0.25500000920E-02 0.  1.
       -2    1    3    3    0  502 -0.12660352755E+04 -0.17418929624E+03 -0.19820388248E+04  0.23583182849E+04  0.25500000920E-02 0. -1.
</event>
<event>
 5   0  0.1306843E-06  0.2564058E+04  0.7818609E-02  0.8380513E-01
        1   -1    0    0  501    0  0.00000000000E+00  0.00000000000E+00  0.10014464163E+04  0.10014464163E+04  0.50400001928E-02 0.  1.
       -1   -1    0    0    0  501  0.00000000000E+00  0.00000000000E+00 -0.16412245984E+04  0.16412245984E+04  0.50400001928E-02 0. -1.
    10030    2    1    2    0    0  0.00000000000E+00  0.00000000000E+00 -0.63977818209E+03  0.26426710147E+04  0.25640581058E+04 0.  0.
        5    1    3    3  502    0 -0.23871374774E+03 -0.35992860656E+03 -0.15639782467E+04  0.16225236212E+04  0.46999998093E+01 0. -1.
       -5    1    3    3    0  502  0.23871374774E+03  0.35992860656E+03  0.92420006460E+03  0.10201473936E+04  0.46999998093E+01 0.  1.
</event>
<event>
 5   0  0.3656086E-06  0.3182530E+04  0.7818609E-02  0.8193446E-01
       -2   -1    0    0    0  501  0.00000000000E+00  0.00000000000E+00  0.15866712193E+04  0.15866712193E+04  0.25500000920E-02 0. -1.
        2   -1    0    0  501    0  0.00000000000E+00  0.00000000000E+00 -0.15958725520E+04  0.15958725520E+04  0.25500000920E-02 0.  1.
    10030    2    1    2    0    0  0.00000000000E+00  0.00000000000E+00 -0.92013326979E+01  0.31825437712E+04  0.31825304698E+04 0.  0.
        3    1    3    3  502    0  0.61035870528E+03  0.26800904057E+03  0.14403131353E+04  0.15870943680E+04  0.10100000352E+00 0. -1.
       -3    1    3    3    0  502 -0.61035870528E+03 -0.26800904057E+03 -0.14495144680E+04  0.15954494032E+04  0.10100000352E+00 0.  1.
</event>
<event>
 5   0  0.3656086E-06  0.3172619E+04  0.7818609E-02  0.8196086E-01
        2   -1    0    0  501    0  0.00000000000E+00  0.00000000000E+00  0.24631526907E+04  0.24631526907E+04  0.25500000920E-02 0. -1.
       -2   -1    0    0    0  501  0.00000000000E+00  0.00000000000E+00 -0.10216084282E+04  0.10216084282E+04  0.25500000920E-02 0.  1.
    10030    2    1    2    0    0  0.00000000000E+00  0.00000000000E+00  0.14415442625E+04  0.34847611189E+04  0.31726188228E+04 0.  0.
        3    1    3    3  502    0 -0.11488494280E+04 -0.39039206807E+03  0.18431254849E+04  0.22066654795E+04  0.10100000352E+00 0. -1.
       -3    1    3    3    0  502  0.11488494280E+04  0.39039206807E+03 -0.40158122238E+03  0.12780956394E+04  0.10100000352E+00 0.  1.
</event>
<event>
 5   0  0.3758062E-06  0.3295925E+04  0.7818609E-02  0.8163933E-01
        2   -1    0    0  501    0  0.00000000000E+00  0.00000000000E+00  0.16444998544E+04  0.16444998544E+04  0.25500000920E-02 0.  1.
       -2   -1    0    0    0  501  0.00000000000E+00  0.00000000000E+00 -0.16514328105E+04  0.16514328105E+04  0.25500000920E-02 0. -1.
    10030    2    1    2    0    0  0.00000000000E+00  0.00000000000E+00 -0.69329560700E+01  0.32959326649E+04  0.32959253732E+04 0.  0.
        2    1    3    3  502    0 -0.16223603809E+04  0.23305652356E+03  0.16803453603E+03  0.16476055821E+04  0.25500000920E-02 0. -1.
       -2    1    3    3    0  502  0.16223603809E+04 -0.23305652356E+03 -0.17496749210E+03  0.16483270829E+04  0.25500000920E-02 0.  1.
</event>
<event>
 5   0  0.1268836E-06  0.3168295E+04  0.7818609E-02  0.8197241E-01
       -1   -1    0    0    0  501  0.00000000000E+00  0.00000000000E+00  0.17119350923E+04  0.17119350923E+04  0.50400001928E-02 0.  1.
        1   -1    0    0  501    0  0.00000000000E+00  0.00000000000E+00 -0.14658984759E+04  0.14658984759E+04  0.50400001928E-02 0. -1.
    10030    2    1    2    0    0  0.00000000000E+00  0.00000000000E+00  0.24603661636E+03  0.31778335682E+04  0.31682948364E+04 0.  0.
        1    1    3    3  502    0  0.30489715041E+03 -0.14671930446E+04  0.63828212692E+03  0.16288099263E+04  0.50400001928E-02 0.  1.
       -1    1    3    3    0  502 -0.30489715041E+03  0.14671930446E+04 -0.39224551055E+03  0.15490236419E+04  0.50400001928E-02 0. -1.
</event>
<event>
 5   0  0.3497546E-06  0.3094119E+04  0.7818609E-02  0.8217354E-01
        2   -1    0    0  501    0  0.00000000000E+00  0.00000000000E+00  0.16237926024E+04  0.16237926024E+04  0.25500000920E-02 0.  1.
       -2   -1    0    0    0  501  0.00000000000E+00  0.00000000000E+00 -0.14739526518E+04  0.14739526518E+04  0.25500000920E-02 0. -1.
    10030    2    1    2    0    0  0.00000000000E+00  0.00000000000E+00  0.14983995066E+03  0.30977452542E+04  0.30941192041E+04 0.  0.
        4    1    3    3  502    0 -0.10168605289E+04  0.10821585401E+04  0.50938632139E+03  0.15698880465E+04  0.12699999809E+01 0.  1.
       -4    1    3    3    0  502  0.10168605289E+04 -0.10821585401E+04 -0.35954637073E+03  0.15278572076E+04  0.12699999809E+01 0. -1.
</event>
<event>
 5   0  0.3656086E-06  0.3175549E+04  0.7818609E-02  0.8195305E-01
       -2   -1    0    0    0  501  0.00000000000E+00  0.00000000000E+00  0.20256845294E+04  0.20256845294E+04  0.25500000920E-02 0.  1.
        2   -1    0    0  501    0  0.00000000000E+00  0.00000000000E+00 -0.12445314599E+04  0.12445314599E+04  0.25500000920E-02 0. -1.
    10030    2    1    2    0    0  0.00000000000E+00  0.00000000000E+00  0.78115306956E+03  0.32702159893E+04  0.31755491649E+04 0.  0.
        3    1    3    3  502    0  0.58937377458E+03 -0.12278952360E+04 -0.44980235368E+03  0.14343675694E+04  0.10100000352E+00 0. -1.
       -3    1    3    3    0  502 -0.58937377458E+03  0.12278952360E+04  0.12309554232E+04  0.18358484199E+04  0.10100000352E+00 0.  1.
</event>
<event>
 5   0  0.1273754E-06  0.3178506E+04  0.7818609E-02  0.8194517E-01
       -1   -1    0    0    0  501  0.00000000000E+00  0.00000000000E+00  0.17389154223E+04  0.17389154223E+04  0.50400001928E-02 0.  1.
        1   -1    0    0  501    0  0.00000000000E+00  0.00000000000E+00 -0.14524718515E+04  0.14524718515E+04  0.50400001928E-02 0. -1.
    10030    2    1    2    0    0  0.00000000000E+00  0.00000000000E+00  0.28644357083E+03  0.31913872738E+04  0.31785063807E+04 0.  0.
        2    1    3    3  502    0 -0.14329245177E+04  0.15315072754E+03  0.81601029958E+03  0.16560798978E+04  0.25500000920E-02 0.  1.
       -2    1    3    3    0  502  0.14329245177E+04 -0.15315072754E+03 -0.52956672875E+03  0.15353073760E+04  0.25500000920E-02 0. -1.
</event>
<event>
 5   0  0.1268836E-06  0.3204684E+04  0.7818609E-02  0.8187581E-01
        1   -1    0    0  501    0  0.00000000000E+00  0.00000000000E+00  0.10486154481E+04  0.10486154481E+04  0.50400001928E-02 0.  1.
       -1   -1    0    0    0  501  0.00000000000E+00  0.00000000000E+00 -0.24484665796E+04  0.24484665796E+04  0.50400001928E-02 0. -1.
    10030    2    1    2    0    0  0.00000000000E+00  0.00000000000E+00 -0.13998511316E+04  0.34970820277E+04  0.32046839966E+04 0.  0.
        1    1    3    3  502    0  0.61689130654E+03 -0.95370891102E+03 -0.19332615310E+04  0.22422345369E+04  0.50400001928E-02 0. -1.
       -1    1    3    3    0  502 -0.61689130654E+03  0.95370891102E+03  0.53341039944E+03  0.12548474908E+04  0.50400001928E-02 0.  1.
</event>
<event>
 5   0  0.3531437E-06  0.3187910E+04  0.7818609E-02  0.8192018E-01
       -2   -1    0    0    0  501  0.00000000000E+00  0.00000000000E+00  0.11824374500E+04  0.11824374500E+04  0.25500000920E-02 0.  1.
        2   -1    0    0  501    0  0.00000000000E+00  0.00000000000E+00 -0.21486903755E+04  0.21486903755E+04  0.25500000920E-02 0. -1.
    10030    2    1    2    0    0  0.00000000000E+00  0.00000000000E+00 -0.96625292556E+03  0.33311278255E+04  0.31879096401E+04 0.  0.
        1    1    3    3  502    0  0.59778893320E+03  0.75221033893E+03  0.84582806217E+03  0.12800769951E+04  0.50400001928E-02 0.  1.
       -1    1    3    3    0  502 -0.59778893320E+03 -0.75221033893E+03 -0.18120809877E+04  0.20510508304E+04  0.50400001928E-02 0. -1.
</event>
<event>
 5   0  0.1306843E-06  0.3201285E+04  0.7818609E-02  0.8188478E-01
       -1   -1    0    0    0  501  0.00000000000E+00  0.00000000000E+00  0.14703238908E+04  0.14703238908E+04  0.50400001928E-02 0.  1.
        1   -1    0    0  501    0  0.00000000000E+00  0.00000000000E+00 -0.17425110722E+04  0.17425110722E+04  0.50400001928E-02 0. -1.
    10030    2    1    2    0    0  0.00000000000E+00  0.00000000000E+00 -0.27218718133E+03  0.32128349630E+04  0.32012845293E+04 0.  0.
        5    1    3    3  502    0  0.49953161184E+03  0.40695431493E+02  0.13895377712E+04  0.14771679854E+04  0.46999998093E+01 0.  1.
       -5    1    3    3    0  502 -0.49953161184E+03 -0.40695431493E+02 -0.16617249525E+04  0.17356669776E+04  0.46999998093E+01 0. -1.
</event>
<event>
 5   0  0.1268836E-06  0.2785045E+04  0.7818609E-02  0.8307926E-01
       -1   -1    0    0    0  501  0.00000000000E+00  0.00000000000E+00  0.13871505732E+04  0.13871505732E+04  0.50400001928E-02 0.  1.
        1   -1    0    0  501    0  0.00000000000E+00  0.00000000000E+00 -0.13979156833E+04  0.13979156833E+04  0.50400001928E-02 0. -1.
    10030    2    1    2    0    0  0.00000000000E+00  0.00000000000E+00 -0.10765110112E+02  0.27850662565E+04  0.27850454512E+04 0.  0.
        1    1    3    3  502    0  0.13236667273E+04  0.38515928175E+03 -0.20205192677E+03  0.13932933139E+04  0.50400001928E-02 0. -1.
       -1    1    3    3    0  502 -0.13236667273E+04 -0.38515928175E+03  0.19128681666E+03  0.13917729426E+04  0.50400001928E-02 0.  1.
</event>
<event>
 5   0  0.3656086E-06  0.3179682E+04  0.7818609E-02  0.8194204E-01
        2   -1    0    0  501    0  0.00000000000E+00  0.00000000000E+00  0.16366082315E+04  0.16366082315E+04  0.25500000920E-02 0. -1.
       -2   -1    0    0    0  501  0.00000000000E+00  0.00000000000E+00 -0.15444104821E+04  0.15444104821E+04  0.25500000920E-02 0.  1.
    10030    2    1    2    0    0  0.00000000000E+00  0.00000000000E+00  0.92197749360E+02  0.31810187136E+04  0.31796823161E+04 0.  0.
        3    1    3    3  502    0  0.39185971586E+03 -0.72966724229E+02 -0.14936115674E+04  0.15458828236E+04  0.10100000352E+00 0.  1.
       -3    1    3    3    0  502 -0.39185971586E+03  0.72966724229E+02  0.15858093167E+04  0.16351358901E+04  0.10100000352E+00 0. -1.
</event>
<event>
 5   0  0.1268836E-06  0.2923781E+04  0.7818609E-02  0.8265837E-01
       -1   -1    0    0    0  501  0.00000000000E+00  0.00000000000E+00  0.26075769966E+04  0.26075769966E+04  0.50400001928E-02 0. -1.
        1   -1    0    0  501    0  0.00000000000E+00  0.00000000000E+00 -0.81958223574E+03  0.81958223575E+03  0.50400001928E-02 0.  1.
    10030    2    1    2    0    0  0.00000000000E+00  0.00000000000E+00  0.17879947609E+04  0.34271592324E+04  0.29237809663E+04 0.  0.
        1    1    3    3  502    0  0.10147975753E+03 -0.11159975153E+04 -0.20645146472E+03  0.11394607509E+04  0.50400001928E-02 0.  1.
       -1    1    3    3    0  502 -0.10147975753E+03  0.11159975153E+04  0.19944462256E+04  0.22876984815E+04  0.50400001928E-02 0. -1.
</event>
<event>
 5   0  0.1268836E-06  0.2624235E+04  0.7818609E-02  0.8360015E-01
       -1   -1    0    0    0  501  0.00000000000E+00  0.00000000000E+00  0.18290395856E+04  0.18290395856E+04  0.50400001928E-02 0.  1.
        1   -1    0    0  501    0  0.00000000000E+00  0.00000000000E+00 -0.94128757193E+03  0.94128757195E+03  0.50400001928E-02 0. -1.
    10030    2    1    2    0    0  0.00000000000E+00  0.00000000000E+00  0.88775201368E+03  0.27703271576E+04  0.26242349213E+04 0.  0.
        1    1    3    3  502    0 -0.16082068152E+03 -0.12901129048E+04  0.25681778808E+03  0.13252207269E+04  0.50400001928E-02 0. -1.
       -1    1    3    3    0  502  0.16082068152E+03  0.12901129048E+04  0.63093422560E+03  0.14451064306E+04  0.50400001928E-02 0.  1.
</event>
<event>
 5   0  0.1273754E-06  0.3165622E+04  0.7818609E-02  0.8197956E-01
        1   -1    0    0  501    0  0.00000000000E+00  0.00000000000E+00  0.30703269364E+04  0.30703269364E+04  0.50400001928E-02 0. -1.
       -1   -1    0    0    0  501  0.00000000000E+00  0.00000000000E+00 -0.81596888660E+03  0.81596888662E+03  0.50400001928E-02 0.  1.
    10030    2    1    2    0    0  0.00000000000E+00  0.00000000000E+00  0.22543580498E+04  0.38862958230E+04  0.31656223728E+04 0.  0.
        2    1    3    3  502    0 -0.14212944588E+04 -0.67237857556E+03  0.13506001847E+04  0.20727498031E+04  0.25500000920E-02 0.  1.
       -2    1    3    3    0  502  0.14212944588E+04  0.67237857556E+03  0.90375786514E+03  0.18135460199E+04  0.25500000920E-02 0. -1.
</event>
<event>
 5   0  0.3531437E-06  0.3022960E+04  0.7818609E-02  0.8237205E-01
       -2   -1    0    0    0  501  0.00000000000E+00  0.00000000000E+00  0.13311430060E+04  0.13311430060E+04  0.25500000920E-02 0. -1.
        2   -1    0    0  501    0  0.00000000000E+00  0.00000000000E+00 -0.17162482720E+04  0.17162482720E+04  0.25500000920E-02 0.  1.
    10030    2    1    2    0    0  0.00000000000E+00  0.00000000000E+00 -0.38510526598E+03  0.30473912780E+04  0.30229600618E+04 0.  0.
        1    1    3    3  502    0  0.12066411638E+04 -0.20532585945E+03  0.70142349803E+03  0.14107219890E+04  0.50400001928E-02 0.  1.
       -1    1    3    3    0  502 -0.12066411638E+04  0.20532585945E+03 -0.10865287640E+04  0.16366692890E+04  0.50400001928E-02 0. -1.
</event>
<event>
 5   0  0.1185575E-06  0.3117376E+04  0.7818609E-02  0.8210985E-01
        3   -1    0    0  501    0  0.00000000000E+00  0.00000000000E+00  0.22871666436E+04  0.22871666459E+04  0.10100000352E+00 0. -1.
       -3   -1    0    0    0  501  0.00000000000E+00  0.00000000000E+00 -0.10622348818E+04  0.10622348866E+04  0.10100000352E+00 0.  1.
    10030    2    1    2    0    0  0.00000000000E+00  0.00000000000E+00  0.12249317619E+04  0.33494015324E+04  0.31173759485E+04 0.  0.
        1    1    3    3  502    0 -0.26157134768E+03  0.22044053682E+03 -0.10214075027E+04  0.10771661371E+04  0.50400001928E-02 0.  1.
       -1    1    3    3    0  502  0.26157134768E+03 -0.22044053682E+03  0.22463392646E+04  0.22722353954E+04  0.50400001928E-02 0. -1.
</event>
<event>
 5   0  0.3656086E-06  0.3214213E+04  0.7818609E-02  0.8185074E-01
       -2   -1    0    0    0  501  0.00000000000E+00  0.00000000000E+00  0.90069568235E+03  0.90069568235E+03  0.25500000920E-02 0.  1.
        2   -1    0    0  501    0  0.00000000000E+00  0.00000000000E+00 -0.28675513810E+04  0.28675513810E+04  0.25500000920E-02 0. -1.
    10030    2    1    2    0    0  0.00000000000E+00  0.00000000000E+00 -0.19668556987E+04  0.37682470634E+04  0.32142129038E+04 0.  0.
        3    1    3    3  502    0 -0.42445580369E+03 -0.12482026071E+04 -0.20608727376E+04  0.24465013649E+04  0.10100000352E+00 0. -1.
       -3    1    3    3    0  502  0.42445580369E+03  0.12482026071E+04  0.94017038961E+02  0.13217456985E+04  0.10100000352E+00 0.  1.
</event>
<event>
 5   0  0.3758062E-06  0.3019548E+04  0.7818609E-02  0.8238171E-01
       -2   -1    0    0    0  501  0.00000000000E+00  0.00000000000E+00  0.17611656633E+04  0.17611656633E+04  0.25500000920E-02 0.  1.
        2   -1    0    0  501    0  0.00000000000E+00  0.00000000000E+00 -0.12942661474E+04  0.12942661474E+04  0.25500000920E-02 0. -1.
    10030    2    1    2    0    0  0.00000000000E+00  0.00000000000E+00  0.46689951585E+03  0.30554318107E+04  0.30195477131E+04 0.  0.
        2    1    3    3  502    0 -0.84180541803E+03 -0.39678479695E+03  0.14364187085E+04  0.17115411894E+04  0.25500000920E-02 0.  1.
       -2    1    3    3    0  502  0.84180541803E+03  0.39678479695E+03 -0.96951919269E+03  0.13438906213E+04  0.25500000920E-02 0. -1.
</event>
<event>
 5   0  0.3497546E-06  0.3173306E+04  0.7818609E-02  0.8195903E-01
        2   -1    0    0  501    0  0.00000000000E+00  0.00000000000E+00  0.18331052045E+04  0.18331052045E+04  0.25500000920E-02 0. -1.
       -2   -1    0    0    0  501  0.00000000000E+00  0.00000000000E+00 -0.13733350288E+04  0.13733350288E+04  0.25500000920E-02 0.  1.
    10030    2    1    2    0    0  0.00000000000E+00  0.00000000000E+00  0.45977017575E+03  0.32064402333E+04  0.31733059032E+04 0.  0.
        4    1    3    3  502    0 -0.27714094503E+02 -0.13500416960E+04 -0.61193181242E+03  0.14825123298E+04  0.12699999809E+01 0.  1.
       -4    1    3    3    0  502  0.27714094503E+02  0.13500416960E+04  0.10717019882E+04  0.17239279035E+04  0.12699999809E+01 0. -1.
</event>
<event>
 5   0  0.3656086E-06  0.3191361E+04  0.7818609E-02  0.8191102E-01
       -2   -1    0    0    0  501  0.00000000000E+00  0.00000000000E+00  0.15288841528E+04  0.15288841528E+04  0.25500000920E-02 0.  1.
        2   -1    0    0  501    0  0.00000000000E+00  0.00000000000E+00 -0.16653951806E+04  0.16653951806E+04  0.25500000920E-02 0. -1.
    10030    2    1    2    0    0  0.00000000000E+00  0.00000000000E+00 -0.13651102782E+03  0.31942793334E+04  0.31913610262E+04 0.  0.
        3    1    3    3  502    0 -0.11701504151E+04  0.97028404386E+03  0.41746462706E+03  0.15763818842E+04  0.10100000352E+00 0.  1.
       -3    1    3    3    0  502  0.11701504151E+04 -0.97028404386E+03 -0.55397565488E+03  0.16178974492E+04  0.10100000352E+00 0. -1.
</event>
<event>
 5   0  0.1268836E-06  0.3201622E+04  0.7818609E-02  0.8188389E-01
       -1   -1    0    0    0  501  0.00000000000E+00  0.00000000000E+00  0.12656047084E+04  0.12656047084E+04  0.50400001928E-02 0. -1.
        1   -1    0    0  501    0  0.00000000000E+00  0.00000000000E+00 -0.20248001335E+04  0.20248001335E+04  0.50400001928E-02 0.  1.
    10030    2    1    2    0    0  0.00000000000E+00  0.00000000000E+00 -0.75919542506E+03  0.32904048419E+04  0.32016224528E+04 0.  0.
        1    1    3    3  502    0 -0.10216591706E+03  0.19593398996E+03 -0.20090508145E+04  0.20211662916E+04  0.50400001928E-02 0.  1.
       -1    1    3    3    0  502  0.10216591706E+03 -0.19593398996E+03  0.12498553894E+04  0.12692385503E+04  0.50400001928E-02 0. -1.
</event>
<event>
 5   0  0.1185575E-06  0.3150237E+04  0.7818609E-02  0.8202084E-01
        3   -1    0    0  501    0  0.00000000000E+00  0.00000000000E+00  0.88101177754E+03  0.88101178333E+03  0.10100000352E+00 0. -1.
       -3   -1    0    0    0  501  0.00000000000E+00  0.00000000000E+00 -0.28160785542E+04  0.28160785560E+04  0.10100000352E+00 0.  1.
    10030    2    1    2    0    0  0.00000000000E+00  0.00000000000E+00 -0.19350667767E+04  0.36970903393E+04  0.31502370621E+04 0.  0.
        4    1    3    3  502    0 -0.13192089866E+04  0.80936173617E+03 -0.62413411292E+03  0.16688090886E+04  0.12699999809E+01 0. -1.
       -4    1    3    3    0  502  0.13192089866E+04 -0.80936173617E+03 -0.13109326637E+04  0.20282812507E+04  0.12699999809E+01 0.  1.
</event>
<event>
 5   0  0.3497546E-06  0.3211722E+04  0.7818609E-02  0.8185728E-01
       -2   -1    0    0    0  501  0.00000000000E+00  0.00000000000E+00  0.11702371718E+04  0.11702371718E+04  0.25500000920E-02 0.  1.
        2   -1    0    0  501    0  0.00000000000E+00  0.00000000000E+00 -0.22036472498E+04  0.22036472498E+04  0.25500000920E-02 0. -1.
    10030    2    1    2    0    0  0.00000000000E+00  0.00000000000E+00 -0.10334100780E+04  0.33738844216E+04  0.32117222329E+04 0.  0.
        4    1    3    3  502    0  0.13141344160E+04  0.58745348267E+03 -0.12645020514E+04  0.19159900596E+04  0.12699999809E+01 0. -1.
       -4    1    3    3    0  502 -0.13141344160E+04 -0.58745348267E+03  0.23109197348E+03  0.14578943620E+04  0.12699999809E+01 0.  1.
</event>
<event>
 5   0  0.3758062E-06  0.2741582E+04  0.7818609E-02  0.8321638E-01
       -2   -1    0    0    0  501  0.00000000000E+00  0.00000000000E+00  0.13149593441E+04  0.13149593442E+04  0.25500000920E-02 0.  1.
        2   -1    0    0  501    0  0.00000000000E+00  0.00000000000E+00 -0.14289935545E+04  0.14289935545E+04  0.25500000920E-02 0. -1.
    10030    2    1    2    0    0  0.00000000000E+00  0.00000000000E+00 -0.11403421034E+03  0.27439528986E+04  0.27415823367E+04 0.  0.
        2    1    3    3  502    0  0.20275758537E+03 -0.81840774515E+03 -0.11387691933E+04  0.14169323030E+04  0.25500000920E-02 0. -1.
       -2    1    3    3    0  502 -0.20275758537E+03  0.81840774515E+03  0.10247349830E+04  0.13270205956E+04  0.25500000920E-02 0.  1.
</event>
<event>
 5   0  0.1273754E-06  0.3232557E+04  0.7818609E-02  0.8180271E-01
       -1   -1    0    0    0  501  0.00000000000E+00  0.00000000000E+00  0.15346277844E+04  0.15346277844E+04  0.50400001928E-02 0. -1.
        1   -1    0    0  501    0  0.00000000000E+00  0.00000000000E+00 -0.17022735232E+04  0.17022735232E+04  0.50400001928E-02 0.  1.
    10030    2    1    2    0    0  0.00000000000E+00  0.00000000000E+00 -0.16764573886E+03  0.32369013076E+04  0.32325570345E+04 0.  0.
        2    1    3    3  502    0 -0.15422706160E+04 -0.37262067844E+03  0.22466813394E+03  0.16024732738E+04  0.25500000920E-02 0.  1.
       -2    1    3    3    0  502  0.15422706160E+04  0.37262067844E+03 -0.39231387279E+03  0.16344280338E+04  0.25500000920E-02 0. -1.
</event>
<event>
 5   0  0.1273754E-06  0.3325560E+04  0.7818609E-02  0.8156422E-01
       -1   -1    0    0    0  501  0.00000000000E+00  0.00000000000E+00  0.19446866530E+04  0.19446866530E+04  0.50400001928E-02 0. -1.
        1   -1    0    0  501    0  0.00000000000E+00  0.00000000000E+00 -0.14217390033E+04  0.14217390034E+04  0.50400001928E-02 0.  1.
    10030    2    1    2    0    0  0.00000000000E+00  0.00000000000E+00  0.52294764967E+03  0.33664256564E+04  0.33255597206E+04 0.  0.
        2    1    3    3  502    0 -0.77964345139E+03 -0.60357445482E+03  0.16168410364E+04  0.18937584246E+04  0.25500000920E-02 0. -1.
       -2    1    3    3    0  502  0.77964345139E+03  0.60357445482E+03 -0.10938933868E+04  0.14726672317E+04  0.25500000920E-02 0.  1.
</event>
<event>
 5   0  0.3531437E-06  0.3145889E+04  0.7818609E-02  0.8203256E-01
       -2   -1    0    0    0  501  0.00000000000E+00  0.00000000000E+00  0.92142588815E+03  0.92142588816E+03  0.25500000920E-02 0. -1.
        2   -1    0    0  501    0  0.00000000000E+00  0.00000000000E+00 -0.26851369039E+04  0.26851369039E+04  0.25500000920E-02 0.  1.
    10030    2    1    2    0    0  0.00000000000E+00  0.00000000000E+00 -0.17637110157E+04  0.36065627920E+04  0.31458891630E+04 0.  0.
        1    1    3    3  502    0  0.41530541639E+03  0.84853257667E+03 -0.23236647926E+04  0.25083668374E+04  0.50400001928E-02 0.  1.
       -1    1    3    3    0  502 -0.41530541639E+03 -0.84853257667E+03  0.55995377687E+03  0.10981959546E+04  0.50400001928E-02 0. -1.
</event>
<event>
 5   0  0.1268836E-06  0.3051557E+04  0.7818609E-02  0.8229160E-01
        1   -1    0    0  501    0  0.00000000000E+00  0.00000000000E+00  0.24821025630E+04  0.24821025630E+04  0.50400001928E-02 0.  1.
       -1   -1    0    0    0  501  0.00000000000E+00  0.00000000000E+00 -0.93791434207E+03  0.93791434208E+03  0.50400001928E-02 0. -1.
    10030    2    1    2    0    0  0.00000000000E+00  0.00000000000E+00  0.15441882210E+04  0.34200169051E+04  0.30515567125E+04 0.  0.
        1    1    3    3  502    0 -0.16655035830E+03 -0.33481138703E+02 -0.92728187381E+03  0.94271505877E+03  0.50400001928E-02 0. -1.
       -1    1    3    3    0  502  0.16655035830E+03  0.33481138703E+02  0.24714700948E+04  0.24773018463E+04  0.50400001928E-02 0.  1.
</event>
<event>
 5   0  0.1306843E-06  0.3177767E+04  0.7818609E-02  0.8194714E-01
        1   -1    0    0  501    0  0.00000000000E+00  0.00000000000E+00  0.96574231248E+03  0.96574231250E+03  0.50400001928E-02 0.  1.
       -1   -1    0    0    0  501  0.00000000000E+00  0.00000000000E+00 -0.26141044156E+04  0.26141044156E+04  0.50400001928E-02 0. -1.
    10030    2    1    2    0    0  0.00000000000E+00  0.00000000000E+00 -0.16483621031E+04  0.35798467281E+04  0.31777672938E+04 0.  0.
        5    1    3    3  502    0  0.69731569623E+03  0.11384454387E+04 -0.17947116685E+04  0.22368100635E+04  0.46999998093E+01 0. -1.
       -5    1    3    3    0  502 -0.69731569623E+03 -0.11384454387E+04  0.14634956537E+03  0.13430366646E+04  0.46999998093E+01 0.  1.
</event>
<event>
 5   0  0.1268836E-06  0.2641694E+04  0.7818609E-02  0.8354175E-01
        1   -1    0    0  501    0  0.00000000000E+00  0.00000000000E+00  0.19794727724E+04  0.19794727724E+04  0.50400001928E-02 0.  1.
       -1   -1    0    0    0  501  0.00000000000E+00  0.00000000000E+00 -0.88136411438E+03  0.88136411440E+03  0.50400001928E-02 0. -1.
    10030    2    1    2    0    0  0.00000000000E+00  0.00000000000E+00  0.10981086581E+04  0.28608368868E+04  0.26416935985E+04 0.  0.
        1    1    3    3  502    0  0.95480038894E+03  0.52472854256E+03 -0.25965500701E+03  0.11200020307E+04  0.50400001928E-02 0. -1.
       -1    1    3    3    0  502 -0.95480038894E+03 -0.52472854256E+03  0.13577636651E+04  0.17408348561E+04  0.50400001928E-02 0.  1.
</event>
<event>
 5   0  0.1240725E-06  0.3215039E+04  0.7818609E-02  0.8184857E-01
        1   -1    0    0  501    0  0.00000000000E+00  0.00000000000E+00  0.21156563969E+04  0.21156563969E+04  0.50400001928E-02 0. -1.
       -1   -1    0    0    0  501  0.00000000000E+00  0.00000000000E+00 -0.12214263923E+04  0.12214263923E+04  0.50400001928E-02 0.  1.
    10030    2    1    2    0    0  0.00000000000E+00  0.00000000000E+00  0.89423000465E+03  0.33370827892E+04  0.32150387620E+04 0.  0.
        3    1    3    3  502    0  0.53718792483E+03 -0.53333056862E+03 -0.10248526595E+04  0.12741017801E+04  0.10100000352E+00 0.  1.
       -3    1    3    3    0  502 -0.53718792483E+03  0.53333056862E+03  0.19190826642E+04  0.20629810092E+04  0.10100000352E+00 0. -1.
</event>
<event>
 5   0  0.3531437E-06  0.3123051E+04  0.7818609E-02  0.8209440E-01
        2   -1    0    0  501    0  0.00000000000E+00  0.00000000000E+00  0.82702493836E+03  0.82702493837E+03  0.25500000920E-02 0.  1.
       -2   -1    0    0    0  501  0.00000000000E+00  0.00000000000E+00 -0.29483543912E+04  0.29483543912E+04  0.25500000920E-02 0. -1.
    10030    2    1    2    0    0  0.00000000000E+00  0.00000000000E+00 -0.21213294529E+04  0.37753793296E+04  0.31230514621E+04 0.  0.
        1    1    3    3  502    0 -0.10231940803E+04 -0.51939766227E+03 -0.23409671371E+04  0.26070725335E+04  0.50400001928E-02 0. -1.
       -1    1    3    3    0  502  0.10231940803E+04  0.51939766227E+03  0.21963768423E+03  0.11683067962E+04  0.50400001928E-02 0.  1.
</event>
<event>
 5   0  0.3531437E-06  0.3206962E+04  0.7818609E-02  0.8186981E-01
        2   -1    0    0  501    0  0.00000000000E+00  0.00000000000E+00  0.21968275405E+04  0.21968275405E+04  0.25500000920E-02 0.  1.
       -2   -1    0    0    0  501  0.00000000000E+00  0.00000000000E+00 -0.11703932172E+04  0.11703932172E+04  0.25500000920E-02 0. -1.
    10030    2    1    2    0    0  0.00000000000E+00  0.00000000000E+00  0.10264343233E+04  0.33672207577E+04  0.32069624587E+04 0.  0.
        1    1    3    3  502    0 -0.52274378532E+03  0.14852325438E+04  0.83164664354E+03  0.17806776558E+04  0.50400001928E-02 0.  1.
       -1    1    3    3    0  502  0.52274378532E+03 -0.14852325438E+04  0.19478767972E+03  0.15865431019E+04  0.50400001928E-02 0. -1.
</event>
<event>
 5   0  0.1185575E-06  0.3175189E+04  0.7818609E-02  0.8195400E-01
        3   -1    0    0  501    0  0.00000000000E+00  0.00000000000E+00  0.16374257357E+04  0.16374257388E+04  0.10100000352E+00 0.  1.
       -3   -1    0    0    0  501  0.00000000000E+00  0.00000000000E+00 -0.15392801552E+04  0.15392801586E+04  0.10100000352E+00 0. -1.
    10030    2    1    2    0    0  0.00000000000E+00  0.00000000000E+00  0.98145580488E+02  0.31767058974E+04  0.31751894122E+04 0.  0.
        3    1    3    3  502    0 -0.50111407776E+03 -0.13347812389E+04 -0.64961643508E+03  0.15667666698E+04  0.10100000352E+00 0. -1.
       -3    1    3    3    0  502  0.50111407776E+03  0.13347812389E+04  0.74776201557E+03  0.16099392276E+04  0.10100000352E+00 0.  1.
</event>
<event>
 5   0  0.3497546E-06  0.3163881E+04  0.7818609E-02  0.8198422E-01
       -2   -1    0    0    0  501  0.00000000000E+00  0.00000000000E+00  0.19304925768E+04  0.19304925768E+04  0.25500000920E-02 0. -1.
        2   -1    0    0  501    0  0.00000000000E+00  0.00000000000E+00 -0.12963199485E+04  0.12963199485E+04  0.25500000920E-02 0.  1.
    10030    2    1    2    0    0  0.00000000000E+00  0.00000000000E+00  0.63417262836E+03  0.32268125253E+04  0.31638811847E+04 0.  0.
        4    1    3    3  502    0  0.95946104282E+03  0.57777019426E+03 -0.82234211698E+03  0.13894718638E+04  0.12699999809E+01 0.  1.
       -4    1    3    3    0  502 -0.95946104282E+03 -0.57777019426E+03  0.14565147453E+04  0.18373406615E+04  0.12699999809E+01 0. -1.
</event>
<event>
 5   0  0.1273754E-06  0.3156979E+04  0.7818609E-02  0.8200272E-01
       -1   -1    0    0    0  501  0.00000000000E+00  0.00000000000E+00  0.14959675557E+04  0.14959675557E+04  0.50400001928E-02 0. -1.
        1   -1    0    0  501    0  0.00000000000E+00  0.00000000000E+00 -0.16655636732E+04  0.16655636732E+04  0.50400001928E-02 0.  1.
    10030    2    1    2    0    0  0.00000000000E+00  0.00000000000E+00 -0.16959611745E+03  0.31615312289E+04  0.31569790731E+04 0.  0.
        2    1    3    3  502    0 -0.66833801021E+03  0.78570852146E+03  0.11117535131E+04  0.15165782045E+04  0.25500000920E-02 0. -1.
       -2    1    3    3    0  502  0.66833801021E+03 -0.78570852146E+03 -0.12813496306E+04  0.16449530244E+04  0.25500000920E-02 0.  1.
</event>
<event>
 5   0  0.3745943E-06  0.3188071E+04  0.7818609E-02  0.8191975E-01
        2   -1    0    0  501    0  0.00000000000E+00  0.00000000000E+00  0.23447138555E+04  0.23447138555E+04  0.25500000920E-02 0. -1.
       -2   -1    0    0    0  501  0.00000000000E+00  0.00000000000E+00 -0.10836927828E+04  0.10836927828E+04  0.25500000920E-02 0.  1.
    10030    2    1    2    0    0  0.00000000000E+00  0.00000000000E+00  0.12610210727E+04  0.34284066383E+04  0.31880711931E+04 0.  0.
        5    1    3    3  502    0 -0.71757942455E+03  0.26980965075E+02  0.21609169124E+04  0.22771104926E+04  0.46999998093E+01 0. -1.
       -5    1    3    3    0  502  0.71757942455E+03 -0.26980965075E+02 -0.89989583970E+03  0.11512961458E+04  0.46999998093E+01 0.  1.
</event>
<event>
 5   0  0.3745943E-06  0.3191045E+04  0.7818609E-02  0.8191186E-01
       -2   -1    0    0    0  501  0.00000000000E+00  0.00000000000E+00  0.10056078718E+04  0.10056078718E+04  0.25500000920E-02 0.  1.
        2   -1    0    0  501    0  0.00000000000E+00  0.00000000000E+00 -0.25314951313E+04  0.25314951313E+04  0.25500000920E-02 0. -1.
    10030    2    1    2    0    0  0.00000000000E+00  0.00000000000E+00 -0.15258872595E+04  0.35371030032E+04  0.31910446136E+04 0.  0.
        5    1    3    3  502    0  0.15807836866E+04 -0.20394862330E+03 -0.68303363927E+03  0.17340787604E+04  0.46999998093E+01 0.  1.
       -5    1    3    3    0  502 -0.15807836866E+04  0.20394862330E+03 -0.84285362022E+03  0.18030242428E+04  0.46999998093E+01 0. -1.
</event>
<event>
 5   0  0.3656086E-06  0.3142414E+04  0.7818609E-02  0.8204193E-01
        2   -1    0    0  501    0  0.00000000000E+00  0.00000000000E+00  0.14519565137E+04  0.14519565137E+04  0.25500000920E-02 0. -1.
       -2   -1    0    0    0  501  0.00000000000E+00  0.00000000000E+00 -0.17002519066E+04  0.17002519066E+04  0.25500000920E-02 0.  1.
    10030    2    1    2    0    0  0.00000000000E+00  0.00000000000E+00 -0.24829539289E+03  0.31522084203E+04  0.31424142507E+04 0.  0.
        3    1    3    3  502    0 -0.50724556394E+03 -0.14004003826E+04  0.37768398822E+03  0.15365755754E+04  0.10100000352E+00 0. -1.
       -3    1    3    3    0  502  0.50724556394E+03  0.14004003826E+04 -0.62597938111E+03  0.16156328449E+04  0.10100000352E+00 0.  1.
</event>
<event>
 5   0  0.3745943E-06  0.3149234E+04  0.7818609E-02  0.8202354E-01
        2   -1    0    0  501    0  0.00000000000E+00  0.00000000000E+00  0.14583905424E+04  0.14583905424E+04  0.25500000920E-02 0. -1.
       -2   -1    0    0    0  501  0.00000000000E+00  0.00000000000E+00 -0.17001062225E+04  0.17001062225E+04  0.25500000920E-02 0.  1.
    10030    2    1    2    0    0  0.00000000000E+00  0.00000000000E+00 -0.24171568015E+03  0.31584967649E+04  0.31492340884E+04 0.  0.
        5    1    3    3  502    0  0.25404163185E+03 -0.12396825174E+04  0.81893977274E+03  0.15073268843E+04  0.46999998093E+01 0. -1.
       -5    1    3    3    0  502 -0.25404163185E+03  0.12396825174E+04 -0.10606554529E+04  0.16511698806E+04  0.46999998093E+01 0.  1.
</event>
<event>
 5   0  0.3758062E-06  0.3229542E+04  0.7818609E-02  0.8181059E-01
        2   -1    0    0  501    0  0.00000000000E+00  0.00000000000E+00  0.12601916843E+04  0.12601916843E+04  0.25500000920E-02 0.  1.
       -2   -1    0    0    0  501  0.00000000000E+00  0.00000000000E+00 -0.20691174420E+04  0.20691174420E+04  0.25500000920E-02 0. -1.
    10030    2    1    2    0    0  0.00000000000E+00  0.00000000000E+00 -0.80892575763E+03  0.33293091263E+04  0.32295415119E+04 0.  0.
        2    1    3    3  502    0  0.80634153143E+03  0.82925269196E+03 -0.15660537475E+04  0.19468875244E+04  0.25500000920E-02 0. -1.
       -2    1    3    3    0  502 -0.80634153143E+03 -0.82925269196E+03  0.75712798988E+03  0.13824216019E+04  0.25500000920E-02 0.  1.
</event>
<event>
 5   0  0.3745943E-06  0.2526137E+04  0.7818609E-02  0.8393733E-01
        2   -1    0    0  501    0  0.00000000000E+00  0.00000000000E+00  0.13248222756E+04  0.13248222756E+04  0.25500000920E-02 0. -1.
       -2   -1    0    0    0  501  0.00000000000E+00  0.00000000000E+00 -0.12041935061E+04  0.12041935061E+04  0.25500000920E-02 0.  1.
    10030    2    1    2    0    0  0.00000000000E+00  0.00000000000E+00  0.12062876952E+03  0.25290157817E+04  0.25261372734E+04 0.  0.
        5    1    3    3  502    0 -0.81040108630E+03 -0.30373874114E+03  0.98131545813E+03  0.13084377180E+04  0.46999998093E+01 0. -1.
       -5    1    3    3    0  502  0.81040108630E+03  0.30373874114E+03 -0.86068668861E+03  0.12205780637E+04  0.46999998093E+01 0.  1.
</event>
<event>
 5   0  0.3758062E-06  0.3049175E+04  0.7818609E-02  0.8229826E-01
        2   -1    0    0  501    0  0.00000000000E+00  0.00000000000E+00  0.22311826540E+04  0.22311826540E+04  0.25500000920E-02 0.  1.
       -2   -1    0    0    0  501  0.00000000000E+00  0.00000000000E+00 -0.10417646547E+04  0.10417646547E+04  0.25500000920E-02 0. -1.
    10030    2    1    2    0    0  0.00000000000E+00  0.00000000000E+00  0.11894179992E+04  0.32729473087E+04  0.30491751194E+04 0.  0.
        2    1    3    3  502    0 -0.97613665136E+03 -0.10057518201E+04  0.12387307016E+04  0.18705168368E+04  0.25500000920E-02 0.  1.
       -2    1    3    3    0  502  0.97613665136E+03  0.10057518201E+04 -0.49312702387E+02  0.14024304719E+04  0.25500000920E-02 0. -1.
</event>
<event>
 5   0  0.3497546E-06  0.3175672E+04  0.7818609E-02  0.8195272E-01
       -2   -1    0    0    0  501  0.00000000000E+00  0.00000000000E+00  0.11242545432E+04  0.11242545432E+04  0.25500000920E-02 0. -1.
        2   -1    0    0  501    0  0.00000000000E+00  0.00000000000E+00 -0.22425739348E+04  0.22425739348E+04  0.25500000920E-02 0.  1.
    10030    2    1    2    0    0  0.00000000000E+00  0.00000000000E+00 -0.11183193916E+04  0.33668284780E+04  0.31756724861E+04 0.  0.
        4    1    3    3  502    0 -0.13267781102E+04  0.85755450347E+03 -0.72840078231E+03  0.17396290388E+04  0.12699999809E+01 0.  1.
       -4    1    3    3    0  502  0.13267781102E+04 -0.85755450347E+03 -0.38991860925E+03  0.16271994392E+04  0.12699999809E+01 0. -1.
</event>
<event>
 5   0  0.3531437E-06  0.3145118E+04  0.7818609E-02  0.8203463E-01
       -2   -1    0    0    0  501  0.00000000000E+00  0.00000000000E+00  0.17338199689E+04  0.17338199689E+04  0.25500000920E-02 0. -1.
        2   -1    0    0  501    0  0.00000000000E+00  0.00000000000E+00 -0.14262971946E+04  0.14262971946E+04  0.25500000920E-02 0.  1.
    10030    2    1    2    0    0  0.00000000000E+00  0.00000000000E+00  0.30752277428E+03  0.31601171634E+04  0.31451184763E+04 0.  0.
        1    1    3    3  502    0 -0.13001128806E+04  0.62701108242E+02  0.10404194696E+04  0.16663425830E+04  0.50400001928E-02 0. -1.
       -1    1    3    3    0  502  0.13001128806E+04 -0.62701108242E+02 -0.73289669530E+03  0.14937745805E+04  0.50400001928E-02 0.  1.
</event>
<event>
 5   0  0.1268836E-06  0.3250257E+04  0.7818609E-02  0.8175669E-01
        1   -1    0    0  501    0  0.00000000000E+00  0.00000000000E+00  0.16396624464E+04  0.16396624464E+04  0.50400001928E-02 0. -1.
       -1   -1    0    0    0  501  0.00000000000E+00  0.00000000000E+00 -0.16107233878E+04  0.16107233878E+04  0.50400001928E-02 0.  1.
    10030    2    1    2    0    0  0.00000000000E+00  0.00000000000E+00  0.28939058607E+02  0.32503858341E+04  0.32502570055E+04 0.  0.
        1    1    3    3  502    0 -0.27114505936E+03  0.15838128423E+04 -0.22856250524E+03  0.16230291375E+04  0.50400001928E-02 0.  1.
       -1    1    3    3    0  502  0.27114505936E+03 -0.15838128423E+04  0.25750156385E+03  0.16273566966E+04  0.50400001928E-02 0. -1.
</event>
<event>
 5   0  0.1306843E-06  0.3192046E+04  0.7818609E-02  0.8190921E-01
       -1   -1    0    0    0  501  0.00000000000E+00  0.00000000000E+00  0.12445395104E+04  0.12445395104E+04  0.50400001928E-02 0. -1.
        1   -1    0    0  501    0  0.00000000000E+00  0.00000000000E+00 -0.20467723254E+04  0.20467723254E+04  0.50400001928E-02 0.  1.
    10030    2    1    2    0    0  0.00000000000E+00  0.00000000000E+00 -0.80223281497E+03  0.32913118358E+04  0.31920457565E+04 0.  0.
        5    1    3    3  502    0 -0.41757247054E+03 -0.13876264532E+04 -0.10907914557E+04  0.18137590886E+04  0.46999998093E+01 0. -1.
       -5    1    3    3    0  502  0.41757247054E+03  0.13876264532E+04  0.28855864069E+03  0.14775527472E+04  0.46999998093E+01 0.  1.
</event>
<event>
 5   0  0.1273754E-06  0.3180717E+04  0.7818609E-02  0.8193928E-01
        1   -1    0    0  501    0  0.00000000000E+00  0.00000000000E+00  0.21047518501E+04  0.21047518501E+04  0.50400001928E-02 0.  1.
       -1   -1    0    0    0  501  0.00000000000E+00  0.00000000000E+00 -0.12016810934E+04  0.12016810934E+04  0.50400001928E-02 0. -1.
    10030    2    1    2    0    0  0.00000000000E+00  0.00000000000E+00  0.90307075670E+03  0.33064329434E+04  0.31807172175E+04 0.  0.
        2    1    3    3  502    0 -0.88719835814E+03  0.12422747686E+04 -0.12042333135E+02  0.15266016327E+04  0.25500000920E-02 0. -1.
       -2    1    3    3    0  502  0.88719835814E+03 -0.12422747686E+04  0.91511308984E+03  0.17798313107E+04  0.25500000920E-02 0.  1.
</event>
<event>
 5   0  0.1306843E-06  0.3205174E+04  0.7818609E-02  0.8187452E-01
        1   -1    0    0  501    0  0.00000000000E+00  0.00000000000E+00  0.18834992291E+04  0.18834992291E+04  0.50400001928E-02 0. -1.
       -1   -1    0    0    0  501  0.00000000000E+00  0.00000000000E+00 -0.13635706813E+04  0.13635706813E+04  0.50400001928E-02 0.  1.
    10030    2    1    2    0    0  0.00000000000E+00  0.00000000000E+00  0.51992854781E+03  0.32470699104E+04  0.32051735223E+04 0.  0.
        5    1    3    3  502    0  0.18906314041E+03  0.22610958700E+03 -0.13358699183E+04  0.13680061933E+04  0.46999998093E+01 0.  1.
       -5    1    3    3    0  502 -0.18906314041E+03 -0.22610958700E+03  0.18557984661E+04  0.18790637171E+04  0.46999998093E+01 0. -1.
</event>
<event>
 5   0  0.3531437E-06  0.3208391E+04  0.7818609E-02  0.8186605E-01
       -2   -1    0    0    0  501  0.00000000000E+00  0.00000000000E+00  0.77949348883E+03  0.77949348884E+03  0.25500000920E-02 0. -1.
        2   -1    0    0  501    0  0.00000000000E+00  0.00000000000E+00 -0.33014304332E+04  0.33014304332E+04  0.25500000920E-02 0.  1.
    10030    2    1    2    0    0  0.00000000000E+00  0.00000000000E+00 -0.25219369444E+04  0.40809239221E+04  0.32083912022E+04 0.  0.
        1    1    3    3  502    0  0.11598562213E+03 -0.26318814464E+03 -0.32683683132E+04  0.32809986429E+04  0.50400001928E-02 0.  1.
       -1    1    3    3    0  502 -0.11598562213E+03  0.26318814464E+03  0.74643136876E+03  0.79992527921E+03  0.50400001928E-02 0. -1.
</event>
<event>
 5   0  0.3497546E-06  0.3202837E+04  0.7818609E-02  0.8188068E-01
        2   -1    0    0  501    0  0.00000000000E+00  0.00000000000E+00  0.27495094962E+04  0.27495094962E+04  0.25500000920E-02 0.  1.
       -2   -1    0    0    0  501  0.00000000000E+00  0.00000000000E+00 -0.93272687166E+03  0.93272687166E+03  0.25500000920E-02 0. -1.
    10030    2    1    2    0    0  0.00000000000E+00  0.00000000000E+00  0.18167826245E+04  0.36822363678E+04  0.32028371117E+04 0.  0.
        4    1    3    3  502    0  0.19798297265E+03 -0.14266688551E+04  0.10364970061E+03  0.14440658409E+04  0.12699999809E+01 0. -1.
       -4    1    3    3    0  502 -0.19798297265E+03  0.14266688551E+04  0.17131329239E+04  0.22381705269E+04  0.12699999809E+01 0.  1.
</event>
<event>
 5   0  0.1273980E-06  0.3232000E+04  0.7818609E-02  0.8180417E-01
       -1   -1    0    0    0  501  0.00000000000E+00  0.00000000000E+00  0.18917052433E+04  0.18917052433E+04  0.50400001928E-02 0.  1.
        1   -1    0    0  501    0  0.00000000000E+00  0.00000000000E+00 -0.13804771701E+04  0.13804771701E+04  0.50400001928E-02 0. -1.
    10030    2    1    2    0    0  0.00000000000E+00  0.00000000000E+00  0.51122807318E+03  0.32721824134E+04  0.32319999387E+04 0.  0.
        4    1    3    3  502    0 -0.98221668582E+03  0.22091545624E+03  0.15354110750E+04  0.18360397705E+04  0.12699999809E+01 0.  1.
       -4    1    3    3    0  502  0.98221668582E+03 -0.22091545624E+03 -0.10241830018E+04  0.14361426429E+04  0.12699999809E+01 0. -1.
</event>
<event>
 5   0  0.1273754E-06  0.2844901E+04  0.7818609E-02  0.8289463E-01
        1   -1    0    0  501    0  0.00000000000E+00  0.00000000000E+00  0.13500695715E+04  0.13500695716E+04  0.50400001928E-02 0.  1.
       -1   -1    0    0    0  501  0.00000000000E+00  0.00000000000E+00 -0.14987115965E+04  0.14987115965E+04  0.50400001928E-02 0. -1.
    10030    2    1    2    0    0  0.00000000000E+00  0.00000000000E+00 -0.14864202492E+03  0.28487811680E+04  0.28449006471E+04 0.  0.
        2    1    3    3  502    0 -0.33407742480E+03 -0.24201855274E+03  0.12888529498E+04  0.13532636964E+04  0.25500000920E-02 0.  1.
       -2    1    3    3    0  502  0.33407742480E+03  0.24201855274E+03 -0.14374949747E+04  0.14955174717E+04  0.25500000920E-02 0. -1.
</event>
<event>
 5   0  0.1273754E-06  0.2485027E+04  0.7818609E-02  0.8408339E-01
        1   -1    0    0  501    0  0.00000000000E+00  0.00000000000E+00  0.17993725579E+04  0.17993725579E+04  0.50400001928E-02 0.  1.
       -1   -1    0    0    0  501  0.00000000000E+00  0.00000000000E+00 -0.85798782081E+03  0.85798782083E+03  0.50400001928E-02 0. -1.
    10030    2    1    2    0    0  0.00000000000E+00  0.00000000000E+00  0.94138473712E+03  0.26573603788E+04  0.24850269535E+04 0.  0.
        2    1    3    3  502    0  0.11115010345E+04  0.23577057122E+03  0.10083710979E+04  0.15191558785E+04  0.25500000920E-02 0. -1.
       -2    1    3    3    0  502 -0.11115010345E+04 -0.23577057122E+03 -0.66986360821E+02  0.11382045003E+04  0.25500000920E-02 0.  1.
</event>
<event>
 5   0  0.3758062E-06  0.3188210E+04  0.7818609E-02  0.8191938E-01
        2   -1    0    0  501    0  0.00000000000E+00  0.00000000000E+00  0.19328002705E+04  0.19328002705E+04  0.25500000920E-02 0.  1.
       -2   -1    0    0    0  501  0.00000000000E+00  0.00000000000E+00 -0.13147615392E+04  0.13147615392E+04  0.25500000920E-02 0. -1.
    10030    2    1    2    0    0  0.00000000000E+00  0.00000000000E+00  0.61803873129E+03  0.32475618097E+04  0.31882104439E+04 0.  0.
        2    1    3    3  502    0  0.60931661008E+03 -0.35798113563E+03 -0.11464805276E+04  0.13467868521E+04  0.25500000920E-02 0. -1.
       -2    1    3    3    0  502 -0.60931661008E+03  0.35798113563E+03  0.17645192589E+04  0.19007749577E+04  0.25500000920E-02 0.  1.
</event>
<event>
 5   0  0.1268836E-06  0.3198194E+04  0.7818609E-02  0.8189294E-01
        1   -1    0    0  501    0  0.00000000000E+00  0.00000000000E+00  0.18275248620E+04  0.18275248621E+04  0.50400001928E-02 0. -1.
       -1   -1    0    0    0  501  0.00000000000E+00  0.00000000000E+00 -0.13992207236E+04  0.13992207236E+04  0.50400001928E-02 0.  1.
    10030    2    1    2    0    0  0.00000000000E+00  0.00000000000E+00  0.42830413847E+03  0.32267455856E+04  0.31981936526E+04 0.  0.
        1    1    3    3  502    0 -0.30380845190E+03  0.78247633320E+03  0.15873842873E+04  0.17956496493E+04  0.50400001928E-02 0. -1.
       -1    1    3    3    0  502  0.30380845190E+03 -0.78247633320E+03 -0.11590801489E+04  0.14310959363E+04  0.50400001928E-02 0.  1.
</event>
<event>
 5   0  0.1273980E-06  0.2894052E+04  0.7818609E-02  0.8274650E-01
        1   -1    0    0  501    0  0.00000000000E+00  0.00000000000E+00  0.23510774107E+04  0.23510774107E+04  0.50400001928E-02 0.  1.
       -1   -1    0    0    0  501  0.00000000000E+00  0.00000000000E+00 -0.89060598435E+03  0.89060598436E+03  0.50400001928E-02 0. -1.
    10030    2    1    2    0    0  0.00000000000E+00  0.00000000000E+00  0.14604714263E+04  0.32416833950E+04  0.28940515625E+04 0.  0.
        4    1    3    3  502    0  0.94074438192E+03 -0.40995291344E+03 -0.41251703579E+03  0.11059987799E+04  0.12699999809E+01 0. -1.
       -4    1    3    3    0  502 -0.94074438192E+03  0.40995291344E+03  0.18729884621E+04  0.21356846151E+04  0.12699999809E+01 0.  1.
</event>
<event>
 5   0  0.1240725E-06  0.2860902E+04  0.7818609E-02  0.8284606E-01
        1   -1    0    0  501    0  0.00000000000E+00  0.00000000000E+00  0.15469779083E+04  0.15469779083E+04  0.50400001928E-02 0.  1.
       -1   -1    0    0    0  501  0.00000000000E+00  0.00000000000E+00 -0.13227011662E+04  0.13227011662E+04  0.50400001928E-02 0. -1.
    10030    2    1    2    0    0  0.00000000000E+00  0.00000000000E+00  0.22427674212E+03  0.28696790745E+04  0.28609015945E+04 0.  0.
        3    1    3    3  502    0  0.88480885883E+03 -0.80362771233E+03  0.90035157790E+03  0.14964415093E+04  0.10100000352E+00 0.  1.
       -3    1    3    3    0  502 -0.88480885883E+03  0.80362771233E+03 -0.67607483578E+03  0.13732375652E+04  0.10100000352E+00 0. -1.
</event>
<event>
 5   0  0.1273980E-06  0.3200046E+04  0.7818609E-02  0.8188805E-01
        1   -1    0    0  501    0  0.00000000000E+00  0.00000000000E+00  0.19929895838E+04  0.19929895838E+04  0.50400001928E-02 0.  1.
       -1   -1    0    0    0  501  0.00000000000E+00  0.00000000000E+00 -0.12845391014E+04  0.12845391014E+04  0.50400001928E-02 0. -1.
    10030    2    1    2    0    0  0.00000000000E+00  0.00000000000E+00  0.70845048240E+03  0.32775286851E+04  0.32000456553E+04 0.  0.
        4    1    3    3  502    0 -0.49803769210E+01  0.76541750203E+02 -0.12826544345E+04  0.12849464794E+04  0.12699999809E+01 0. -1.
       -4    1    3    3    0  502  0.49803769210E+01 -0.76541750203E+02  0.19911049169E+04  0.19925822057E+04  0.12699999809E+01 0.  1.
</event>
<event>
 5   0  0.3497546E-06  0.3223606E+04  0.7818609E-02  0.8182611E-01
       -2   -1    0    0    0  501  0.00000000000E+00  0.00000000000E+00  0.84341467461E+03  0.84341467461E+03  0.25500000920E-02 0. -1.
        2   -1    0    0  501    0  0.00000000000E+00  0.00000000000E+00 -0.30802272552E+04  0.30802272552E+04  0.25500000920E-02 0.  1.
    10030    2    1    2    0    0  0.00000000000E+00  0.00000000000E+00 -0.22368125806E+04  0.39236419298E+04  0.32236059735E+04 0.  0.
        4    1    3    3  502    0 -0.14173989706E+04 -0.55775868128E+03 -0.47688983085E+03  0.15961015357E+04  0.12699999809E+01 0. -1.
       -4    1    3    3    0  502  0.14173989706E+04  0.55775868128E+03 -0.17599227497E+04  0.23275403942E+04  0.12699999809E+01 0.  1.
</event>
<event>
 5   0  0.3758062E-06  0.3176356E+04  0.7818609E-02  0.8195090E-01
       -2   -1    0    0    0  501  0.00000000000E+00  0.00000000000E+00  0.15847746733E+04  0.15847746733E+04  0.25500000920E-02 0. -1.
        2   -1    0    0  501    0  0.00000000000E+00  0.00000000000E+00 -0.15915882219E+04  0.15915882219E+04  0.25500000920E-02 0.  1.
    10030    2    1    2    0    0  0.00000000000E+00  0.00000000000E+00 -0.68135485316E+01  0.31763628952E+04  0.31763555874E+04 0.  0.
        2    1    3    3  502    0 -0.12855729239E+04 -0.12391617204E+03 -0.92766846604E+03  0.15901640617E+04  0.25500000920E-02 0.  1.
       -2    1    3    3    0  502  0.12855729239E+04  0.12391617204E+03  0.92085491751E+03  0.15861988335E+04  0.25500000920E-02 0. -1.
</event>
<event>
 5   0  0.3745943E-06  0.3198629E+04  0.7818609E-02  0.8189179E-01
        2   -1    0    0  501    0  0.00000000000E+00  0.00000000000E+00  0.19807898172E+04  0.19807898172E+04  0.25500000920E-02 0.  1.
       -2   -1    0    0    0  501  0.00000000000E+00  0.00000000000E+00 -0.12913067853E+04  0.12913067854E+04  0.25500000920E-02 0. -1.
    10030    2    1    2    0    0  0.00000000000E+00  0.00000000000E+00  0.68948303185E+03  0.32720966025E+04  0.31986292885E+04 0.  0.
        5    1    3    3  502    0  0.15331630661E+03  0.11815618306E+04 -0.74662287477E+03  0.14060803876E+04  0.46999998093E+01 0. -1.
       -5    1    3    3    0  502 -0.15331630661E+03 -0.11815618306E+04  0.14361059066E+04  0.18660162149E+04  0.46999998093E+01 0.  1.
</event>
<event>
 5   0  0.3656086E-06  0.3190014E+04  0.7818609E-02  0.8191460E-01
       -2   -1    0    0    0  501  0.00000000000E+00  0.00000000000E+00  0.16977931627E+04  0.16977931627E+04  0.25500000920E-02 0. -1.
        2   -1    0    0  501    0  0.00000000000E+00  0.00000000000E+00 -0.14984432999E+04  0.14984432999E+04  0.25500000920E-02 0.  1.
    10030    2    1    2    0    0  0.00000000000E+00  0.00000000000E+00  0.19934986280E+03  0.31962364625E+04  0.31900136609E+04 0.  0.
        3    1    3    3  502    0 -0.78068247510E+03 -0.11795254769E+04  0.83820253333E+03  0.16441803352E+04  0.10100000352E+00 0. -1.
       -3    1    3    3    0  502  0.78068247510E+03  0.11795254769E+04 -0.63885267053E+03  0.15520561273E+04  0.10100000352E+00 0.  1.
</event>
<event>
 5   0  0.3531437E-06  0.2717552E+04  0.7818609E-02  0.8329332E-01
       -2   -1    0    0    0  501  0.00000000000E+00  0.00000000000E+00  0.14756163374E+04  0.14756163374E+04  0.25500000920E-02 0.  1.
        2   -1    0    0  501    0  0.00000000000E+00  0.00000000000E+00 -0.12511871743E+04  0.12511871743E+04  0.25500000920E-02 0. -1.
    10030    2    1    2    0    0  0.00000000000E+00  0.00000000000E+00  0.22442916314E+03  0.27268035117E+04  0.27175520128E+04 0.  0.
        1    1    3    3  502    0 -0.23257237989E+03  0.11064210109E+02 -0.12310211667E+04  0.12528469346E+04  0.50400001928E-02 0. -1.
       -1    1    3    3    0  502  0.23257237989E+03 -0.11064210109E+02  0.14554503298E+04  0.14739565771E+04  0.50400001928E-02 0.  1.
</event>
<event>
 5   0  0.1240725E-06  0.3199259E+04  0.7818609E-02  0.8189013E-01
        1   -1    0    0  501    0  0.00000000000E+00  0.00000000000E+00  0.13751609047E+04  0.13751609047E+04  0.50400001928E-02 0. -1.
       -1   -1    0    0    0  501  0.00000000000E+00  0.00000000000E+00 -0.18607387325E+04  0.18607387325E+04  0.50400001928E-02 0.  1.
    10030    2    1    2    0    0  0.00000000000E+00  0.00000000000E+00 -0.48557782779E+03  0.32358996371E+04  0.31992593885E+04 0.  0.
        3    1    3    3  502    0  0.64139635298E+03 -0.14527426840E+04 -0.43725253375E+03  0.16471309529E+04  0.10100000352E+00 0. -1.
       -3    1    3    3    0  502 -0.64139635298E+03  0.14527426840E+04 -0.48325294045E+02  0.15887686842E+04  0.10100000352E+00 0.  1.
</event>
<event>
 5   0  0.1240725E-06  0.3154830E+04  0.7818609E-02  0.8200849E-01
       -1   -1    0    0    0  501  0.00000000000E+00  0.00000000000E+00  0.14178153193E+04  0.14178153193E+04  0.50400001928E-02 0.  1.
        1   -1    0    0  501    0  0.00000000000E+00  0.00000000000E+00 -0.17549800653E+04  0.17549800653E+04  0.50400001928E-02 0. -1.
    10030    2    1    2    0    0  0.00000000000E+00  0.00000000000E+00 -0.33716474599E+03  0.31727953846E+04  0.31548297080E+04 0.  0.
        3    1    3    3  502    0 -0.12744488987E+04  0.41385511224E+03  0.66846833018E+03  0.14974464825E+04  0.10100000352E+00 0.  1.
       -3    1    3    3    0  502  0.12744488987E+04 -0.41385511224E+03 -0.10056330762E+04  0.16753489020E+04  0.10100000352E+00 0. -1.
</event>
<event>
 5   0  0.3745943E-06  0.3222449E+04  0.7818609E-02  0.8182913E-01
       -2   -1    0    0    0  501  0.00000000000E+00  0.00000000000E+00  0.17867800643E+04  0.17867800643E+04  0.25500000920E-02 0. -1.
        2   -1    0    0  501    0  0.00000000000E+00  0.00000000000E+00 -0.14529179983E+04  0.14529179983E+04  0.25500000920E-02 0.  1.
    10030    2    1    2    0    0  0.00000000000E+00  0.00000000000E+00  0.33386206596E+03  0.32396980626E+04  0.32224493259E+04 0.  0.
        5    1    3    3  502    0  0.15319207509E+04  0.79168899354E+02 -0.32863128096E+03  0.15687796246E+04  0.46999998093E+01 0.  1.
       -5    1    3    3    0  502 -0.15319207509E+04 -0.79168899354E+02  0.66249334692E+03  0.16709184380E+04  0.46999998093E+01 0. -1.
</event>
<event>
 5   0  0.1273980E-06  0.3211129E+04  0.7818609E-02  0.8185884E-01
       -1   -1    0    0    0  501  0.00000000000E+00  0.00000000000E+00  0.13029924250E+04  0.13029924251E+04  0.50400001928E-02 0. -1.
        1   -1    0    0  501    0  0.00000000000E+00  0.00000000000E+00 -0.19783978787E+04  0.19783978787E+04  0.50400001928E-02 0.  1.
    10030    2    1    2    0    0  0.00000000000E+00  0.00000000000E+00 -0.67540545365E+03  0.32813903038E+04  0.32111290536E+04 0.  0.
        4    1    3    3  502    0 -0.92412679615E+03 -0.12264115702E+04  0.14131860131E+03  0.15420986463E+04  0.12699999809E+01 0.  1.
       -4    1    3    3    0  502  0.92412679615E+03  0.12264115702E+04 -0.81672405496E+03  0.17392916575E+04  0.12699999809E+01 0. -1.
</event>
<event>
 5   0  0.3531437E-06  0.3192040E+04  0.7818609E-02  0.8190923E-01
        2   -1    0    0  501    0  0.00000000000E+00  0.00000000000E+00  0.18105698633E+04  0.18105698633E+04  0.25500000920E-02 0.  1.
       -2   -1    0    0    0  501  0.00000000000E+00  0.00000000000E+00 -0.14068940942E+04  0.14068940942E+04  0.25500000920E-02 0. -1.
    10030    2    1    2    0    0  0.00000000000E+00  0.00000000000E+00  0.40367576908E+03  0.32174639575E+04  0.31920401300E+04 0.  0.
        1    1    3    3  502    0  0.31017408388E+03 -0.13597749222E+04 -0.58028317512E+03  0.15106039735E+04  0.50400001928E-02 0.  1.
       -1    1    3    3    0  502 -0.31017408388E+03  0.13597749222E+04  0.98395894420E+03  0.17068599841E+04  0.50400001928E-02 0. -1.
</event>
<event>
 5   0  0.3656086E-06  0.3156000E+04  0.7818609E-02  0.8200535E-01
        2   -1    0    0  501    0  0.00000000000E+00  0.00000000000E+00  0.20208251875E+04  0.20208251875E+04  0.25500000920E-02 0.  1.
       -2   -1    0    0    0  501  0.00000000000E+00  0.00000000000E+00 -0.12322116973E+04  0.12322116973E+04  0.25500000920E-02 0. -1.
    10030    2    1    2    0    0  0.00000000000E+00  0.00000000000E+00  0.78861349014E+03  0.32530368848E+04  0.31560002752E+04 0.  0.
        3    1    3    3  502    0 -0.65465647919E+03  0.12001501795E+04  0.12066691248E+04  0.18234543992E+04  0.10100000352E+00 0.  1.
       -3    1    3    3    0  502  0.65465647919E+03 -0.12001501795E+04 -0.41805563466E+03  0.14295824856E+04  0.10100000352E+00 0. -1.
</event>
<event>
 5   0  0.1240725E-06  0.3266424E+04  0.7818609E-02  0.8171492E-01
        1   -1    0    0  501    0  0.00000000000E+00  0.00000000000E+00  0.12752980426E+04  0.12752980426E+04  0.50400001928E-02 0. -1.
       -1   -1    0    0    0  501  0.00000000000E+00  0.00000000000E+00 -0.20915754610E+04  0.20915754610E+04  0.50400001928E-02 0.  1.
    10030    2    1    2    0    0  0.00000000000E+00  0.00000000000E+00 -0.81627741844E+03  0.33668735036E+04  0.32664244007E+04 0.  0.
        3    1    3    3  502    0 -0.15384176538E+04  0.30933053462E+03 -0.87479490235E+03  0.17965746265E+04  0.10100000352E+00 0. -1.
       -3    1    3    3    0  502  0.15384176538E+04 -0.30933053462E+03  0.58517483913E+02  0.15702988771E+04  0.10100000352E+00 0.  1.
</event>
<event>
 5   0  0.3656086E-06  0.3153549E+04  0.7818609E-02  0.8201194E-01
       -2   -1    0    0    0  501  0.00000000000E+00  0.00000000000E+00  0.14409302761E+04  0.14409302761E+04  0.25500000920E-02 0.  1.
        2   -1    0    0  501    0  0.00000000000E+00  0.00000000000E+00 -0.17254255517E+04  0.17254255517E+04  0.25500000920E-02 0. -1.
    10030    2    1    2    0    0  0.00000000000E+00  0.00000000000E+00 -0.28449527552E+03  0.31663558278E+04  0.31535490588E+04 0.  0.
        3    1    3    3  502    0  0.57075708929E+03  0.11976766506E+04 -0.99777889662E+03  0.16600469123E+04  0.10100000352E+00 0. -1.
       -3    1    3    3    0  502 -0.57075708929E+03 -0.11976766506E+04  0.71328362110E+03  0.15063089155E+04  0.10100000352E+00 0.  1.
</event>
<event>
 5   0  0.3531437E-06  0.3188977E+04  0.7818609E-02  0.8191734E-01
        2   -1    0    0  501    0  0.00000000000E+00  0.00000000000E+00  0.27556837616E+04  0.27556837616E+04  0.25500000920E-02 0.  1.
       -2   -1    0    0    0  501  0.00000000000E+00  0.00000000000E+00 -0.92260008850E+03  0.92260008851E+03  0.25500000920E-02 0. -1.
    10030    2    1    2    0    0  0.00000000000E+00  0.00000000000E+00  0.18330836731E+04  0.36782838501E+04  0.31889773172E+04 0.  0.
        1    1    3    3  502    0  0.12237755968E+04 -0.95776720984E+03  0.13283193342E+04  0.20443524631E+04  0.50400001928E-02 0.  1.
       -1    1    3    3    0  502 -0.12237755968E+04  0.95776720984E+03  0.50476433887E+03  0.16339313870E+04  0.50400001928E-02 0. -1.
</event>
<event>
 5   0  0.1273754E-06  0.3238125E+04  0.7818609E-02  0.8178820E-01
        1   -1    0    0  501    0  0.00000000000E+00  0.00000000000E+00  0.15291866939E+04  0.15291866939E+04  0.50400001928E-02 0.  1.
       -1   -1    0    0    0  501  0.00000000000E+00  0.00000000000E+00 -0.17142207640E+04  0.17142207640E+04  0.50400001928E-02 0. -1.
    10030    2    1    2    0    0  0.00000000000E+00  0.00000000000E+00 -0.18503407011E+03  0.32434074579E+04  0.32381251259E+04 0.  0.
        2    1    3    3  502    0 -0.42023343006E+03  0.10549940295E+04 -0.12484164922E+04  0.16876469643E+04  0.25500000920E-02 0. -1.
       -2    1    3    3    0  502  0.42023343006E+03 -0.10549940295E+04  0.10633824221E+04  0.15557604937E+04  0.25500000920E-02 0.  1.
</event>
<event>
 5   0  0.3497546E-06  0.3009561E+04  0.7818609E-02  0.8241006E-01
        2   -1    0    0  501    0  0.00000000000E+00  0.00000000000E+00  0.24803823740E+04  0.24803823740E+04  0.25500000920E-02 0. -1.
       -2   -1    0    0    0  501  0.00000000000E+00  0.00000000000E+00 -0.91290938763E+03  0.91290938764E+03  0.25500000920E-02 0.  1.
    10030    2    1    2    0    0  0.00000000000E+00  0.00000000000E+00  0.15674729864E+04  0.33932917617E+04  0.30095610007E+04 0.  0.
        4    1    3    3  502    0  0.35037622724E+03 -0.77740442993E+03 -0.61420538603E+03  0.10508905830E+04  0.12699999809E+01 0.  1.
       -4    1    3    3    0  502 -0.35037622724E+03  0.77740442993E+03  0.21816783724E+04  0.23424011787E+04  0.12699999809E+01 0. -1.
</event>
<event>
 5   0  0.3758062E-06  0.3182664E+04  0.7818609E-02  0.8193411E-01
        2   -1    0    0  501    0  0.00000000000E+00  0.00000000000E+00  0.17267432128E+04  0.17267432128E+04  0.25500000920E-02 0. -1.
       -2   -1    0    0    0  501  0.00000000000E+00  0.00000000000E+00 -0.14665396826E+04  0.14665396826E+04  0.25500000920E-02 0.  1.
    10030    2    1    2    0    0  0.00000000000E+00  0.00000000000E+00  0.26020353014E+03  0.31932828954E+04  0.31826639428E+04 0.  0.
        2    1    3    3  502    0  0.14825876770E+04  0.22583320261E+03 -0.40390572996E+03  0.15531280354E+04  0.25500000920E-02 0.  1.
       -2    1    3    3    0  502 -0.14825876770E+04 -0.22583320261E+03  0.66410926011E+03  0.16401548600E+04  0.25500000920E-02 0. -1.
</event>
<event>
 5   0  0.1240725E-06  0.3212007E+04  0.7818609E-02  0.8185653E-01
       -1   -1    0    0    0  501  0.00000000000E+00  0.00000000000E+00  0.17362827504E+04  0.17362827504E+04  0.50400001928E-02 0.  1.
        1   -1    0    0  501    0  0.00000000000E+00  0.00000000000E+00 -0.14854997300E+04  0.14854997300E+04  0.50400001928E-02 0. -1.
    10030    2    1    2    0    0  0.00000000000E+00  0.00000000000E+00  0.25078302042E+03  0.32217824804E+04  0.32120071961E+04 0.  0.
        3    1    3    3  502    0 -0.14528032913E+04  0.65071840875E+03 -0.87801092669E+02  0.15942963629E+04  0.10100000352E+00 0. -1.
       -3    1    3    3    0  502  0.14528032913E+04 -0.65071840875E+03  0.33858411309E+03  0.16274861175E+04  0.10100000352E+00 0.  1.
</event>
<event>
 5   0  0.1273980E-06  0.3214171E+04  0.7818609E-02  0.8185085E-01
        1   -1    0    0  501    0  0.00000000000E+00  0.00000000000E+00  0.20621982628E+04  0.20621982628E+04  0.50400001928E-02 0.  1.
       -1   -1    0    0    0  501  0.00000000000E+00  0.00000000000E+00 -0.12524130962E+04  0.12524130962E+04  0.50400001928E-02 0. -1.
    10030    2    1    2    0    0  0.00000000000E+00  0.00000000000E+00  0.80978516658E+03  0.33146113590E+04  0.32141711911E+04 0.  0.
        4    1    3    3  502    0 -0.11218279128E+04 -0.11366415249E+04  0.21963856159E+03  0.16120466906E+04  0.12699999809E+01 0.  1.
       -4    1    3    3    0  502  0.11218279128E+04  0.11366415249E+04  0.59014660499E+03  0.17025646685E+04  0.12699999809E+01 0. -1.
</event>
<event>
 5   0  0.1306843E-06  0.3195176E+04  0.7818609E-02  0.8190092E-01
       -1   -1    0    0    0  501  0.00000000000E+00  0.00000000000E+00  0.11916752370E+04  0.11916752370E+04  0.50400001928E-02 0. -1.
        1   -1    0    0  501    0  0.00000000000E+00  0.00000000000E+00 -0.21417636406E+04  0.21417636406E+04  0.50400001928E-02 0.  1.
    10030    2    1    2    0    0  0.00000000000E+00  0.00000000000E+00 -0.95008840361E+03  0.33334388776E+04  0.31951755470E+04 0.  0.
        5    1    3    3  502    0  0.34770220307E+03  0.87186464837E+03 -0.18237417276E+04  0.20511218311E+04  0.46999998093E+01 0.  1.
       -5    1    3    3    0  502 -0.34770220307E+03 -0.87186464837E+03  0.87365332400E+03  0.12823170465E+04  0.46999998093E+01 0. -1.
</event>
<event>
 5   0  0.1273980E-06  0.2795193E+04  0.7818609E-02  0.8304762E-01
        1   -1    0    0  501    0  0.00000000000E+00  0.00000000000E+00  0.19143821638E+04  0.19143821638E+04  0.50400001928E-02 0.  1.
       -1   -1    0    0    0  501  0.00000000000E+00  0.00000000000E+00 -0.10203165527E+04  0.10203165527E+04  0.50400001928E-02 0. -1.
    10030    2    1    2    0    0  0.00000000000E+00  0.00000000000E+00  0.89406561108E+03  0.29346987165E+04  0.27951928806E+04 0.  0.
        4    1    3    3  502    0  0.13909197857E+04 -0.10535358386E+03  0.53806041300E+03  0.14950812181E+04  0.12699999809E+01 0.  1.
       -4    1    3    3    0  502 -0.13909197857E+04  0.10535358386E+03  0.35600519808E+03  0.14396174984E+04  0.12699999809E+01 0. -1.
</event>
<event>
 5   0  0.1268836E-06  0.2653142E+04  0.7818609E-02  0.8350371E-01
       -1   -1    0    0    0  501  0.00000000000E+00  0.00000000000E+00  0.15602733679E+04  0.15602733679E+04  0.50400001928E-02 0. -1.
        1   -1    0    0  501    0  0.00000000000E+00  0.00000000000E+00 -0.11278732518E+04  0.11278732518E+04  0.50400001928E-02 0.  1.
    10030    2    1    2    0    0  0.00000000000E+00  0.00000000000E+00  0.43240011611E+03  0.26881466198E+04  0.26531419843E+04 0.  0.
        1    1    3    3  502    0  0.97263922714E+03 -0.58075339758E+02 -0.69589417107E+03  0.11973589723E+04  0.50400001928E-02 0.  1.
       -1    1    3    3    0  502 -0.97263922714E+03  0.58075339758E+02  0.11282942872E+04  0.14907876474E+04  0.50400001928E-02 0. -1.
</event>
<event>
 5   0  0.3745943E-06  0.3223944E+04  0.7818609E-02  0.8182522E-01
       -2   -1    0    0    0  501  0.00000000000E+00  0.00000000000E+00  0.16845367206E+04  0.16845367206E+04  0.25500000920E-02 0. -1.
        2   -1    0    0  501    0  0.00000000000E+00  0.00000000000E+00 -0.15425328262E+04  0.15425328262E+04  0.25500000920E-02 0.  1.
    10030    2    1    2    0    0  0.00000000000E+00  0.00000000000E+00  0.14200389437E+03  0.32270695468E+04  0.32239436648E+04 0.  0.
        5    1    3    3  502    0 -0.94798615360E+02 -0.11644393585E+04 -0.10407167547E+04  0.15646147291E+04  0.46999998093E+01 0.  1.
       -5    1    3    3    0  502  0.94798615360E+02  0.11644393585E+04  0.11827206491E+04  0.16624548177E+04  0.46999998093E+01 0. -1.
</event>
<event>
 5   0  0.1273980E-06  0.3070164E+04  0.7818609E-02  0.8223974E-01
        1   -1    0    0  501    0  0.00000000000E+00  0.00000000000E+00  0.15030951664E+04  0.15030951664E+04  0.50400001928E-02 0.  1.
       -1   -1    0    0    0  501  0.00000000000E+00  0.00000000000E+00 -0.15677496152E+04  0.15677496152E+04  0.50400001928E-02 0. -1.
    10030    2    1    2    0    0  0.00000000000E+00  0.00000000000E+00 -0.64654448787E+02  0.30708447816E+04  0.30701640795E+04 0.  0.
        4    1    3    3  502    0  0.44285790712E+03 -0.91583833170E+03  0.11175329320E+04  0.15112129045E+04  0.12699999809E+01 0.  1.
       -4    1    3    3    0  502 -0.44285790712E+03  0.91583833170E+03 -0.11821873808E+04  0.15596318771E+04  0.12699999809E+01 0. -1.
</event>
<event>
 5   0  0.1185575E-06  0.2929056E+04  0.7818609E-02  0.8264285E-01
       -4   -1    0    0    0  501  0.00000000000E+00  0.00000000000E+00  0.12198057873E+04  0.12198064484E+04  0.12699999809E+01 0.  1.
        4   -1    0    0  501    0  0.00000000000E+00  0.00000000000E+00 -0.17583459255E+04  0.17583463842E+04  0.12699999809E+01 0. -1.
    10030    2    1    2    0    0  0.00000000000E+00  0.00000000000E+00 -0.53854013821E+03  0.29781528326E+04  0.29290559595E+04 0.  0.
        4    1    3    3  502    0 -0.12661588231E+04  0.69332231675E+03 -0.18175980532E+02  0.14436710081E+04  0.12699999809E+01 0.  1.
       -4    1    3    3    0  502  0.12661588231E+04 -0.69332231675E+03 -0.52036415767E+03  0.15344818245E+04  0.12699999809E+01 0. -1.
</event>
<event>
 5   0  0.3656086E-06  0.3424055E+04  0.7818609E-02  0.8132028E-01
        2   -1    0    0  501    0  0.00000000000E+00  0.00000000000E+00  0.22425400141E+04  0.22425400141E+04  0.25500000920E-02 0. -1.
       -2   -1    0    0    0  501  0.00000000000E+00  0.00000000000E+00 -0.13070172603E+04  0.13070172603E+04  0.25500000920E-02 0.  1.
    10030    2    1    2    0    0  0.00000000000E+00  0.00000000000E+00  0.93552275377E+03  0.35495572743E+04  0.34240552012E+04 0.  0.
        3    1    3    3  502    0  0.57160056095E+03  0.81373251653E+03  0.19124521259E+04  0.21555419165E+04  0.10100000352E+00 0. -1.
       -3    1    3    3    0  502 -0.57160056095E+03 -0.81373251653E+03 -0.97692937210E+03  0.13940153579E+04  0.10100000352E+00 0.  1.
</event>
<event>
 5   0  0.3656086E-06  0.3211163E+04  0.7818609E-02  0.8185875E-01
       -2   -1    0    0    0  501  0.00000000000E+00  0.00000000000E+00  0.10857878163E+04  0.10857878164E+04  0.25500000920E-02 0.  1.
        2   -1    0    0  501    0  0.00000000000E+00  0.00000000000E+00 -0.23742128927E+04  0.23742128927E+04  0.25500000920E-02 0. -1.
    10030    2    1    2    0    0  0.00000000000E+00  0.00000000000E+00 -0.12884250764E+04  0.34600007091E+04  0.32111626756E+04 0.  0.
        3    1    3    3  502    0  0.13778279683E+04 -0.63565950500E+03 -0.12096836712E+04  0.19405688627E+04  0.10100000352E+00 0. -1.
       -3    1    3    3    0  502 -0.13778279683E+04  0.63565950500E+03 -0.78741405244E+02  0.15194318464E+04  0.10100000352E+00 0.  1.
</event>
<event>
 5   0  0.1306843E-06  0.3177745E+04  0.7818609E-02  0.8194720E-01
        1   -1    0    0  501    0  0.00000000000E+00  0.00000000000E+00  0.19470982964E+04  0.19470982964E+04  0.50400001928E-02 0.  1.
       -1   -1    0    0    0  501  0.00000000000E+00  0.00000000000E+00 -0.12965525612E+04  0.12965525612E+04  0.50400001928E-02 0. -1.
    10030    2    1    2    0    0  0.00000000000E+00  0.00000000000E+00  0.65054573519E+03  0.32436508576E+04  0.31777446613E+04 0.  0.
        5    1    3    3  502    0  0.33650324513E+03  0.15527119951E+04  0.34421080886E+03  0.16256236172E+04  0.46999998093E+01 0.  1.
       -5    1    3    3    0  502 -0.33650324513E+03 -0.15527119951E+04  0.30633492633E+03  0.16180272405E+04  0.46999998093E+01 0. -1.
</event>
<event>
 5   0  0.3745943E-06  0.3203335E+04  0.7818609E-02  0.8187937E-01
        2   -1    0    0  501    0  0.00000000000E+00  0.00000000000E+00  0.28762026189E+04  0.28762026189E+04  0.25500000920E-02 0.  1.
       -2   -1    0    0    0  501  0.00000000000E+00  0.00000000000E+00 -0.89191843618E+03  0.89191843618E+03  0.25500000920E-02 0. -1.
    10030    2    1    2    0    0  0.00000000000E+00  0.00000000000E+00  0.19842841827E+04  0.37681210551E+04  0.32033346013E+04 0.  0.
        5    1    3    3  502    0 -0.77894725145E+03  0.64432473523E+03  0.24535188394E+04  0.26536182789E+04  0.46999998093E+01 0.  1.
       -5    1    3    3    0  502  0.77894725145E+03 -0.64432473523E+03 -0.46923465670E+03  0.11145027761E+04  0.46999998093E+01 0. -1.
</event>
<event>
 5   0  0.3656086E-06  0.3243433E+04  0.7818609E-02  0.8177440E-01
        2   -1    0    0  501    0  0.00000000000E+00  0.00000000000E+00  0.24275592333E+04  0.24275592333E+04  0.25500000920E-02 0.  1.
       -2   -1    0    0    0  501  0.00000000000E+00  0.00000000000E+00 -0.10833781898E+04  0.10833781898E+04  0.25500000920E-02 0. -1.
    10030    2    1    2    0    0  0.00000000000E+00  0.00000000000E+00  0.13441810436E+04  0.35109374231E+04  0.32434331982E+04 0.  0.
        3    1    3    3  502    0 -0.57035577261E+03 -0.11917091653E+04 -0.34594790589E+03  0.13657072914E+04  0.10100000352E+00 0. -1.
       -3    1    3    3    0  502  0.57035577261E+03  0.11917091653E+04  0.16901289494E+04  0.21452301317E+04  0.10100000352E+00 0.  1.
</event>
<event>
 5   0  0.1240725E-06  0.3230434E+04  0.7818609E-02  0.8180825E-01
        1   -1    0    0  501    0  0.00000000000E+00  0.00000000000E+00  0.19721044738E+04  0.19721044738E+04  0.50400001928E-02 0.  1.
       -1   -1    0    0    0  501  0.00000000000E+00  0.00000000000E+00 -0.13229149976E+04  0.13229149976E+04  0.50400001928E-02 0. -1.
    10030    2    1    2    0    0  0.00000000000E+00  0.00000000000E+00  0.64918947616E+03  0.32950194714E+04  0.32304343889E+04 0.  0.
        3    1    3    3  502    0  0.14262868034E+04 -0.23244982552E+03  0.10605458722E+04  0.17925078868E+04  0.10100000352E+00 0.  1.
       -3    1    3    3    0  502 -0.14262868034E+04  0.23244982552E+03 -0.41135639608E+03  0.15025115846E+04  0.10100000352E+00 0. -1.
</event>
<event>
 5   0  0.1240725E-06  0.3150396E+04  0.7818609E-02  0.8202042E-01
        1   -1    0    0  501    0  0.00000000000E+00  0.00000000000E+00  0.14101901117E+04  0.14101901117E+04  0.50400001928E-02 0. -1.
       -1   -1    0    0    0  501  0.00000000000E+00  0.00000000000E+00 -0.17595135448E+04  0.17595135448E+04  0.50400001928E-02 0.  1.
    10030    2    1    2    0    0  0.00000000000E+00  0.00000000000E+00 -0.34932343306E+03  0.31697036565E+04  0.31503959131E+04 0.  0.
        3    1    3    3  502    0 -0.11726839675E+04  0.30010447242E+03 -0.11888065836E+04  0.16966176603E+04  0.10100000352E+00 0.  1.
       -3    1    3    3    0  502  0.11726839675E+04 -0.30010447242E+03  0.83948315051E+03  0.14730859962E+04  0.10100000352E+00 0. -1.
</event>
<event>
 5   0  0.1273980E-06  0.2530787E+04  0.7818609E-02  0.8392099E-01
        1   -1    0    0  501    0  0.00000000000E+00  0.00000000000E+00  0.19111888038E+04  0.19111888038E+04  0.50400001928E-02 0. -1.
       -1   -1    0    0    0  501  0.00000000000E+00  0.00000000000E+00 -0.83781423209E+03  0.83781423211E+03  0.50400001928E-02 0.  1.
    10030    2    1    2    0    0  0.00000000000E+00  0.00000000000E+00  0.10733745717E+04  0.27490030359E+04  0.25307873716E+04 0.  0.
        4    1    3    3  502    0 -0.11665353182E+04  0.52994736358E+02  0.10661662345E+04  0.15812416461E+04  0.12699999809E+01 0. -1.
       -4    1    3    3    0  502  0.11665353182E+04 -0.52994736358E+02  0.72083371920E+01  0.11677613899E+04  0.12699999809E+01 0.  1.
</event>
<event>
 5   0  0.3531437E-06  0.3196090E+04  0.7818609E-02  0.8189850E-01
        2   -1    0    0  501    0  0.00000000000E+00  0.00000000000E+00  0.18613228735E+04  0.18613228735E+04  0.25500000920E-02 0. -1.
       -2   -1    0    0    0  501  0.00000000000E+00  0.00000000000E+00 -0.13720071994E+04  0.13720071994E+04  0.25500000920E-02 0.  1.
    10030    2    1    2    0    0  0.00000000000E+00  0.00000000000E+00  0.48931567407E+03  0.32333300729E+04  0.31960903509E+04 0.  0.
        1    1    3    3  502    0  0.22714626082E+03 -0.51060905249E+03 -0.12699273850E+04  0.13874554376E+04  0.50400001928E-02 0.  1.
       -1    1    3    3    0  502 -0.22714626082E+03  0.51060905249E+03  0.17592430590E+04  0.18458746352E+04  0.50400001928E-02 0. -1.
</event>
<event>
 5   0  0.3745943E-06  0.3136440E+04  0.7818609E-02  0.8205808E-01
        2   -1    0    0  501    0  0.00000000000E+00  0.00000000000E+00  0.19604459647E+04  0.19604459647E+04  0.25500000920E-02 0.  1.
       -2   -1    0    0    0  501  0.00000000000E+00  0.00000000000E+00 -0.12544669511E+04  0.12544669511E+04  0.25500000920E-02 0. -1.
    10030    2    1    2    0    0  0.00000000000E+00  0.00000000000E+00  0.70597901362E+03  0.32149129159E+04  0.31364404488E+04 0.  0.
        5    1    3    3  502    0  0.10491284664E+04  0.11635082015E+04  0.28145291805E+03  0.15917473760E+04  0.46999998093E+01 0. -1.
       -5    1    3    3    0  502 -0.10491284664E+04 -0.11635082015E+04  0.42452609557E+03  0.16231655399E+04  0.46999998093E+01 0.  1.
</event>
<event>
 5   0  0.3758062E-06  0.3244819E+04  0.7818609E-02  0.8177080E-01
        2   -1    0    0  501    0  0.00000000000E+00  0.00000000000E+00  0.11422759543E+04  0.11422759543E+04  0.25500000920E-02 0.  1.
       -2   -1    0    0    0  501  0.00000000000E+00  0.00000000000E+00 -0.23043575776E+04  0.23043575776E+04  0.25500000920E-02 0. -1.
    10030    2    1    2    0    0  0.00000000000E+00  0.00000000000E+00 -0.11620816233E+04  0.34466335319E+04  0.32448187937E+04 0.  0.
        2    1    3    3  502    0  0.15122985221E+04 -0.92690688588E+02  0.35192053455E+02  0.15155450717E+04  0.25500000920E-02 0. -1.
       -2    1    3    3    0  502 -0.15122985221E+04  0.92690688588E+02 -0.11972736768E+04  0.19310884602E+04  0.25500000920E-02 0.  1.
</event>
<event>
 5   0  0.3656086E-06  0.3150062E+04  0.7818609E-02  0.8202131E-01
        2   -1    0    0  501    0  0.00000000000E+00  0.00000000000E+00  0.15273132873E+04  0.15273132874E+04  0.25500000920E-02 0.  1.
       -2   -1    0    0    0  501  0.00000000000E+00  0.00000000000E+00 -0.16242399444E+04  0.16242399444E+04  0.25500000920E-02 0. -1.
    10030    2    1    2    0    0  0.00000000000E+00  0.00000000000E+00 -0.96926657095E+02  0.31515532318E+04  0.31500623797E+04 0.  0.
        3    1    3    3  502    0  0.74468570028E+02  0.14259161182E+04  0.61663765217E+03  0.15553213007E+04  0.10100000352E+00 0. -1.
       -3    1    3    3    0  502 -0.74468570028E+02 -0.14259161182E+04 -0.71356430927E+03  0.15962319311E+04  0.10100000352E+00 0.  1.
</event>
<event>
 5   0  0.1273754E-06  0.3224486E+04  0.7818609E-02  0.8182380E-01
        1   -1    0    0  501    0  0.00000000000E+00  0.00000000000E+00  0.12914972897E+04  0.12914972897E+04  0.50400001928E-02 0.  1.
       -1   -1    0    0    0  501  0.00000000000E+00  0.00000000000E+00 -0.20126461551E+04  0.20126461551E+04  0.50400001928E-02 0. -1.
    10030    2    1    2    0    0  0.00000000000E+00  0.00000000000E+00 -0.72114886538E+03  0.33041434447E+04  0.32244857291E+04 0.  0.
        2    1    3    3  502    0  0.32084589017E+03  0.87280381224E+03 -0.17101521970E+04  0.19466250581E+04  0.25500000920E-02 0. -1.
       -2    1    3    3    0  502 -0.32084589017E+03 -0.87280381224E+03  0.98900333167E+03  0.13575183866E+04  0.25500000920E-02 0.  1.
</event>
<event>
 5   0  0.1268836E-06  0.3176547E+04  0.7818609E-02  0.8195039E-01
        1   -1    0    0  501    0  0.00000000000E+00  0.00000000000E+00  0.16430111839E+04  0.16430111839E+04  0.50400001928E-02 0.  1.
       -1   -1    0    0    0  501  0.00000000000E+00  0.00000000000E+00 -0.15353598264E+04  0.15353598264E+04  0.50400001928E-02 0. -1.
    10030    2    1    2    0    0  0.00000000000E+00  0.00000000000E+00  0.10765135755E+03  0.31783710103E+04  0.31765474126E+04 0.  0.
        1    1    3    3  502    0 -0.11953034558E+04  0.10453105357E+04  0.19325478266E+02  0.15880169841E+04  0.50400001928E-02 0.  1.
       -1    1    3    3    0  502  0.11953034558E+04 -0.10453105357E+04  0.88325879284E+02  0.15903540262E+04  0.50400001928E-02 0. -1.
</event>
<event>
 5   0  0.3656086E-06  0.3075753E+04  0.7818609E-02  0.8222424E-01
        2   -1    0    0  501    0  0.00000000000E+00  0.00000000000E+00  0.19360595597E+04  0.19360595597E+04  0.25500000920E-02 0.  1.
       -2   -1    0    0    0  501  0.00000000000E+00  0.00000000000E+00 -0.12215867310E+04  0.12215867310E+04  0.25500000920E-02 0. -1.
    10030    2    1    2    0    0  0.00000000000E+00  0.00000000000E+00  0.71447282874E+03  0.31576462908E+04  0.30757533507E+04 0.  0.
        3    1    3    3  502    0 -0.26079410131E+03  0.12802098872E+04 -0.47560526908E+03  0.13903781143E+04  0.10100000352E+00 0. -1.
       -3    1    3    3    0  502  0.26079410131E+03 -0.12802098872E+04  0.11900780978E+04  0.17672681765E+04  0.10100000352E+00 0.  1.
</event>
<event>
 5   0  0.3745943E-06  0.3209593E+04  0.7818609E-02  0.8186288E-01
       -2   -1    0    0    0  501  0.00000000000E+00  0.00000000000E+00  0.91488686210E+03  0.91488686210E+03  0.25500000920E-02 0.  1.
        2   -1    0    0  501    0  0.00000000000E+00  0.00000000000E+00 -0.28149621274E+04  0.28149621274E+04  0.25500000920E-02 0. -1.
    10030    2    1    2    0    0  0.00000000000E+00  0.00000000000E+00 -0.19000752653E+04  0.37298489895E+04  0.32095930382E+04 0.  0.
        5    1    3    3  502    0  0.56783158154E+03  0.88390437793E+03  0.45970753325E+03  0.11467662187E+04  0.46999998093E+01 0.  1.
       -5    1    3    3    0  502 -0.56783158154E+03 -0.88390437793E+03 -0.23597827985E+04  0.25830827708E+04  0.46999998093E+01 0. -1.
</event>
<event>
 5   0  0.1240725E-06  0.3193204E+04  0.7818609E-02  0.8190614E-01
       -1   -1    0    0    0  501  0.00000000000E+00  0.00000000000E+00  0.11548566810E+04  0.11548566810E+04  0.50400001928E-02 0.  1.
        1   -1    0    0  501    0  0.00000000000E+00  0.00000000000E+00 -0.22073199343E+04  0.22073199343E+04  0.50400001928E-02 0. -1.
    10030    2    1    2    0    0  0.00000000000E+00  0.00000000000E+00 -0.10524632533E+04  0.33621766153E+04  0.31932041421E+04 0.  0.
        3    1    3    3  502    0 -0.60981298210E+03 -0.10153757215E+04 -0.16535300514E+04  0.20339669049E+04  0.10100000352E+00 0. -1.
       -3    1    3    3    0  502  0.60981298210E+03  0.10153757215E+04  0.60106679814E+03  0.13282097104E+04  0.10100000352E+00 0.  1.
</event>
<event>
 5   0  0.1273980E-06  0.3148416E+04  0.7818609E-02  0.8202575E-01
        1   -1    0    0  501    0  0.00000000000E+00  0.00000000000E+00  0.21257777415E+04  0.21257777415E+04  0.50400001928E-02 0. -1.
       -1   -1    0    0    0  501  0.00000000000E+00  0.00000000000E+00 -0.11657528346E+04  0.11657528346E+04  0.50400001928E-02 0.  1.
    10030    2    1    2    0    0  0.00000000000E+00  0.00000000000E+00  0.96002490687E+03  0.32915305761E+04  0.31484163816E+04 0.  0.
        4    1    3    3  502    0  0.10375965549E+03 -0.75594442800E+03  0.19195228034E+04  0.20656203548E+04  0.12699999809E+01 0. -1.
       -4    1    3    3    0  502 -0.10375965549E+03  0.75594442800E+03 -0.95949789657E+03  0.12259102213E+04  0.12699999809E+01 0.  1.
</event>
<event>
 5   0  0.1273754E-06  0.2756635E+04  0.7818609E-02  0.8316859E-01
        1   -1    0    0  501    0  0.00000000000E+00  0.00000000000E+00  0.21152295897E+04  0.21152295897E+04  0.50400001928E-02 0. -1.
       -1   -1    0    0    0  501  0.00000000000E+00  0.00000000000E+00 -0.89813373228E+03  0.89813373229E+03  0.50400001928E-02 0.  1.
    10030    2    1    2    0    0  0.00000000000E+00  0.00000000000E+00  0.12170958574E+04  0.30133633220E+04  0.27566349385E+04 0.  0.
        2    1    3    3  502    0 -0.28868783931E+03  0.99432850260E+02 -0.86069973633E+03  0.91325330353E+03  0.25500000920E-02 0.  1.
       -2    1    3    3    0  502  0.28868783931E+03 -0.99432850260E+02  0.20777955938E+04  0.21001100185E+04  0.25500000920E-02 0. -1.
</event>
<event>
 5   0  0.3497546E-06  0.3080903E+04  0.7818609E-02  0.8220999E-01
       -2   -1    0    0    0  501  0.00000000000E+00  0.00000000000E+00  0.14603704153E+04  0.14603704153E+04  0.25500000920E-02 0.  1.
        2   -1    0    0  501    0  0.00000000000E+00  0.00000000000E+00 -0.16249239735E+04  0.16249239735E+04  0.25500000920E-02 0. -1.
    10030    2    1    2    0    0  0.00000000000E+00  0.00000000000E+00 -0.16455355819E+03  0.30852943888E+04  0.30809030481E+04 0.  0.
        4    1    3    3  502    0 -0.44980039111E+03  0.30016889107E+03  0.13621964113E+04  0.14656065061E+04  0.12699999809E+01 0.  1.
       -4    1    3    3    0  502  0.44980039111E+03 -0.30016889107E+03 -0.15267499695E+04  0.16196878826E+04  0.12699999809E+01 0. -1.
</event>
<event>
 5   0  0.1306843E-06  0.3277373E+04  0.7818609E-02  0.8168677E-01
        1   -1    0    0  501    0  0.00000000000E+00  0.00000000000E+00  0.11326940233E+04  0.11326940233E+04  0.50400001928E-02 0. -1.
       -1   -1    0    0    0  501  0.00000000000E+00  0.00000000000E+00 -0.23707133245E+04  0.23707133245E+04  0.50400001928E-02 0.  1.
    10030    2    1    2    0    0  0.00000000000E+00  0.00000000000E+00 -0.12380193012E+04  0.35034073479E+04  0.32773726146E+04 0.  0.
        5    1    3    3  502    0 -0.69481802693E+03 -0.13384092857E+04 -0.13044502605E+04  0.19939217835E+04  0.46999998093E+01 0.  1.
       -5    1    3    3    0  502  0.69481802693E+03  0.13384092857E+04  0.66430959321E+02  0.15094855644E+04  0.46999998093E+01 0. -1.
</event>
<event>
 5   0  0.3745943E-06  0.3175479E+04  0.7818609E-02  0.8195323E-01
       -2   -1    0    0    0  501  0.00000000000E+00  0.00000000000E+00  0.93856610177E+03  0.93856610178E+03  0.25500000920E-02 0. -1.
        2   -1    0    0  501    0  0.00000000000E+00  0.00000000000E+00 -0.26859242709E+04  0.26859242709E+04  0.25500000920E-02 0.  1.
    10030    2    1    2    0    0  0.00000000000E+00  0.00000000000E+00 -0.17473581691E+04  0.36244903726E+04  0.31754794741E+04 0.  0.
        5    1    3    3  502    0  0.14404425059E+03  0.88964190288E+03 -0.23656779985E+04  0.25315343063E+04  0.46999998093E+01 0.  1.
       -5    1    3    3    0  502 -0.14404425059E+03 -0.88964190288E+03  0.61831982941E+03  0.10929560663E+04  0.46999998093E+01 0. -1.
</event>
<event>
 5   0  0.1273754E-06  0.3180219E+04  0.7818609E-02  0.8194061E-01
        1   -1    0    0  501    0  0.00000000000E+00  0.00000000000E+00  0.15315859781E+04  0.15315859781E+04  0.50400001928E-02 0. -1.
       -1   -1    0    0    0  501  0.00000000000E+00  0.00000000000E+00 -0.16508688783E+04  0.16508688783E+04  0.50400001928E-02 0.  1.
    10030    2    1    2    0    0  0.00000000000E+00  0.00000000000E+00 -0.11928290021E+03  0.31824548564E+04  0.31802186250E+04 0.  0.
        2    1    3    3  502    0  0.64223933986E+03  0.12215824698E+04  0.73066860592E+03  0.15616054918E+04  0.25500000920E-02 0. -1.
       -2    1    3    3    0  502 -0.64223933986E+03 -0.12215824698E+04 -0.84995150613E+03  0.16208493647E+04  0.25500000920E-02 0.  1.
</event>
<event>
 5   0  0.3531437E-06  0.3199954E+04  0.7818609E-02  0.8188829E-01
        2   -1    0    0  501    0  0.00000000000E+00  0.00000000000E+00  0.11268803765E+04  0.11268803765E+04  0.25500000920E-02 0.  1.
       -2   -1    0    0    0  501  0.00000000000E+00  0.00000000000E+00 -0.22716937985E+04  0.22716937985E+04  0.25500000920E-02 0. -1.
    10030    2    1    2    0    0  0.00000000000E+00  0.00000000000E+00 -0.11448134220E+04  0.33985741750E+04  0.31999544765E+04 0.  0.
        1    1    3    3  502    0  0.10215006445E+04 -0.13635449881E+03  0.72743409324E+03  0.12614342932E+04  0.50400001928E-02 0.  1.
       -1    1    3    3    0  502 -0.10215006445E+04  0.13635449881E+03 -0.18722475152E+04  0.21371398818E+04  0.50400001928E-02 0. -1.
</event>
<event>
 5   0  0.1306843E-06  0.3409853E+04  0.7818609E-02  0.8135492E-01
       -1   -1    0    0    0  501  0.00000000000E+00  0.00000000000E+00  0.14655665524E+04  0.14655665524E+04  0.50400001928E-02 0.  1.
        1   -1    0    0  501    0  0.00000000000E+00  0.00000000000E+00 -0.19833787761E+04  0.19833787761E+04  0.50400001928E-02 0. -1.
    10030    2    1    2    0    0  0.00000000000E+00  0.00000000000E+00 -0.51781222367E+03  0.34489453285E+04  0.34098525452E+04 0.  0.
        5    1    3    3  502    0  0.50173773857E+03  0.62522434980E+03 -0.17808513214E+04  0.19529720338E+04  0.46999998093E+01 0. -1.
       -5    1    3    3    0  502 -0.50173773857E+03 -0.62522434980E+03  0.12630390978E+04  0.14959732947E+04  0.46999998093E+01 0.  1.
</event>
<event>
 5   0  0.1273754E-06  0.3176373E+04  0.7818609E-02  0.8195085E-01
       -1   -1    0    0    0  501  0.00000000000E+00  0.00000000000E+00  0.10493906197E+04  0.10493906198E+04  0.50400001928E-02 0.  1.
        1   -1    0    0  501    0  0.00000000000E+00  0.00000000000E+00 -0.24036202706E+04  0.24036202706E+04  0.50400001928E-02 0. -1.
    10030    2    1    2    0    0  0.00000000000E+00  0.00000000000E+00 -0.13542296509E+04  0.34530108904E+04  0.31763731301E+04 0.  0.
        2    1    3    3  502    0 -0.82590061351E+03  0.18661013398E+03 -0.21377889030E+04  0.22993643816E+04  0.25500000920E-02 0. -1.
       -2    1    3    3    0  502  0.82590061351E+03 -0.18661013398E+03  0.78355925217E+03  0.11536465088E+04  0.25500000920E-02 0.  1.
</event>
<event>
 5   0  0.3758062E-06  0.3215571E+04  0.7818609E-02  0.8184717E-01
        2   -1    0    0  501    0  0.00000000000E+00  0.00000000000E+00  0.13010350173E+04  0.13010350173E+04  0.25500000920E-02 0. -1.
       -2   -1    0    0    0  501  0.00000000000E+00  0.00000000000E+00 -0.19868600171E+04  0.19868600171E+04  0.25500000920E-02 0.  1.
    10030    2    1    2    0    0  0.00000000000E+00  0.00000000000E+00 -0.68582499978E+03  0.32878950345E+04  0.32155711510E+04 0.  0.
        2    1    3    3  502    0  0.46642606340E+03 -0.32783468324E+03  0.11942111822E+04  0.13233174978E+04  0.25500000920E-02 0. -1.
       -2    1    3    3    0  502 -0.46642606340E+03  0.32783468324E+03 -0.18800361820E+04  0.19645775367E+04  0.25500000920E-02 0.  1.
</event>
<event>
 5   0  0.3758062E-06  0.3141587E+04  0.7818609E-02  0.8204416E-01
       -2   -1    0    0    0  501  0.00000000000E+00  0.00000000000E+00  0.10256069529E+04  0.10256069529E+04  0.25500000920E-02 0. -1.
        2   -1    0    0  501    0  0.00000000000E+00  0.00000000000E+00 -0.24057880305E+04  0.24057880305E+04  0.25500000920E-02 0.  1.
    10030    2    1    2    0    0  0.00000000000E+00  0.00000000000E+00 -0.13801810776E+04  0.34313949833E+04  0.31415874530E+04 0.  0.
        2    1    3    3  502    0 -0.49755147961E+03  0.35347483303E+03 -0.22709828003E+04  0.23515664591E+04  0.25500000920E-02 0.  1.
       -2    1    3    3    0  502  0.49755147961E+03 -0.35347483303E+03  0.89080172272E+03  0.10798285242E+04  0.25500000920E-02 0. -1.
</event>
<event>
 5   0  0.3497546E-06  0.3172781E+04  0.7818609E-02  0.8196043E-01
       -2   -1    0    0    0  501  0.00000000000E+00  0.00000000000E+00  0.83730783205E+03  0.83730783205E+03  0.25500000920E-02 0.  1.
        2   -1    0    0  501    0  0.00000000000E+00  0.00000000000E+00 -0.30056272208E+04  0.30056272208E+04  0.25500000920E-02 0. -1.
    10030    2    1    2    0    0  0.00000000000E+00  0.00000000000E+00 -0.21683193887E+04  0.38429350528E+04  0.31727812482E+04 0.  0.
        4    1    3    3  502    0  0.36656646452E+03 -0.71319327397E+03  0.57375979721E+03  0.98601092121E+03  0.12699999809E+01 0.  1.
       -4    1    3    3    0  502 -0.36656646452E+03  0.71319327397E+03 -0.27420791859E+04  0.28569241316E+04  0.12699999809E+01 0. -1.
</event>
<event>
 5   0  0.3758062E-06  0.3157163E+04  0.7818609E-02  0.8200223E-01
        2   -1    0    0  501    0  0.00000000000E+00  0.00000000000E+00  0.16487690722E+04  0.16487690722E+04  0.25500000920E-02 0.  1.
       -2   -1    0    0    0  501  0.00000000000E+00  0.00000000000E+00 -0.15113813866E+04  0.15113813866E+04  0.25500000920E-02 0. -1.
    10030    2    1    2    0    0  0.00000000000E+00  0.00000000000E+00  0.13738768558E+03  0.31601504587E+04  0.31571625783E+04 0.  0.
        2    1    3    3  502    0 -0.71384896142E+01  0.93032772412E+03  0.13451882696E+04  0.16355708829E+04  0.25500000920E-02 0. -1.
       -2    1    3    3    0  502  0.71384896142E+01 -0.93032772412E+03 -0.12078005840E+04  0.15245795758E+04  0.25500000920E-02 0.  1.
</event>
<event>
 5   0  0.3758062E-06  0.3150671E+04  0.7818609E-02  0.8201968E-01
       -2   -1    0    0    0  501  0.00000000000E+00  0.00000000000E+00  0.19652860317E+04  0.19652860317E+04  0.25500000920E-02 0.  1.
        2   -1    0    0  501    0  0.00000000000E+00  0.00000000000E+00 -0.12627583092E+04  0.12627583092E+04  0.25500000920E-02 0. -1.
    10030    2    1    2    0    0  0.00000000000E+00  0.00000000000E+00  0.70252772251E+03  0.32280443409E+04  0.31506705740E+04 0.  0.
        2    1    3    3  502    0  0.70750843578E+03 -0.11462338683E+04 -0.48565694627E+03  0.14318809088E+04  0.25500000920E-02 0. -1.
       -2    1    3    3    0  502 -0.70750843578E+03  0.11462338683E+04  0.11881846688E+04  0.17961634321E+04  0.25500000920E-02 0.  1.
</event>
<event>
 5   0  0.3656086E-06  0.3128020E+04  0.7818609E-02  0.8208090E-01
       -2   -1    0    0    0  501  0.00000000000E+00  0.00000000000E+00  0.20898430226E+04  0.20898430226E+04  0.25500000920E-02 0.  1.
        2   -1    0    0  501    0  0.00000000000E+00  0.00000000000E+00 -0.11704839023E+04  0.11704839023E+04  0.25500000920E-02 0. -1.
    10030    2    1    2    0    0  0.00000000000E+00  0.00000000000E+00  0.91935912032E+03  0.32603269249E+04  0.31280202149E+04 0.  0.
        3    1    3    3  502    0  0.15610002164E+04  0.42734991070E+02  0.36893591813E+03  0.16045752325E+04  0.10100000352E+00 0. -1.
       -3    1    3    3    0  502 -0.15610002164E+04 -0.42734991070E+02  0.55042320219E+03  0.16557516924E+04  0.10100000352E+00 0.  1.
</event>
<event>
 5   0  0.1273980E-06  0.3196316E+04  0.7818609E-02  0.8189791E-01
       -1   -1    0    0    0  501  0.00000000000E+00  0.00000000000E+00  0.11582156701E+04  0.11582156701E+04  0.50400001928E-02 0. -1.
        1   -1    0    0  501    0  0.00000000000E+00  0.00000000000E+00 -0.22052101035E+04  0.22052101035E+04  0.50400001928E-02 0.  1.
    10030    2    1    2    0    0  0.00000000000E+00  0.00000000000E+00 -0.10469944334E+04  0.33634257736E+04  0.31963159404E+04 0.  0.
        4    1    3    3  502    0 -0.79259561893E+03  0.11710349381E+04  0.26013617668E+03  0.14377771332E+04  0.12699999809E+01 0. -1.
       -4    1    3    3    0  502  0.79259561893E+03 -0.11710349381E+04 -0.13071306101E+04  0.19256486404E+04  0.12699999809E+01 0.  1.
</event>
<event>
 5   0  0.1268836E-06  0.2825561E+04  0.7818609E-02  0.8295376E-01
        1   -1    0    0  501    0  0.00000000000E+00  0.00000000000E+00  0.13708731069E+04  0.13708731069E+04  0.50400001928E-02 0.  1.
       -1   -1    0    0    0  501  0.00000000000E+00  0.00000000000E+00 -0.14559690863E+04  0.14559690863E+04  0.50400001928E-02 0. -1.
    10030    2    1    2    0    0  0.00000000000E+00  0.00000000000E+00 -0.85095979423E+02  0.28268421932E+04  0.28255610876E+04 0.  0.
        1    1    3    3  502    0  0.85642070038E+03  0.27061574811E+03  0.10484782371E+04  0.13805781082E+04  0.50400001928E-02 0.  1.
       -1    1    3    3    0  502 -0.85642070038E+03 -0.27061574811E+03 -0.11335742165E+04  0.14462640850E+04  0.50400001928E-02 0. -1.
</event>
<event>
 5   0  0.1240725E-06  0.3415354E+04  0.7818609E-02  0.8134148E-01
        1   -1    0    0  501    0  0.00000000000E+00  0.00000000000E+00  0.20497490730E+04  0.20497490731E+04  0.50400001928E-02 0.  1.
       -1   -1    0    0    0  501  0.00000000000E+00  0.00000000000E+00 -0.14226912773E+04  0.14226912773E+04  0.50400001928E-02 0. -1.
    10030    2    1    2    0    0  0.00000000000E+00  0.00000000000E+00  0.62705779574E+03  0.34724403504E+04  0.34153536431E+04 0.  0.
        3    1    3    3  502    0  0.74755505234E+03 -0.76281613656E+03  0.16682542905E+04  0.19808582489E+04  0.10100000352E+00 0.  1.
       -3    1    3    3    0  502 -0.74755505234E+03  0.76281613656E+03 -0.10411964947E+04  0.14915821014E+04  0.10100000352E+00 0. -1.
</event>
<event>
 5   0  0.1273754E-06  0.3246151E+04  0.7818609E-02  0.8176734E-01
       -1   -1    0    0    0  501  0.00000000000E+00  0.00000000000E+00  0.87126941692E+03  0.87126941694E+03  0.50400001928E-02 0. -1.
        1   -1    0    0  501    0  0.00000000000E+00  0.00000000000E+00 -0.30236043127E+04  0.30236043127E+04  0.50400001928E-02 0.  1.
    10030    2    1    2    0    0  0.00000000000E+00  0.00000000000E+00 -0.21523348958E+04  0.38948737297E+04  0.32461509309E+04 0.  0.
        2    1    3    3  502    0 -0.12175940271E+04  0.66226079545E+02 -0.23614307281E+04  0.26576824852E+04  0.25500000920E-02 0.  1.
       -2    1    3    3    0  502  0.12175940271E+04 -0.66226079545E+02  0.20909583225E+03  0.12371912445E+04  0.25500000920E-02 0. -1.
</event>
<event>
 5   0  0.1240725E-06  0.3200293E+04  0.7818609E-02  0.8188740E-01
        1   -1    0    0  501    0  0.00000000000E+00  0.00000000000E+00  0.13145479981E+04  0.13145479981E+04  0.50400001928E-02 0. -1.
       -1   -1    0    0    0  501  0.00000000000E+00  0.00000000000E+00 -0.19477935932E+04  0.19477935932E+04  0.50400001928E-02 0.  1.
    10030    2    1    2    0    0  0.00000000000E+00  0.00000000000E+00 -0.63324559504E+03  0.32623415913E+04  0.32002925920E+04 0.  0.
        3    1    3    3  502    0 -0.12321318258E+04  0.10205456253E+04 -0.34556246465E+03  0.16367882076E+04  0.10100000352E+00 0. -1.
       -3    1    3    3    0  502  0.12321318258E+04 -0.10205456253E+04 -0.28768313040E+03  0.16255533837E+04  0.10100000352E+00 0.  1.
</event>
<event>
 5   0  0.3497546E-06  0.3084981E+04  0.7818609E-02  0.8219872E-01
        2   -1    0    0  501    0  0.00000000000E+00  0.00000000000E+00  0.76952004039E+03  0.76952004039E+03  0.25500000920E-02 0. -1.
       -2   -1    0    0    0  501  0.00000000000E+00  0.00000000000E+00 -0.30918982176E+04  0.30918982176E+04  0.25500000920E-02 0.  1.
    10030    2    1    2    0    0  0.00000000000E+00  0.00000000000E+00 -0.23223781772E+04  0.38614182580E+04  0.30849814530E+04 0.  0.
        4    1    3    3  502    0  0.10237635873E+04  0.37977727683E+03  0.20248665786E+03  0.11105517198E+04  0.12699999809E+01 0. -1.
       -4    1    3    3    0  502 -0.10237635873E+04 -0.37977727683E+03 -0.25248648351E+04  0.27508665382E+04  0.12699999809E+01 0.  1.
</event>
<event>
 5   0  0.3497546E-06  0.3220405E+04  0.7818609E-02  0.8183449E-01
        2   -1    0    0  501    0  0.00000000000E+00  0.00000000000E+00  0.10988021784E+04  0.10988021784E+04  0.25500000920E-02 0. -1.
       -2   -1    0    0    0  501  0.00000000000E+00  0.00000000000E+00 -0.23596162816E+04  0.23596162816E+04  0.25500000920E-02 0.  1.
    10030    2    1    2    0    0  0.00000000000E+00  0.00000000000E+00 -0.12608141032E+04  0.34584184600E+04  0.32204046394E+04 0.  0.
        4    1    3    3  502    0 -0.12661297099E+04  0.27199834714E+03  0.39722944438E+03  0.13545701855E+04  0.12699999809E+01 0. -1.
       -4    1    3    3    0  502  0.12661297099E+04 -0.27199834714E+03 -0.16580435476E+04  0.21038482744E+04  0.12699999809E+01 0.  1.
</event>
<event>
 5   0  0.3758062E-06  0.3362724E+04  0.7818609E-02  0.8147116E-01
        2   -1    0    0  501    0  0.00000000000E+00  0.00000000000E+00  0.29962605200E+04  0.29962605200E+04  0.25500000920E-02 0.  1.
       -2   -1    0    0    0  501  0.00000000000E+00  0.00000000000E+00 -0.94350228964E+03  0.94350228965E+03  0.25500000920E-02 0. -1.
    10030    2    1    2    0    0  0.00000000000E+00  0.00000000000E+00  0.20527582304E+04  0.39397628097E+04  0.33627242890E+04 0.  0.
        2    1    3    3  502    0 -0.94619008147E+03 -0.27426257601E+03  0.26227151134E+04  0.28016299179E+04  0.25500000920E-02 0.  1.
       -2    1    3    3    0  502  0.94619008147E+03  0.27426257601E+03 -0.56995688299E+03  0.11381328918E+04  0.25500000920E-02 0. -1.
</event>
<event>
 5   0  0.1185575E-06  0.3177016E+04  0.7818609E-02  0.8194914E-01
       -3   -1    0    0    0  501  0.00000000000E+00  0.00000000000E+00  0.24227160182E+04  0.24227160203E+04  0.10100000352E+00 0.  1.
        3   -1    0    0  501    0  0.00000000000E+00  0.00000000000E+00 -0.10415406372E+04  0.10415406421E+04  0.10100000352E+00 0. -1.
    10030    2    1    2    0    0  0.00000000000E+00  0.00000000000E+00  0.13811753810E+04  0.34642566624E+04  0.31770157050E+04 0.  0.
        4    1    3    3  502    0 -0.12979226365E+04 -0.76931004451E+03  0.14875653958E+03  0.15161039660E+04  0.12699999809E+01 0. -1.
       -4    1    3    3    0  502  0.12979226365E+04  0.76931004451E+03  0.12324188414E+04  0.19481526964E+04  0.12699999809E+01 0.  1.
</event>
<event>
 5   0  0.1273980E-06  0.3193349E+04  0.7818609E-02  0.8190576E-01
        1   -1    0    0  501    0  0.00000000000E+00  0.00000000000E+00  0.20040949816E+04  0.20040949816E+04  0.50400001928E-02 0.  1.
       -1   -1    0    0    0  501  0.00000000000E+00  0.00000000000E+00 -0.12720803119E+04  0.12720803119E+04  0.50400001928E-02 0. -1.
    10030    2    1    2    0    0  0.00000000000E+00  0.00000000000E+00  0.73201466974E+03  0.32761752935E+04  0.31933491943E+04 0.  0.
        4    1    3    3  502    0 -0.99937769874E+03 -0.21814888677E+03 -0.89176951044E+03  0.13570553394E+04  0.12699999809E+01 0. -1.
       -4    1    3    3    0  502  0.99937769874E+03  0.21814888677E+03  0.16237841802E+04  0.19191199541E+04  0.12699999809E+01 0.  1.
</event>
<event>
 5   0  0.1240725E-06  0.3240638E+04  0.7818609E-02  0.8178166E-01
        1   -1    0    0  501    0  0.00000000000E+00  0.00000000000E+00  0.21674457139E+04  0.21674457139E+04  0.50400001928E-02 0. -1.
       -1   -1    0    0    0  501  0.00000000000E+00  0.00000000000E+00 -0.12113032902E+04  0.12113032902E+04  0.50400001928E-02 0.  1.
    10030    2    1    2    0    0  0.00000000000E+00  0.00000000000E+00  0.95614242366E+03  0.33787490041E+04  0.32406382856E+04 0.  0.
        3    1    3    3  502    0  0.13288704089E+04  0.74646609416E+03  0.10513462928E+04  0.18516039617E+04  0.10100000352E+00 0.  1.
       -3    1    3    3    0  502 -0.13288704089E+04 -0.74646609416E+03 -0.95203869162E+02  0.15271450423E+04  0.10100000352E+00 0. -1.
</event>
<event>
 5   0  0.1273980E-06  0.3204640E+04  0.7818609E-02  0.8187593E-01
        1   -1    0    0  501    0  0.00000000000E+00  0.00000000000E+00  0.21634391338E+04  0.21634391338E+04  0.50400001928E-02 0.  1.
       -1   -1    0    0    0  501  0.00000000000E+00  0.00000000000E+00 -0.11867349386E+04  0.11867349386E+04  0.50400001928E-02 0. -1.
    10030    2    1    2    0    0  0.00000000000E+00  0.00000000000E+00  0.97670419519E+03  0.33501740725E+04  0.32046396414E+04 0.  0.
        4    1    3    3  502    0  0.38968639280E+03 -0.12047707183E+04  0.15148286654E+04  0.19743443131E+04  0.12699999809E+01 0.  1.
       -4    1    3    3    0  502 -0.38968639280E+03  0.12047707183E+04 -0.53812447022E+03  0.13758297593E+04  0.12699999809E+01 0. -1.
</event>
<event>
 5   0  0.1273980E-06  0.3185961E+04  0.7818609E-02  0.8192535E-01
        1   -1    0    0  501    0  0.00000000000E+00  0.00000000000E+00  0.20552601960E+04  0.20552601960E+04  0.50400001928E-02 0.  1.
       -1   -1    0    0    0  501  0.00000000000E+00  0.00000000000E+00 -0.12346793426E+04  0.12346793427E+04  0.50400001928E-02 0. -1.
    10030    2    1    2    0    0  0.00000000000E+00  0.00000000000E+00  0.82058085336E+03  0.32899395387E+04  0.31859612727E+04 0.  0.
        4    1    3    3  502    0 -0.62610343649E+03  0.14128741038E+04  0.80938394884E+03  0.17445121771E+04  0.12699999809E+01 0.  1.
       -4    1    3    3    0  502  0.62610343649E+03 -0.14128741038E+04  0.11196904524E+02  0.15454273616E+04  0.12699999809E+01 0. -1.
</event>
<event>
 5   0  0.3531437E-06  0.3158106E+04  0.7818609E-02  0.8199970E-01
       -2   -1    0    0    0  501  0.00000000000E+00  0.00000000000E+00  0.30034980142E+04  0.30034980142E+04  0.25500000920E-02 0.  1.
        2   -1    0    0  501    0  0.00000000000E+00  0.00000000000E+00 -0.83016812044E+03  0.83016812044E+03  0.25500000920E-02 0. -1.
    10030    2    1    2    0    0  0.00000000000E+00  0.00000000000E+00  0.21733298938E+04  0.38336661347E+04  0.31581059521E+04 0.  0.
        1    1    3    3  502    0 -0.17630101186E+03  0.15687624613E+04  0.10427187045E+04  0.18919196610E+04  0.50400001928E-02 0. -1.
       -1    1    3    3    0  502  0.17630101186E+03 -0.15687624613E+04  0.11306111893E+04  0.19417464737E+04  0.50400001928E-02 0.  1.
</event>
<event>
 5   0  0.3758062E-06  0.3150108E+04  0.7818609E-02  0.8202119E-01
        2   -1    0    0  501    0  0.00000000000E+00  0.00000000000E+00  0.18341565935E+04  0.18341565935E+04  0.25500000920E-02 0. -1.
       -2   -1    0    0    0  501  0.00000000000E+00  0.00000000000E+00 -0.13525537557E+04  0.13525537557E+04  0.25500000920E-02 0.  1.
    10030    2    1    2    0    0  0.00000000000E+00  0.00000000000E+00  0.48160283783E+03  0.31867103492E+04  0.31501081817E+04 0.  0.
        2    1    3    3  502    0  0.11041876488E+04 -0.81156528796E+03 -0.54470442351E+03  0.14746428345E+04  0.25500000920E-02 0. -1.
       -2    1    3    3    0  502 -0.11041876488E+04  0.81156528796E+03  0.10263072613E+04  0.17120675147E+04  0.25500000920E-02 0.  1.
</event>
<event>
 5   0  0.3656086E-06  0.3209096E+04  0.7818609E-02  0.8186419E-01
        2   -1    0    0  501    0  0.00000000000E+00  0.00000000000E+00  0.18438840225E+04  0.18438840225E+04  0.25500000920E-02 0.  1.
       -2   -1    0    0    0  501  0.00000000000E+00  0.00000000000E+00 -0.13962777659E+04  0.13962777659E+04  0.25500000920E-02 0. -1.
    10030    2    1    2    0    0  0.00000000000E+00  0.00000000000E+00  0.44760625664E+03  0.32401617884E+04  0.32090959870E+04 0.  0.
        3    1    3    3  502    0  0.70291553373E+03  0.12573577483E+04 -0.48981712372E+03  0.15214991225E+04  0.10100000352E+00 0. -1.
       -3    1    3    3    0  502 -0.70291553373E+03 -0.12573577483E+04  0.93742338036E+03  0.17186626659E+04  0.10100000352E+00 0.  1.
</event>
<event>
 5   0  0.3745943E-06  0.3228119E+04  0.7818609E-02  0.8181430E-01
       -2   -1    0    0    0  501  0.00000000000E+00  0.00000000000E+00  0.24972811981E+04  0.24972811982E+04  0.25500000920E-02 0. -1.
        2   -1    0    0  501    0  0.00000000000E+00  0.00000000000E+00 -0.10432096668E+04  0.10432096668E+04  0.25500000920E-02 0.  1.
    10030    2    1    2    0    0  0.00000000000E+00  0.00000000000E+00  0.14540715313E+04  0.35404908650E+04  0.32281188867E+04 0.  0.
        5    1    3    3  502    0 -0.14133015359E+03 -0.15953736442E+04  0.50775245245E+03  0.16801862754E+04  0.46999998093E+01 0. -1.
       -5    1    3    3    0  502  0.14133015359E+03  0.15953736442E+04  0.94631907885E+03  0.18603045896E+04  0.46999998093E+01 0.  1.
</event>
<event>
 5   0  0.1306843E-06  0.3197670E+04  0.7818609E-02  0.8189433E-01
       -1   -1    0    0    0  501  0.00000000000E+00  0.00000000000E+00  0.10880170059E+04  0.10880170059E+04  0.50400001928E-02 0.  1.
        1   -1    0    0  501    0  0.00000000000E+00  0.00000000000E+00 -0.23494792225E+04  0.23494792225E+04  0.50400001928E-02 0. -1.
    10030    2    1    2    0    0  0.00000000000E+00  0.00000000000E+00 -0.12614622166E+04  0.34374962285E+04  0.31976699950E+04 0.  0.
        5    1    3    3  502    0  0.84892539885E+03 -0.13031926868E+04 -0.10290121903E+04  0.18649058125E+04  0.46999998093E+01 0. -1.
       -5    1    3    3    0  502 -0.84892539885E+03  0.13031926868E+04 -0.23245002627E+03  0.15725904160E+04  0.46999998093E+01 0.  1.
</event>
<event>
 5   0  0.1273754E-06  0.3188068E+04  0.7818609E-02  0.8191975E-01
       -1   -1    0    0    0  501  0.00000000000E+00  0.00000000000E+00  0.14268490102E+04  0.14268490102E+04  0.50400001928E-02 0.  1.
        1   -1    0    0  501    0  0.00000000000E+00  0.00000000000E+00 -0.17808087274E+04  0.17808087274E+04  0.50400001928E-02 0. -1.
    10030    2    1    2    0    0  0.00000000000E+00  0.00000000000E+00 -0.35395971723E+03  0.32076577376E+04  0.31880684874E+04 0.  0.
        2    1    3    3  502    0  0.10821592072E+04  0.73211667057E+03 -0.10957621743E+04  0.17052149752E+04  0.25500000920E-02 0. -1.
       -2    1    3    3    0  502 -0.10821592072E+04 -0.73211667057E+03  0.74180245703E+03  0.15024427624E+04  0.25500000920E-02 0.  1.
</event>
<event>
 5   0  0.1306843E-06  0.3358938E+04  0.7818609E-02  0.8148058E-01
       -1   -1    0    0    0  501  0.00000000000E+00  0.00000000000E+00  0.16432518786E+04  0.16432518786E+04  0.50400001928E-02 0. -1.
        1   -1    0    0  501    0  0.00000000000E+00  0.00000000000E+00 -0.17164845089E+04  0.17164845089E+04  0.50400001928E-02 0.  1.
    10030    2    1    2    0    0  0.00000000000E+00  0.00000000000E+00 -0.73232630325E+02  0.33597363875E+04  0.33589381619E+04 0.  0.
        5    1    3    3  502    0  0.10916406467E+03 -0.27849607909E+03 -0.16896183287E+04  0.17158989032E+04  0.46999998093E+01 0.  1.
       -5    1    3    3    0  502 -0.10916406467E+03  0.27849607909E+03  0.16163856984E+04  0.16438374844E+04  0.46999998093E+01 0. -1.
</event>
<event>
 5   0  0.3758062E-06  0.3220609E+04  0.7818609E-02  0.8183395E-01
        2   -1    0    0  501    0  0.00000000000E+00  0.00000000000E+00  0.99303659219E+03  0.99303659220E+03  0.25500000920E-02 0.  1.
       -2   -1    0    0    0  501  0.00000000000E+00  0.00000000000E+00 -0.26112645123E+04  0.26112645123E+04  0.25500000920E-02 0. -1.
    10030    2    1    2    0    0  0.00000000000E+00  0.00000000000E+00 -0.16182279202E+04  0.36043011045E+04  0.32206093912E+04 0.  0.
        2    1    3    3  502    0  0.76419090256E+03 -0.14023731465E+04 -0.57855275886E+03  0.16986351793E+04  0.25500000920E-02 0.  1.
       -2    1    3    3    0  502 -0.76419090256E+03  0.14023731465E+04 -0.10396751613E+04  0.19056659252E+04  0.25500000920E-02 0. -1.
</event>
<event>
 5   0  0.3531437E-06  0.3161842E+04  0.7818609E-02  0.8198968E-01
        2   -1    0    0  501    0  0.00000000000E+00  0.00000000000E+00  0.15406251374E+04  0.15406251374E+04  0.25500000920E-02 0. -1.
       -2   -1    0    0    0  501  0.00000000000E+00  0.00000000000E+00 -0.16222713337E+04  0.16222713337E+04  0.25500000920E-02 0.  1.
    10030    2    1    2    0    0  0.00000000000E+00  0.00000000000E+00 -0.81646196250E+02  0.31628964711E+04  0.31618424985E+04 0.  0.
        1    1    3    3  502    0  0.24058763527E+03  0.96369934056E+03 -0.12711571319E+04  0.16132077619E+04  0.50400001928E-02 0.  1.
       -1    1    3    3    0  502 -0.24058763527E+03 -0.96369934056E+03  0.11895109356E+04  0.15496887091E+04  0.50400001928E-02 0. -1.
</event>
<event>
 5   0  0.3531437E-06  0.3097542E+04  0.7818609E-02  0.8216413E-01
        2   -1    0    0  501    0  0.00000000000E+00  0.00000000000E+00  0.23215478205E+04  0.23215478205E+04  0.25500000920E-02 0. -1.
       -2   -1    0    0    0  501  0.00000000000E+00  0.00000000000E+00 -0.10332296862E+04  0.10332296862E+04  0.25500000920E-02 0.  1.
    10030    2    1    2    0    0  0.00000000000E+00  0.00000000000E+00  0.12883181343E+04  0.33547775067E+04  0.30975423330E+04 0.  0.
        1    1    3    3  502    0 -0.87380387298E+03  0.12149501523E+04  0.21222227691E+03  0.15115142658E+04  0.50400001928E-02 0. -1.
       -1    1    3    3    0  502  0.87380387298E+03 -0.12149501523E+04  0.10760958573E+04  0.18432632409E+04  0.50400001928E-02 0.  1.
</event>
<event>
 5   0  0.3656086E-06  0.3056506E+04  0.7818609E-02  0.8227777E-01
        2   -1    0    0  501    0  0.00000000000E+00  0.00000000000E+00  0.23163181498E+04  0.23163181499E+04  0.25500000920E-02 0. -1.
       -2   -1    0    0    0  501  0.00000000000E+00  0.00000000000E+00 -0.10083056795E+04  0.10083056795E+04  0.25500000920E-02 0.  1.
    10030    2    1    2    0    0  0.00000000000E+00  0.00000000000E+00  0.13080124703E+04  0.33246238294E+04  0.30565056820E+04 0.  0.
        3    1    3    3  502    0  0.58534034658E+03  0.87581662351E+03 -0.55031140514E+03  0.11884951545E+04  0.10100000352E+00 0.  1.
       -3    1    3    3    0  502 -0.58534034658E+03 -0.87581662351E+03  0.18583238755E+04  0.21361286749E+04  0.10100000352E+00 0. -1.
</event>
<event>
 5   0  0.1273980E-06  0.3149363E+04  0.7818609E-02  0.8202320E-01
        1   -1    0    0  501    0  0.00000000000E+00  0.00000000000E+00  0.18409501516E+04  0.18409501516E+04  0.50400001928E-02 0. -1.
       -1   -1    0    0    0  501  0.00000000000E+00  0.00000000000E+00 -0.13469246535E+04  0.13469246535E+04  0.50400001928E-02 0.  1.
    10030    2    1    2    0    0  0.00000000000E+00  0.00000000000E+00  0.49402549815E+03  0.31878748052E+04  0.31493625673E+04 0.  0.
        4    1    3    3  502    0 -0.11843265188E+04 -0.40102511104E+03 -0.72185926987E+03  0.14437911418E+04  0.12699999809E+01 0.  1.
       -4    1    3    3    0  502  0.11843265188E+04  0.40102511104E+03  0.12158847680E+04  0.17440836633E+04  0.12699999809E+01 0. -1.
</event>
<event>
 5   0  0.3656086E-06  0.3153276E+04  0.7818609E-02  0.8201267E-01
       -2   -1    0    0    0  501  0.00000000000E+00  0.00000000000E+00  0.99170782394E+03  0.99170782395E+03  0.25500000920E-02 0. -1.
        2   -1    0    0  501    0  0.00000000000E+00  0.00000000000E+00 -0.25065729739E+04  0.25065729739E+04  0.25500000920E-02 0.  1.
    10030    2    1    2    0    0  0.00000000000E+00  0.00000000000E+00 -0.15148651500E+04  0.34982807979E+04  0.31532764101E+04 0.  0.
        3    1    3    3  502    0 -0.81479322101E+03  0.12854286765E+04 -0.30058517184E+03  0.15513111651E+04  0.10100000352E+00 0. -1.
       -3    1    3    3    0  502  0.81479322101E+03 -0.12854286765E+04 -0.12142799782E+04  0.19469696328E+04  0.10100000352E+00 0.  1.
</event>
<event>
 5   0  0.1273754E-06  0.3217065E+04  0.7818609E-02  0.8184325E-01
        1   -1    0    0  501    0  0.00000000000E+00  0.00000000000E+00  0.26681343810E+04  0.26681343810E+04  0.50400001928E-02 0. -1.
       -1   -1    0    0    0  501  0.00000000000E+00  0.00000000000E+00 -0.96973280812E+03  0.96973280813E+03  0.50400001928E-02 0.  1.
    10030    2    1    2    0    0  0.00000000000E+00  0.00000000000E+00  0.16984015729E+04  0.36378671891E+04  0.32170653992E+04 0.  0.
        2    1    3    3  502    0  0.34185415587E+03  0.54487418588E+03  0.25163684983E+04  0.25972798389E+04  0.25500000920E-02 0. -1.
       -2    1    3    3    0  502 -0.34185415587E+03 -0.54487418588E+03 -0.81796692544E+03  0.10405873502E+04  0.25500000920E-02 0.  1.
</event>
<event>
 5   0  0.3745943E-06  0.3195962E+04  0.7818609E-02  0.8189885E-01
        2   -1    0    0  501    0  0.00000000000E+00  0.00000000000E+00  0.88774244512E+03  0.88774244512E+03  0.25500000920E-02 0. -1.
       -2   -1    0    0    0  501  0.00000000000E+00  0.00000000000E+00 -0.28764454126E+04  0.28764454126E+04  0.25500000920E-02 0.  1.
    10030    2    1    2    0    0  0.00000000000E+00  0.00000000000E+00 -0.19887029674E+04  0.37641878577E+04  0.31959616292E+04 0.  0.
        5    1    3    3  502    0  0.13189801771E+04  0.23167749872E+03  0.32519282012E+02  0.13395755912E+04  0.46999998093E+01 0. -1.
       -5    1    3    3    0  502 -0.13189801771E+04 -0.23167749872E+03 -0.20212222495E+04  0.24246122665E+04  0.46999998093E+01 0.  1.
</event>
<event>
 5   0  0.3656086E-06  0.2683263E+04  0.7818609E-02  0.8340456E-01
       -2   -1    0    0    0  501  0.00000000000E+00  0.00000000000E+00  0.76769292722E+03  0.76769292722E+03  0.25500000920E-02 0. -1.
        2   -1    0    0  501    0  0.00000000000E+00  0.00000000000E+00 -0.23446549216E+04  0.23446549216E+04  0.25500000920E-02 0.  1.
    10030    2    1    2    0    0  0.00000000000E+00  0.00000000000E+00 -0.15769619944E+04  0.31123478488E+04  0.26832629391E+04 0.  0.
        3    1    3    3  502    0  0.98134849150E+03  0.88846887002E+03 -0.10414193865E+04  0.16843325514E+04  0.10100000352E+00 0. -1.
       -3    1    3    3    0  502 -0.98134849150E+03 -0.88846887002E+03 -0.53554260786E+03  0.14280152975E+04  0.10100000352E+00 0.  1.
</event>
<event>
 5   0  0.1273754E-06  0.3183290E+04  0.7818609E-02  0.8193244E-01
        1   -1    0    0  501    0  0.00000000000E+00  0.00000000000E+00  0.15114770062E+04  0.15114770062E+04  0.50400001928E-02 0.  1.
       -1   -1    0    0    0  501  0.00000000000E+00  0.00000000000E+00 -0.16760654550E+04  0.16760654550E+04  0.50400001928E-02 0. -1.
    10030    2    1    2    0    0  0.00000000000E+00  0.00000000000E+00 -0.16458844879E+03  0.31875424612E+04  0.31832903708E+04 0.  0.
        2    1    3    3  502    0 -0.15950987364E+03 -0.15724132527E+04  0.10612608688E+03  0.15840421660E+04  0.25500000920E-02 0. -1.
       -2    1    3    3    0  502  0.15950987364E+03  0.15724132527E+04 -0.27071453567E+03  0.16035002953E+04  0.25500000920E-02 0.  1.
</event>
<event>
 5   0  0.1273754E-06  0.3196237E+04  0.7818609E-02  0.8189812E-01
        1   -1    0    0  501    0  0.00000000000E+00  0.00000000000E+00  0.13924944809E+04  0.13924944809E+04  0.50400001928E-02 0.  1.
       -1   -1    0    0    0  501  0.00000000000E+00  0.00000000000E+00 -0.18341067542E+04  0.18341067542E+04  0.50400001928E-02 0. -1.
    10030    2    1    2    0    0  0.00000000000E+00  0.00000000000E+00 -0.44161227326E+03  0.32266012351E+04  0.31962374959E+04 0.  0.
        2    1    3    3  502    0 -0.11113424598E+04  0.98249576978E+03  0.37948862129E+03  0.15311406252E+04  0.25500000920E-02 0.  1.
       -2    1    3    3    0  502  0.11113424598E+04 -0.98249576978E+03 -0.82110089454E+03  0.16954606098E+04  0.25500000920E-02 0. -1.
</event>
<event>
 5   0  0.1306843E-06  0.3191934E+04  0.7818609E-02  0.8190951E-01
        1   -1    0    0  501    0  0.00000000000E+00  0.00000000000E+00  0.22116876212E+04  0.22116876212E+04  0.50400001928E-02 0. -1.
       -1   -1    0    0    0  501  0.00000000000E+00  0.00000000000E+00 -0.11516593692E+04  0.11516593692E+04  0.50400001928E-02 0.  1.
    10030    2    1    2    0    0  0.00000000000E+00  0.00000000000E+00  0.10600282520E+04  0.33633469904E+04  0.31919340662E+04 0.  0.
        5    1    3    3  502    0  0.10911336065E+04  0.48302920551E+03 -0.58671052184E+03  0.13297146638E+04  0.46999998093E+01 0.  1.
       -5    1    3    3    0  502 -0.10911336065E+04 -0.48302920551E+03  0.16467387738E+04  0.20336323266E+04  0.46999998093E+01 0. -1.
</event>
<event>
 5   0  0.3758062E-06  0.3186472E+04  0.7818609E-02  0.8192399E-01
       -2   -1    0    0    0  501  0.00000000000E+00  0.00000000000E+00  0.13803961263E+04  0.13803961263E+04  0.25500000920E-02 0.  1.
        2   -1    0    0  501    0  0.00000000000E+00  0.00000000000E+00 -0.18388926728E+04  0.18388926728E+04  0.25500000920E-02 0. -1.
    10030    2    1    2    0    0  0.00000000000E+00  0.00000000000E+00 -0.45849654650E+03  0.32192887991E+04  0.31864716049E+04 0.  0.
        2    1    3    3  502    0  0.13630739357E+04 -0.31873950307E+03  0.53939926190E+03  0.15001723197E+04  0.25500000920E-02 0.  1.
       -2    1    3    3    0  502 -0.13630739357E+04  0.31873950307E+03 -0.99789580839E+03  0.17191164793E+04  0.25500000920E-02 0. -1.
</event>
<event>
 5   0  0.3758062E-06  0.3183698E+04  0.7818609E-02  0.8193136E-01
       -2   -1    0    0    0  501  0.00000000000E+00  0.00000000000E+00  0.14216247759E+04  0.14216247759E+04  0.25500000920E-02 0.  1.
        2   -1    0    0  501    0  0.00000000000E+00  0.00000000000E+00 -0.17824561793E+04  0.17824561793E+04  0.25500000920E-02 0. -1.
    10030    2    1    2    0    0  0.00000000000E+00  0.00000000000E+00 -0.36083140336E+03  0.32040809553E+04  0.31836983943E+04 0.  0.
        2    1    3    3  502    0 -0.15407003302E+04 -0.14581570920E+03 -0.55558123358E+03  0.16442901921E+04  0.25500000920E-02 0. -1.
       -2    1    3    3    0  502  0.15407003302E+04  0.14581570920E+03  0.19474983023E+03  0.15597907632E+04  0.25500000920E-02 0.  1.
</event>
<event>
 5   0  0.1240725E-06  0.3201913E+04  0.7818609E-02  0.8188312E-01
       -1   -1    0    0    0  501  0.00000000000E+00  0.00000000000E+00  0.25856839367E+04  0.25856839367E+04  0.50400001928E-02 0. -1.
        1   -1    0    0  501    0  0.00000000000E+00  0.00000000000E+00 -0.99125128037E+03  0.99125128038E+03  0.50400001928E-02 0.  1.
    10030    2    1    2    0    0  0.00000000000E+00  0.00000000000E+00  0.15944326564E+04  0.35769352171E+04  0.32019134985E+04 0.  0.
        3    1    3    3  502    0  0.44733308190E+03  0.21872191003E+03  0.24969774437E+04  0.25461426757E+04  0.10100000352E+00 0. -1.
       -3    1    3    3    0  502 -0.44733308190E+03 -0.21872191003E+03 -0.90254478738E+03  0.10307925415E+04  0.10100000352E+00 0.  1.
</event>
<event>
 5   0  0.3497546E-06  0.3055191E+04  0.7818609E-02  0.8228144E-01
        2   -1    0    0  501    0  0.00000000000E+00  0.00000000000E+00  0.16884161356E+04  0.16884161356E+04  0.25500000920E-02 0.  1.
       -2   -1    0    0    0  501  0.00000000000E+00  0.00000000000E+00 -0.13820927267E+04  0.13820927267E+04  0.25500000920E-02 0. -1.
    10030    2    1    2    0    0  0.00000000000E+00  0.00000000000E+00  0.30632340887E+03  0.30705088623E+04  0.30551907703E+04 0.  0.
        4    1    3    3  502    0  0.26210896333E+03  0.10869023092E+04 -0.89296463450E+03  0.14308896497E+04  0.12699999809E+01 0. -1.
       -4    1    3    3    0  502 -0.26210896333E+03 -0.10869023092E+04  0.11992880434E+04  0.16396192126E+04  0.12699999809E+01 0.  1.
</event>
<event>
 5   0  0.1268836E-06  0.2963298E+04  0.7818609E-02  0.8254290E-01
        1   -1    0    0  501    0  0.00000000000E+00  0.00000000000E+00  0.27987144304E+04  0.27987144304E+04  0.50400001928E-02 0. -1.
       -1   -1    0    0    0  501  0.00000000000E+00  0.00000000000E+00 -0.78439010661E+03  0.78439010663E+03  0.50400001928E-02 0.  1.
    10030    2    1    2    0    0  0.00000000000E+00  0.00000000000E+00  0.20143243238E+04  0.35831045370E+04  0.29632981021E+04 0.  0.
        1    1    3    3  502    0  0.10717378783E+04 -0.11173901521E+02  0.22441385918E+04  0.24869469144E+04  0.50400001928E-02 0. -1.
       -1    1    3    3    0  502 -0.10717378783E+04  0.11173901521E+02 -0.22981426800E+03  0.10961576226E+04  0.50400001928E-02 0.  1.
</event>
<event>
 5   0  0.3758062E-06  0.3186786E+04  0.7818609E-02  0.8192316E-01
        2   -1    0    0  501    0  0.00000000000E+00  0.00000000000E+00  0.23121684185E+04  0.23121684185E+04  0.25500000920E-02 0. -1.
       -2   -1    0    0    0  501  0.00000000000E+00  0.00000000000E+00 -0.10980609167E+04  0.10980609167E+04  0.25500000920E-02 0.  1.
    10030    2    1    2    0    0  0.00000000000E+00  0.00000000000E+00  0.12141075018E+04  0.34102293351E+04  0.31867863267E+04 0.  0.
        2    1    3    3  502    0 -0.14019430476E+04  0.72428765351E+03  0.37050047472E+03  0.16208971329E+04  0.25500000920E-02 0.  1.
       -2    1    3    3    0  502  0.14019430476E+04 -0.72428765351E+03  0.84360702709E+03  0.17893322022E+04  0.25500000920E-02 0. -1.
</event>
<event>
 5   0  0.1240725E-06  0.3010590E+04  0.7818609E-02  0.8240713E-01
       -1   -1    0    0    0  501  0.00000000000E+00  0.00000000000E+00  0.19905723459E+04  0.19905723459E+04  0.50400001928E-02 0. -1.
        1   -1    0    0  501    0  0.00000000000E+00  0.00000000000E+00 -0.11383226067E+04  0.11383226067E+04  0.50400001928E-02 0.  1.
    10030    2    1    2    0    0  0.00000000000E+00  0.00000000000E+00  0.85224973921E+03  0.31288949526E+04  0.30105903087E+04 0.  0.
        3    1    3    3  502    0  0.60111657442E+03  0.69679870892E+03 -0.81192244144E+03  0.12272276227E+04  0.10100000352E+00 0.  1.
       -3    1    3    3    0  502 -0.60111657442E+03 -0.69679870892E+03  0.16641721806E+04  0.19016673300E+04  0.10100000352E+00 0. -1.
</event>
<event>
 5   0  0.3531437E-06  0.3188187E+04  0.7818609E-02  0.8191944E-01
        2   -1    0    0  501    0  0.00000000000E+00  0.00000000000E+00  0.22288974439E+04  0.22288974439E+04  0.25500000920E-02 0.  1.
       -2   -1    0    0    0  501  0.00000000000E+00  0.00000000000E+00 -0.11400857634E+04  0.11400857634E+04  0.25500000920E-02 0. -1.
    10030    2    1    2    0    0  0.00000000000E+00  0.00000000000E+00  0.10888116805E+04  0.33689832072E+04  0.31881870985E+04 0.  0.
        1    1    3    3  502    0 -0.67962253169E+02  0.14382804417E+04  0.12672009533E+04  0.19180896103E+04  0.50400001928E-02 0.  1.
       -1    1    3    3    0  502  0.67962253169E+02 -0.14382804417E+04 -0.17838927281E+03  0.14508935969E+04  0.50400001928E-02 0. -1.
</event>
<event>
 5   0  0.3745943E-06  0.3205312E+04  0.7818609E-02  0.8187416E-01
       -2   -1    0    0    0  501  0.00000000000E+00  0.00000000000E+00  0.16466362205E+04  0.16466362205E+04  0.25500000920E-02 0. -1.
        2   -1    0    0  501    0  0.00000000000E+00  0.00000000000E+00 -0.15598507093E+04  0.15598507093E+04  0.25500000920E-02 0.  1.
    10030    2    1    2    0    0  0.00000000000E+00  0.00000000000E+00  0.86785511189E+02  0.32064869298E+04  0.32053122634E+04 0.  0.
        5    1    3    3  502    0  0.13026310197E+04 -0.92040216019E+03  0.19996489470E+03  0.16074811847E+04  0.46999998093E+01 0.  1.
       -5    1    3    3    0  502 -0.13026310197E+04  0.92040216019E+03 -0.11317938351E+03  0.15990057451E+04  0.46999998093E+01 0. -1.
</event>
<event>
 5   0  0.1268836E-06  0.3188315E+04  0.7818609E-02  0.8191910E-01
       -1   -1    0    0    0  501  0.00000000000E+00  0.00000000000E+00  0.13770776984E+04  0.13770776984E+04  0.50400001928E-02 0. -1.
        1   -1    0    0  501    0  0.00000000000E+00  0.00000000000E+00 -0.18454572400E+04  0.18454572400E+04  0.50400001928E-02 0.  1.
    10030    2    1    2    0    0  0.00000000000E+00  0.00000000000E+00 -0.46837954160E+03  0.32225349384E+04  0.31883149208E+04 0.  0.
        1    1    3    3  502    0 -0.46033785105E+03  0.32936302245E+03 -0.17404691385E+04  0.18301977378E+04  0.50400001928E-02 0.  1.
       -1    1    3    3    0  502  0.46033785105E+03 -0.32936302245E+03  0.12720895969E+04  0.13923372006E+04  0.50400001928E-02 0. -1.
</event>
<event>
 5   0  0.1273980E-06  0.3227828E+04  0.7818609E-02  0.8181506E-01
        1   -1    0    0  501    0  0.00000000000E+00  0.00000000000E+00  0.17462401638E+04  0.17462401638E+04  0.50400001928E-02 0. -1.
       -1   -1    0    0    0  501  0.00000000000E+00  0.00000000000E+00 -0.14916148668E+04  0.14916148668E+04  0.50400001928E-02 0.  1.
    10030    2    1    2    0    0  0.00000000000E+00  0.00000000000E+00  0.25462529700E+03  0.32378550306E+04  0.32278276220E+04 0.  0.
        4    1    3    3  502    0  0.20427272079E+03  0.41734391383E+03  0.16776925625E+04  0.17408495724E+04  0.12699999809E+01 0. -1.
       -4    1    3    3    0  502 -0.20427272079E+03 -0.41734391383E+03 -0.14230672655E+04  0.14970054582E+04  0.12699999809E+01 0.  1.
</event>
<event>
 5   0  0.1273980E-06  0.2293677E+04  0.7818609E-02  0.8480419E-01
       -1   -1    0    0    0  501  0.00000000000E+00  0.00000000000E+00  0.63694091069E+03  0.63694091071E+03  0.50400001928E-02 0.  1.
        1   -1    0    0  501    0  0.00000000000E+00  0.00000000000E+00 -0.20649293955E+04  0.20649293955E+04  0.50400001928E-02 0. -1.
    10030    2    1    2    0    0  0.00000000000E+00  0.00000000000E+00 -0.14279884848E+04  0.27018703062E+04  0.22936765332E+04 0.  0.
        4    1    3    3  502    0  0.54575165911E+03  0.28257636854E+02  0.47370339030E+03  0.72321496275E+03  0.12699999809E+01 0.  1.
       -4    1    3    3    0  502 -0.54575165911E+03 -0.28257636854E+02 -0.19016918751E+04  0.19786553435E+04  0.12699999809E+01 0. -1.
</event>
<event>
 5   0  0.3758062E-06  0.3197664E+04  0.7818609E-02  0.8189435E-01
       -2   -1    0    0    0  501  0.00000000000E+00  0.00000000000E+00  0.13773314524E+04  0.13773314524E+04  0.25500000920E-02 0.  1.
        2   -1    0    0  501    0  0.00000000000E+00  0.00000000000E+00 -0.18559534146E+04  0.18559534146E+04  0.25500000920E-02 0. -1.
    10030    2    1    2    0    0  0.00000000000E+00  0.00000000000E+00 -0.47862196215E+03  0.32332848670E+04  0.31976635295E+04 0.  0.
        2    1    3    3  502    0  0.89756607728E+03  0.10376824998E+04 -0.10693410902E+04  0.17395114833E+04  0.25500000920E-02 0. -1.
       -2    1    3    3    0  502 -0.89756607728E+03 -0.10376824998E+04  0.59071912801E+03  0.14937733836E+04  0.25500000920E-02 0.  1.
</event>
<event>
 5   0  0.3758062E-06  0.3227889E+04  0.7818609E-02  0.8181490E-01
       -2   -1    0    0    0  501  0.00000000000E+00  0.00000000000E+00  0.16518961738E+04  0.16518961738E+04  0.25500000920E-02 0. -1.
        2   -1    0    0  501    0  0.00000000000E+00  0.00000000000E+00 -0.15768647032E+04  0.15768647032E+04  0.25500000920E-02 0.  1.
    10030    2    1    2    0    0  0.00000000000E+00  0.00000000000E+00  0.75031470579E+02  0.32287608770E+04  0.32278889509E+04 0.  0.
        2    1    3    3  502    0  0.40102201497E+02  0.99832476509E+03 -0.12303266440E+04  0.15849177184E+04  0.25500000920E-02 0.  1.
       -2    1    3    3    0  502 -0.40102201497E+02 -0.99832476509E+03  0.13053581145E+04  0.16438431587E+04  0.25500000920E-02 0. -1.
</event>
<event>
 5   0  0.3497546E-06  0.3192677E+04  0.7818609E-02  0.8190754E-01
       -2   -1    0    0    0  501  0.00000000000E+00  0.00000000000E+00  0.11497089992E+04  0.11497089992E+04  0.25500000920E-02 0.  1.
        2   -1    0    0  501    0  0.00000000000E+00  0.00000000000E+00 -0.22164704869E+04  0.22164704869E+04  0.25500000920E-02 0. -1.
    10030    2    1    2    0    0  0.00000000000E+00  0.00000000000E+00 -0.10667614877E+04  0.33661794861E+04  0.31926766609E+04 0.  0.
        4    1    3    3  502    0 -0.65776721499E+03 -0.30759284580E+03  0.96550317720E+03  0.12080848753E+04  0.12699999809E+01 0.  1.
       -4    1    3    3    0  502  0.65776721499E+03  0.30759284580E+03 -0.20322646649E+04  0.21580946107E+04  0.12699999809E+01 0. -1.
</event>
<event>
 5   0  0.3745943E-06  0.3217200E+04  0.7818609E-02  0.8184289E-01
       -2   -1    0    0    0  501  0.00000000000E+00  0.00000000000E+00  0.97530767481E+03  0.97530767481E+03  0.25500000920E-02 0.  1.
        2   -1    0    0  501    0  0.00000000000E+00  0.00000000000E+00 -0.26531049635E+04  0.26531049635E+04  0.25500000920E-02 0. -1.
    10030    2    1    2    0    0  0.00000000000E+00  0.00000000000E+00 -0.16777972887E+04  0.36284126383E+04  0.32171997967E+04 0.  0.
        5    1    3    3  502    0  0.29653181827E+02  0.92314115905E+03 -0.23242394765E+04  0.25010358144E+04  0.46999998093E+01 0. -1.
       -5    1    3    3    0  502 -0.29653181827E+02 -0.92314115905E+03  0.64644218787E+03  0.11273768239E+04  0.46999998093E+01 0.  1.
</event>
<event>
 5   0  0.3758062E-06  0.3118149E+04  0.7818609E-02  0.8210775E-01
        2   -1    0    0  501    0  0.00000000000E+00  0.00000000000E+00  0.11946295781E+04  0.11946295781E+04  0.25500000920E-02 0.  1.
       -2   -1    0    0    0  501  0.00000000000E+00  0.00000000000E+00 -0.20347000802E+04  0.20347000802E+04  0.25500000920E-02 0. -1.
    10030    2    1    2    0    0  0.00000000000E+00  0.00000000000E+00 -0.84007050202E+03  0.32293296583E+04  0.31181487446E+04 0.  0.
        2    1    3    3  502    0  0.13188536246E+04 -0.76678438292E+02 -0.12774799396E+04  0.18377185481E+04  0.25500000920E-02 0. -1.
       -2    1    3    3    0  502 -0.13188536246E+04  0.76678438292E+02  0.43740943755E+03  0.13916111102E+04  0.25500000920E-02 0.  1.
</event>
<event>
 5   0  0.3531437E-06  0.3122516E+04  0.7818609E-02  0.8209586E-01
        2   -1    0    0  501    0  0.00000000000E+00  0.00000000000E+00  0.15337818082E+04  0.15337818082E+04  0.25500000920E-02 0. -1.
       -2   -1    0    0    0  501  0.00000000000E+00  0.00000000000E+00 -0.15892261612E+04  0.15892261612E+04  0.25500000920E-02 0.  1.
    10030    2    1    2    0    0  0.00000000000E+00  0.00000000000E+00 -0.55444352959E+02  0.31230079694E+04  0.31225157647E+04 0.  0.
        1    1    3    3  502    0  0.11603911889E+04  0.10318520947E+04  0.13447526652E+03  0.15586244108E+04  0.50400001928E-02 0. -1.
       -1    1    3    3    0  502 -0.11603911889E+04 -0.10318520947E+04 -0.18991961948E+03  0.15643835586E+04  0.50400001928E-02 0.  1.
</event>
<event>
 5   0  0.3497546E-06  0.3219817E+04  0.7818609E-02  0.8183603E-01
       -2   -1    0    0    0  501  0.00000000000E+00  0.00000000000E+00  0.17028837349E+04  0.17028837349E+04  0.25500000920E-02 0.  1.
        2   -1    0    0  501    0  0.00000000000E+00  0.00000000000E+00 -0.15220096403E+04  0.15220096403E+04  0.25500000920E-02 0. -1.
    10030    2    1    2    0    0  0.00000000000E+00  0.00000000000E+00  0.18087409458E+03  0.32248933752E+04  0.32198170512E+04 0.  0.
        4    1    3    3  502    0 -0.99035176067E+03 -0.99573663434E+03  0.87877122449E+03  0.16566618643E+04  0.12699999809E+01 0.  1.
       -4    1    3    3    0  502  0.99035176067E+03  0.99573663434E+03 -0.69789712991E+03  0.15682315109E+04  0.12699999809E+01 0. -1.
</event>
<event>
 5   0  0.3497546E-06  0.3222491E+04  0.7818609E-02  0.8182903E-01
        2   -1    0    0  501    0  0.00000000000E+00  0.00000000000E+00  0.13743519947E+04  0.13743519947E+04  0.25500000920E-02 0.  1.
       -2   -1    0    0    0  501  0.00000000000E+00  0.00000000000E+00 -0.18889712957E+04  0.18889712957E+04  0.25500000920E-02 0. -1.
    10030    2    1    2    0    0  0.00000000000E+00  0.00000000000E+00 -0.51461930093E+03  0.32633232904E+04  0.32224906319E+04 0.  0.
        4    1    3    3  502    0  0.13344284469E+04  0.79343294120E+03  0.17928521899E+03  0.15628115416E+04  0.12699999809E+01 0. -1.
       -4    1    3    3    0  502 -0.13344284469E+04 -0.79343294120E+03 -0.69390451992E+03  0.17005117488E+04  0.12699999809E+01 0.  1.
</event>
<event>
 5   0  0.3745943E-06  0.3202643E+04  0.7818609E-02  0.8188119E-01
       -2   -1    0    0    0  501  0.00000000000E+00  0.00000000000E+00  0.29346917230E+04  0.29346917230E+04  0.25500000920E-02 0.  1.
        2   -1    0    0  501    0  0.00000000000E+00  0.00000000000E+00 -0.87376497314E+03  0.87376497315E+03  0.25500000920E-02 0. -1.
    10030    2    1    2    0    0  0.00000000000E+00  0.00000000000E+00  0.20609267498E+04  0.38084566961E+04  0.32026431800E+04 0.  0.
        5    1    3    3  502    0 -0.12692708686E+04  0.91781722976E+03  0.14262443868E+04  0.21184032067E+04  0.46999998093E+01 0.  1.
       -5    1    3    3    0  502  0.12692708686E+04 -0.91781722976E+03  0.63468236306E+03  0.16900534895E+04  0.46999998093E+01 0. -1.
</event>
<event>
 5   0  0.1273980E-06  0.3144028E+04  0.7818609E-02  0.8203758E-01
       -1   -1    0    0    0  501  0.00000000000E+00  0.00000000000E+00  0.82757159344E+03  0.82757159346E+03  0.50400001928E-02 0.  1.
        1   -1    0    0  501    0  0.00000000000E+00  0.00000000000E+00 -0.29861195962E+04  0.29861195962E+04  0.50400001928E-02 0. -1.
    10030    2    1    2    0    0  0.00000000000E+00  0.00000000000E+00 -0.21585480028E+04  0.38136911897E+04  0.31440278322E+04 0.  0.
        4    1    3    3  502    0 -0.89742296236E+03 -0.92943740176E+02  0.48225184007E+03  0.10230224642E+04  0.12699999809E+01 0.  1.
       -4    1    3    3    0  502  0.89742296236E+03  0.92943740176E+02 -0.26407998428E+04  0.27906687254E+04  0.12699999809E+01 0. -1.
</event>
<event>
 5   0  0.3745943E-06  0.3189285E+04  0.7818609E-02  0.8191653E-01
       -2   -1    0    0    0  501  0.00000000000E+00  0.00000000000E+00  0.18448688242E+04  0.18448688242E+04  0.25500000920E-02 0. -1.
        2   -1    0    0  501    0  0.00000000000E+00  0.00000000000E+00 -0.13783552804E+04  0.13783552804E+04  0.25500000920E-02 0.  1.
    10030    2    1    2    0    0  0.00000000000E+00  0.00000000000E+00  0.46651354372E+03  0.32232241046E+04  0.31892849892E+04 0.  0.
        5    1    3    3  502    0 -0.71657961826E+03 -0.81322917964E+03  0.14153336049E+04  0.17827000172E+04  0.46999998093E+01 0. -1.
       -5    1    3    3    0  502  0.71657961826E+03  0.81322917964E+03 -0.94882006122E+03  0.14405240874E+04  0.46999998093E+01 0.  1.
</event>
<event>
 5   0  0.3656086E-06  0.2900067E+04  0.7818609E-02  0.8272857E-01
       -2   -1    0    0    0  501  0.00000000000E+00  0.00000000000E+00  0.71506573988E+03  0.71506573988E+03  0.25500000920E-02 0.  1.
        2   -1    0    0  501    0  0.00000000000E+00  0.00000000000E+00 -0.29404258078E+04  0.29404258078E+04  0.25500000920E-02 0. -1.
    10030    2    1    2    0    0  0.00000000000E+00  0.00000000000E+00 -0.22253600679E+04  0.36554915477E+04  0.29000674170E+04 0.  0.
        3    1    3    3  502    0  0.17328854702E+03 -0.64405232705E+03 -0.27356079436E+04  0.28157384736E+04  0.10100000352E+00 0. -1.
       -3    1    3    3    0  502 -0.17328854702E+03  0.64405232705E+03  0.51024787570E+03  0.83975307405E+03  0.10100000352E+00 0.  1.
</event>
<event>
 5   0  0.1185575E-06  0.3209847E+04  0.7818609E-02  0.8186222E-01
        4   -1    0    0  501    0  0.00000000000E+00  0.00000000000E+00  0.21838729662E+04  0.21838733355E+04  0.12699999809E+01 0. -1.
       -4   -1    0    0    0  501  0.00000000000E+00  0.00000000000E+00 -0.11794536757E+04  0.11794543594E+04  0.12699999809E+01 0.  1.
    10030    2    1    2    0    0  0.00000000000E+00  0.00000000000E+00  0.10044192905E+04  0.33633276949E+04  0.32098465808E+04 0.  0.
        1    1    3    3  502    0 -0.39952690599E+03  0.88262160048E+03  0.18428963567E+04  0.20820445768E+04  0.50400001928E-02 0. -1.
       -1    1    3    3    0  502  0.39952690599E+03 -0.88262160048E+03 -0.83847706617E+03  0.12812831181E+04  0.50400001928E-02 0.  1.
</event>
<event>
 5   0  0.1268836E-06  0.2804210E+04  0.7818609E-02  0.8301962E-01
       -1   -1    0    0    0  501  0.00000000000E+00  0.00000000000E+00  0.89413868432E+03  0.89413868433E+03  0.50400001928E-02 0.  1.
        1   -1    0    0  501    0  0.00000000000E+00  0.00000000000E+00 -0.21986509989E+04  0.21986509989E+04  0.50400001928E-02 0. -1.
    10030    2    1    2    0    0  0.00000000000E+00  0.00000000000E+00 -0.13045123146E+04  0.30927896832E+04  0.28042103426E+04 0.  0.
        1    1    3    3  502    0  0.49739434212E+03 -0.12736480691E+04 -0.99454628772E+03  0.16907698997E+04  0.50400001928E-02 0. -1.
       -1    1    3    3    0  502 -0.49739434212E+03  0.12736480691E+04 -0.30996602685E+03  0.14020197835E+04  0.50400001928E-02 0.  1.
</event>
<event>
 5   0  0.1306843E-06  0.3175590E+04  0.7818609E-02  0.8195294E-01
        1   -1    0    0  501    0  0.00000000000E+00  0.00000000000E+00  0.19905872208E+04  0.19905872208E+04  0.50400001928E-02 0.  1.
       -1   -1    0    0    0  501  0.00000000000E+00  0.00000000000E+00 -0.12665073689E+04  0.12665073689E+04  0.50400001928E-02 0. -1.
    10030    2    1    2    0    0  0.00000000000E+00  0.00000000000E+00  0.72407985194E+03  0.32570945897E+04  0.31755902655E+04 0.  0.
        5    1    3    3  502    0  0.15449341825E+04  0.28443910817E+03  0.59893113140E+03  0.16812102262E+04  0.46999998093E+01 0.  1.
       -5    1    3    3    0  502 -0.15449341825E+04 -0.28443910817E+03  0.12514872055E+03  0.15758843634E+04  0.46999998093E+01 0. -1.
</event>
<event>
 5   0  0.1306843E-06  0.3159103E+04  0.7818609E-02  0.8199702E-01
        1   -1    0    0  501    0  0.00000000000E+00  0.00000000000E+00  0.18522133629E+04  0.18522133629E+04  0.50400001928E-02 0. -1.
       -1   -1    0    0    0  501  0.00000000000E+00  0.00000000000E+00 -0.13470280606E+04  0.13470280606E+04  0.50400001928E-02 0.  1.
    10030    2    1    2    0    0  0.00000000000E+00  0.00000000000E+00  0.50518530227E+03  0.31992414235E+04  0.31591032741E+04 0.  0.
        5    1    3    3  502    0  0.59310650266E+03 -0.13519100724E+04 -0.31626048777E+03  0.15097943414E+04  0.46999998093E+01 0.  1.
       -5    1    3    3    0  502 -0.59310650266E+03  0.13519100724E+04  0.82144579003E+03  0.16894470821E+04  0.46999998093E+01 0. -1.
</event>
<event>
 5   0  0.3531437E-06  0.3180645E+04  0.7818609E-02  0.8193948E-01
       -2   -1    0    0    0  501  0.00000000000E+00  0.00000000000E+00  0.16513561925E+04  0.16513561925E+04  0.25500000920E-02 0.  1.
        2   -1    0    0  501    0  0.00000000000E+00  0.00000000000E+00 -0.15315442028E+04  0.15315442028E+04  0.25500000920E-02 0. -1.
    10030    2    1    2    0    0  0.00000000000E+00  0.00000000000E+00  0.11981198970E+03  0.31829003954E+04  0.31806445910E+04 0.  0.
        1    1    3    3  502    0 -0.10412739050E+04 -0.35662543210E+03 -0.10888157783E+04  0.15482095605E+04  0.50400001928E-02 0. -1.
       -1    1    3    3    0  502  0.10412739050E+04  0.35662543210E+03  0.12086277680E+04  0.16346908349E+04  0.50400001928E-02 0.  1.
</event>
<event>
 5   0  0.3531437E-06  0.3219459E+04  0.7818609E-02  0.8183697E-01
       -2   -1    0    0    0  501  0.00000000000E+00  0.00000000000E+00  0.18920934667E+04  0.18920934667E+04  0.25500000920E-02 0.  1.
        2   -1    0    0  501    0  0.00000000000E+00  0.00000000000E+00 -0.13695038110E+04  0.13695038110E+04  0.25500000920E-02 0. -1.
    10030    2    1    2    0    0  0.00000000000E+00  0.00000000000E+00  0.52258965565E+03  0.32615972777E+04  0.32194590933E+04 0.  0.
        1    1    3    3  502    0 -0.14209715339E+03  0.38236653325E+02  0.18852652761E+04  0.18909994194E+04  0.50400001928E-02 0.  1.
       -1    1    3    3    0  502  0.14209715339E+03 -0.38236653325E+02 -0.13626756205E+04  0.13705978583E+04  0.50400001928E-02 0. -1.
</event>
<event>
 5   0  0.1273980E-06  0.3204686E+04  0.7818609E-02  0.8187581E-01
       -1   -1    0    0    0  501  0.00000000000E+00  0.00000000000E+00  0.15287598405E+04  0.15287598405E+04  0.50400001928E-02 0.  1.
        1   -1    0    0  501    0  0.00000000000E+00  0.00000000000E+00 -0.16794678682E+04  0.16794678682E+04  0.50400001928E-02 0. -1.
    10030    2    1    2    0    0  0.00000000000E+00  0.00000000000E+00 -0.15070802765E+03  0.32082277087E+04  0.32046859630E+04 0.  0.
        4    1    3    3  502    0  0.12248653370E+04  0.10209643173E+04 -0.23312954429E+03  0.16115254352E+04  0.12699999809E+01 0. -1.
       -4    1    3    3    0  502 -0.12248653370E+04 -0.10209643173E+04  0.82421516637E+02  0.15967022735E+04  0.12699999809E+01 0.  1.
</event>
<event>
 5   0  0.3758062E-06  0.3206352E+04  0.7818609E-02  0.8187142E-01
       -2   -1    0    0    0  501  0.00000000000E+00  0.00000000000E+00  0.10422628682E+04  0.10422628682E+04  0.25500000920E-02 0. -1.
        2   -1    0    0  501    0  0.00000000000E+00  0.00000000000E+00 -0.24659545745E+04  0.24659545745E+04  0.25500000920E-02 0.  1.
    10030    2    1    2    0    0  0.00000000000E+00  0.00000000000E+00 -0.14236917063E+04  0.35082174427E+04  0.32063517510E+04 0.  0.
        2    1    3    3  502    0  0.51171829773E+03 -0.77096217058E+03  0.72058102761E+03  0.11728065919E+04  0.25500000920E-02 0. -1.
       -2    1    3    3    0  502 -0.51171829773E+03  0.77096217058E+03 -0.21442727339E+04  0.23354108508E+04  0.25500000920E-02 0.  1.
</event>
<event>
 5   0  0.1185575E-06  0.3223218E+04  0.7818609E-02  0.8182712E-01
       -3   -1    0    0    0  501  0.00000000000E+00  0.00000000000E+00  0.16037441756E+04  0.16037441788E+04  0.10100000352E+00 0.  1.
        3   -1    0    0  501    0  0.00000000000E+00  0.00000000000E+00 -0.16195124215E+04  0.16195124247E+04  0.10100000352E+00 0. -1.
    10030    2    1    2    0    0  0.00000000000E+00  0.00000000000E+00 -0.15768245924E+02  0.32232566034E+04  0.32232180339E+04 0.  0.
        5    1    3    3  502    0  0.66165791554E+03 -0.81812427445E+03 -0.12286128687E+04  0.16176001350E+04  0.46999998093E+01 0. -1.
       -5    1    3    3    0  502 -0.66165791554E+03  0.81812427445E+03  0.12128446228E+04  0.16056564684E+04  0.46999998093E+01 0.  1.
</event>
<event>
 5   0  0.3745943E-06  0.3228309E+04  0.7818609E-02  0.8181381E-01
        2   -1    0    0  501    0  0.00000000000E+00  0.00000000000E+00  0.18215271372E+04  0.18215271372E+04  0.25500000920E-02 0.  1.
       -2   -1    0    0    0  501  0.00000000000E+00  0.00000000000E+00 -0.14303903447E+04  0.14303903447E+04  0.25500000920E-02 0. -1.
    10030    2    1    2    0    0  0.00000000000E+00  0.00000000000E+00  0.39113679254E+03  0.32519174819E+04  0.32283090494E+04 0.  0.
        5    1    3    3  502    0  0.91753571998E+03 -0.59883324925E+03 -0.99842665333E+03  0.14823464271E+04  0.46999998093E+01 0. -1.
       -5    1    3    3    0  502 -0.91753571998E+03  0.59883324925E+03  0.13895634459E+04  0.17695710548E+04  0.46999998093E+01 0.  1.
</event>
<event>
 5   0  0.3745943E-06  0.3223594E+04  0.7818609E-02  0.8182614E-01
       -2   -1    0    0    0  501  0.00000000000E+00  0.00000000000E+00  0.94932216996E+03  0.94932216997E+03  0.25500000920E-02 0. -1.
        2   -1    0    0  501    0  0.00000000000E+00  0.00000000000E+00 -0.27365724378E+04  0.27365724378E+04  0.25500000920E-02 0.  1.
    10030    2    1    2    0    0  0.00000000000E+00  0.00000000000E+00 -0.17872502678E+04  0.36858946078E+04  0.32235935755E+04 0.  0.
        5    1    3    3  502    0 -0.16072765992E+04 -0.22174093367E+02 -0.10290942739E+04  0.19086348187E+04  0.46999998093E+01 0.  1.
       -5    1    3    3    0  502  0.16072765992E+04  0.22174093367E+02 -0.75815599397E+03  0.17772597891E+04  0.46999998093E+01 0. -1.
</event>
<event>
 5   0  0.1268836E-06  0.3162642E+04  0.7818609E-02  0.8198754E-01
       -1   -1    0    0    0  501  0.00000000000E+00  0.00000000000E+00  0.11577288720E+04  0.11577288721E+04  0.50400001928E-02 0. -1.
        1   -1    0    0  501    0  0.00000000000E+00  0.00000000000E+00 -0.21598981051E+04  0.21598981051E+04  0.50400001928E-02 0.  1.
    10030    2    1    2    0    0  0.00000000000E+00  0.00000000000E+00 -0.10021692331E+04  0.33176269772E+04  0.31626421846E+04 0.  0.
        1    1    3    3  502    0  0.13643889666E+04  0.97853403855E+02  0.33116958020E+03  0.14074110387E+04  0.50400001928E-02 0. -1.
       -1    1    3    3    0  502 -0.13643889666E+04 -0.97853403855E+02 -0.13333388133E+04  0.19102159386E+04  0.50400001928E-02 0.  1.
</event>
<event>
 5   0  0.1273980E-06  0.2873063E+04  0.7818609E-02  0.8280938E-01
       -1   -1    0    0    0  501  0.00000000000E+00  0.00000000000E+00  0.11743495475E+04  0.11743495475E+04  0.50400001928E-02 0. -1.
        1   -1    0    0  501    0  0.00000000000E+00  0.00000000000E+00 -0.17572469946E+04  0.17572469946E+04  0.50400001928E-02 0.  1.
    10030    2    1    2    0    0  0.00000000000E+00  0.00000000000E+00 -0.58289744711E+03  0.29315965421E+04  0.28730626258E+04 0.  0.
        4    1    3    3  502    0 -0.15906374108E+03  0.77580420912E+03  0.93148785440E+03  0.12226384095E+04  0.12699999809E+01 0. -1.
       -4    1    3    3    0  502  0.15906374108E+03 -0.77580420912E+03 -0.15143853015E+04  0.17089581326E+04  0.12699999809E+01 0.  1.
</event>
<event>
 5   0  0.3656086E-06  0.3336670E+04  0.7818609E-02  0.8153627E-01
       -2   -1    0    0    0  501  0.00000000000E+00  0.00000000000E+00  0.15618010163E+04  0.15618010163E+04  0.25500000920E-02 0. -1.
        2   -1    0    0  501    0  0.00000000000E+00  0.00000000000E+00 -0.17821361841E+04  0.17821361841E+04  0.25500000920E-02 0.  1.
    10030    2    1    2    0    0  0.00000000000E+00  0.00000000000E+00 -0.22033516785E+03  0.33439372004E+04  0.33366702585E+04 0.  0.
        3    1    3    3  502    0 -0.78619106539E+03 -0.13504642302E+04  0.47547834778E+03  0.16333798388E+04  0.10100000352E+00 0. -1.
       -3    1    3    3    0  502  0.78619106539E+03  0.13504642302E+04 -0.69581351564E+03  0.17105573616E+04  0.10100000352E+00 0.  1.
</event>
<event>
 5   0  0.3531437E-06  0.3297309E+04  0.7818609E-02  0.8163580E-01
       -2   -1    0    0    0  501  0.00000000000E+00  0.00000000000E+00  0.10249891575E+04  0.10249891575E+04  0.25500000920E-02 0. -1.
        2   -1    0    0  501    0  0.00000000000E+00  0.00000000000E+00 -0.26517954122E+04  0.26517954122E+04  0.25500000920E-02 0.  1.
    10030    2    1    2    0    0  0.00000000000E+00  0.00000000000E+00 -0.16268062548E+04  0.36767845697E+04  0.32973089302E+04 0.  0.
        1    1    3    3  502    0  0.98123703564E+03  0.10171805363E+04 -0.17599658584E+04  0.22572022918E+04  0.50400001928E-02 0.  1.
       -1    1    3    3    0  502 -0.98123703564E+03 -0.10171805363E+04  0.13315960360E+03  0.14195822779E+04  0.50400001928E-02 0. -1.
</event>
<event>
 5   0  0.3745943E-06  0.3209809E+04  0.7818609E-02  0.8186231E-01
       -2   -1    0    0    0  501  0.00000000000E+00  0.00000000000E+00  0.10032999750E+04  0.10032999750E+04  0.25500000920E-02 0.  1.
        2   -1    0    0  501    0  0.00000000000E+00  0.00000000000E+00 -0.25672464028E+04  0.25672464028E+04  0.25500000920E-02 0. -1.
    10030    2    1    2    0    0  0.00000000000E+00  0.00000000000E+00 -0.15639464278E+04  0.35705463777E+04  0.32098088738E+04 0.  0.
        5    1    3    3  502    0  0.76120534938E+03 -0.68964857449E+03 -0.21537067931E+04  0.23861105970E+04  0.46999998093E+01 0. -1.
       -5    1    3    3    0  502 -0.76120534938E+03  0.68964857449E+03  0.58976036534E+03  0.11844357808E+04  0.46999998093E+01 0.  1.
</event>
<event>
 5   0  0.1273754E-06  0.3154399E+04  0.7818609E-02  0.8200965E-01
        1   -1    0    0  501    0  0.00000000000E+00  0.00000000000E+00  0.16205913962E+04  0.16205913963E+04  0.50400001928E-02 0.  1.
       -1   -1    0    0    0  501  0.00000000000E+00  0.00000000000E+00 -0.15349691461E+04  0.15349691461E+04  0.50400001928E-02 0. -1.
    10030    2    1    2    0    0  0.00000000000E+00  0.00000000000E+00  0.85622250135E+02  0.31555605424E+04  0.31543987013E+04 0.  0.
        2    1    3    3  502    0 -0.65917985151E+03  0.11630854462E+04 -0.79431963466E+03  0.15550657587E+04  0.25500000920E-02 0. -1.
       -2    1    3    3    0  502  0.65917985151E+03 -0.11630854462E+04  0.87994188479E+03  0.16004947837E+04  0.25500000920E-02 0.  1.
</event>
<event>
 5   0  0.3656086E-06  0.3407340E+04  0.7818609E-02  0.8136107E-01
       -2   -1    0    0    0  501  0.00000000000E+00  0.00000000000E+00  0.22814800653E+04  0.22814800653E+04  0.25500000920E-02 0. -1.
        2   -1    0    0  501    0  0.00000000000E+00  0.00000000000E+00 -0.12721970922E+04  0.12721970922E+04  0.25500000920E-02 0.  1.
    10030    2    1    2    0    0  0.00000000000E+00  0.00000000000E+00  0.10092829731E+04  0.35536771576E+04  0.34073404908E+04 0.  0.
        3    1    3    3  502    0  0.13297092636E+04 -0.18804532537E+03 -0.58871598421E+03  0.14663131625E+04  0.10100000352E+00 0.  1.
       -3    1    3    3    0  502 -0.13297092636E+04  0.18804532537E+03  0.15979989573E+04  0.20873639951E+04  0.10100000352E+00 0. -1.
</event>
<event>
 5   0  0.3497546E-06  0.3214055E+04  0.7818609E-02  0.8185115E-01
       -2   -1    0    0    0  501  0.00000000000E+00  0.00000000000E+00  0.14516357333E+04  0.14516357333E+04  0.25500000920E-02 0. -1.
        2   -1    0    0  501    0  0.00000000000E+00  0.00000000000E+00 -0.17790529854E+04  0.17790529854E+04  0.25500000920E-02 0.  1.
    10030    2    1    2    0    0  0.00000000000E+00  0.00000000000E+00 -0.32741725209E+03  0.32306887187E+04  0.32140546885E+04 0.  0.
        4    1    3    3  502    0 -0.13144724675E+04 -0.71473991443E+03 -0.75312574035E+03  0.16750794031E+04  0.12699999809E+01 0.  1.
       -4    1    3    3    0  502  0.13144724675E+04  0.71473991443E+03  0.42570848826E+03  0.15556093156E+04  0.12699999809E+01 0. -1.
</event>
<event>
 5   0  0.1185575E-06  0.3190380E+04  0.7818609E-02  0.8191362E-01
       -3   -1    0    0    0  501  0.00000000000E+00  0.00000000000E+00  0.22258649511E+04  0.22258649534E+04  0.10100000352E+00 0.  1.
        3   -1    0    0  501    0  0.00000000000E+00  0.00000000000E+00 -0.11432102039E+04  0.11432102084E+04  0.10100000352E+00 0. -1.
    10030    2    1    2    0    0  0.00000000000E+00  0.00000000000E+00  0.10826547472E+04  0.33690751618E+04  0.31903802507E+04 0.  0.
        4    1    3    3  502    0 -0.33269472704E+03 -0.14759080582E+03 -0.10987766952E+04  0.11574889486E+04  0.12699999809E+01 0. -1.
       -4    1    3    3    0  502  0.33269472704E+03  0.14759080582E+03  0.21814314424E+04  0.22115862132E+04  0.12699999809E+01 0.  1.
</event>
<event>
 5   0  0.3656086E-06  0.2331149E+04  0.7818609E-02  0.8465740E-01
        2   -1    0    0  501    0  0.00000000000E+00  0.00000000000E+00  0.95299214737E+03  0.95299214737E+03  0.25500000920E-02 0. -1.
       -2   -1    0    0    0  501  0.00000000000E+00  0.00000000000E+00 -0.14255769938E+04  0.14255769938E+04  0.25500000920E-02 0.  1.
    10030    2    1    2    0    0  0.00000000000E+00  0.00000000000E+00 -0.47258484645E+03  0.23785691412E+04  0.23311487988E+04 0.  0.
        3    1    3    3  502    0  0.70121245128E+03 -0.28268258414E+03 -0.11414429817E+04  0.13691239666E+04  0.10100000352E+00 0.  1.
       -3    1    3    3    0  502 -0.70121245128E+03  0.28268258414E+03  0.66885813527E+03  0.10094451746E+04  0.10100000352E+00 0. -1.
</event>
<event>
 5   0  0.3497546E-06  0.3183703E+04  0.7818609E-02  0.8193134E-01
        2   -1    0    0  501    0  0.00000000000E+00  0.00000000000E+00  0.15997390474E+04  0.15997390474E+04  0.25500000920E-02 0.  1.
       -2   -1    0    0    0  501  0.00000000000E+00  0.00000000000E+00 -0.15840032203E+04  0.15840032203E+04  0.25500000920E-02 0. -1.
    10030    2    1    2    0    0  0.00000000000E+00  0.00000000000E+00  0.15735827050E+02  0.31837422677E+04  0.31837033798E+04 0.  0.
        4    1    3    3  502    0 -0.14338335641E+04 -0.36289444537E+03  0.59644890585E+03  0.15947802288E+04  0.12699999809E+01 0.  1.
       -4    1    3    3    0  502  0.14338335641E+04  0.36289444537E+03 -0.58071307880E+03  0.15889620389E+04  0.12699999809E+01 0. -1.
</event>
<event>
 5   0  0.3531437E-06  0.3232977E+04  0.7818609E-02  0.8180162E-01
       -2   -1    0    0    0  501  0.00000000000E+00  0.00000000000E+00  0.23061836259E+04  0.23061836259E+04  0.25500000920E-02 0. -1.
        2   -1    0    0  501    0  0.00000000000E+00  0.00000000000E+00 -0.11330556407E+04  0.11330556407E+04  0.25500000920E-02 0.  1.
    10030    2    1    2    0    0  0.00000000000E+00  0.00000000000E+00  0.11731279852E+04  0.34392392666E+04  0.32329765640E+04 0.  0.
        1    1    3    3  502    0 -0.13933010163E+04 -0.61978163870E+03  0.16048575144E+02  0.15250162486E+04  0.50400001928E-02 0.  1.
       -1    1    3    3    0  502  0.13933010163E+04  0.61978163870E+03  0.11570794100E+04  0.19142230180E+04  0.50400001928E-02 0. -1.
</event>
<event>
 5   0  0.1273980E-06  0.3211161E+04  0.7818609E-02  0.8185876E-01
        1   -1    0    0  501    0  0.00000000000E+00  0.00000000000E+00  0.14557345659E+04  0.14557345659E+04  0.50400001928E-02 0. -1.
       -1   -1    0    0    0  501  0.00000000000E+00  0.00000000000E+00 -0.17708503115E+04  0.17708503115E+04  0.50400001928E-02 0.  1.
    10030    2    1    2    0    0  0.00000000000E+00  0.00000000000E+00 -0.31511574555E+03  0.32265848774E+04  0.32111605438E+04 0.  0.
        4    1    3    3  502    0 -0.10391115917E+04  0.79265953522E+03 -0.10946814352E+04  0.17048140943E+04  0.12699999809E+01 0.  1.
       -4    1    3    3    0  502  0.10391115917E+04 -0.79265953522E+03  0.77956568968E+03  0.15217707830E+04  0.12699999809E+01 0. -1.
</event>
<event>
 5   0  0.3656086E-06  0.3182534E+04  0.7818609E-02  0.8193445E-01
       -2   -1    0    0    0  501  0.00000000000E+00  0.00000000000E+00  0.14880686780E+04  0.14880686780E+04  0.25500000920E-02 0. -1.
        2   -1    0    0  501    0  0.00000000000E+00  0.00000000000E+00 -0.17016219993E+04  0.17016219993E+04  0.25500000920E-02 0.  1.
    10030    2    1    2    0    0  0.00000000000E+00  0.00000000000E+00 -0.21355332131E+03  0.31896906774E+04  0.31825338327E+04 0.  0.
        3    1    3    3  502    0 -0.51125603469E+03  0.24527559205E+03 -0.15969246417E+04  0.16946123954E+04  0.10100000352E+00 0.  1.
       -3    1    3    3    0  502  0.51125603469E+03 -0.24527559205E+03  0.13833713204E+04  0.14950782820E+04  0.10100000352E+00 0. -1.
</event>
<event>
 5   0  0.3745943E-06  0.3098041E+04  0.7818609E-02  0.8216276E-01
       -2   -1    0    0    0  501  0.00000000000E+00  0.00000000000E+00  0.12276895295E+04  0.12276895295E+04  0.25500000920E-02 0.  1.
        2   -1    0    0  501    0  0.00000000000E+00  0.00000000000E+00 -0.19544549679E+04  0.19544549679E+04  0.25500000920E-02 0. -1.
    10030    2    1    2    0    0  0.00000000000E+00  0.00000000000E+00 -0.72676543842E+03  0.31821444974E+04  0.30980406065E+04 0.  0.
        5    1    3    3  502    0 -0.14473299176E+04  0.53242342349E+03 -0.51294899395E+03  0.16252314766E+04  0.46999998093E+01 0.  1.
       -5    1    3    3    0  502  0.14473299176E+04 -0.53242342349E+03 -0.21381644447E+03  0.15569130207E+04  0.46999998093E+01 0. -1.
</event>
<event>
 5   0  0.1240725E-06  0.3285203E+04  0.7818609E-02  0.8166671E-01
        1   -1    0    0  501    0  0.00000000000E+00  0.00000000000E+00  0.81296850567E+03  0.81296850569E+03  0.50400001928E-02 0.  1.
       -1   -1    0    0    0  501  0.00000000000E+00  0.00000000000E+00 -0.33188740985E+04  0.33188740985E+04  0.50400001928E-02 0. -1.
    10030    2    1    2    0    0  0.00000000000E+00  0.00000000000E+00 -0.25059055929E+04  0.41318426042E+04  0.32852032609E+04 0.  0.
        3    1    3    3  502    0 -0.32511956419E+03  0.16001256190E+04 -0.14780636607E+04  0.22024479387E+04  0.10100000352E+00 0. -1.
       -3    1    3    3    0  502  0.32511956419E+03 -0.16001256190E+04 -0.10278419321E+04  0.19293946655E+04  0.10100000352E+00 0.  1.
</event>
<event>
 5   0  0.1273980E-06  0.3244634E+04  0.7818609E-02  0.8177128E-01
       -1   -1    0    0    0  501  0.00000000000E+00  0.00000000000E+00  0.14738758207E+04  0.14738758207E+04  0.50400001928E-02 0.  1.
        1   -1    0    0  501    0  0.00000000000E+00  0.00000000000E+00 -0.17857088723E+04  0.17857088723E+04  0.50400001928E-02 0. -1.
    10030    2    1    2    0    0  0.00000000000E+00  0.00000000000E+00 -0.31183305168E+03  0.32595846930E+04  0.32446344199E+04 0.  0.
        4    1    3    3  502    0  0.54798675224E+03  0.25656489716E+03  0.13562755172E+04  0.14851262298E+04  0.12699999809E+01 0.  1.
       -4    1    3    3    0  502 -0.54798675224E+03 -0.25656489716E+03 -0.16681085689E+04  0.17744584632E+04  0.12699999809E+01 0. -1.
</event>
<event>
 5   0  0.3497546E-06  0.3233574E+04  0.7818609E-02  0.8180006E-01
       -2   -1    0    0    0  501  0.00000000000E+00  0.00000000000E+00  0.10561842708E+04  0.10561842708E+04  0.25500000920E-02 0. -1.
        2   -1    0    0  501    0  0.00000000000E+00  0.00000000000E+00 -0.24749466673E+04  0.24749466673E+04  0.25500000920E-02 0.  1.
    10030    2    1    2    0    0  0.00000000000E+00  0.00000000000E+00 -0.14187623966E+04  0.35311309381E+04  0.32335737141E+04 0.  0.
        4    1    3    3  502    0  0.10535756668E+04  0.73777457992E+03  0.36039002055E+03  0.13357453336E+04  0.12699999809E+01 0. -1.
       -4    1    3    3    0  502 -0.10535756668E+04 -0.73777457992E+03 -0.17791524171E+04  0.21953856045E+04  0.12699999809E+01 0.  1.
</event>
<event>
 5   0  0.1240725E-06  0.3125064E+04  0.7818609E-02  0.8208893E-01
        1   -1    0    0  501    0  0.00000000000E+00  0.00000000000E+00  0.26052447344E+04  0.26052447344E+04  0.50400001928E-02 0.  1.
       -1   -1    0    0    0  501  0.00000000000E+00  0.00000000000E+00 -0.93715062059E+03  0.93715062061E+03  0.50400001928E-02 0. -1.
    10030    2    1    2    0    0  0.00000000000E+00  0.00000000000E+00  0.16680941138E+04  0.35423953550E+04  0.31250642999E+04 0.  0.
        3    1    3    3  502    0 -0.83278305475E+03  0.18221094085E+03 -0.65032256343E+03  0.10722163447E+04  0.10100000352E+00 0. -1.
       -3    1    3    3    0  502  0.83278305475E+03 -0.18221094085E+03  0.23184166773E+04  0.24701790103E+04  0.10100000352E+00 0.  1.
</event>
<event>
 5   0  0.3745943E-06  0.3208502E+04  0.7818609E-02  0.8186576E-01
        2   -1    0    0  501    0  0.00000000000E+00  0.00000000000E+00  0.10706816119E+04  0.10706816119E+04  0.25500000920E-02 0.  1.
       -2   -1    0    0    0  501  0.00000000000E+00  0.00000000000E+00 -0.24037216580E+04  0.24037216580E+04  0.25500000920E-02 0. -1.
    10030    2    1    2    0    0  0.00000000000E+00  0.00000000000E+00 -0.13330400460E+04  0.34744032699E+04  0.32085015689E+04 0.  0.
        5    1    3    3  502    0  0.68976749095E+03  0.10419968543E+04  0.42286524264E+03  0.13192322538E+04  0.46999998093E+01 0. -1.
       -5    1    3    3    0  502 -0.68976749095E+03 -0.10419968543E+04 -0.17559052887E+04  0.21551710161E+04  0.46999998093E+01 0.  1.
</event>
<event>
 5   0  0.3758062E-06  0.3146826E+04  0.7818609E-02  0.8203003E-01
       -2   -1    0    0    0  501  0.00000000000E+00  0.00000000000E+00  0.16119671943E+04  0.16119671943E+04  0.25500000920E-02 0. -1.
        2   -1    0    0  501    0  0.00000000000E+00  0.00000000000E+00 -0.15357809058E+04  0.15357809058E+04  0.25500000920E-02 0.  1.
    10030    2    1    2    0    0  0.00000000000E+00  0.00000000000E+00  0.76186288490E+02  0.31477481001E+04  0.31468259804E+04 0.  0.
        2    1    3    3  502    0 -0.33570585545E+02 -0.13972071872E+04 -0.68483125242E+03  0.15563768028E+04  0.25500000920E-02 0.  1.
       -2    1    3    3    0  502  0.33570585545E+02  0.13972071872E+04  0.76101754091E+03  0.15913712972E+04  0.25500000920E-02 0. -1.
</event>
<event>
 5   0  0.3745943E-06  0.3168155E+04  0.7818609E-02  0.8197278E-01
       -2   -1    0    0    0  501  0.00000000000E+00  0.00000000000E+00  0.97228689491E+03  0.97228689491E+03  0.25500000920E-02 0.  1.
        2   -1    0    0  501    0  0.00000000000E+00  0.00000000000E+00 -0.25808237118E+04  0.25808237118E+04  0.25500000920E-02 0. -1.
    10030    2    1    2    0    0  0.00000000000E+00  0.00000000000E+00 -0.16085368169E+04  0.35531106067E+04  0.31681547140E+04 0.  0.
        5    1    3    3  502    0 -0.67239679983E+02  0.15651476245E+04 -0.10674543763E+04  0.18957028239E+04  0.46999998093E+01 0.  1.
       -5    1    3    3    0  502  0.67239679983E+02 -0.15651476245E+04 -0.54108244054E+03  0.16574077828E+04  0.46999998093E+01 0. -1.
</event>
<event>
 5   0  0.1306843E-06  0.3227547E+04  0.7818609E-02  0.8181580E-01
        1   -1    0    0  501    0  0.00000000000E+00  0.00000000000E+00  0.16492045392E+04  0.16492045392E+04  0.50400001928E-02 0.  1.
       -1   -1    0    0    0  501  0.00000000000E+00  0.00000000000E+00 -0.15791034347E+04  0.15791034347E+04  0.50400001928E-02 0. -1.
    10030    2    1    2    0    0  0.00000000000E+00  0.00000000000E+00  0.70101104508E+02  0.32283079740E+04  0.32275467789E+04 0.  0.
        5    1    3    3  502    0  0.15926169133E+04 -0.26033852345E+03  0.41190650053E+02  0.16142873162E+04  0.46999998093E+01 0. -1.
       -5    1    3    3    0  502 -0.15926169133E+04  0.26033852345E+03  0.28910454454E+02  0.16140206578E+04  0.46999998093E+01 0.  1.
</event>
<event>
 5   0  0.1273980E-06  0.3174216E+04  0.7818609E-02  0.8195660E-01
        1   -1    0    0  501    0  0.00000000000E+00  0.00000000000E+00  0.26681940810E+04  0.26681940810E+04  0.50400001928E-02 0.  1.
       -1   -1    0    0    0  501  0.00000000000E+00  0.00000000000E+00 -0.94405105211E+03  0.94405105212E+03  0.50400001928E-02 0. -1.
    10030    2    1    2    0    0  0.00000000000E+00  0.00000000000E+00  0.17241430289E+04  0.36122451332E+04  0.31742157642E+04 0.  0.
        4    1    3    3  502    0 -0.13262147647E+04  0.86277300175E+03  0.10046027965E+04  0.18741534746E+04  0.12699999809E+01 0.  1.
       -4    1    3    3    0  502  0.13262147647E+04 -0.86277300175E+03  0.71954023246E+03  0.17380916586E+04  0.12699999809E+01 0. -1.
</event>
<event>
 5   0  0.3656086E-06  0.3141349E+04  0.7818609E-02  0.8204481E-01
       -2   -1    0    0    0  501  0.00000000000E+00  0.00000000000E+00  0.13146313147E+04  0.13146313147E+04  0.25500000920E-02 0. -1.
        2   -1    0    0  501    0  0.00000000000E+00  0.00000000000E+00 -0.18765859656E+04  0.18765859656E+04  0.25500000920E-02 0.  1.
    10030    2    1    2    0    0  0.00000000000E+00  0.00000000000E+00 -0.56195465089E+03  0.31912172803E+04  0.31413491847E+04 0.  0.
        3    1    3    3  502    0 -0.42837894067E+03 -0.23000522789E+03  0.12362538699E+04  0.13284331231E+04  0.10100000352E+00 0. -1.
       -3    1    3    3    0  502  0.42837894067E+03  0.23000522789E+03 -0.17982085208E+04  0.18627841571E+04  0.10100000352E+00 0.  1.
</event>
<event>
 5   0  0.1273754E-06  0.2910778E+04  0.7818609E-02  0.8269678E-01
        1   -1    0    0  501    0  0.00000000000E+00  0.00000000000E+00  0.13305429807E+04  0.13305429807E+04  0.50400001928E-02 0. -1.
       -1   -1    0    0    0  501  0.00000000000E+00  0.00000000000E+00 -0.15919497012E+04  0.15919497012E+04  0.50400001928E-02 0.  1.
    10030    2    1    2    0    0  0.00000000000E+00  0.00000000000E+00 -0.26140672056E+03  0.29224926819E+04  0.29107782468E+04 0.  0.
        2    1    3    3  502    0  0.12819463135E+04  0.18325316637E+03  0.53619071578E+03  0.14015950048E+04  0.25500000920E-02 0. -1.
       -2    1    3    3    0  502 -0.12819463135E+04 -0.18325316637E+03 -0.79759743634E+03  0.15208976771E+04  0.25500000920E-02 0.  1.
</event>
<event>
 5   0  0.3497546E-06  0.3186124E+04  0.7818609E-02  0.8192492E-01
        2   -1    0    0  501    0  0.00000000000E+00  0.00000000000E+00  0.18464142561E+04  0.18464142561E+04  0.25500000920E-02 0. -1.
       -2   -1    0    0    0  501  0.00000000000E+00  0.00000000000E+00 -0.13744727063E+04  0.13744727063E+04  0.25500000920E-02 0.  1.
    10030    2    1    2    0    0  0.00000000000E+00  0.00000000000E+00  0.47194154986E+03  0.32208869624E+04  0.31861236633E+04 0.  0.
        4    1    3    3  502    0 -0.11004176704E+04 -0.60243430926E+03  0.12285175347E+04  0.17558767303E+04  0.12699999809E+01 0. -1.
       -4    1    3    3    0  502  0.11004176704E+04  0.60243430926E+03 -0.75657598485E+03  0.14650102320E+04  0.12699999809E+01 0.  1.
</event>
<event>
 5   0  0.1273980E-06  0.2971879E+04  0.7818609E-02  0.8251807E-01
        1   -1    0    0  501    0  0.00000000000E+00  0.00000000000E+00  0.25772497949E+04  0.25772497949E+04  0.50400001928E-02 0. -1.
       -1   -1    0    0    0  501  0.00000000000E+00  0.00000000000E+00 -0.85673320467E+03  0.85673320469E+03  0.50400001928E-02 0.  1.
    10030    2    1    2    0    0  0.00000000000E+00  0.00000000000E+00  0.17205165902E+04  0.34339829996E+04  0.29718785144E+04 0.  0.
        4    1    3    3  502    0  0.34249760577E+03 -0.79244561498E+03 -0.53723759320E+03  0.10168089826E+04  0.12699999809E+01 0.  1.
       -4    1    3    3    0  502 -0.34249760577E+03  0.79244561498E+03  0.22577541834E+04  0.24171740170E+04  0.12699999809E+01 0. -1.
</event>
<event>
 5   0  0.1268836E-06  0.3041408E+04  0.7818609E-02  0.8232004E-01
       -1   -1    0    0    0  501  0.00000000000E+00  0.00000000000E+00  0.12601227458E+04  0.12601227459E+04  0.50400001928E-02 0. -1.
        1   -1    0    0  501    0  0.00000000000E+00  0.00000000000E+00 -0.18351711969E+04  0.18351711969E+04  0.50400001928E-02 0.  1.
    10030    2    1    2    0    0  0.00000000000E+00  0.00000000000E+00 -0.57504845103E+03  0.30952939427E+04  0.30414082052E+04 0.  0.
        1    1    3    3  502    0  0.22757633325E+02 -0.13211735817E+04  0.47848873991E+03  0.14053359090E+04  0.50400001928E-02 0. -1.
       -1    1    3    3    0  502 -0.22757633325E+02  0.13211735817E+04 -0.10535371909E+04  0.16899580337E+04  0.50400001928E-02 0.  1.
</event>
<event>
 5   0  0.1306843E-06  0.3170910E+04  0.7818609E-02  0.8196542E-01
       -1   -1    0    0    0  501  0.00000000000E+00  0.00000000000E+00  0.10287512718E+04  0.10287512718E+04  0.50400001928E-02 0. -1.
        1   -1    0    0  501    0  0.00000000000E+00  0.00000000000E+00 -0.24434168775E+04  0.24434168775E+04  0.50400001928E-02 0.  1.
    10030    2    1    2    0    0  0.00000000000E+00  0.00000000000E+00 -0.14146656057E+04  0.34721681493E+04  0.31709104183E+04 0.  0.
        5    1    3    3  502    0  0.48192446560E+03  0.15102776344E+04 -0.73072617598E+03  0.17456152376E+04  0.46999998093E+01 0. -1.
       -5    1    3    3    0  502 -0.48192446560E+03 -0.15102776344E+04 -0.68393942969E+03  0.17265529117E+04  0.46999998093E+01 0.  1.
</event>
<event>
 5   0  0.1240725E-06  0.3183340E+04  0.7818609E-02  0.8193231E-01
        1   -1    0    0  501    0  0.00000000000E+00  0.00000000000E+00  0.26474850098E+04  0.26474850098E+04  0.50400001928E-02 0. -1.
       -1   -1    0    0    0  501  0.00000000000E+00  0.00000000000E+00 -0.95691338152E+03  0.95691338153E+03  0.50400001928E-02 0.  1.
    10030    2    1    2    0    0  0.00000000000E+00  0.00000000000E+00  0.16905716283E+04  0.36043983913E+04  0.31833402792E+04 0.  0.
        3    1    3    3  502    0  0.51806411813E+03 -0.74167051211E+03  0.23280607341E+04  0.24976653841E+04  0.10100000352E+00 0. -1.
       -3    1    3    3    0  502 -0.51806411813E+03  0.74167051211E+03 -0.63748910584E+03  0.11067330072E+04  0.10100000352E+00 0.  1.
</event>
<event>
 5   0  0.3758062E-06  0.3212354E+04  0.7818609E-02  0.8185562E-01
        2   -1    0    0  501    0  0.00000000000E+00  0.00000000000E+00  0.14551811598E+04  0.14551811598E+04  0.25500000920E-02 0.  1.
       -2   -1    0    0    0  501  0.00000000000E+00  0.00000000000E+00 -0.17728410560E+04  0.17728410560E+04  0.25500000920E-02 0. -1.
    10030    2    1    2    0    0  0.00000000000E+00  0.00000000000E+00 -0.31765989628E+03  0.32280222158E+04  0.32123542171E+04 0.  0.
        2    1    3    3  502    0 -0.13150546274E+04 -0.27771302619E+03 -0.10425004940E+04  0.17009704518E+04  0.25500000920E-02 0. -1.
       -2    1    3    3    0  502  0.13150546274E+04  0.27771302619E+03  0.72484059773E+03  0.15270517640E+04  0.25500000920E-02 0.  1.
</event>
<event>
 5   0  0.1273980E-06  0.3211600E+04  0.7818609E-02  0.8185760E-01
       -1   -1    0    0    0  501  0.00000000000E+00  0.00000000000E+00  0.15685730946E+04  0.15685730946E+04  0.50400001928E-02 0.  1.
        1   -1    0    0  501    0  0.00000000000E+00  0.00000000000E+00 -0.16439103131E+04  0.16439103132E+04  0.50400001928E-02 0. -1.
    10030    2    1    2    0    0  0.00000000000E+00  0.00000000000E+00 -0.75337218542E+02  0.32124834078E+04  0.32115999048E+04 0.  0.
        4    1    3    3  502    0 -0.14064064562E+03  0.13484037377E+04  0.82316063298E+03  0.15860540570E+04  0.12699999809E+01 0.  1.
       -4    1    3    3    0  502  0.14064064562E+03 -0.13484037377E+04 -0.89849785152E+03  0.16264293508E+04  0.12699999809E+01 0. -1.
</event>
<event>
 5   0  0.3656086E-06  0.3179140E+04  0.7818609E-02  0.8194348E-01
       -2   -1    0    0    0  501  0.00000000000E+00  0.00000000000E+00  0.11379330394E+04  0.11379330394E+04  0.25500000920E-02 0.  1.
        2   -1    0    0  501    0  0.00000000000E+00  0.00000000000E+00 -0.22204575990E+04  0.22204575990E+04  0.25500000920E-02 0. -1.
    10030    2    1    2    0    0  0.00000000000E+00  0.00000000000E+00 -0.10825245597E+04  0.33583906384E+04  0.31791395468E+04 0.  0.
        3    1    3    3  502    0  0.77041593796E+03 -0.97590527164E+03 -0.15874554978E+04  0.20164192977E+04  0.10100000352E+00 0. -1.
       -3    1    3    3    0  502 -0.77041593796E+03  0.97590527164E+03  0.50493093809E+03  0.13419713407E+04  0.10100000352E+00 0.  1.
</event>
<event>
 5   0  0.3497546E-06  0.3245238E+04  0.7818609E-02  0.8176971E-01
        2   -1    0    0  501    0  0.00000000000E+00  0.00000000000E+00  0.15434738486E+04  0.15434738486E+04  0.25500000920E-02 0.  1.
       -2   -1    0    0    0  501  0.00000000000E+00  0.00000000000E+00 -0.17058229995E+04  0.17058229995E+04  0.25500000920E-02 0. -1.
    10030    2    1    2    0    0  0.00000000000E+00  0.00000000000E+00 -0.16234915091E+03  0.32492968482E+04  0.32452384752E+04 0.  0.
        4    1    3    3  502    0  0.15770789629E+02 -0.12950725145E+04 -0.10598579693E+04  0.16735477477E+04  0.12699999809E+01 0. -1.
       -4    1    3    3    0  502 -0.15770789629E+02  0.12950725145E+04  0.89750881843E+03  0.15757491005E+04  0.12699999809E+01 0.  1.
</event>
<event>
 5   0  0.1268836E-06  0.3207687E+04  0.7818609E-02  0.8186790E-01
       -1   -1    0    0    0  501  0.00000000000E+00  0.00000000000E+00  0.10028800075E+04  0.10028800075E+04  0.50400001928E-02 0. -1.
        1   -1    0    0  501    0  0.00000000000E+00  0.00000000000E+00 -0.25649275030E+04  0.25649275030E+04  0.50400001928E-02 0.  1.
    10030    2    1    2    0    0  0.00000000000E+00  0.00000000000E+00 -0.15620474956E+04  0.35678075105E+04  0.32076873372E+04 0.  0.
        1    1    3    3  502    0  0.51793703255E+03  0.93301494577E+03  0.55069992531E+03  0.12008522251E+04  0.50400001928E-02 0. -1.
       -1    1    3    3    0  502 -0.51793703255E+03 -0.93301494577E+03 -0.21127474209E+04  0.23669552854E+04  0.50400001928E-02 0.  1.
</event>
<event>
 5   0  0.3745943E-06  0.2540963E+04  0.7818609E-02  0.8388536E-01
       -2   -1    0    0    0  501  0.00000000000E+00  0.00000000000E+00  0.11616769195E+04  0.11616769195E+04  0.25500000920E-02 0. -1.
        2   -1    0    0  501    0  0.00000000000E+00  0.00000000000E+00 -0.13894774231E+04  0.13894774231E+04  0.25500000920E-02 0.  1.
    10030    2    1    2    0    0  0.00000000000E+00  0.00000000000E+00 -0.22780050360E+03  0.25511543426E+04  0.25409634807E+04 0.  0.
        5    1    3    3  502    0 -0.92183764807E+03 -0.33610215526E+03  0.69640067848E+03  0.12032228817E+04  0.46999998093E+01 0. -1.
       -5    1    3    3    0  502  0.92183764807E+03  0.33610215526E+03 -0.92420118208E+03  0.13479314608E+04  0.46999998093E+01 0.  1.
</event>
<event>
 5   0  0.3531437E-06  0.3317375E+04  0.7818609E-02  0.8158488E-01
       -2   -1    0    0    0  501  0.00000000000E+00  0.00000000000E+00  0.12887292397E+04  0.12887292397E+04  0.25500000920E-02 0.  1.
        2   -1    0    0  501    0  0.00000000000E+00  0.00000000000E+00 -0.21348501845E+04  0.21348501845E+04  0.25500000920E-02 0. -1.
    10030    2    1    2    0    0  0.00000000000E+00  0.00000000000E+00 -0.84612094484E+03  0.34235794242E+04  0.33173747784E+04 0.  0.
        1    1    3    3  502    0  0.10727766755E+04 -0.11240049434E+04  0.17604777164E+03  0.15637230337E+04  0.50400001928E-02 0. -1.
       -1    1    3    3    0  502 -0.10727766755E+04  0.11240049434E+04 -0.10221687165E+04  0.18598563905E+04  0.50400001928E-02 0.  1.
</event>
<event>
 5   0  0.3656086E-06  0.3150169E+04  0.7818609E-02  0.8202103E-01
        2   -1    0    0  501    0  0.00000000000E+00  0.00000000000E+00  0.14159165172E+04  0.14159165172E+04  0.25500000920E-02 0. -1.
       -2   -1    0    0    0  501  0.00000000000E+00  0.00000000000E+00 -0.17521456086E+04  0.17521456086E+04  0.25500000920E-02 0.  1.
    10030    2    1    2    0    0  0.00000000000E+00  0.00000000000E+00 -0.33622909136E+03  0.31680621259E+04  0.31501694607E+04 0.  0.
        3    1    3    3  502    0  0.72509002382E+03  0.10249509720E+04 -0.11246276214E+04  0.16855465981E+04  0.10100000352E+00 0.  1.
       -3    1    3    3    0  502 -0.72509002382E+03 -0.10249509720E+04  0.78839853002E+03  0.14825155277E+04  0.10100000352E+00 0. -1.
</event>
<event>
 5   0  0.1268836E-06  0.3040832E+04  0.7818609E-02  0.8232166E-01
        1   -1    0    0  501    0  0.00000000000E+00  0.00000000000E+00  0.15840980033E+04  0.15840980034E+04  0.50400001928E-02 0.  1.
       -1   -1    0    0    0  501  0.00000000000E+00  0.00000000000E+00 -0.14592943940E+04  0.14592943940E+04  0.50400001928E-02 0. -1.
    10030    2    1    2    0    0  0.00000000000E+00  0.00000000000E+00  0.12480360939E+03  0.30433923973E+04  0.30408323438E+04 0.  0.
        1    1    3    3  502    0  0.14375620055E+04 -0.46042037595E+03  0.24447223021E+03  0.15291625531E+04  0.50400001928E-02 0.  1.
       -1    1    3    3    0  502 -0.14375620055E+04  0.46042037595E+03 -0.11966862082E+03  0.15142298442E+04  0.50400001928E-02 0. -1.
</event>
<event>
 5   0  0.1273754E-06  0.3185156E+04  0.7818609E-02  0.8192749E-01
        1   -1    0    0  501    0  0.00000000000E+00  0.00000000000E+00  0.89465231314E+03  0.89465231315E+03  0.50400001928E-02 0. -1.
       -1   -1    0    0    0  501  0.00000000000E+00  0.00000000000E+00 -0.28349605208E+04  0.28349605208E+04  0.50400001928E-02 0.  1.
    10030    2    1    2    0    0  0.00000000000E+00  0.00000000000E+00 -0.19403082077E+04  0.37296128340E+04  0.31851555614E+04 0.  0.
        2    1    3    3  502    0 -0.13953531501E+04 -0.39400510586E+03 -0.19870947547E+03  0.14634670794E+04  0.25500000920E-02 0. -1.
       -2    1    3    3    0  502  0.13953531501E+04  0.39400510586E+03 -0.17415987322E+04  0.22661457546E+04  0.25500000920E-02 0.  1.
</event>
<event>
 5   0  0.3531437E-06  0.3194057E+04  0.7818609E-02  0.8190388E-01
        2   -1    0    0  501    0  0.00000000000E+00  0.00000000000E+00  0.17901926143E+04  0.17901926143E+04  0.25500000920E-02 0.  1.
       -2   -1    0    0    0  501  0.00000000000E+00  0.00000000000E+00 -0.14247074816E+04  0.14247074816E+04  0.25500000920E-02 0. -1.
    10030    2    1    2    0    0  0.00000000000E+00  0.00000000000E+00  0.36548513274E+03  0.32149000960E+04  0.31940574893E+04 0.  0.
        1    1    3    3  502    0  0.84198957404E+03  0.13444753325E+04 -0.26889467455E+01  0.15863693117E+04  0.50400001928E-02 0.  1.
       -1    1    3    3    0  502 -0.84198957404E+03 -0.13444753325E+04  0.36817407948E+03  0.16285307843E+04  0.50400001928E-02 0. -1.
</event>
<event>
 5   0  0.3656086E-06  0.3240708E+04  0.7818609E-02  0.8178148E-01
        2   -1    0    0  501    0  0.00000000000E+00  0.00000000000E+00  0.19676479207E+04  0.19676479207E+04  0.25500000920E-02 0. -1.
       -2   -1    0    0    0  501  0.00000000000E+00  0.00000000000E+00 -0.13343579195E+04  0.13343579195E+04  0.25500000920E-02 0.  1.
    10030    2    1    2    0    0  0.00000000000E+00  0.00000000000E+00  0.63329000120E+03  0.33020058403E+04  0.32407076918E+04 0.  0.
        3    1    3    3  502    0  0.14168396120E+04  0.76287379225E+03  0.12295552997E+03  0.16138553162E+04  0.10100000352E+00 0. -1.
       -3    1    3    3    0  502 -0.14168396120E+04 -0.76287379225E+03  0.51033447123E+03  0.16881505240E+04  0.10100000352E+00 0.  1.
</event>
<event>
 5   0  0.1306843E-06  0.3248967E+04  0.7818609E-02  0.8176003E-01
        1   -1    0    0  501    0  0.00000000000E+00  0.00000000000E+00  0.11700721714E+04  0.11700721714E+04  0.50400001928E-02 0. -1.
       -1   -1    0    0    0  501  0.00000000000E+00  0.00000000000E+00 -0.22553712265E+04  0.22553712265E+04  0.50400001928E-02 0.  1.
    10030    2    1    2    0    0  0.00000000000E+00  0.00000000000E+00 -0.10852990551E+04  0.34254433979E+04  0.32489672872E+04 0.  0.
        5    1    3    3  502    0  0.12827694862E+04  0.70666813422E+03  0.19841471616E+03  0.14779268914E+04  0.46999998093E+01 0. -1.
       -5    1    3    3    0  502 -0.12827694862E+04 -0.70666813422E+03 -0.12837137713E+04  0.19475165065E+04  0.46999998093E+01 0.  1.
</event>
<event>
 5   0  0.3656086E-06  0.2587421E+04  0.7818609E-02  0.8372487E-01
        2   -1    0    0  501    0  0.00000000000E+00  0.00000000000E+00  0.19994237480E+04  0.19994237480E+04  0.25500000920E-02 0. -1.
       -2   -1    0    0    0  501  0.00000000000E+00  0.00000000000E+00 -0.83708475185E+03  0.83708475186E+03  0.25500000920E-02 0.  1.
    10030    2    1    2    0    0  0.00000000000E+00  0.00000000000E+00  0.11623389962E+04  0.28365084999E+04  0.25874212119E+04 0.  0.
        3    1    3    3  502    0  0.11844190008E+04 -0.40950975633E+03  0.22909741000E+03  0.12739828270E+04  0.10100000352E+00 0.  1.
       -3    1    3    3    0  502 -0.11844190008E+04  0.40950975633E+03  0.93324158618E+03  0.15625256729E+04  0.10100000352E+00 0. -1.
</event>
<event>
 5   0  0.1273980E-06  0.3186389E+04  0.7818609E-02  0.8192421E-01
       -1   -1    0    0    0  501  0.00000000000E+00  0.00000000000E+00  0.20484856395E+04  0.20484856395E+04  0.50400001928E-02 0.  1.
        1   -1    0    0  501    0  0.00000000000E+00  0.00000000000E+00 -0.12390953505E+04  0.12390953505E+04  0.50400001928E-02 0. -1.
    10030    2    1    2    0    0  0.00000000000E+00  0.00000000000E+00  0.80939028900E+03  0.32875809900E+04  0.31863891988E+04 0.  0.
        4    1    3    3  502    0 -0.87487648252E+03 -0.10826852604E+04 -0.39493435720E+03  0.14469246671E+04  0.12699999809E+01 0.  1.
       -4    1    3    3    0  502  0.87487648252E+03  0.10826852604E+04  0.12043246462E+04  0.18406563229E+04  0.12699999809E+01 0. -1.
</event>
<event>
 5   0  0.1273980E-06  0.3170096E+04  0.7818609E-02  0.8196760E-01
       -1   -1    0    0    0  501  0.00000000000E+00  0.00000000000E+00  0.13808356567E+04  0.13808356567E+04  0.50400001928E-02 0.  1.
        1   -1    0    0  501    0  0.00000000000E+00  0.00000000000E+00 -0.18194616183E+04  0.18194616183E+04  0.50400001928E-02 0. -1.
    10030    2    1    2    0    0  0.00000000000E+00  0.00000000000E+00 -0.43862596160E+03  0.32002972750E+04  0.31700961995E+04 0.  0.
        4    1    3    3  502    0 -0.32437241309E+03  0.69349453793E+03  0.11817938312E+04  0.14081159074E+04  0.12699999809E+01 0.  1.
       -4    1    3    3    0  502  0.32437241309E+03 -0.69349453793E+03 -0.16204197928E+04  0.17921813676E+04  0.12699999809E+01 0. -1.
</event>
<event>
 5   0  0.3656086E-06  0.3249582E+04  0.7818609E-02  0.8175844E-01
        2   -1    0    0  501    0  0.00000000000E+00  0.00000000000E+00  0.17075612840E+04  0.17075612840E+04  0.25500000920E-02 0.  1.
       -2   -1    0    0    0  501  0.00000000000E+00  0.00000000000E+00 -0.15460332467E+04  0.15460332467E+04  0.25500000920E-02 0. -1.
    10030    2    1    2    0    0  0.00000000000E+00  0.00000000000E+00  0.16152803733E+03  0.32535945307E+04  0.32495824445E+04 0.  0.
        3    1    3    3  502    0  0.10110141805E+04  0.77994100436E+02 -0.11903362936E+04  0.15636921867E+04  0.10100000352E+00 0. -1.
       -3    1    3    3    0  502 -0.10110141805E+04 -0.77994100436E+02  0.13518643309E+04  0.16899023440E+04  0.10100000352E+00 0.  1.
</event>
<event>
 5   0  0.1240725E-06  0.3137774E+04  0.7818609E-02  0.8205447E-01
       -1   -1    0    0    0  501  0.00000000000E+00  0.00000000000E+00  0.11072677583E+04  0.11072677583E+04  0.50400001928E-02 0.  1.
        1   -1    0    0  501    0  0.00000000000E+00  0.00000000000E+00 -0.22229551275E+04  0.22229551275E+04  0.50400001928E-02 0. -1.
    10030    2    1    2    0    0  0.00000000000E+00  0.00000000000E+00 -0.11156873692E+04  0.33302228858E+04  0.31377740778E+04 0.  0.
        3    1    3    3  502    0  0.10560963855E+03  0.98179015282E+03  0.73608664491E+03  0.12316204200E+04  0.10100000352E+00 0.  1.
       -3    1    3    3    0  502 -0.10560963855E+03 -0.98179015282E+03 -0.18517740141E+04  0.20986024658E+04  0.10100000352E+00 0. -1.
</event>
<event>
 5   0  0.1268836E-06  0.3211857E+04  0.7818609E-02  0.8185693E-01
        1   -1    0    0  501    0  0.00000000000E+00  0.00000000000E+00  0.20400900393E+04  0.20400900393E+04  0.50400001928E-02 0.  1.
       -1   -1    0    0    0  501  0.00000000000E+00  0.00000000000E+00 -0.12641632105E+04  0.12641632105E+04  0.50400001928E-02 0. -1.
    10030    2    1    2    0    0  0.00000000000E+00  0.00000000000E+00  0.77592682886E+03  0.33042532498E+04  0.32118572657E+04 0.  0.
        1    1    3    3  502    0 -0.10005977660E+04  0.67090491408E+03  0.14804431597E+04  0.19086700192E+04  0.50400001928E-02 0.  1.
       -1    1    3    3    0  502  0.10005977660E+04 -0.67090491408E+03 -0.70451633089E+03  0.13955832306E+04  0.50400001928E-02 0. -1.
</event>
<event>
 5   0  0.1273980E-06  0.3212221E+04  0.7818609E-02  0.8185597E-01
       -1   -1    0    0    0  501  0.00000000000E+00  0.00000000000E+00  0.97551557229E+03  0.97551557231E+03  0.50400001928E-02 0.  1.
        1   -1    0    0  501    0  0.00000000000E+00  0.00000000000E+00 -0.26443355693E+04  0.26443355693E+04  0.50400001928E-02 0. -1.
    10030    2    1    2    0    0  0.00000000000E+00  0.00000000000E+00 -0.16688199970E+04  0.36198511416E+04  0.32122207435E+04 0.  0.
        4    1    3    3  502    0 -0.56697403739E+03  0.13031471947E+04 -0.16776570138E+04  0.21986784301E+04  0.12699999809E+01 0. -1.
       -4    1    3    3    0  502  0.56697403739E+03 -0.13031471947E+04  0.88370167298E+01  0.14211727115E+04  0.12699999809E+01 0.  1.
</event>
<event>
 5   0  0.3758062E-06  0.3186307E+04  0.7818609E-02  0.8192443E-01
        2   -1    0    0  501    0  0.00000000000E+00  0.00000000000E+00  0.19319059077E+04  0.19319059077E+04  0.25500000920E-02 0.  1.
       -2   -1    0    0    0  501  0.00000000000E+00  0.00000000000E+00 -0.13138002710E+04  0.13138002710E+04  0.25500000920E-02 0. -1.
    10030    2    1    2    0    0  0.00000000000E+00  0.00000000000E+00  0.61810563665E+03  0.32457061787E+04  0.31863072703E+04 0.  0.
        2    1    3    3  502    0 -0.19277876187E+03  0.13541484225E+03 -0.12959589407E+04  0.13171979375E+04  0.25500000920E-02 0. -1.
       -2    1    3    3    0  502  0.19277876187E+03 -0.13541484225E+03  0.19140645773E+04  0.19285082413E+04  0.25500000920E-02 0.  1.
</event>
<event>
 5   0  0.3758062E-06  0.2730853E+04  0.7818609E-02  0.8325063E-01
        2   -1    0    0  501    0  0.00000000000E+00  0.00000000000E+00  0.22192300382E+04  0.22192300382E+04  0.25500000920E-02 0. -1.
       -2   -1    0    0    0  501  0.00000000000E+00  0.00000000000E+00 -0.84010644915E+03  0.84010644915E+03  0.25500000920E-02 0.  1.
    10030    2    1    2    0    0  0.00000000000E+00  0.00000000000E+00  0.13791235891E+04  0.30593364874E+04  0.27308529563E+04 0.  0.
        2    1    3    3  502    0 -0.10612529070E+04  0.25247785671E+03  0.16095524537E+04  0.19443924249E+04  0.25500000920E-02 0. -1.
       -2    1    3    3    0  502  0.10612529070E+04 -0.25247785671E+03 -0.23042886459E+03  0.11149440625E+04  0.25500000920E-02 0.  1.
</event>
<event>
 5   0  0.3758062E-06  0.3235235E+04  0.7818609E-02  0.8179573E-01
        2   -1    0    0  501    0  0.00000000000E+00  0.00000000000E+00  0.13359867605E+04  0.13359867605E+04  0.25500000920E-02 0.  1.
       -2   -1    0    0    0  501  0.00000000000E+00  0.00000000000E+00 -0.19586174401E+04  0.19586174401E+04  0.25500000920E-02 0. -1.
    10030    2    1    2    0    0  0.00000000000E+00  0.00000000000E+00 -0.62263067963E+03  0.32946042006E+04  0.32352353663E+04 0.  0.
        2    1    3    3  502    0  0.10817943941E+04  0.19413930214E+02 -0.15358925184E+04  0.18787287830E+04  0.25500000920E-02 0. -1.
       -2    1    3    3    0  502 -0.10817943941E+04 -0.19413930214E+02  0.91326183881E+03  0.14158754176E+04  0.25500000920E-02 0.  1.
</event>
<event>
 5   0  0.1273754E-06  0.3198565E+04  0.7818609E-02  0.8189196E-01
       -1   -1    0    0    0  501  0.00000000000E+00  0.00000000000E+00  0.10754074340E+04  0.10754074340E+04  0.50400001928E-02 0.  1.
        1   -1    0    0  501    0  0.00000000000E+00  0.00000000000E+00 -0.23783586619E+04  0.23783586619E+04  0.50400001928E-02 0. -1.
    10030    2    1    2    0    0  0.00000000000E+00  0.00000000000E+00 -0.13029512279E+04  0.34537660959E+04  0.31985650444E+04 0.  0.
        2    1    3    3  502    0 -0.11401401898E+04  0.67175671471E+03 -0.16211979953E+04  0.20927158613E+04  0.25500000920E-02 0. -1.
       -2    1    3    3    0  502  0.11401401898E+04 -0.67175671471E+03  0.31824676743E+03  0.13610502346E+04  0.25500000920E-02 0.  1.
</event>
<event>
 5   0  0.1273980E-06  0.3196136E+04  0.7818609E-02  0.8189838E-01
        1   -1    0    0  501    0  0.00000000000E+00  0.00000000000E+00  0.26612137143E+04  0.26612137143E+04  0.50400001928E-02 0. -1.
       -1   -1    0    0    0  501  0.00000000000E+00  0.00000000000E+00 -0.95964539404E+03  0.95964539405E+03  0.50400001928E-02 0.  1.
    10030    2    1    2    0    0  0.00000000000E+00  0.00000000000E+00  0.17015683203E+04  0.36208591084E+04  0.31961360944E+04 0.  0.
        4    1    3    3  502    0  0.15731023453E+04 -0.59356779535E+02  0.11623704610E+04  0.19568548535E+04  0.12699999809E+01 0.  1.
       -4    1    3    3    0  502 -0.15731023453E+04  0.59356779535E+02  0.53919785926E+03  0.16640042549E+04  0.12699999809E+01 0. -1.
</event>
<event>
 5   0  0.1240725E-06  0.2980271E+04  0.7818609E-02  0.8249387E-01
       -1   -1    0    0    0  501  0.00000000000E+00  0.00000000000E+00  0.11537069999E+04  0.11537069999E+04  0.50400001928E-02 0. -1.
        1   -1    0    0  501    0  0.00000000000E+00  0.00000000000E+00 -0.19246685115E+04  0.19246685115E+04  0.50400001928E-02 0.  1.
    10030    2    1    2    0    0  0.00000000000E+00  0.00000000000E+00 -0.77096151161E+03  0.30783755114E+04  0.29802708160E+04 0.  0.
        3    1    3    3  502    0 -0.59350276796E+03 -0.12555256974E+04  0.17259446656E+03  0.13994210133E+04  0.10100000352E+00 0. -1.
       -3    1    3    3    0  502  0.59350276796E+03  0.12555256974E+04 -0.94355597817E+03  0.16789544981E+04  0.10100000352E+00 0.  1.
</event>
<event>
 5   0  0.3745943E-06  0.2950087E+04  0.7818609E-02  0.8258129E-01
        2   -1    0    0  501    0  0.00000000000E+00  0.00000000000E+00  0.18625793816E+04  0.18625793816E+04  0.25500000920E-02 0. -1.
       -2   -1    0    0    0  501  0.00000000000E+00  0.00000000000E+00 -0.11681398178E+04  0.11681398178E+04  0.25500000920E-02 0.  1.
    10030    2    1    2    0    0  0.00000000000E+00  0.00000000000E+00  0.69443956375E+03  0.30307191994E+04  0.29500868729E+04 0.  0.
        5    1    3    3  502    0  0.90967817877E+03 -0.61945451838E+03 -0.66170869736E+03  0.12841801974E+04  0.46999998093E+01 0.  1.
       -5    1    3    3    0  502 -0.90967817877E+03  0.61945451838E+03  0.13561482611E+04  0.17465390020E+04  0.46999998093E+01 0. -1.
</event>
<event>
 5   0  0.1273980E-06  0.3248221E+04  0.7818609E-02  0.8176197E-01
       -1   -1    0    0    0  501  0.00000000000E+00  0.00000000000E+00  0.10656690842E+04  0.10656690842E+04  0.50400001928E-02 0.  1.
        1   -1    0    0  501    0  0.00000000000E+00  0.00000000000E+00 -0.24751912437E+04  0.24751912437E+04  0.50400001928E-02 0. -1.
    10030    2    1    2    0    0  0.00000000000E+00  0.00000000000E+00 -0.14095221595E+04  0.35408603280E+04  0.32482209198E+04 0.  0.
        4    1    3    3  502    0 -0.15406105214E+04 -0.10757834862E+02 -0.12650055528E+04  0.19934485624E+04  0.12699999809E+01 0. -1.
       -4    1    3    3    0  502  0.15406105214E+04  0.10757834862E+02 -0.14451660674E+03  0.15474117655E+04  0.12699999809E+01 0.  1.
</event>
<event>
 5   0  0.3745943E-06  0.3190530E+04  0.7818609E-02  0.8191323E-01
        2   -1    0    0  501    0  0.00000000000E+00  0.00000000000E+00  0.14559673193E+04  0.14559673194E+04  0.25500000920E-02 0. -1.
       -2   -1    0    0    0  501  0.00000000000E+00  0.00000000000E+00 -0.17478896484E+04  0.17478896484E+04  0.25500000920E-02 0.  1.
    10030    2    1    2    0    0  0.00000000000E+00  0.00000000000E+00 -0.29192232909E+03  0.32038569678E+04  0.31905298657E+04 0.  0.
        5    1    3    3  502    0  0.52378164845E+03  0.67140439511E+03 -0.15005647969E+04  0.17253544206E+04  0.46999998093E+01 0.  1.
       -5    1    3    3    0  502 -0.52378164845E+03 -0.67140439511E+03  0.12086424678E+04  0.14785025472E+04  0.46999998093E+01 0. -1.
</event>
<event>
 5   0  0.1273980E-06  0.3292240E+04  0.7818609E-02  0.8164873E-01
        1   -1    0    0  501    0  0.00000000000E+00  0.00000000000E+00  0.12949694787E+04  0.12949694788E+04  0.50400001928E-02 0.  1.
       -1   -1    0    0    0  501  0.00000000000E+00  0.00000000000E+00 -0.20924904913E+04  0.20924904913E+04  0.50400001928E-02 0. -1.
    10030    2    1    2    0    0  0.00000000000E+00  0.00000000000E+00 -0.79752101255E+03  0.33874599701E+04  0.32922401619E+04 0.  0.
        4    1    3    3  502    0  0.14358416427E+04 -0.73610393303E+03 -0.63420970820E+02  0.16147798784E+04  0.12699999809E+01 0.  1.
       -4    1    3    3    0  502 -0.14358416427E+04  0.73610393303E+03 -0.73410004173E+03  0.17726800917E+04  0.12699999809E+01 0. -1.
</event>
<event>
 5   0  0.1306843E-06  0.3229480E+04  0.7818609E-02  0.8181075E-01
        1   -1    0    0  501    0  0.00000000000E+00  0.00000000000E+00  0.20668140203E+04  0.20668140203E+04  0.50400001928E-02 0. -1.
       -1   -1    0    0    0  501  0.00000000000E+00  0.00000000000E+00 -0.12615479351E+04  0.12615479351E+04  0.50400001928E-02 0.  1.
    10030    2    1    2    0    0  0.00000000000E+00  0.00000000000E+00  0.80526608522E+03  0.33283619554E+04  0.32294798092E+04 0.  0.
        5    1    3    3  502    0 -0.94492780210E+03  0.53099801061E+03 -0.83089103188E+03  0.13657413501E+04  0.46999998093E+01 0.  1.
       -5    1    3    3    0  502  0.94492780210E+03 -0.53099801061E+03  0.16361571171E+04  0.19626206053E+04  0.46999998093E+01 0. -1.
</event>
<event>
 5   0  0.1240725E-06  0.3209979E+04  0.7818609E-02  0.8186187E-01
        1   -1    0    0  501    0  0.00000000000E+00  0.00000000000E+00  0.12058859775E+04  0.12058859775E+04  0.50400001928E-02 0. -1.
       -1   -1    0    0    0  501  0.00000000000E+00  0.00000000000E+00 -0.21361817406E+04  0.21361817406E+04  0.50400001928E-02 0.  1.
    10030    2    1    2    0    0  0.00000000000E+00  0.00000000000E+00 -0.93029576316E+03  0.33420677181E+04  0.32099791939E+04 0.  0.
        3    1    3    3  502    0 -0.88842568899E+03  0.67502593821E+03  0.73602957878E+03  0.13366748943E+04  0.10100000352E+00 0. -1.
       -3    1    3    3    0  502  0.88842568899E+03 -0.67502593821E+03 -0.16663253419E+04  0.20053928237E+04  0.10100000352E+00 0.  1.
</event>
<event>
 5   0  0.1240725E-06  0.3069146E+04  0.7818609E-02  0.8224257E-01
       -1   -1    0    0    0  501  0.00000000000E+00  0.00000000000E+00  0.31462885878E+04  0.31462885878E+04  0.50400001928E-02 0. -1.
        1   -1    0    0  501    0  0.00000000000E+00  0.00000000000E+00 -0.74847357339E+03  0.74847357340E+03  0.50400001928E-02 0.  1.
    10030    2    1    2    0    0  0.00000000000E+00  0.00000000000E+00  0.23978150144E+04  0.38947621612E+04  0.30691457197E+04 0.  0.
        3    1    3    3  502    0  0.92335314914E+03 -0.72772622879E+03  0.24505014753E+04  0.27179264142E+04  0.10100000352E+00 0. -1.
       -3    1    3    3    0  502 -0.92335314914E+03  0.72772622879E+03 -0.52686460930E+02  0.11768357470E+04  0.10100000352E+00 0.  1.
</event>
<event>
 5   0  0.3497546E-06  0.3127283E+04  0.7818609E-02  0.8208290E-01
        2   -1    0    0  501    0  0.00000000000E+00  0.00000000000E+00  0.11522826516E+04  0.11522826516E+04  0.25500000920E-02 0. -1.
       -2   -1    0    0    0  501  0.00000000000E+00  0.00000000000E+00 -0.21218528743E+04  0.21218528743E+04  0.25500000920E-02 0.  1.
    10030    2    1    2    0    0  0.00000000000E+00  0.00000000000E+00 -0.96957022265E+03  0.32741355259E+04  0.31272826903E+04 0.  0.
        4    1    3    3  502    0 -0.26270072106E+03  0.13845873172E+04 -0.11940011890E+04  0.18470880217E+04  0.12699999809E+01 0.  1.
       -4    1    3    3    0  502  0.26270072106E+03 -0.13845873172E+04  0.22443096631E+03  0.14270475042E+04  0.12699999809E+01 0. -1.
</event>
<event>
 5   0  0.3758062E-06  0.3226621E+04  0.7818609E-02  0.8181822E-01
       -2   -1    0    0    0  501  0.00000000000E+00  0.00000000000E+00  0.13455536347E+04  0.13455536347E+04  0.25500000920E-02 0. -1.
        2   -1    0    0  501    0  0.00000000000E+00  0.00000000000E+00 -0.19343490144E+04  0.19343490144E+04  0.25500000920E-02 0.  1.
    10030    2    1    2    0    0  0.00000000000E+00  0.00000000000E+00 -0.58879537969E+03  0.32799026490E+04  0.32266207382E+04 0.  0.
        2    1    3    3  502    0  0.78330484386E+03  0.15196106574E+03 -0.17197332717E+04  0.18958220301E+04  0.25500000920E-02 0.  1.
       -2    1    3    3    0  502 -0.78330484386E+03 -0.15196106574E+03  0.11309378921E+04  0.13840806189E+04  0.25500000920E-02 0. -1.
</event>
<event>
 5   0  0.1240725E-06  0.3282828E+04  0.7818609E-02  0.8167279E-01
       -1   -1    0    0    0  501  0.00000000000E+00  0.00000000000E+00  0.24169478315E+04  0.24169478315E+04  0.50400001928E-02 0. -1.
        1   -1    0    0  501    0  0.00000000000E+00  0.00000000000E+00 -0.11147283114E+04  0.11147283114E+04  0.50400001928E-02 0.  1.
    10030    2    1    2    0    0  0.00000000000E+00  0.00000000000E+00  0.13022195201E+04  0.35316761429E+04  0.32828281557E+04 0.  0.
        3    1    3    3  502    0  0.12856929477E+04 -0.16106033037E+02 -0.44651209989E+03  0.13611167567E+04  0.10100000352E+00 0.  1.
       -3    1    3    3    0  502 -0.12856929477E+04  0.16106033037E+02  0.17487316200E+04  0.21705593861E+04  0.10100000352E+00 0. -1.
</event>
<event>
 5   0  0.3656086E-06  0.3286821E+04  0.7818609E-02  0.8166257E-01
       -2   -1    0    0    0  501  0.00000000000E+00  0.00000000000E+00  0.23157883265E+04  0.23157883265E+04  0.25500000920E-02 0. -1.
        2   -1    0    0  501    0  0.00000000000E+00  0.00000000000E+00 -0.11662543034E+04  0.11662543034E+04  0.25500000920E-02 0.  1.
    10030    2    1    2    0    0  0.00000000000E+00  0.00000000000E+00  0.11495340231E+04  0.34820426299E+04  0.32868210183E+04 0.  0.
        3    1    3    3  502    0  0.14966093332E+03 -0.28867180369E+03 -0.11318356689E+04  0.11776169992E+04  0.10100000352E+00 0.  1.
       -3    1    3    3    0  502 -0.14966093332E+03  0.28867180369E+03  0.22813696920E+04  0.23044256306E+04  0.10100000352E+00 0. -1.
</event>
<event>
 5   0  0.1268836E-06  0.3223461E+04  0.7818609E-02  0.8182648E-01
       -1   -1    0    0    0  501  0.00000000000E+00  0.00000000000E+00  0.10210311352E+04  0.10210311352E+04  0.50400001928E-02 0. -1.
        1   -1    0    0  501    0  0.00000000000E+00  0.00000000000E+00 -0.25441691031E+04  0.25441691031E+04  0.50400001928E-02 0.  1.
    10030    2    1    2    0    0  0.00000000000E+00  0.00000000000E+00 -0.15231379679E+04  0.35652002383E+04  0.32234614113E+04 0.  0.
        1    1    3    3  502    0 -0.33832373760E+03  0.74019834826E+03 -0.23002116373E+04  0.24399446967E+04  0.50400001928E-02 0.  1.
       -1    1    3    3    0  502  0.33832373760E+03 -0.74019834826E+03  0.77707366947E+03  0.11252555416E+04  0.50400001928E-02 0. -1.
</event>
<event>
 5   0  0.1273980E-06  0.3146846E+04  0.7818609E-02  0.8202998E-01
        1   -1    0    0  501    0  0.00000000000E+00  0.00000000000E+00  0.23221940619E+04  0.23221940619E+04  0.50400001928E-02 0. -1.
       -1   -1    0    0    0  501  0.00000000000E+00  0.00000000000E+00 -0.10660863756E+04  0.10660863756E+04  0.50400001928E-02 0.  1.
    10030    2    1    2    0    0  0.00000000000E+00  0.00000000000E+00  0.12561076864E+04  0.33882804375E+04  0.31468456911E+04 0.  0.
        4    1    3    3  502    0 -0.11491142331E+03  0.61473312035E+03 -0.92651774201E+03  0.11178274391E+04  0.12699999809E+01 0.  1.
       -4    1    3    3    0  502  0.11491142331E+03 -0.61473312035E+03  0.21826254284E+04  0.22704529984E+04  0.12699999809E+01 0. -1.
</event>
<event>
 5   0  0.1306843E-06  0.2920119E+04  0.7818609E-02  0.8266916E-01
       -1   -1    0    0    0  501  0.00000000000E+00  0.00000000000E+00  0.12718836862E+04  0.12718836862E+04  0.50400001928E-02 0. -1.
        1   -1    0    0  501    0  0.00000000000E+00  0.00000000000E+00 -0.16760762733E+04  0.16760762734E+04  0.50400001928E-02 0.  1.
    10030    2    1    2    0    0  0.00000000000E+00  0.00000000000E+00 -0.40419258712E+03  0.29479599596E+04  0.29201192229E+04 0.  0.
        5    1    3    3  502    0 -0.82711299045E+03  0.56953929906E+03 -0.12720410392E+04  0.16206793043E+04  0.46999998093E+01 0.  1.
       -5    1    3    3    0  502  0.82711299045E+03 -0.56953929906E+03  0.86784845204E+03  0.13272806553E+04  0.46999998093E+01 0. -1.
</event>
<event>
 5   0  0.3656086E-06  0.3143073E+04  0.7818609E-02  0.8204015E-01
        2   -1    0    0  501    0  0.00000000000E+00  0.00000000000E+00  0.20237534020E+04  0.20237534020E+04  0.25500000920E-02 0.  1.
       -2   -1    0    0    0  501  0.00000000000E+00  0.00000000000E+00 -0.12203697084E+04  0.12203697084E+04  0.25500000920E-02 0. -1.
    10030    2    1    2    0    0  0.00000000000E+00  0.00000000000E+00  0.80338369364E+03  0.32441231104E+04  0.31430732406E+04 0.  0.
        3    1    3    3  502    0 -0.12963867858E+04  0.16120793888E+02 -0.51503447078E+03  0.13950408935E+04  0.10100000352E+00 0. -1.
       -3    1    3    3    0  502  0.12963867858E+04 -0.16120793888E+02  0.13184181644E+04  0.18490822169E+04  0.10100000352E+00 0.  1.
</event>
<event>
 5   0  0.1268836E-06  0.2659234E+04  0.7818609E-02  0.8348355E-01
        1   -1    0    0  501    0  0.00000000000E+00  0.00000000000E+00  0.28955417473E+04  0.28955417473E+04  0.50400001928E-02 0. -1.
       -1   -1    0    0    0  501  0.00000000000E+00  0.00000000000E+00 -0.61055277337E+03  0.61055277339E+03  0.50400001928E-02 0.  1.
    10030    2    1    2    0    0  0.00000000000E+00  0.00000000000E+00  0.22849889739E+04  0.35060945207E+04  0.26592337575E+04 0.  0.
        1    1    3    3  502    0  0.70506322444E+03  0.74933772767E+03  0.22528697983E+04  0.24767001249E+04  0.50400001928E-02 0. -1.
       -1    1    3    3    0  502 -0.70506322444E+03 -0.74933772767E+03  0.32119175604E+02  0.10293943958E+04  0.50400001928E-02 0.  1.
</event>
<event>
 5   0  0.3531437E-06  0.2955470E+04  0.7818609E-02  0.8256562E-01
       -2   -1    0    0    0  501  0.00000000000E+00  0.00000000000E+00  0.33747502205E+04  0.33747502205E+04  0.25500000920E-02 0.  1.
        2   -1    0    0  501    0  0.00000000000E+00  0.00000000000E+00 -0.64707031781E+03  0.64707031782E+03  0.25500000920E-02 0. -1.
    10030    2    1    2    0    0  0.00000000000E+00  0.00000000000E+00  0.27276799027E+04  0.40218205383E+04  0.29554699780E+04 0.  0.
        1    1    3    3  502    0  0.11436947028E+04  0.68422617060E+03  0.22325177089E+04  0.26000650657E+04  0.50400001928E-02 0.  1.
       -1    1    3    3    0  502 -0.11436947028E+04 -0.68422617060E+03  0.49516219386E+03  0.14217554726E+04  0.50400001928E-02 0. -1.
</event>
<event>
 5   0  0.1273980E-06  0.3196879E+04  0.7818609E-02  0.8189642E-01
       -1   -1    0    0    0  501  0.00000000000E+00  0.00000000000E+00  0.12859415455E+04  0.12859415456E+04  0.50400001928E-02 0. -1.
        1   -1    0    0  501    0  0.00000000000E+00  0.00000000000E+00 -0.19868775923E+04  0.19868775923E+04  0.50400001928E-02 0.  1.
    10030    2    1    2    0    0  0.00000000000E+00  0.00000000000E+00 -0.70093604674E+03  0.32728191378E+04  0.31968787539E+04 0.  0.
        4    1    3    3  502    0  0.12000516952E+04 -0.14606909366E+01 -0.14314290216E+04  0.18679177876E+04  0.12699999809E+01 0.  1.
       -4    1    3    3    0  502 -0.12000516952E+04  0.14606909366E+01  0.73049297482E+03  0.14049013502E+04  0.12699999809E+01 0. -1.
</event>
<event>
 5   0  0.1306843E-06  0.3188448E+04  0.7818609E-02  0.8191875E-01
        1   -1    0    0  501    0  0.00000000000E+00  0.00000000000E+00  0.18943922887E+04  0.18943922887E+04  0.50400001928E-02 0.  1.
       -1   -1    0    0    0  501  0.00000000000E+00  0.00000000000E+00 -0.13416176256E+04  0.13416176256E+04  0.50400001928E-02 0. -1.
    10030    2    1    2    0    0  0.00000000000E+00  0.00000000000E+00  0.55277466306E+03  0.32360099144E+04  0.31884479512E+04 0.  0.
        5    1    3    3  502    0 -0.14612460620E+04  0.29201102526E+03  0.85142310978E+03  0.17162324710E+04  0.46999998093E+01 0.  1.
       -5    1    3    3    0  502  0.14612460620E+04 -0.29201102526E+03 -0.29864844672E+03  0.15197774434E+04  0.46999998093E+01 0. -1.
</event>
<event>
 5   0  0.1273754E-06  0.3195557E+04  0.7818609E-02  0.8189991E-01
        1   -1    0    0  501    0  0.00000000000E+00  0.00000000000E+00  0.93051756298E+03  0.93051756299E+03  0.50400001928E-02 0.  1.
       -1   -1    0    0    0  501  0.00000000000E+00  0.00000000000E+00 -0.27435231997E+04  0.27435231997E+04  0.50400001928E-02 0. -1.
    10030    2    1    2    0    0  0.00000000000E+00  0.00000000000E+00 -0.18130056367E+04  0.36740407627E+04  0.31955572420E+04 0.  0.
        2    1    3    3  502    0  0.11813604160E+04 -0.68062066251E+03 -0.18643351560E+04  0.23096758415E+04  0.25500000920E-02 0. -1.
       -2    1    3    3    0  502 -0.11813604160E+04  0.68062066251E+03  0.51329519322E+02  0.13643649212E+04  0.25500000920E-02 0.  1.
</event>
<event>
 5   0  0.1273980E-06  0.3259476E+04  0.7818609E-02  0.8173284E-01
        1   -1    0    0  501    0  0.00000000000E+00  0.00000000000E+00  0.12885601777E+04  0.12885601777E+04  0.50400001928E-02 0. -1.
       -1   -1    0    0    0  501  0.00000000000E+00  0.00000000000E+00 -0.20612507583E+04  0.20612507583E+04  0.50400001928E-02 0.  1.
    10030    2    1    2    0    0  0.00000000000E+00  0.00000000000E+00 -0.77269058061E+03  0.33498109360E+04  0.32594758127E+04 0.  0.
        4    1    3    3  502    0  0.22376729441E+03  0.35028147470E+03  0.12331696239E+04  0.13013369463E+04  0.12699999809E+01 0. -1.
       -4    1    3    3    0  502 -0.22376729441E+03 -0.35028147470E+03 -0.20058602045E+04  0.20484739897E+04  0.12699999809E+01 0.  1.
</event>
<event>
 5   0  0.1306843E-06  0.3218617E+04  0.7818609E-02  0.8183918E-01
       -1   -1    0    0    0  501  0.00000000000E+00  0.00000000000E+00  0.22451097907E+04  0.22451097907E+04  0.50400001928E-02 0.  1.
        1   -1    0    0  501    0  0.00000000000E+00  0.00000000000E+00 -0.11535625832E+04  0.11535625832E+04  0.50400001928E-02 0. -1.
    10030    2    1    2    0    0  0.00000000000E+00  0.00000000000E+00  0.10915472076E+04  0.33986723739E+04  0.32186174980E+04 0.  0.
        5    1    3    3  502    0  0.14624663322E+04  0.34055922594E+03  0.11570025987E+04  0.18956438122E+04  0.46999998093E+01 0.  1.
       -5    1    3    3    0  502 -0.14624663322E+04 -0.34055922594E+03 -0.65455391124E+02  0.15030285617E+04  0.46999998093E+01 0. -1.
</event>
<event>
 5   0  0.3758062E-06  0.3222939E+04  0.7818609E-02  0.8182785E-01
        2   -1    0    0  501    0  0.00000000000E+00  0.00000000000E+00  0.18178577332E+04  0.18178577332E+04  0.25500000920E-02 0. -1.
       -2   -1    0    0    0  501  0.00000000000E+00  0.00000000000E+00 -0.14285136351E+04  0.14285136351E+04  0.25500000920E-02 0.  1.
    10030    2    1    2    0    0  0.00000000000E+00  0.00000000000E+00  0.38934409811E+03  0.32463713684E+04  0.32229393781E+04 0.  0.
        2    1    3    3  502    0 -0.12545066936E+04 -0.94007019901E+03  0.57063568110E+03  0.16682757878E+04  0.25500000920E-02 0. -1.
       -2    1    3    3    0  502  0.12545066936E+04  0.94007019901E+03 -0.18129158299E+03  0.15780955806E+04  0.25500000920E-02 0.  1.
</event>
<event>
 5   0  0.1268836E-06  0.3203433E+04  0.7818609E-02  0.8187911E-01
       -1   -1    0    0    0  501  0.00000000000E+00  0.00000000000E+00  0.12834040668E+04  0.12834040668E+04  0.50400001928E-02 0. -1.
        1   -1    0    0  501    0  0.00000000000E+00  0.00000000000E+00 -0.19989780161E+04  0.19989780161E+04  0.50400001928E-02 0.  1.
    10030    2    1    2    0    0  0.00000000000E+00  0.00000000000E+00 -0.71557394923E+03  0.32823820829E+04  0.32034334801E+04 0.  0.
        1    1    3    3  502    0 -0.26618095047E+03  0.12064267033E+04 -0.14023113223E+04  0.18689020128E+04  0.50400001928E-02 0.  1.
       -1    1    3    3    0  502  0.26618095047E+03 -0.12064267033E+04  0.68673737308E+03  0.14134800701E+04  0.50400001928E-02 0. -1.
</event>
<event>
 5   0  0.1268836E-06  0.3162572E+04  0.7818609E-02  0.8198772E-01
       -1   -1    0    0    0  501  0.00000000000E+00  0.00000000000E+00  0.17705422189E+04  0.17705422189E+04  0.50400001928E-02 0. -1.
        1   -1    0    0  501    0  0.00000000000E+00  0.00000000000E+00 -0.14122600760E+04  0.14122600760E+04  0.50400001928E-02 0.  1.
    10030    2    1    2    0    0  0.00000000000E+00  0.00000000000E+00  0.35828214288E+03  0.31828022949E+04  0.31625724268E+04 0.  0.
        1    1    3    3  502    0 -0.65414399133E+02  0.47685314454E+03  0.16950290522E+04  0.17620418420E+04  0.50400001928E-02 0. -1.
       -1    1    3    3    0  502  0.65414399133E+02 -0.47685314454E+03 -0.13367469093E+04  0.14207604529E+04  0.50400001928E-02 0.  1.
</event>
<event>
 5   0  0.1268836E-06  0.3145373E+04  0.7818609E-02  0.8203395E-01
        1   -1    0    0  501    0  0.00000000000E+00  0.00000000000E+00  0.22037911692E+04  0.22037911692E+04  0.50400001928E-02 0. -1.
       -1   -1    0    0    0  501  0.00000000000E+00  0.00000000000E+00 -0.11223129297E+04  0.11223129297E+04  0.50400001928E-02 0.  1.
    10030    2    1    2    0    0  0.00000000000E+00  0.00000000000E+00  0.10814782394E+04  0.33261040989E+04  0.31453733156E+04 0.  0.
        1    1    3    3  502    0 -0.12073669631E+04 -0.63950061595E+03  0.13643683946E+04  0.19308539918E+04  0.50400001928E-02 0.  1.
       -1    1    3    3    0  502  0.12073669631E+04  0.63950061595E+03 -0.28289015514E+03  0.13952501071E+04  0.50400001928E-02 0. -1.
</event>
<event>
 5   0  0.3497546E-06  0.2989163E+04  0.7818609E-02  0.8246832E-01
       -2   -1    0    0    0  501  0.00000000000E+00  0.00000000000E+00  0.13815899628E+04  0.13815899628E+04  0.25500000920E-02 0.  1.
        2   -1    0    0  501    0  0.00000000000E+00  0.00000000000E+00 -0.16168142046E+04  0.16168142046E+04  0.25500000920E-02 0. -1.
    10030    2    1    2    0    0  0.00000000000E+00  0.00000000000E+00 -0.23522424181E+03  0.29984041673E+04  0.29891632787E+04 0.  0.
        4    1    3    3  502    0  0.11470249390E+04 -0.65982870218E+03  0.57932535860E+03  0.14445274698E+04  0.12699999809E+01 0.  1.
       -4    1    3    3    0  502 -0.11470249390E+04  0.65982870218E+03 -0.81454960041E+03  0.15538766976E+04  0.12699999809E+01 0. -1.
</event>
<event>
 5   0  0.1240725E-06  0.3176421E+04  0.7818609E-02  0.8195072E-01
       -1   -1    0    0    0  501  0.00000000000E+00  0.00000000000E+00  0.26873408993E+04  0.26873408993E+04  0.50400001928E-02 0.  1.
        1   -1    0    0  501    0  0.00000000000E+00  0.00000000000E+00 -0.93862768860E+03  0.93862768861E+03  0.50400001928E-02 0. -1.
    10030    2    1    2    0    0  0.00000000000E+00  0.00000000000E+00  0.17487132107E+04  0.36259685879E+04  0.31764209902E+04 0.  0.
        3    1    3    3  502    0 -0.74075970351E+03  0.13975793383E+04  0.71107593411E+03  0.17342381438E+04  0.10100000352E+00 0.  1.
       -3    1    3    3    0  502  0.74075970351E+03 -0.13975793383E+04  0.10376372765E+04  0.18917304441E+04  0.10100000352E+00 0. -1.
</event>
<event>
 5   0  0.3497546E-06  0.3191202E+04  0.7818609E-02  0.8191145E-01
        2   -1    0    0  501    0  0.00000000000E+00  0.00000000000E+00  0.11409987652E+04  0.11409987652E+04  0.25500000920E-02 0.  1.
       -2   -1    0    0    0  501  0.00000000000E+00  0.00000000000E+00 -0.22313279867E+04  0.22313279867E+04  0.25500000920E-02 0. -1.
    10030    2    1    2    0    0  0.00000000000E+00  0.00000000000E+00 -0.10903292215E+04  0.33723267518E+04  0.31912019538E+04 0.  0.
        4    1    3    3  502    0  0.14992846006E+04  0.53213186617E+03 -0.67425449019E+03  0.17279002769E+04  0.12699999809E+01 0.  1.
       -4    1    3    3    0  502 -0.14992846006E+04 -0.53213186617E+03 -0.41607473128E+03  0.16444264749E+04  0.12699999809E+01 0. -1.
</event>
<event>
 5   0  0.3656086E-06  0.3156748E+04  0.7818609E-02  0.8200334E-01
       -2   -1    0    0    0  501  0.00000000000E+00  0.00000000000E+00  0.12370475984E+04  0.12370475984E+04  0.25500000920E-02 0.  1.
        2   -1    0    0  501    0  0.00000000000E+00  0.00000000000E+00 -0.20138797416E+04  0.20138797416E+04  0.25500000920E-02 0. -1.
    10030    2    1    2    0    0  0.00000000000E+00  0.00000000000E+00 -0.77683214320E+03  0.32509273399E+04  0.31567483889E+04 0.  0.
        3    1    3    3  502    0 -0.22001120150E+03 -0.12285669460E+04  0.60657824314E+03  0.13877027220E+04  0.10100000352E+00 0.  1.
       -3    1    3    3    0  502  0.22001120150E+03  0.12285669460E+04 -0.13834103863E+04  0.18632246179E+04  0.10100000352E+00 0. -1.
</event>
<event>
 5   0  0.3531437E-06  0.3005855E+04  0.7818609E-02  0.8242061E-01
       -2   -1    0    0    0  501  0.00000000000E+00  0.00000000000E+00  0.11416474817E+04  0.11416474817E+04  0.25500000920E-02 0. -1.
        2   -1    0    0  501    0  0.00000000000E+00  0.00000000000E+00 -0.19785366383E+04  0.19785366383E+04  0.25500000920E-02 0.  1.
    10030    2    1    2    0    0  0.00000000000E+00  0.00000000000E+00 -0.83688915666E+03  0.31201841200E+04  0.30058551998E+04 0.  0.
        1    1    3    3  502    0 -0.20576835347E+03 -0.13176670576E+04  0.30088046423E+03  0.13671562251E+04  0.50400001928E-02 0.  1.
       -1    1    3    3    0  502  0.20576835347E+03  0.13176670576E+04 -0.11377696209E+04  0.17530278949E+04  0.50400001928E-02 0. -1.
</event>
<event>
 5   0  0.3497546E-06  0.3234887E+04  0.7818609E-02  0.8179664E-01
       -2   -1    0    0    0  501  0.00000000000E+00  0.00000000000E+00  0.20079114124E+04  0.20079114124E+04  0.25500000920E-02 0. -1.
        2   -1    0    0  501    0  0.00000000000E+00  0.00000000000E+00 -0.13029081260E+04  0.13029081260E+04  0.25500000920E-02 0.  1.
    10030    2    1    2    0    0  0.00000000000E+00  0.00000000000E+00  0.70500328633E+03  0.33108195384E+04  0.32348873832E+04 0.  0.
        4    1    3    3  502    0  0.97333298748E+03 -0.27817988010E+03 -0.93860092196E+03  0.13804834131E+04  0.12699999809E+01 0.  1.
       -4    1    3    3    0  502 -0.97333298748E+03  0.27817988010E+03  0.16436042083E+04  0.19303361253E+04  0.12699999809E+01 0. -1.
</event>
<event>
 5   0  0.1240725E-06  0.3215102E+04  0.7818609E-02  0.8184840E-01
       -1   -1    0    0    0  501  0.00000000000E+00  0.00000000000E+00  0.12755566337E+04  0.12755566338E+04  0.50400001928E-02 0.  1.
        1   -1    0    0  501    0  0.00000000000E+00  0.00000000000E+00 -0.20259554403E+04  0.20259554403E+04  0.50400001928E-02 0. -1.
    10030    2    1    2    0    0  0.00000000000E+00  0.00000000000E+00 -0.75039880654E+03  0.33015120740E+04  0.32151024255E+04 0.  0.
        3    1    3    3  502    0 -0.11629138040E+04 -0.85440600053E+03 -0.11026473280E+04  0.18160972632E+04  0.10100000352E+00 0. -1.
       -3    1    3    3    0  502  0.11629138040E+04  0.85440600053E+03  0.35224852142E+03  0.14854148109E+04  0.10100000352E+00 0.  1.
</event>
<event>
 5   0  0.3656086E-06  0.3217645E+04  0.7818609E-02  0.8184173E-01
       -2   -1    0    0    0  501  0.00000000000E+00  0.00000000000E+00  0.15706634381E+04  0.15706634381E+04  0.25500000920E-02 0. -1.
        2   -1    0    0  501    0  0.00000000000E+00  0.00000000000E+00 -0.16479091327E+04  0.16479091327E+04  0.25500000920E-02 0.  1.
    10030    2    1    2    0    0  0.00000000000E+00  0.00000000000E+00 -0.77245694624E+02  0.32185725709E+04  0.32176454896E+04 0.  0.
        3    1    3    3  502    0 -0.11426130081E+04 -0.10364531252E+04  0.41813881736E+03  0.15983240122E+04  0.10100000352E+00 0.  1.
       -3    1    3    3    0  502  0.11426130081E+04  0.10364531252E+04 -0.49538451198E+03  0.16202485587E+04  0.10100000352E+00 0. -1.
</event>
<event>
 5   0  0.1240725E-06  0.3125727E+04  0.7818609E-02  0.8208713E-01
       -1   -1    0    0    0  501  0.00000000000E+00  0.00000000000E+00  0.15578134639E+04  0.15578134639E+04  0.50400001928E-02 0.  1.
        1   -1    0    0  501    0  0.00000000000E+00  0.00000000000E+00 -0.15679303164E+04  0.15679303164E+04  0.50400001928E-02 0. -1.
    10030    2    1    2    0    0  0.00000000000E+00  0.00000000000E+00 -0.10116852565E+02  0.31257437803E+04  0.31257274081E+04 0.  0.
        3    1    3    3  502    0  0.66843187488E+03  0.74202264350E+03  0.11970893647E+04  0.15589809916E+04  0.10100000352E+00 0.  1.
       -3    1    3    3    0  502 -0.66843187488E+03 -0.74202264350E+03 -0.12072062173E+04  0.15667627887E+04  0.10100000352E+00 0. -1.
</event>
<event>
 5   0  0.3497546E-06  0.3207124E+04  0.7818609E-02  0.8186938E-01
       -2   -1    0    0    0  501  0.00000000000E+00  0.00000000000E+00  0.11404289670E+04  0.11404289670E+04  0.25500000920E-02 0.  1.
        2   -1    0    0  501    0  0.00000000000E+00  0.00000000000E+00 -0.22547758443E+04  0.22547758443E+04  0.25500000920E-02 0. -1.
    10030    2    1    2    0    0  0.00000000000E+00  0.00000000000E+00 -0.11143468772E+04  0.33952048113E+04  0.32071243736E+04 0.  0.
        4    1    3    3  502    0  0.40658132453E+03 -0.46919500731E+03  0.10080309492E+04  0.11838835820E+04  0.12699999809E+01 0.  1.
       -4    1    3    3    0  502 -0.40658132453E+03  0.46919500731E+03 -0.21223778264E+04  0.22113212293E+04  0.12699999809E+01 0. -1.
</event>
<event>
 5   0  0.3758062E-06  0.3227115E+04  0.7818609E-02  0.8181693E-01
        2   -1    0    0  501    0  0.00000000000E+00  0.00000000000E+00  0.25432965919E+04  0.25432965919E+04  0.25500000920E-02 0.  1.
       -2   -1    0    0    0  501  0.00000000000E+00  0.00000000000E+00 -0.10236982508E+04  0.10236982509E+04  0.25500000920E-02 0. -1.
    10030    2    1    2    0    0  0.00000000000E+00  0.00000000000E+00  0.15195983411E+04  0.35669948428E+04  0.32271152893E+04 0.  0.
        2    1    3    3  502    0 -0.15030156697E+04  0.53771734433E+03  0.49970297767E+03  0.16726921748E+04  0.25500000920E-02 0. -1.
       -2    1    3    3    0  502  0.15030156697E+04 -0.53771734433E+03  0.10198953634E+04  0.18943026680E+04  0.25500000920E-02 0.  1.
</event>
<event>
 5   0  0.3531437E-06  0.3202734E+04  0.7818609E-02  0.8188096E-01
        2   -1    0    0  501    0  0.00000000000E+00  0.00000000000E+00  0.13061927221E+04  0.13061927221E+04  0.25500000920E-02 0. -1.
       -2   -1    0    0    0  501  0.00000000000E+00  0.00000000000E+00 -0.19632443554E+04  0.19632443554E+04  0.25500000920E-02 0.  1.
    10030    2    1    2    0    0  0.00000000000E+00  0.00000000000E+00 -0.65705163325E+03  0.32694370775E+04  0.32027335129E+04 0.  0.
        1    1    3    3  502    0 -0.15697062419E+04 -0.25684021219E+03 -0.51794607246E+03  0.16727859141E+04  0.50400001928E-02 0. -1.
       -1    1    3    3    0  502  0.15697062419E+04  0.25684021219E+03 -0.13910556080E+03  0.15966511634E+04  0.50400001928E-02 0.  1.
</event>
<event>
 5   0  0.3656086E-06  0.2987712E+04  0.7818609E-02  0.8247249E-01
        2   -1    0    0  501    0  0.00000000000E+00  0.00000000000E+00  0.22358878312E+04  0.22358878312E+04  0.25500000920E-02 0. -1.
       -2   -1    0    0    0  501  0.00000000000E+00  0.00000000000E+00 -0.99808479617E+03  0.99808479617E+03  0.25500000920E-02 0.  1.
    10030    2    1    2    0    0  0.00000000000E+00  0.00000000000E+00  0.12378030350E+04  0.32339726273E+04  0.29877119341E+04 0.  0.
        3    1    3    3  502    0  0.48970348281E+03 -0.66437323928E+03  0.19666849243E+04  0.21328504176E+04  0.10100000352E+00 0. -1.
       -3    1    3    3    0  502 -0.48970348281E+03  0.66437323928E+03 -0.72888188927E+03  0.11011222098E+04  0.10100000352E+00 0.  1.
</event>
<event>
 5   0  0.3758062E-06  0.3210883E+04  0.7818609E-02  0.8185949E-01
       -2   -1    0    0    0  501  0.00000000000E+00  0.00000000000E+00  0.15641338075E+04  0.15641338075E+04  0.25500000920E-02 0. -1.
        2   -1    0    0  501    0  0.00000000000E+00  0.00000000000E+00 -0.16478405778E+04  0.16478405778E+04  0.25500000920E-02 0.  1.
    10030    2    1    2    0    0  0.00000000000E+00  0.00000000000E+00 -0.83706770355E+02  0.32119743853E+04  0.32108834654E+04 0.  0.
        2    1    3    3  502    0 -0.53410357350E+03 -0.14639086443E+04  0.34447468302E+03  0.15959191563E+04  0.25500000920E-02 0. -1.
       -2    1    3    3    0  502  0.53410357350E+03  0.14639086443E+04 -0.42818145338E+03  0.16160552290E+04  0.25500000920E-02 0.  1.
</event>
<event>
 5   0  0.1273754E-06  0.3207142E+04  0.7818609E-02  0.8186933E-01
        1   -1    0    0  501    0  0.00000000000E+00  0.00000000000E+00  0.23466310353E+04  0.23466310353E+04  0.50400001928E-02 0. -1.
       -1   -1    0    0    0  501  0.00000000000E+00  0.00000000000E+00 -0.10958009432E+04  0.10958009432E+04  0.50400001928E-02 0.  1.
    10030    2    1    2    0    0  0.00000000000E+00  0.00000000000E+00  0.12508300921E+04  0.34424319785E+04  0.32071423428E+04 0.  0.
        2    1    3    3  502    0 -0.12660819952E+04 -0.70673493419E+03 -0.10966522077E+03  0.14541197841E+04  0.25500000920E-02 0.  1.
       -2    1    3    3    0  502  0.12660819952E+04  0.70673493419E+03  0.13604953129E+04  0.19883121944E+04  0.25500000920E-02 0. -1.
</event>
<event>
 5   0  0.1273754E-06  0.3216810E+04  0.7818609E-02  0.8184392E-01
       -1   -1    0    0    0  501  0.00000000000E+00  0.00000000000E+00  0.12020832514E+04  0.12020832514E+04  0.50400001928E-02 0.  1.
        1   -1    0    0  501    0  0.00000000000E+00  0.00000000000E+00 -0.21520697195E+04  0.21520697195E+04  0.50400001928E-02 0. -1.
    10030    2    1    2    0    0  0.00000000000E+00  0.00000000000E+00 -0.94998646811E+03  0.33541529709E+04  0.32168102000E+04 0.  0.
        2    1    3    3  502    0  0.34302320099E+03  0.48948307055E+03 -0.20319675933E+04  0.21180535623E+04  0.25500000920E-02 0. -1.
       -2    1    3    3    0  502 -0.34302320099E+03 -0.48948307055E+03  0.10819811251E+04  0.12360994086E+04  0.25500000920E-02 0.  1.
</event>
<event>
 5   0  0.1273980E-06  0.3191393E+04  0.7818609E-02  0.8191094E-01
       -1   -1    0    0    0  501  0.00000000000E+00  0.00000000000E+00  0.18278309962E+04  0.18278309962E+04  0.50400001928E-02 0.  1.
        1   -1    0    0  501    0  0.00000000000E+00  0.00000000000E+00 -0.13930431440E+04  0.13930431440E+04  0.50400001928E-02 0. -1.
    10030    2    1    2    0    0  0.00000000000E+00  0.00000000000E+00  0.43478785220E+03  0.32208741402E+04  0.31913930737E+04 0.  0.
        4    1    3    3  502    0 -0.10446971761E+04  0.84940037371E+03  0.10816766028E+04  0.17271071393E+04  0.12699999809E+01 0.  1.
       -4    1    3    3    0  502  0.10446971761E+04 -0.84940037371E+03 -0.64688875059E+03  0.14937670010E+04  0.12699999809E+01 0. -1.
</event>
<event>
 5   0  0.1306843E-06  0.3021393E+04  0.7818609E-02  0.8237648E-01
        1   -1    0    0  501    0  0.00000000000E+00  0.00000000000E+00  0.18219549208E+04  0.18219549208E+04  0.50400001928E-02 0. -1.
       -1   -1    0    0    0  501  0.00000000000E+00  0.00000000000E+00 -0.12526130757E+04  0.12526130757E+04  0.50400001928E-02 0.  1.
    10030    2    1    2    0    0  0.00000000000E+00  0.00000000000E+00  0.56934184508E+03  0.30745679965E+04  0.30213934250E+04 0.  0.
        5    1    3    3  502    0 -0.17890309868E+02 -0.15096889385E+04  0.33756370615E+03  0.15470785694E+04  0.46999998093E+01 0. -1.
       -5    1    3    3    0  502  0.17890309868E+02  0.15096889385E+04  0.23177813893E+03  0.15274894271E+04  0.46999998093E+01 0.  1.
</event>
<event>
 5   0  0.1306843E-06  0.3131697E+04  0.7818609E-02  0.8207092E-01
        1   -1    0    0  501    0  0.00000000000E+00  0.00000000000E+00  0.22363489577E+04  0.22363489577E+04  0.50400001928E-02 0.  1.
       -1   -1    0    0    0  501  0.00000000000E+00  0.00000000000E+00 -0.10963771281E+04  0.10963771281E+04  0.50400001928E-02 0. -1.
    10030    2    1    2    0    0  0.00000000000E+00  0.00000000000E+00  0.11399718296E+04  0.33327260858E+04  0.31316972061E+04 0.  0.
        5    1    3    3  502    0 -0.16681669301E+03  0.54385681530E+03  0.21224849958E+04  0.21974013497E+04  0.46999998093E+01 0.  1.
       -5    1    3    3    0  502  0.16681669301E+03 -0.54385681530E+03 -0.98251316617E+03  0.11353247361E+04  0.46999998093E+01 0. -1.
</event>
<event>
 5   0  0.3656086E-06  0.3237242E+04  0.7818609E-02  0.8179050E-01
       -2   -1    0    0    0  501  0.00000000000E+00  0.00000000000E+00  0.10913937110E+04  0.10913937110E+04  0.25500000920E-02 0.  1.
        2   -1    0    0  501    0  0.00000000000E+00  0.00000000000E+00 -0.24005401665E+04  0.24005401665E+04  0.25500000920E-02 0. -1.
    10030    2    1    2    0    0  0.00000000000E+00  0.00000000000E+00 -0.13091464556E+04  0.34919338775E+04  0.32372423083E+04 0.  0.
        3    1    3    3  502    0  0.35434245781E+03 -0.15731523573E+04 -0.50368386404E+03  0.16893976328E+04  0.10100000352E+00 0. -1.
       -3    1    3    3    0  502 -0.35434245781E+03  0.15731523573E+04 -0.80546259153E+03  0.18025362447E+04  0.10100000352E+00 0.  1.
</event>
<event>
 5   0  0.3656086E-06  0.2517578E+04  0.7818609E-02  0.8396750E-01
        2   -1    0    0  501    0  0.00000000000E+00  0.00000000000E+00  0.92248512154E+03  0.92248512154E+03  0.25500000920E-02 0. -1.
       -2   -1    0    0    0  501  0.00000000000E+00  0.00000000000E+00 -0.17176967155E+04  0.17176967155E+04  0.25500000920E-02 0.  1.
    10030    2    1    2    0    0  0.00000000000E+00  0.00000000000E+00 -0.79521159391E+03  0.26401818370E+04  0.25175779339E+04 0.  0.
        3    1    3    3  502    0 -0.10254657818E+04 -0.26573133285E+03 -0.11106876301E+04  0.15348681483E+04  0.10100000352E+00 0.  1.
       -3    1    3    3    0  502  0.10254657818E+04  0.26573133285E+03  0.31547603617E+03  0.11053136887E+04  0.10100000352E+00 0. -1.
</event>
<event>
 5   0  0.1306843E-06  0.2532255E+04  0.7818609E-02  0.8391584E-01
        1   -1    0    0  501    0  0.00000000000E+00  0.00000000000E+00  0.20054069562E+04  0.20054069562E+04  0.50400001928E-02 0.  1.
       -1   -1    0    0    0  501  0.00000000000E+00  0.00000000000E+00 -0.79937812856E+03  0.79937812858E+03  0.50400001928E-02 0. -1.
    10030    2    1    2    0    0  0.00000000000E+00  0.00000000000E+00  0.12060288276E+04  0.28047850848E+04  0.25322546947E+04 0.  0.
        5    1    3    3  502    0 -0.91189020241E+03 -0.23826547279E+03 -0.33339746534E+03  0.99974503583E+03  0.46999998093E+01 0. -1.
       -5    1    3    3    0  502  0.91189020241E+03  0.23826547279E+03  0.15394262930E+04  0.18050400489E+04  0.46999998093E+01 0.  1.
</event>
<event>
 5   0  0.3531437E-06  0.3081571E+04  0.7818609E-02  0.8220814E-01
        2   -1    0    0  501    0  0.00000000000E+00  0.00000000000E+00  0.24446749815E+04  0.24446749815E+04  0.25500000920E-02 0.  1.
       -2   -1    0    0    0  501  0.00000000000E+00  0.00000000000E+00 -0.97109850026E+03  0.97109850027E+03  0.25500000920E-02 0. -1.
    10030    2    1    2    0    0  0.00000000000E+00  0.00000000000E+00  0.14735764812E+04  0.34157734818E+04  0.30815711630E+04 0.  0.
        1    1    3    3  502    0  0.96351889187E+03  0.11398644370E+04  0.31272660988E+03  0.15249450883E+04  0.50400001928E-02 0.  1.
       -1    1    3    3    0  502 -0.96351889187E+03 -0.11398644370E+04  0.11608498713E+04  0.18908283935E+04  0.50400001928E-02 0. -1.
</event>
<event>
 5   0  0.1273754E-06  0.3194453E+04  0.7818609E-02  0.8190284E-01
        1   -1    0    0  501    0  0.00000000000E+00  0.00000000000E+00  0.16443918784E+04  0.16443918784E+04  0.50400001928E-02 0. -1.
       -1   -1    0    0    0  501  0.00000000000E+00  0.00000000000E+00 -0.15514140542E+04  0.15514140542E+04  0.50400001928E-02 0.  1.
    10030    2    1    2    0    0  0.00000000000E+00  0.00000000000E+00  0.92977824201E+02  0.31958059326E+04  0.31944531118E+04 0.  0.
        2    1    3    3  502    0  0.13730277343E+04 -0.55757594317E+03  0.64259070903E+03  0.16152457741E+04  0.25500000920E-02 0. -1.
       -2    1    3    3    0  502 -0.13730277343E+04  0.55757594317E+03 -0.54961288483E+03  0.15805601585E+04  0.25500000920E-02 0.  1.
</event>
<event>
 5   0  0.3656086E-06  0.3233247E+04  0.7818609E-02  0.8180091E-01
        2   -1    0    0  501    0  0.00000000000E+00  0.00000000000E+00  0.29055690052E+04  0.29055690052E+04  0.25500000920E-02 0.  1.
       -2   -1    0    0    0  501  0.00000000000E+00  0.00000000000E+00 -0.89947002284E+03  0.89947002285E+03  0.25500000920E-02 0. -1.
    10030    2    1    2    0    0  0.00000000000E+00  0.00000000000E+00  0.20060989824E+04  0.38050390281E+04  0.32332474199E+04 0.  0.
        3    1    3    3  502    0  0.79376604649E+03 -0.31546110543E+03  0.26183308189E+04  0.27541308126E+04  0.10100000352E+00 0.  1.
       -3    1    3    3    0  502 -0.79376604649E+03  0.31546110543E+03 -0.61223183648E+03  0.10509082155E+04  0.10100000352E+00 0. -1.
</event>
<event>
 5   0  0.3497546E-06  0.3235162E+04  0.7818609E-02  0.8179592E-01
       -2   -1    0    0    0  501  0.00000000000E+00  0.00000000000E+00  0.22453627597E+04  0.22453627597E+04  0.25500000920E-02 0.  1.
        2   -1    0    0  501    0  0.00000000000E+00  0.00000000000E+00 -0.11653208432E+04  0.11653208432E+04  0.25500000920E-02 0. -1.
    10030    2    1    2    0    0  0.00000000000E+00  0.00000000000E+00  0.10800419165E+04  0.34106836029E+04  0.32351618348E+04 0.  0.
        4    1    3    3  502    0 -0.15861992019E+04 -0.29234178075E+03  0.41058021099E+03  0.16643525310E+04  0.12699999809E+01 0.  1.
       -4    1    3    3    0  502  0.15861992019E+04  0.29234178075E+03  0.66946170550E+03  0.17463310719E+04  0.12699999809E+01 0. -1.
</event>
<event>
 5   0  0.3745943E-06  0.3225461E+04  0.7818609E-02  0.8182125E-01
        2   -1    0    0  501    0  0.00000000000E+00  0.00000000000E+00  0.21515882668E+04  0.21515882668E+04  0.25500000920E-02 0. -1.
       -2   -1    0    0    0  501  0.00000000000E+00  0.00000000000E+00 -0.12088280144E+04  0.12088280144E+04  0.25500000920E-02 0.  1.
    10030    2    1    2    0    0  0.00000000000E+00  0.00000000000E+00  0.94276025240E+03  0.33604162811E+04  0.32254613141E+04 0.  0.
        5    1    3    3  502    0  0.78965822567E+03 -0.63815748624E+03 -0.83407264434E+03  0.13139651276E+04  0.46999998093E+01 0.  1.
       -5    1    3    3    0  502 -0.78965822567E+03  0.63815748624E+03  0.17768328967E+04  0.20464511535E+04  0.46999998093E+01 0. -1.
</event>
<event>
 5   0  0.1268836E-06  0.3180117E+04  0.7818609E-02  0.8194088E-01
        1   -1    0    0  501    0  0.00000000000E+00  0.00000000000E+00  0.19237234775E+04  0.19237234775E+04  0.50400001928E-02 0. -1.
       -1   -1    0    0    0  501  0.00000000000E+00  0.00000000000E+00 -0.13142668469E+04  0.13142668469E+04  0.50400001928E-02 0.  1.
    10030    2    1    2    0    0  0.00000000000E+00  0.00000000000E+00  0.60945663058E+03  0.32379903244E+04  0.31801169721E+04 0.  0.
        1    1    3    3  502    0 -0.23971926633E+03  0.97460334926E+03 -0.95099115904E+03  0.13826428315E+04  0.50400001928E-02 0.  1.
       -1    1    3    3    0  502  0.23971926633E+03 -0.97460334926E+03  0.15604477896E+04  0.18553474928E+04  0.50400001928E-02 0. -1.
</event>
<event>
 5   0  0.1240725E-06  0.3134335E+04  0.7818609E-02  0.8206378E-01
        1   -1    0    0  501    0  0.00000000000E+00  0.00000000000E+00  0.18389545135E+04  0.18389545135E+04  0.50400001928E-02 0.  1.
       -1   -1    0    0    0  501  0.00000000000E+00  0.00000000000E+00 -0.13355487291E+04  0.13355487291E+04  0.50400001928E-02 0. -1.
    10030    2    1    2    0    0  0.00000000000E+00  0.00000000000E+00  0.50340578446E+03  0.31745032426E+04  0.31343346110E+04 0.  0.
        3    1    3    3  502    0  0.83826100261E+03  0.13015686031E+04  0.51680431641E+01  0.15481566639E+04  0.10100000352E+00 0. -1.
       -3    1    3    3    0  502 -0.83826100261E+03 -0.13015686031E+04  0.49823774130E+03  0.16263465787E+04  0.10100000352E+00 0.  1.
</event>
<event>
 5   0  0.1273980E-06  0.3199089E+04  0.7818609E-02  0.8189058E-01
        1   -1    0    0  501    0  0.00000000000E+00  0.00000000000E+00  0.18135832224E+04  0.18135832224E+04  0.50400001928E-02 0.  1.
       -1   -1    0    0    0  501  0.00000000000E+00  0.00000000000E+00 -0.14107664404E+04  0.14107664404E+04  0.50400001928E-02 0. -1.
    10030    2    1    2    0    0  0.00000000000E+00  0.00000000000E+00  0.40281678208E+03  0.32243496628E+04  0.31990888372E+04 0.  0.
        4    1    3    3  502    0 -0.94322222266E+02  0.91800133285E+03  0.15182153440E+04  0.17766830253E+04  0.12699999809E+01 0.  1.
       -4    1    3    3    0  502  0.94322222266E+02 -0.91800133285E+03 -0.11153985619E+04  0.14476666375E+04  0.12699999809E+01 0. -1.
</event>
<event>
 5   0  0.1306843E-06  0.2568890E+04  0.7818609E-02  0.8378846E-01
       -1   -1    0    0    0  501  0.00000000000E+00  0.00000000000E+00  0.10781441379E+04  0.10781441379E+04  0.50400001928E-02 0. -1.
        1   -1    0    0  501    0  0.00000000000E+00  0.00000000000E+00 -0.15302210897E+04  0.15302210897E+04  0.50400001928E-02 0.  1.
    10030    2    1    2    0    0  0.00000000000E+00  0.00000000000E+00 -0.45207695181E+03  0.26083652277E+04  0.25688899530E+04 0.  0.
        5    1    3    3  502    0  0.87397140044E+03 -0.36721364241E+03 -0.11060193049E+04  0.14566992348E+04  0.46999998093E+01 0.  1.
       -5    1    3    3    0  502 -0.87397140044E+03  0.36721364241E+03  0.65394235308E+03  0.11516659929E+04  0.46999998093E+01 0. -1.
</event>
<event>
 5   0  0.3656086E-06  0.3009201E+04  0.7818609E-02  0.8241108E-01
        2   -1    0    0  501    0  0.00000000000E+00  0.00000000000E+00  0.21945511265E+04  0.21945511265E+04  0.25500000920E-02 0. -1.
       -2   -1    0    0    0  501  0.00000000000E+00  0.00000000000E+00 -0.10315654438E+04  0.10315654438E+04  0.25500000920E-02 0.  1.
    10030    2    1    2    0    0  0.00000000000E+00  0.00000000000E+00  0.11629856828E+04  0.32261165703E+04  0.30092012939E+04 0.  0.
        3    1    3    3  502    0  0.41082500443E+03  0.17564063145E+03  0.21217892811E+04  0.21683211430E+04  0.10100000352E+00 0. -1.
       -3    1    3    3    0  502 -0.41082500443E+03 -0.17564063145E+03 -0.95880359833E+03  0.10577954273E+04  0.10100000352E+00 0.  1.
</event>
<event>
 5   0  0.1273754E-06  0.2887134E+04  0.7818609E-02  0.8276716E-01
        1   -1    0    0  501    0  0.00000000000E+00  0.00000000000E+00  0.18574416271E+04  0.18574416271E+04  0.50400001928E-02 0.  1.
       -1   -1    0    0    0  501  0.00000000000E+00  0.00000000000E+00 -0.11219116373E+04  0.11219116373E+04  0.50400001928E-02 0. -1.
    10030    2    1    2    0    0  0.00000000000E+00  0.00000000000E+00  0.73552998984E+03  0.29793532644E+04  0.28871337878E+04 0.  0.
        2    1    3    3  502    0 -0.86207638637E+03 -0.61099541123E+02 -0.82544527587E+03  0.11951019845E+04  0.25500000920E-02 0. -1.
       -2    1    3    3    0  502  0.86207638637E+03  0.61099541123E+02  0.15609752657E+04  0.17842512800E+04  0.25500000920E-02 0.  1.
</event>
<event>
 5   0  0.1273980E-06  0.3143637E+04  0.7818609E-02  0.8203863E-01
        1   -1    0    0  501    0  0.00000000000E+00  0.00000000000E+00  0.16304254249E+04  0.16304254249E+04  0.50400001928E-02 0.  1.
       -1   -1    0    0    0  501  0.00000000000E+00  0.00000000000E+00 -0.15153178918E+04  0.15153178918E+04  0.50400001928E-02 0. -1.
    10030    2    1    2    0    0  0.00000000000E+00  0.00000000000E+00  0.11510753313E+03  0.31457433167E+04  0.31436366314E+04 0.  0.
        4    1    3    3  502    0  0.21875118158E+03 -0.10474918244E+03 -0.14964797916E+04  0.15160072065E+04  0.12699999809E+01 0. -1.
       -4    1    3    3    0  502 -0.21875118158E+03  0.10474918244E+03  0.16115873247E+04  0.16297361102E+04  0.12699999809E+01 0.  1.
</event>
<event>
 5   0  0.1240725E-06  0.3215704E+04  0.7818609E-02  0.8184682E-01
       -1   -1    0    0    0  501  0.00000000000E+00  0.00000000000E+00  0.13326783491E+04  0.13326783491E+04  0.50400001928E-02 0.  1.
        1   -1    0    0  501    0  0.00000000000E+00  0.00000000000E+00 -0.19398435969E+04  0.19398435969E+04  0.50400001928E-02 0. -1.
    10030    2    1    2    0    0  0.00000000000E+00  0.00000000000E+00 -0.60716524774E+03  0.32725219460E+04  0.32157036942E+04 0.  0.
        3    1    3    3  502    0  0.45354583212E+02 -0.11802811743E+04  0.80659437320E+03  0.14302850002E+04  0.10100000352E+00 0.  1.
       -3    1    3    3    0  502 -0.45354583212E+02  0.11802811743E+04 -0.14137596209E+04  0.18422369458E+04  0.10100000352E+00 0. -1.
</event>
<event>
 5   0  0.1273980E-06  0.3255548E+04  0.7818609E-02  0.8174299E-01
        1   -1    0    0  501    0  0.00000000000E+00  0.00000000000E+00  0.19217844718E+04  0.19217844718E+04  0.50400001928E-02 0.  1.
       -1   -1    0    0    0  501  0.00000000000E+00  0.00000000000E+00 -0.13787438583E+04  0.13787438583E+04  0.50400001928E-02 0. -1.
    10030    2    1    2    0    0  0.00000000000E+00  0.00000000000E+00  0.54304061349E+03  0.33005283302E+04  0.32555482104E+04 0.  0.
        4    1    3    3  502    0 -0.15617740296E+04  0.10955251049E+03  0.72321740903E+03  0.17245825308E+04  0.12699999809E+01 0.  1.
       -4    1    3    3    0  502  0.15617740296E+04 -0.10955251049E+03 -0.18017679554E+03  0.15759457994E+04  0.12699999809E+01 0. -1.
</event>
<event>
 5   0  0.3758062E-06  0.3169041E+04  0.7818609E-02  0.8197041E-01
       -2   -1    0    0    0  501  0.00000000000E+00  0.00000000000E+00  0.85234350117E+03  0.85234350118E+03  0.25500000920E-02 0. -1.
        2   -1    0    0  501    0  0.00000000000E+00  0.00000000000E+00 -0.29456500918E+04  0.29456500918E+04  0.25500000920E-02 0.  1.
    10030    2    1    2    0    0  0.00000000000E+00  0.00000000000E+00 -0.20933065906E+04  0.37979935929E+04  0.31690413140E+04 0.  0.
        2    1    3    3  502    0 -0.30696829022E+03 -0.96015190734E+03 -0.25118183881E+04  0.27065389026E+04  0.25500000920E-02 0.  1.
       -2    1    3    3    0  502  0.30696829022E+03  0.96015190734E+03  0.41851179753E+03  0.10914546903E+04  0.25500000920E-02 0. -1.
</event>
<event>
 5   0  0.3745943E-06  0.3186697E+04  0.7818609E-02  0.8192339E-01
       -2   -1    0    0    0  501  0.00000000000E+00  0.00000000000E+00  0.12097036100E+04  0.12097036100E+04  0.25500000920E-02 0. -1.
        2   -1    0    0  501    0  0.00000000000E+00  0.00000000000E+00 -0.20986621851E+04  0.20986621851E+04  0.25500000920E-02 0.  1.
    10030    2    1    2    0    0  0.00000000000E+00  0.00000000000E+00 -0.88895857509E+03  0.33083657952E+04  0.31866968614E+04 0.  0.
        5    1    3    3  502    0 -0.12168196656E+04 -0.61106818042E+03  0.41456875086E+03  0.14233565116E+04  0.46999998093E+01 0. -1.
       -5    1    3    3    0  502  0.12168196656E+04  0.61106818042E+03 -0.13035273259E+04  0.18850092836E+04  0.46999998093E+01 0.  1.
</event>
<event>
 5   0  0.3656086E-06  0.2602496E+04  0.7818609E-02  0.8367354E-01
       -2   -1    0    0    0  501  0.00000000000E+00  0.00000000000E+00  0.18786230531E+04  0.18786230531E+04  0.25500000920E-02 0. -1.
        2   -1    0    0  501    0  0.00000000000E+00  0.00000000000E+00 -0.90132278419E+03  0.90132278419E+03  0.25500000920E-02 0.  1.
    10030    2    1    2    0    0  0.00000000000E+00  0.00000000000E+00  0.97730026894E+03  0.27799458373E+04  0.26024955414E+04 0.  0.
        3    1    3    3  502    0 -0.70722680663E+03 -0.77375154118E+02  0.16524759741E+04  0.17991202088E+04  0.10100000352E+00 0. -1.
       -3    1    3    3    0  502  0.70722680663E+03  0.77375154118E+02 -0.67517570518E+03  0.98082562852E+03  0.10100000352E+00 0.  1.
</event>
<event>
 5   0  0.3745943E-06  0.3173213E+04  0.7818609E-02  0.8195927E-01
        2   -1    0    0  501    0  0.00000000000E+00  0.00000000000E+00  0.21996940547E+04  0.21996940548E+04  0.25500000920E-02 0. -1.
       -2   -1    0    0    0  501  0.00000000000E+00  0.00000000000E+00 -0.11443958179E+04  0.11443958179E+04  0.25500000920E-02 0.  1.
    10030    2    1    2    0    0  0.00000000000E+00  0.00000000000E+00  0.10552982368E+04  0.33440898727E+04  0.31732133095E+04 0.  0.
        5    1    3    3  502    0  0.76994742203E+03  0.11041687444E+04 -0.35739073080E+03  0.13927519066E+04  0.46999998093E+01 0.  1.
       -5    1    3    3    0  502 -0.76994742203E+03 -0.11041687444E+04  0.14126889676E+04  0.19513379661E+04  0.46999998093E+01 0. -1.
</event>
<event>
 5   0  0.1273980E-06  0.3183897E+04  0.7818609E-02  0.8193083E-01
        1   -1    0    0  501    0  0.00000000000E+00  0.00000000000E+00  0.23742352646E+04  0.23742352646E+04  0.50400001928E-02 0. -1.
       -1   -1    0    0    0  501  0.00000000000E+00  0.00000000000E+00 -0.10674172018E+04  0.10674172018E+04  0.50400001928E-02 0.  1.
    10030    2    1    2    0    0  0.00000000000E+00  0.00000000000E+00  0.13068180628E+04  0.34416524664E+04  0.31838967085E+04 0.  0.
        4    1    3    3  502    0  0.60303047480E+03  0.14720478032E+04  0.71940457494E+03  0.17458851749E+04  0.12699999809E+01 0. -1.
       -4    1    3    3    0  502 -0.60303047480E+03 -0.14720478032E+04  0.58741348789E+03  0.16957672916E+04  0.12699999809E+01 0.  1.
</event>
<event>
 5   0  0.1306843E-06  0.3216129E+04  0.7818609E-02  0.8184570E-01
       -1   -1    0    0    0  501  0.00000000000E+00  0.00000000000E+00  0.14863651718E+04  0.14863651718E+04  0.50400001928E-02 0. -1.
        1   -1    0    0  501    0  0.00000000000E+00  0.00000000000E+00 -0.17397282942E+04  0.17397282942E+04  0.50400001928E-02 0.  1.
    10030    2    1    2    0    0  0.00000000000E+00  0.00000000000E+00 -0.25336312248E+03  0.32260934660E+04  0.32161290676E+04 0.  0.
        5    1    3    3  502    0  0.34034172357E+03 -0.77242354674E+03 -0.14996364900E+04  0.17208725451E+04  0.46999998093E+01 0.  1.
       -5    1    3    3    0  502 -0.34034172357E+03  0.77242354674E+03  0.12462733675E+04  0.15052209209E+04  0.46999998093E+01 0. -1.
</event>
<event>
 5   0  0.1240725E-06  0.3042273E+04  0.7818609E-02  0.8231762E-01
        1   -1    0    0  501    0  0.00000000000E+00  0.00000000000E+00  0.25799288989E+04  0.25799288989E+04  0.50400001928E-02 0. -1.
       -1   -1    0    0    0  501  0.00000000000E+00  0.00000000000E+00 -0.89686823272E+03  0.89686823274E+03  0.50400001928E-02 0.  1.
    10030    2    1    2    0    0  0.00000000000E+00  0.00000000000E+00  0.16830606662E+04  0.34767971316E+04  0.30422730135E+04 0.  0.
        3    1    3    3  502    0  0.14129437701E+04 -0.22549198780E+03  0.14316102769E+04  0.20240466223E+04  0.10100000352E+00 0. -1.
       -3    1    3    3    0  502 -0.14129437701E+04  0.22549198780E+03  0.25145038928E+03  0.14527505094E+04  0.10100000352E+00 0.  1.
</event>
<event>
 5   0  0.1306843E-06  0.3253404E+04  0.7818609E-02  0.8174854E-01
       -1   -1    0    0    0  501  0.00000000000E+00  0.00000000000E+00  0.13592497782E+04  0.13592497782E+04  0.50400001928E-02 0. -1.
        1   -1    0    0  501    0  0.00000000000E+00  0.00000000000E+00 -0.19467798597E+04  0.19467798597E+04  0.50400001928E-02 0.  1.
    10030    2    1    2    0    0  0.00000000000E+00  0.00000000000E+00 -0.58753008145E+03  0.33060296379E+04  0.32534044277E+04 0.  0.
        5    1    3    3  502    0  0.61719796001E+03 -0.14083274984E+04 -0.83321766963E+03  0.17488834837E+04  0.46999998093E+01 0. -1.
       -5    1    3    3    0  502 -0.61719796001E+03  0.14083274984E+04  0.24568758818E+03  0.15571461542E+04  0.46999998093E+01 0.  1.
</event>
<event>
 5   0  0.3758062E-06  0.3212886E+04  0.7818609E-02  0.8185422E-01
        2   -1    0    0  501    0  0.00000000000E+00  0.00000000000E+00  0.17744474882E+04  0.17744474882E+04  0.25500000920E-02 0.  1.
       -2   -1    0    0    0  501  0.00000000000E+00  0.00000000000E+00 -0.14543450175E+04  0.14543450175E+04  0.25500000920E-02 0. -1.
    10030    2    1    2    0    0  0.00000000000E+00  0.00000000000E+00  0.32010247074E+03  0.32287925057E+04  0.32128858450E+04 0.  0.
        2    1    3    3  502    0  0.49633390909E+03 -0.10932314801E+04  0.12326481098E+04  0.17207335009E+04  0.25500000920E-02 0.  1.
       -2    1    3    3    0  502 -0.49633390909E+03  0.10932314801E+04 -0.91254563907E+03  0.15080590048E+04  0.25500000920E-02 0. -1.
</event>
<event>
 5   0  0.3656086E-06  0.3196021E+04  0.7818609E-02  0.8189869E-01
        2   -1    0    0  501    0  0.00000000000E+00  0.00000000000E+00  0.20836711220E+04  0.20836711220E+04  0.25500000920E-02 0.  1.
       -2   -1    0    0    0  501  0.00000000000E+00  0.00000000000E+00 -0.12255472996E+04  0.12255472996E+04  0.25500000920E-02 0. -1.
    10030    2    1    2    0    0  0.00000000000E+00  0.00000000000E+00  0.85812382247E+03  0.33092184216E+04  0.31960209741E+04 0.  0.
        3    1    3    3  502    0 -0.97750187339E+03 -0.35325708866E+03 -0.82774009038E+03  0.13287039364E+04  0.10100000352E+00 0. -1.
       -3    1    3    3    0  502  0.97750187339E+03  0.35325708866E+03  0.16858639129E+04  0.19805144852E+04  0.10100000352E+00 0.  1.
</event>
<event>
 5   0  0.3656086E-06  0.3214111E+04  0.7818609E-02  0.8185100E-01
        2   -1    0    0  501    0  0.00000000000E+00  0.00000000000E+00  0.15805531383E+04  0.15805531383E+04  0.25500000920E-02 0. -1.
       -2   -1    0    0    0  501  0.00000000000E+00  0.00000000000E+00 -0.16340020655E+04  0.16340020655E+04  0.25500000920E-02 0.  1.
    10030    2    1    2    0    0  0.00000000000E+00  0.00000000000E+00 -0.53448927201E+02  0.32145552038E+04  0.32141108211E+04 0.  0.
        3    1    3    3  502    0  0.16028173357E+03  0.11356642996E+03 -0.16219495387E+04  0.16338016662E+04  0.10100000352E+00 0.  1.
       -3    1    3    3    0  502 -0.16028173357E+03 -0.11356642996E+03  0.15685006115E+04  0.15807535376E+04  0.10100000352E+00 0. -1.
</event>
<event>
 5   0  0.1273754E-06  0.3207505E+04  0.7818609E-02  0.8186838E-01
       -1   -1    0    0    0  501  0.00000000000E+00  0.00000000000E+00  0.14613113674E+04  0.14613113674E+04  0.50400001928E-02 0.  1.
        1   -1    0    0  501    0  0.00000000000E+00  0.00000000000E+00 -0.17600779758E+04  0.17600779758E+04  0.50400001928E-02 0. -1.
    10030    2    1    2    0    0  0.00000000000E+00  0.00000000000E+00 -0.29876660846E+03  0.32213893432E+04  0.32075049203E+04 0.  0.
        2    1    3    3  502    0  0.33750020423E+03 -0.89454597679E+03 -0.14425528044E+04  0.17306292168E+04  0.25500000920E-02 0. -1.
       -2    1    3    3    0  502 -0.33750020423E+03  0.89454597679E+03  0.11437861959E+04  0.14907601264E+04  0.25500000920E-02 0.  1.
</event>
<event>
 5   0  0.3497546E-06  0.3188652E+04  0.7818609E-02  0.8191821E-01
       -2   -1    0    0    0  501  0.00000000000E+00  0.00000000000E+00  0.13720034893E+04  0.13720034893E+04  0.25500000920E-02 0.  1.
        2   -1    0    0  501    0  0.00000000000E+00  0.00000000000E+00 -0.18526735944E+04  0.18526735944E+04  0.25500000920E-02 0. -1.
    10030    2    1    2    0    0  0.00000000000E+00  0.00000000000E+00 -0.48067010511E+03  0.32246770836E+04  0.31886515244E+04 0.  0.
        4    1    3    3  502    0  0.18583063632E+03 -0.11386136174E+03 -0.18375379729E+04  0.18504174799E+04  0.12699999809E+01 0. -1.
       -4    1    3    3    0  502 -0.18583063632E+03  0.11386136174E+03  0.13568678678E+04  0.13742596038E+04  0.12699999809E+01 0.  1.
</event>
<event>
 5   0  0.3656086E-06  0.3158404E+04  0.7818609E-02  0.8199890E-01
        2   -1    0    0  501    0  0.00000000000E+00  0.00000000000E+00  0.16764660116E+04  0.16764660116E+04  0.25500000920E-02 0. -1.
       -2   -1    0    0    0  501  0.00000000000E+00  0.00000000000E+00 -0.14875810797E+04  0.14875810797E+04  0.25500000920E-02 0.  1.
    10030    2    1    2    0    0  0.00000000000E+00  0.00000000000E+00  0.18888493191E+03  0.31640470913E+04  0.31584041030E+04 0.  0.
        3    1    3    3  502    0  0.84724380402E+03 -0.74867853975E+03  0.11989264495E+04  0.16479582097E+04  0.10100000352E+00 0. -1.
       -3    1    3    3    0  502 -0.84724380402E+03  0.74867853975E+03 -0.10100415176E+04  0.15160888816E+04  0.10100000352E+00 0.  1.
</event>
<event>
 5   0  0.3656086E-06  0.3038180E+04  0.7818609E-02  0.8232912E-01
       -2   -1    0    0    0  501  0.00000000000E+00  0.00000000000E+00  0.15511789573E+04  0.15511789573E+04  0.25500000920E-02 0.  1.
        2   -1    0    0  501    0  0.00000000000E+00  0.00000000000E+00 -0.14876643955E+04  0.14876643955E+04  0.25500000920E-02 0. -1.
    10030    2    1    2    0    0  0.00000000000E+00  0.00000000000E+00  0.63514561733E+02  0.30388433528E+04  0.30381795246E+04 0.  0.
        3    1    3    3  502    0  0.13081563268E+03  0.13607481226E+04 -0.63087181795E+03  0.15055721317E+04  0.10100000352E+00 0. -1.
       -3    1    3    3    0  502 -0.13081563268E+03 -0.13607481226E+04  0.69438637968E+03  0.15332712211E+04  0.10100000352E+00 0.  1.
</event>
<event>
 5   0  0.3656086E-06  0.3228385E+04  0.7818609E-02  0.8181361E-01
       -2   -1    0    0    0  501  0.00000000000E+00  0.00000000000E+00  0.15386149652E+04  0.15386149652E+04  0.25500000920E-02 0.  1.
        2   -1    0    0  501    0  0.00000000000E+00  0.00000000000E+00 -0.16934825907E+04  0.16934825907E+04  0.25500000920E-02 0. -1.
    10030    2    1    2    0    0  0.00000000000E+00  0.00000000000E+00 -0.15486762549E+03  0.32320975559E+04  0.32283851426E+04 0.  0.
        3    1    3    3  502    0 -0.98367418659E+03  0.10669104070E+04  0.63027717078E+03  0.15821384402E+04  0.10100000352E+00 0.  1.
       -3    1    3    3    0  502  0.98367418659E+03 -0.10669104070E+04 -0.78514479627E+03  0.16499591156E+04  0.10100000352E+00 0. -1.
</event>
<event>
 5   0  0.3745943E-06  0.3189213E+04  0.7818609E-02  0.8191672E-01
       -2   -1    0    0    0  501  0.00000000000E+00  0.00000000000E+00  0.15872794750E+04  0.15872794750E+04  0.25500000920E-02 0. -1.
        2   -1    0    0  501    0  0.00000000000E+00  0.00000000000E+00 -0.16019669437E+04  0.16019669438E+04  0.25500000920E-02 0.  1.
    10030    2    1    2    0    0  0.00000000000E+00  0.00000000000E+00 -0.14687468752E+02  0.31892464188E+04  0.31892125984E+04 0.  0.
        5    1    3    3  502    0  0.34577552146E+03  0.13846080323E+04 -0.71872111532E+03  0.15978993228E+04  0.46999998093E+01 0.  1.
       -5    1    3    3    0  502 -0.34577552146E+03 -0.13846080323E+04  0.70403364657E+03  0.15913470959E+04  0.46999998093E+01 0. -1.
</event>
<event>
 5   0  0.1240725E-06  0.3192664E+04  0.7818609E-02  0.8190757E-01
       -1   -1    0    0    0  501  0.00000000000E+00  0.00000000000E+00  0.22729206916E+04  0.22729206917E+04  0.50400001928E-02 0.  1.
        1   -1    0    0  501    0  0.00000000000E+00  0.00000000000E+00 -0.11211459050E+04  0.11211459050E+04  0.50400001928E-02 0. -1.
    10030    2    1    2    0    0  0.00000000000E+00  0.00000000000E+00  0.11517747867E+04  0.33940665966E+04  0.31926639195E+04 0.  0.
        3    1    3    3  502    0  0.71975014566E+03 -0.13868157312E+04  0.22818032319E+03  0.15790390795E+04  0.10100000352E+00 0. -1.
       -3    1    3    3    0  502 -0.71975014566E+03  0.13868157312E+04  0.92359446349E+03  0.18150275171E+04  0.10100000352E+00 0.  1.
</event>
<event>
 5   0  0.1273754E-06  0.3221731E+04  0.7818609E-02  0.8183102E-01
       -1   -1    0    0    0  501  0.00000000000E+00  0.00000000000E+00  0.17408880307E+04  0.17408880307E+04  0.50400001928E-02 0.  1.
        1   -1    0    0  501    0  0.00000000000E+00  0.00000000000E+00 -0.14905541109E+04  0.14905541109E+04  0.50400001928E-02 0. -1.
    10030    2    1    2    0    0  0.00000000000E+00  0.00000000000E+00  0.25033391977E+03  0.32314421416E+04  0.32217310942E+04 0.  0.
        2    1    3    3  502    0 -0.14272515969E+03 -0.35022082594E+03 -0.14453953468E+04  0.14940524779E+04  0.25500000920E-02 0. -1.
       -2    1    3    3    0  502  0.14272515969E+03  0.35022082594E+03  0.16957292666E+04  0.17373896637E+04  0.25500000920E-02 0.  1.
</event>
<event>
 5   0  0.1273980E-06  0.3192848E+04  0.7818609E-02  0.8190708E-01
        1   -1    0    0  501    0  0.00000000000E+00  0.00000000000E+00  0.16329259171E+04  0.16329259171E+04  0.50400001928E-02 0.  1.
       -1   -1    0    0    0  501  0.00000000000E+00  0.00000000000E+00 -0.15607384431E+04  0.15607384431E+04  0.50400001928E-02 0. -1.
    10030    2    1    2    0    0  0.00000000000E+00  0.00000000000E+00  0.72187473997E+02  0.31936643602E+04  0.31928484171E+04 0.  0.
        4    1    3    3  502    0 -0.63815403830E+02 -0.11971316084E+03  0.16271494694E+04  0.16327953501E+04  0.12699999809E+01 0.  1.
       -4    1    3    3    0  502  0.63815403830E+02  0.11971316084E+03 -0.15549619954E+04  0.15608690101E+04  0.12699999809E+01 0. -1.
</event>
<event>
 5   0  0.3656086E-06  0.3235415E+04  0.7818609E-02  0.8179526E-01
        2   -1    0    0  501    0  0.00000000000E+00  0.00000000000E+00  0.14318949229E+04  0.14318949229E+04  0.25500000920E-02 0.  1.
       -2   -1    0    0    0  501  0.00000000000E+00  0.00000000000E+00 -0.18276324370E+04  0.18276324370E+04  0.25500000920E-02 0. -1.
    10030    2    1    2    0    0  0.00000000000E+00  0.00000000000E+00 -0.39573751401E+03  0.32595273599E+04  0.32354150321E+04 0.  0.
        3    1    3    3  502    0 -0.10443258990E+04  0.31341340689E+03  0.10060826726E+04  0.14835925658E+04  0.10100000352E+00 0.  1.
       -3    1    3    3    0  502  0.10443258990E+04 -0.31341340689E+03 -0.14018201866E+04  0.17759347941E+04  0.10100000352E+00 0. -1.
</event>
<event>
 5   0  0.3656086E-06  0.3259875E+04  0.7818609E-02  0.8173181E-01
        2   -1    0    0  501    0  0.00000000000E+00  0.00000000000E+00  0.23111986726E+04  0.23111986726E+04  0.25500000920E-02 0. -1.
       -2   -1    0    0    0  501  0.00000000000E+00  0.00000000000E+00 -0.11494885255E+04  0.11494885255E+04  0.25500000920E-02 0.  1.
    10030    2    1    2    0    0  0.00000000000E+00  0.00000000000E+00  0.11617101471E+04  0.34606871980E+04  0.32598750615E+04 0.  0.
        3    1    3    3  502    0 -0.41755198422E+03  0.79160386850E+01 -0.10917258017E+04  0.11688787617E+04  0.10100000352E+00 0.  1.
       -3    1    3    3    0  502  0.41755198422E+03 -0.79160386850E+01  0.22534359488E+04  0.22918084363E+04  0.10100000352E+00 0. -1.
</event>
<event>
 5   0  0.3531437E-06  0.3119359E+04  0.7818609E-02  0.8210445E-01
       -2   -1    0    0    0  501  0.00000000000E+00  0.00000000000E+00  0.95387835150E+03  0.95387835150E+03  0.25500000920E-02 0.  1.
        2   -1    0    0  501    0  0.00000000000E+00  0.00000000000E+00 -0.25502208000E+04  0.25502208000E+04  0.25500000920E-02 0. -1.
    10030    2    1    2    0    0  0.00000000000E+00  0.00000000000E+00 -0.15963424485E+04  0.35040991515E+04  0.31193591731E+04 0.  0.
        1    1    3    3  502    0  0.11643070154E+04 -0.59028558357E+03 -0.17570008273E+04  0.21888581049E+04  0.50400001928E-02 0. -1.
       -1    1    3    3    0  502 -0.11643070154E+04  0.59028558357E+03  0.16065837872E+03  0.13152410467E+04  0.50400001928E-02 0.  1.
</event>
<event>
 5   0  0.1268836E-06  0.2404965E+04  0.7818609E-02  0.8437647E-01
        1   -1    0    0  501    0  0.00000000000E+00  0.00000000000E+00  0.15443177522E+04  0.15443177522E+04  0.50400001928E-02 0.  1.
       -1   -1    0    0    0  501  0.00000000000E+00  0.00000000000E+00 -0.93631290206E+03  0.93631290207E+03  0.50400001928E-02 0. -1.
    10030    2    1    2    0    0  0.00000000000E+00  0.00000000000E+00  0.60800485010E+03  0.24806306542E+04  0.24049653937E+04 0.  0.
        1    1    3    3  502    0 -0.30138872643E+03  0.11437118132E+04  0.52774355517E+03  0.12951544835E+04  0.50400001928E-02 0. -1.
       -1    1    3    3    0  502  0.30138872643E+03 -0.11437118132E+04  0.80261294927E+02  0.11854761708E+04  0.50400001928E-02 0.  1.
</event>
<event>
 5   0  0.3758062E-06  0.3106473E+04  0.7818609E-02  0.8213964E-01
        2   -1    0    0  501    0  0.00000000000E+00  0.00000000000E+00  0.19612476610E+04  0.19612476610E+04  0.25500000920E-02 0. -1.
       -2   -1    0    0    0  501  0.00000000000E+00  0.00000000000E+00 -0.12301067846E+04  0.12301067846E+04  0.25500000920E-02 0.  1.
    10030    2    1    2    0    0  0.00000000000E+00  0.00000000000E+00  0.73114087642E+03  0.31913544457E+04  0.31064732764E+04 0.  0.
        2    1    3    3  502    0 -0.75097147055E+03 -0.81374389852E+03  0.14845553436E+04  0.18520372162E+04  0.25500000920E-02 0. -1.
       -2    1    3    3    0  502  0.75097147055E+03  0.81374389852E+03 -0.75341446714E+03  0.13393172295E+04  0.25500000920E-02 0.  1.
</event>
<event>
 5   0  0.3656086E-06  0.3249764E+04  0.7818609E-02  0.8175797E-01
        2   -1    0    0  501    0  0.00000000000E+00  0.00000000000E+00  0.20405650427E+04  0.20405650427E+04  0.25500000920E-02 0. -1.
       -2   -1    0    0    0  501  0.00000000000E+00  0.00000000000E+00 -0.12938775496E+04  0.12938775496E+04  0.25500000920E-02 0.  1.
    10030    2    1    2    0    0  0.00000000000E+00  0.00000000000E+00  0.74668749310E+03  0.33344425923E+04  0.32497638667E+04 0.  0.
        3    1    3    3  502    0 -0.90181963214E+02  0.15999427821E+04  0.64922064910E+03  0.17289988878E+04  0.10100000352E+00 0. -1.
       -3    1    3    3    0  502  0.90181963214E+02 -0.15999427821E+04  0.97466844005E+02  0.16054437045E+04  0.10100000352E+00 0.  1.
</event>
<event>
 5   0  0.1268836E-06  0.3110078E+04  0.7818609E-02  0.8212978E-01
        1   -1    0    0  501    0  0.00000000000E+00  0.00000000000E+00  0.88386181231E+03  0.88386181233E+03  0.50400001928E-02 0.  1.
       -1   -1    0    0    0  501  0.00000000000E+00  0.00000000000E+00 -0.27358872847E+04  0.27358872847E+04  0.50400001928E-02 0. -1.
    10030    2    1    2    0    0  0.00000000000E+00  0.00000000000E+00 -0.18520254724E+04  0.36197490970E+04  0.31100780014E+04 0.  0.
        1    1    3    3  502    0  0.39758625080E+02  0.11465836049E+04  0.29573223784E+03  0.11847751971E+04  0.50400001928E-02 0.  1.
       -1    1    3    3    0  502 -0.39758625080E+02 -0.11465836049E+04 -0.21477577102E+04  0.24349738999E+04  0.50400001928E-02 0. -1.
</event>
<event>
 5   0  0.3497546E-06  0.2965731E+04  0.7818609E-02  0.8253585E-01
       -2   -1    0    0    0  501  0.00000000000E+00  0.00000000000E+00  0.12335613997E+04  0.12335613997E+04  0.25500000920E-02 0.  1.
        2   -1    0    0  501    0  0.00000000000E+00  0.00000000000E+00 -0.17825538236E+04  0.17825538236E+04  0.25500000920E-02 0. -1.
    10030    2    1    2    0    0  0.00000000000E+00  0.00000000000E+00 -0.54899242381E+03  0.30161152233E+04  0.29657306619E+04 0.  0.
        4    1    3    3  502    0  0.12992560791E+04 -0.44519014646E+03 -0.84312613102E+03  0.16115594657E+04  0.12699999809E+01 0. -1.
       -4    1    3    3    0  502 -0.12992560791E+04  0.44519014646E+03  0.29413370721E+03  0.14045557576E+04  0.12699999809E+01 0.  1.
</event>
<event>
 5   0  0.1185575E-06  0.3158673E+04  0.7818609E-02  0.8199818E-01
        3   -1    0    0  501    0  0.00000000000E+00  0.00000000000E+00  0.15644688894E+04  0.15644688926E+04  0.10100000352E+00 0. -1.
       -3   -1    0    0    0  501  0.00000000000E+00  0.00000000000E+00 -0.15943449739E+04  0.15943449771E+04  0.10100000352E+00 0.  1.
    10030    2    1    2    0    0  0.00000000000E+00  0.00000000000E+00 -0.29876084502E+02  0.31588138697E+04  0.31586725824E+04 0.  0.
        2    1    3    3  502    0  0.98414446782E+02 -0.92531951294E+03  0.12612074025E+04  0.15673371420E+04  0.25500000920E-02 0. -1.
       -2    1    3    3    0  502 -0.98414446782E+02  0.92531951294E+03 -0.12910834870E+04  0.15914767277E+04  0.25500000920E-02 0.  1.
</event>
<event>
 5   0  0.3745943E-06  0.3162098E+04  0.7818609E-02  0.8198899E-01
       -2   -1    0    0    0  501  0.00000000000E+00  0.00000000000E+00  0.14709570068E+04  0.14709570068E+04  0.25500000920E-02 0.  1.
        2   -1    0    0  501    0  0.00000000000E+00  0.00000000000E+00 -0.16993807314E+04  0.16993807314E+04  0.25500000920E-02 0. -1.
    10030    2    1    2    0    0  0.00000000000E+00  0.00000000000E+00 -0.22842372466E+03  0.31703377382E+04  0.31620980340E+04 0.  0.
        5    1    3    3  502    0 -0.10548802339E+03 -0.15775141140E+04 -0.11814651248E+03  0.15854523618E+04  0.46999998093E+01 0. -1.
       -5    1    3    3    0  502  0.10548802339E+03  0.15775141140E+04 -0.11027721218E+03  0.15848853765E+04  0.46999998093E+01 0.  1.
</event>
<event>
 5   0  0.3497546E-06  0.3152899E+04  0.7818609E-02  0.8201368E-01
        2   -1    0    0  501    0  0.00000000000E+00  0.00000000000E+00  0.28414615231E+04  0.28414615232E+04  0.25500000920E-02 0. -1.
       -2   -1    0    0    0  501  0.00000000000E+00  0.00000000000E+00 -0.87461805014E+03  0.87461805015E+03  0.25500000920E-02 0.  1.
    10030    2    1    2    0    0  0.00000000000E+00  0.00000000000E+00  0.19668434730E+04  0.37160795733E+04  0.31528993241E+04 0.  0.
        4    1    3    3  502    0 -0.64720230097E+01  0.43523497989E+03  0.27692282904E+04  0.28032299784E+04  0.12699999809E+01 0. -1.
       -4    1    3    3    0  502  0.64720230097E+01 -0.43523497989E+03 -0.80238481738E+03  0.91284959487E+03  0.12699999809E+01 0.  1.
</event>
<event>
 5   0  0.3656086E-06  0.3202007E+04  0.7818609E-02  0.8188287E-01
        2   -1    0    0  501    0  0.00000000000E+00  0.00000000000E+00  0.19540204539E+04  0.19540204539E+04  0.25500000920E-02 0.  1.
       -2   -1    0    0    0  501  0.00000000000E+00  0.00000000000E+00 -0.13117629579E+04  0.13117629579E+04  0.25500000920E-02 0. -1.
    10030    2    1    2    0    0  0.00000000000E+00  0.00000000000E+00  0.64225749593E+03  0.32657834118E+04  0.32020066523E+04 0.  0.
        3    1    3    3  502    0  0.15131681253E+04  0.42639223003E+02 -0.21051726909E+03  0.15283368115E+04  0.10100000352E+00 0. -1.
       -3    1    3    3    0  502 -0.15131681253E+04 -0.42639223003E+02  0.85277476503E+03  0.17374466003E+04  0.10100000352E+00 0.  1.
</event>
<event>
 5   0  0.3656086E-06  0.3247726E+04  0.7818609E-02  0.8176325E-01
       -2   -1    0    0    0  501  0.00000000000E+00  0.00000000000E+00  0.12164538076E+04  0.12164538076E+04  0.25500000920E-02 0.  1.
        2   -1    0    0  501    0  0.00000000000E+00  0.00000000000E+00 -0.21677199094E+04  0.21677199094E+04  0.25500000920E-02 0. -1.
    10030    2    1    2    0    0  0.00000000000E+00  0.00000000000E+00 -0.95126610179E+03  0.33841737169E+04  0.32477260583E+04 0.  0.
        3    1    3    3  502    0  0.47370993744E+03  0.11106114695E+04 -0.16071041247E+04  0.20101349753E+04  0.10100000352E+00 0. -1.
       -3    1    3    3    0  502 -0.47370993744E+03 -0.11106114695E+04  0.65583802291E+03  0.13740387416E+04  0.10100000352E+00 0.  1.
</event>
<event>
 5   0  0.3497546E-06  0.3196121E+04  0.7818609E-02  0.8189842E-01
       -2   -1    0    0    0  501  0.00000000000E+00  0.00000000000E+00  0.11895037669E+04  0.11895037669E+04  0.25500000920E-02 0.  1.
        2   -1    0    0  501    0  0.00000000000E+00  0.00000000000E+00 -0.21469433814E+04  0.21469433814E+04  0.25500000920E-02 0. -1.
    10030    2    1    2    0    0  0.00000000000E+00  0.00000000000E+00 -0.95743961454E+03  0.33364471484E+04  0.31961209236E+04 0.  0.
        4    1    3    3  502    0 -0.42211553688E+02  0.14597166014E+04  0.19880702033E+03  0.14737978885E+04  0.12699999809E+01 0.  1.
       -4    1    3    3    0  502  0.42211553688E+02 -0.14597166014E+04 -0.11562466349E+04  0.18626492599E+04  0.12699999809E+01 0. -1.
</event>
<event>
 5   0  0.3656086E-06  0.3047916E+04  0.7818609E-02  0.8230179E-01
       -2   -1    0    0    0  501  0.00000000000E+00  0.00000000000E+00  0.17391822594E+04  0.17391822594E+04  0.25500000920E-02 0.  1.
        2   -1    0    0  501    0  0.00000000000E+00  0.00000000000E+00 -0.13353677706E+04  0.13353677706E+04  0.25500000920E-02 0. -1.
    10030    2    1    2    0    0  0.00000000000E+00  0.00000000000E+00  0.40381448873E+03  0.30745500300E+04  0.30479159676E+04 0.  0.
        3    1    3    3  502    0 -0.18878355857E+03  0.12099822627E+04  0.11168900815E+04  0.16574497798E+04  0.10100000352E+00 0.  1.
       -3    1    3    3    0  502  0.18878355857E+03 -0.12099822627E+04 -0.71307559277E+03  0.14171002503E+04  0.10100000352E+00 0. -1.
</event>
<event>
 5   0  0.1306843E-06  0.3217652E+04  0.7818609E-02  0.8184171E-01
       -1   -1    0    0    0  501  0.00000000000E+00  0.00000000000E+00  0.82871597226E+03  0.82871597228E+03  0.50400001928E-02 0. -1.
        1   -1    0    0  501    0  0.00000000000E+00  0.00000000000E+00 -0.31232911355E+04  0.31232911355E+04  0.50400001928E-02 0.  1.
    10030    2    1    2    0    0  0.00000000000E+00  0.00000000000E+00 -0.22945751632E+04  0.39520071077E+04  0.32176520943E+04 0.  0.
        5    1    3    3  502    0 -0.14642833546E+04 -0.54365164093E+03 -0.16207787366E+04  0.22509172913E+04  0.46999998093E+01 0.  1.
       -5    1    3    3    0  502  0.14642833546E+04  0.54365164093E+03 -0.67379642661E+03  0.17010898165E+04  0.46999998093E+01 0. -1.
</event>
<event>
 5   0  0.3531437E-06  0.3180259E+04  0.7818609E-02  0.8194050E-01
        2   -1    0    0  501    0  0.00000000000E+00  0.00000000000E+00  0.20181828510E+04  0.20181828510E+04  0.25500000920E-02 0.  1.
       -2   -1    0    0    0  501  0.00000000000E+00  0.00000000000E+00 -0.12528655618E+04  0.12528655618E+04  0.25500000920E-02 0. -1.
    10030    2    1    2    0    0  0.00000000000E+00  0.00000000000E+00  0.76531728923E+03  0.32710484127E+04  0.31802589777E+04 0.  0.
        1    1    3    3  502    0  0.42336385018E+02 -0.11785488141E+04 -0.71444182696E+03  0.13788389321E+04  0.50400001928E-02 0. -1.
       -1    1    3    3    0  502 -0.42336385018E+02  0.11785488141E+04  0.14797591162E+04  0.18922094806E+04  0.50400001928E-02 0.  1.
</event>
<event>
 5   0  0.1240725E-06  0.3198618E+04  0.7818609E-02  0.8189182E-01
       -1   -1    0    0    0  501  0.00000000000E+00  0.00000000000E+00  0.13011357046E+04  0.13011357046E+04  0.50400001928E-02 0. -1.
        1   -1    0    0  501    0  0.00000000000E+00  0.00000000000E+00 -0.19658130295E+04  0.19658130295E+04  0.50400001928E-02 0.  1.
    10030    2    1    2    0    0  0.00000000000E+00  0.00000000000E+00 -0.66467732487E+03  0.32669487341E+04  0.31986181524E+04 0.  0.
        3    1    3    3  502    0  0.54540583656E+03  0.71088380517E+02  0.12014977442E+04  0.13214075541E+04  0.10100000352E+00 0. -1.
       -3    1    3    3    0  502 -0.54540583656E+03 -0.71088380517E+02 -0.18661750691E+04  0.19455411800E+04  0.10100000352E+00 0.  1.
</event>
<event>
 5   0  0.3497546E-06  0.3203059E+04  0.7818609E-02  0.8188010E-01
        2   -1    0    0  501    0  0.00000000000E+00  0.00000000000E+00  0.22442183026E+04  0.22442183026E+04  0.25500000920E-02 0.  1.
       -2   -1    0    0    0  501  0.00000000000E+00  0.00000000000E+00 -0.11428907278E+04  0.11428907278E+04  0.25500000920E-02 0. -1.
    10030    2    1    2    0    0  0.00000000000E+00  0.00000000000E+00  0.11013275748E+04  0.33871090304E+04  0.32030587189E+04 0.  0.
        4    1    3    3  502    0 -0.85789267367E+03  0.10767132940E+04 -0.31464890770E+03  0.14121957743E+04  0.12699999809E+01 0. -1.
       -4    1    3    3    0  502  0.85789267367E+03 -0.10767132940E+04  0.14159764825E+04  0.19749132561E+04  0.12699999809E+01 0.  1.
</event>
<event>
 5   0  0.3497546E-06  0.3202501E+04  0.7818609E-02  0.8188157E-01
        2   -1    0    0  501    0  0.00000000000E+00  0.00000000000E+00  0.21655955728E+04  0.21655955728E+04  0.25500000920E-02 0.  1.
       -2   -1    0    0    0  501  0.00000000000E+00  0.00000000000E+00 -0.11839710264E+04  0.11839710264E+04  0.25500000920E-02 0. -1.
    10030    2    1    2    0    0  0.00000000000E+00  0.00000000000E+00  0.98162454631E+03  0.33495665992E+04  0.32025005312E+04 0.  0.
        4    1    3    3  502    0 -0.15469788116E+04  0.19045186132E+03  0.87451815312E+03  0.17872322088E+04  0.12699999809E+01 0.  1.
       -4    1    3    3    0  502  0.15469788116E+04 -0.19045186132E+03  0.10710639319E+03  0.15623343904E+04  0.12699999809E+01 0. -1.
</event>
<event>
 5   0  0.1185575E-06  0.3154948E+04  0.7818609E-02  0.8200818E-01
        3   -1    0    0  501    0  0.00000000000E+00  0.00000000000E+00  0.26658725219E+04  0.26658725238E+04  0.10100000352E+00 0.  1.
       -3   -1    0    0    0  501  0.00000000000E+00  0.00000000000E+00 -0.93343692392E+03  0.93343692938E+03  0.10100000352E+00 0. -1.
    10030    2    1    2    0    0  0.00000000000E+00  0.00000000000E+00  0.17324355980E+04  0.35993094532E+04  0.31549477712E+04 0.  0.
        5    1    3    3  502    0 -0.14788837811E+04 -0.31977282338E+03  0.13752062936E+04  0.20446433275E+04  0.46999998093E+01 0.  1.
       -5    1    3    3    0  502  0.14788837811E+04  0.31977282338E+03  0.35722930440E+03  0.15546661257E+04  0.46999998093E+01 0. -1.
</event>
<event>
 5   0  0.3497546E-06  0.3237871E+04  0.7818609E-02  0.8178887E-01
        2   -1    0    0  501    0  0.00000000000E+00  0.00000000000E+00  0.35915540336E+04  0.35915540336E+04  0.25500000920E-02 0.  1.
       -2   -1    0    0    0  501  0.00000000000E+00  0.00000000000E+00 -0.72975431831E+03  0.72975431831E+03  0.25500000920E-02 0. -1.
    10030    2    1    2    0    0  0.00000000000E+00  0.00000000000E+00  0.28617997153E+04  0.43213083519E+04  0.32378709458E+04 0.  0.
        4    1    3    3  502    0  0.32790643627E+03  0.10764834858E+04 -0.12242767959E+03  0.11319582483E+04  0.12699999809E+01 0. -1.
       -4    1    3    3    0  502 -0.32790643627E+03 -0.10764834858E+04  0.29842273949E+04  0.31893501036E+04  0.12699999809E+01 0.  1.
</event>
<event>
 5   0  0.3531437E-06  0.3187536E+04  0.7818609E-02  0.8192117E-01
        2   -1    0    0  501    0  0.00000000000E+00  0.00000000000E+00  0.25845161044E+04  0.25845161044E+04  0.25500000920E-02 0.  1.
       -2   -1    0    0    0  501  0.00000000000E+00  0.00000000000E+00 -0.98281302682E+03  0.98281302682E+03  0.25500000920E-02 0. -1.
    10030    2    1    2    0    0  0.00000000000E+00  0.00000000000E+00  0.16017030776E+04  0.35673291312E+04  0.31875357852E+04 0.  0.
        1    1    3    3  502    0  0.12195536223E+04  0.61080872668E+03  0.17235207518E+04  0.21979358772E+04  0.50400001928E-02 0. -1.
       -1    1    3    3    0  502 -0.12195536223E+04 -0.61080872668E+03 -0.12181767428E+03  0.13693932540E+04  0.50400001928E-02 0.  1.
</event>
<event>
 5   0  0.1273980E-06  0.3176334E+04  0.7818609E-02  0.8195095E-01
       -1   -1    0    0    0  501  0.00000000000E+00  0.00000000000E+00  0.12738321938E+04  0.12738321939E+04  0.50400001928E-02 0.  1.
        1   -1    0    0  501    0  0.00000000000E+00  0.00000000000E+00 -0.19800676781E+04  0.19800676781E+04  0.50400001928E-02 0. -1.
    10030    2    1    2    0    0  0.00000000000E+00  0.00000000000E+00 -0.70623548430E+03  0.32538998720E+04  0.31763337069E+04 0.  0.
        4    1    3    3  502    0  0.23051365134E+03  0.10079908116E+04 -0.15879966324E+04  0.18949714872E+04  0.12699999809E+01 0. -1.
       -4    1    3    3    0  502 -0.23051365134E+03 -0.10079908116E+04  0.88176114812E+03  0.13589283848E+04  0.12699999809E+01 0.  1.
</event>
<event>
 5   0  0.1306843E-06  0.3224902E+04  0.7818609E-02  0.8182271E-01
        1   -1    0    0  501    0  0.00000000000E+00  0.00000000000E+00  0.10798026462E+04  0.10798026462E+04  0.50400001928E-02 0. -1.
       -1   -1    0    0    0  501  0.00000000000E+00  0.00000000000E+00 -0.24078461207E+04  0.24078461207E+04  0.50400001928E-02 0.  1.
    10030    2    1    2    0    0  0.00000000000E+00  0.00000000000E+00 -0.13280434745E+04  0.34876487669E+04  0.32249022390E+04 0.  0.
        5    1    3    3  502    0 -0.14167955846E+04  0.13709399351E+03 -0.14832854463E+04  0.20557875126E+04  0.46999998093E+01 0.  1.
       -5    1    3    3    0  502  0.14167955846E+04 -0.13709399351E+03  0.15524197182E+03  0.14318612543E+04  0.46999998093E+01 0. -1.
</event>
<event>
 5   0  0.3497546E-06  0.3222200E+04  0.7818609E-02  0.8182979E-01
       -2   -1    0    0    0  501  0.00000000000E+00  0.00000000000E+00  0.16334556126E+04  0.16334556126E+04  0.25500000920E-02 0. -1.
        2   -1    0    0  501    0  0.00000000000E+00  0.00000000000E+00 -0.15890504579E+04  0.15890504579E+04  0.25500000920E-02 0.  1.
    10030    2    1    2    0    0  0.00000000000E+00  0.00000000000E+00  0.44405154746E+02  0.32225060705E+04  0.32222001112E+04 0.  0.
        4    1    3    3  502    0  0.23388148636E+02  0.99362488946E+03  0.12903152292E+04  0.16287272424E+04  0.12699999809E+01 0. -1.
       -4    1    3    3    0  502 -0.23388148636E+02 -0.99362488946E+03 -0.12459100745E+04  0.15937788281E+04  0.12699999809E+01 0.  1.
</event>
<event>
 5   0  0.3531437E-06  0.3229887E+04  0.7818609E-02  0.8180968E-01
        2   -1    0    0  501    0  0.00000000000E+00  0.00000000000E+00  0.21784071744E+04  0.21784071744E+04  0.25500000920E-02 0. -1.
       -2   -1    0    0    0  501  0.00000000000E+00  0.00000000000E+00 -0.11972244892E+04  0.11972244892E+04  0.25500000920E-02 0.  1.
    10030    2    1    2    0    0  0.00000000000E+00  0.00000000000E+00  0.98118268526E+03  0.33756316636E+04  0.32298869433E+04 0.  0.
        1    1    3    3  502    0 -0.96100935310E+03  0.22570493847E+03  0.18263726820E+04  0.20760825777E+04  0.50400001928E-02 0. -1.
       -1    1    3    3    0  502  0.96100935310E+03 -0.22570493847E+03 -0.84518999674E+03  0.12995490859E+04  0.50400001928E-02 0.  1.
</event>
<event>
 5   0  0.3497546E-06  0.3239571E+04  0.7818609E-02  0.8178444E-01
        2   -1    0    0  501    0  0.00000000000E+00  0.00000000000E+00  0.25940020057E+04  0.25940020057E+04  0.25500000920E-02 0.  1.
       -2   -1    0    0    0  501  0.00000000000E+00  0.00000000000E+00 -0.10114507394E+04  0.10114507394E+04  0.25500000920E-02 0. -1.
    10030    2    1    2    0    0  0.00000000000E+00  0.00000000000E+00  0.15825512663E+04  0.36054527452E+04  0.32395711116E+04 0.  0.
        4    1    3    3  502    0  0.96139764749E+03 -0.11336602980E+04  0.74976560465E+02  0.14883192552E+04  0.12699999809E+01 0.  1.
       -4    1    3    3    0  502 -0.96139764749E+03  0.11336602980E+04  0.15075747059E+04  0.21171334900E+04  0.12699999809E+01 0. -1.
</event>
<event>
 5   0  0.3745943E-06  0.2861061E+04  0.7818609E-02  0.8284558E-01
       -2   -1    0    0    0  501  0.00000000000E+00  0.00000000000E+00  0.11744791164E+04  0.11744791164E+04  0.25500000920E-02 0. -1.
        2   -1    0    0  501    0  0.00000000000E+00  0.00000000000E+00 -0.17424044961E+04  0.17424044961E+04  0.25500000920E-02 0.  1.
    10030    2    1    2    0    0  0.00000000000E+00  0.00000000000E+00 -0.56792537968E+03  0.29168836126E+04  0.28610611270E+04 0.  0.
        5    1    3    3  502    0 -0.80078691635E+03  0.23803512310E+03 -0.14678583959E+04  0.16889496042E+04  0.46999998093E+01 0.  1.
       -5    1    3    3    0  502  0.80078691635E+03 -0.23803512310E+03  0.89993301619E+03  0.12279340084E+04  0.46999998093E+01 0. -1.
</event>
<event>
 5   0  0.3758062E-06  0.3205156E+04  0.7818609E-02  0.8187457E-01
       -2   -1    0    0    0  501  0.00000000000E+00  0.00000000000E+00  0.21491382251E+04  0.21491382251E+04  0.25500000920E-02 0. -1.
        2   -1    0    0  501    0  0.00000000000E+00  0.00000000000E+00 -0.11950170420E+04  0.11950170420E+04  0.25500000920E-02 0.  1.
    10030    2    1    2    0    0  0.00000000000E+00  0.00000000000E+00  0.95412118314E+03  0.33441552671E+04  0.32051563485E+04 0.  0.
        2    1    3    3  502    0  0.21749440280E+03 -0.15081151912E+04  0.99512324202E+03  0.18198861261E+04  0.25500000920E-02 0. -1.
       -2    1    3    3    0  502 -0.21749440280E+03  0.15081151912E+04 -0.41002058882E+02  0.15242691410E+04  0.25500000920E-02 0.  1.
</event>
<event>
 5   0  0.1240725E-06  0.3270163E+04  0.7818609E-02  0.8170529E-01
       -1   -1    0    0    0  501  0.00000000000E+00  0.00000000000E+00  0.11856803262E+04  0.11856803262E+04  0.50400001928E-02 0. -1.
        1   -1    0    0  501    0  0.00000000000E+00  0.00000000000E+00 -0.22548163439E+04  0.22548163439E+04  0.50400001928E-02 0.  1.
    10030    2    1    2    0    0  0.00000000000E+00  0.00000000000E+00 -0.10691360177E+04  0.34404966701E+04  0.32701629184E+04 0.  0.
        3    1    3    3  502    0  0.89114302085E+03  0.18323596739E+02  0.90760519657E+03  0.12720923083E+04  0.10100000352E+00 0. -1.
       -3    1    3    3    0  502 -0.89114302085E+03 -0.18323596739E+02 -0.19767412143E+04  0.21684043618E+04  0.10100000352E+00 0.  1.
</event>
<event>
 5   0  0.3531437E-06  0.3199461E+04  0.7818609E-02  0.8188960E-01
        2   -1    0    0  501    0  0.00000000000E+00  0.00000000000E+00  0.22402267287E+04  0.22402267287E+04  0.25500000920E-02 0.  1.
       -2   -1    0    0    0  501  0.00000000000E+00  0.00000000000E+00 -0.11423565554E+04  0.11423565554E+04  0.25500000920E-02 0. -1.
    10030    2    1    2    0    0  0.00000000000E+00  0.00000000000E+00  0.10978701733E+04  0.33825832841E+04  0.31994610103E+04 0.  0.
        1    1    3    3  502    0  0.10599319255E+04 -0.38786470207E+03  0.17475075498E+04  0.20803070328E+04  0.50400001928E-02 0.  1.
       -1    1    3    3    0  502 -0.10599319255E+04  0.38786470207E+03 -0.64963737649E+03  0.13022762514E+04  0.50400001928E-02 0. -1.
</event>
<event>
 5   0  0.1273754E-06  0.3243101E+04  0.7818609E-02  0.8177526E-01
       -1   -1    0    0    0  501  0.00000000000E+00  0.00000000000E+00  0.25395643697E+04  0.25395643697E+04  0.50400001928E-02 0. -1.
        1   -1    0    0  501    0  0.00000000000E+00  0.00000000000E+00 -0.10353846129E+04  0.10353846129E+04  0.50400001928E-02 0.  1.
    10030    2    1    2    0    0  0.00000000000E+00  0.00000000000E+00  0.15041797569E+04  0.35749489826E+04  0.32431009061E+04 0.  0.
        2    1    3    3  502    0  0.13019695564E+04  0.37380571158E+03 -0.23050747017E+03  0.13740411673E+04  0.25500000920E-02 0.  1.
       -2    1    3    3    0  502 -0.13019695564E+04 -0.37380571158E+03  0.17346872270E+04  0.22009078153E+04  0.25500000920E-02 0. -1.
</event>
<event>
 5   0  0.1273980E-06  0.3179775E+04  0.7818609E-02  0.8194179E-01
        1   -1    0    0  501    0  0.00000000000E+00  0.00000000000E+00  0.16940200288E+04  0.16940200288E+04  0.50400001928E-02 0. -1.
       -1   -1    0    0    0  501  0.00000000000E+00  0.00000000000E+00 -0.14921562624E+04  0.14921562624E+04  0.50400001928E-02 0.  1.
    10030    2    1    2    0    0  0.00000000000E+00  0.00000000000E+00  0.20186376643E+03  0.31861762912E+04  0.31797752088E+04 0.  0.
        4    1    3    3  502    0 -0.45839756278E+02 -0.21415903078E+03 -0.14769684741E+04  0.14931185017E+04  0.12699999809E+01 0.  1.
       -4    1    3    3    0  502  0.45839756278E+02  0.21415903078E+03  0.16788322406E+04  0.16930577895E+04  0.12699999809E+01 0. -1.
</event>
<event>
 5   0  0.3656086E-06  0.3171694E+04  0.7818609E-02  0.8196333E-01
       -2   -1    0    0    0  501  0.00000000000E+00  0.00000000000E+00  0.10709791726E+04  0.10709791726E+04  0.25500000920E-02 0. -1.
        2   -1    0    0  501    0  0.00000000000E+00  0.00000000000E+00 -0.23482349142E+04  0.23482349142E+04  0.25500000920E-02 0.  1.
    10030    2    1    2    0    0  0.00000000000E+00  0.00000000000E+00 -0.12772557416E+04  0.34192140867E+04  0.31716939861E+04 0.  0.
        3    1    3    3  502    0  0.36784238915E+03  0.39017285148E+03 -0.22475350280E+04  0.23106182267E+04  0.10100000352E+00 0.  1.
       -3    1    3    3    0  502 -0.36784238915E+03 -0.39017285148E+03  0.97027928634E+03  0.11085958601E+04  0.10100000352E+00 0. -1.
</event>
<event>
 5   0  0.3745943E-06  0.3061925E+04  0.7818609E-02  0.8226266E-01
        2   -1    0    0  501    0  0.00000000000E+00  0.00000000000E+00  0.19419997195E+04  0.19419997195E+04  0.25500000920E-02 0.  1.
       -2   -1    0    0    0  501  0.00000000000E+00  0.00000000000E+00 -0.12069238312E+04  0.12069238312E+04  0.25500000920E-02 0. -1.
    10030    2    1    2    0    0  0.00000000000E+00  0.00000000000E+00  0.73507588833E+03  0.31489235507E+04  0.30619247160E+04 0.  0.
        5    1    3    3  502    0  0.26101933525E+03  0.10989548376E+04 -0.69526162355E+03  0.13263648229E+04  0.46999998093E+01 0. -1.
       -5    1    3    3    0  502 -0.26101933525E+03 -0.10989548376E+04  0.14303375119E+04  0.18225587278E+04  0.46999998093E+01 0.  1.
</event>
<event>
 5   0  0.3745943E-06  0.3738091E+04  0.7818609E-02  0.8059572E-01
        2   -1    0    0  501    0  0.00000000000E+00  0.00000000000E+00  0.28570838715E+04  0.28570838715E+04  0.25500000920E-02 0.  1.
       -2   -1    0    0    0  501  0.00000000000E+00  0.00000000000E+00 -0.12226911768E+04  0.12226911768E+04  0.25500000920E-02 0. -1.
    10030    2    1    2    0    0  0.00000000000E+00  0.00000000000E+00  0.16343926947E+04  0.40797750483E+04  0.37380910857E+04 0.  0.
        5    1    3    3  502    0  0.50185517245E+03 -0.51898701820E+03  0.26987571922E+04  0.27936568529E+04  0.46999998093E+01 0.  1.
       -5    1    3    3    0  502 -0.50185517245E+03  0.51898701820E+03 -0.10643644975E+04  0.12861181955E+04  0.46999998093E+01 0. -1.
</event>
<event>
 5   0  0.3531437E-06  0.3214039E+04  0.7818609E-02  0.8185119E-01
       -2   -1    0    0    0  501  0.00000000000E+00  0.00000000000E+00  0.24764315077E+04  0.24764315077E+04  0.25500000920E-02 0. -1.
        2   -1    0    0  501    0  0.00000000000E+00  0.00000000000E+00 -0.10428361598E+04  0.10428361598E+04  0.25500000920E-02 0.  1.
    10030    2    1    2    0    0  0.00000000000E+00  0.00000000000E+00  0.14335953479E+04  0.35192676675E+04  0.32140394045E+04 0.  0.
        1    1    3    3  502    0 -0.10086129581E+04  0.88837546147E+03 -0.24776914212E+03  0.13667116036E+04  0.50400001928E-02 0.  1.
       -1    1    3    3    0  502  0.10086129581E+04 -0.88837546147E+03  0.16813644900E+04  0.21525560638E+04  0.50400001928E-02 0. -1.
</event>
<event>
 5   0  0.1273980E-06  0.3007922E+04  0.7818609E-02  0.8241472E-01
       -1   -1    0    0    0  501  0.00000000000E+00  0.00000000000E+00  0.10873870163E+04  0.10873870163E+04  0.50400001928E-02 0.  1.
        1   -1    0    0  501    0  0.00000000000E+00  0.00000000000E+00 -0.20801226300E+04  0.20801226300E+04  0.50400001928E-02 0. -1.
    10030    2    1    2    0    0  0.00000000000E+00  0.00000000000E+00 -0.99273561364E+03  0.31675096463E+04  0.30079217677E+04 0.  0.
        4    1    3    3  502    0 -0.26147606791E+03  0.80847811824E+03  0.81039353023E+03  0.11742001058E+04  0.12699999809E+01 0.  1.
       -4    1    3    3    0  502  0.26147606791E+03 -0.80847811824E+03 -0.18031291439E+04  0.19933095405E+04  0.12699999809E+01 0. -1.
</event>
<event>
 5   0  0.1185575E-06  0.3200040E+04  0.7818609E-02  0.8188806E-01
        3   -1    0    0  501    0  0.00000000000E+00  0.00000000000E+00  0.17997532201E+04  0.17997532230E+04  0.10100000352E+00 0. -1.
       -3   -1    0    0    0  501  0.00000000000E+00  0.00000000000E+00 -0.14224532344E+04  0.14224532380E+04  0.10100000352E+00 0.  1.
    10030    2    1    2    0    0  0.00000000000E+00  0.00000000000E+00  0.37729998571E+03  0.32222064610E+04  0.32000404994E+04 0.  0.
        2    1    3    3  502    0 -0.26190189371E+03  0.26644944662E+03 -0.13779147917E+04  0.14276684078E+04  0.25500000920E-02 0.  1.
       -2    1    3    3    0  502  0.26190189371E+03 -0.26644944662E+03  0.17552147774E+04  0.17945380532E+04  0.25500000920E-02 0. -1.
</event>
<event>
 5   0  0.3745943E-06  0.3262637E+04  0.7818609E-02  0.8172468E-01
        2   -1    0    0  501    0  0.00000000000E+00  0.00000000000E+00  0.26291747320E+04  0.26291747320E+04  0.25500000920E-02 0. -1.
       -2   -1    0    0    0  501  0.00000000000E+00  0.00000000000E+00 -0.10121809479E+04  0.10121809479E+04  0.25500000920E-02 0.  1.
    10030    2    1    2    0    0  0.00000000000E+00  0.00000000000E+00  0.16169937841E+04  0.36413556799E+04  0.32626373212E+04 0.  0.
        5    1    3    3  502    0 -0.11605713802E+04  0.49505224640E+03 -0.34553780875E+03  0.13082129500E+04  0.46999998093E+01 0.  1.
       -5    1    3    3    0  502  0.11605713802E+04 -0.49505224640E+03  0.19625315928E+04  0.23331427299E+04  0.46999998093E+01 0. -1.
</event>
<event>
 5   0  0.3758062E-06  0.3221786E+04  0.7818609E-02  0.8183087E-01
       -2   -1    0    0    0  501  0.00000000000E+00  0.00000000000E+00  0.10917163618E+04  0.10917163618E+04  0.25500000920E-02 0.  1.
        2   -1    0    0  501    0  0.00000000000E+00  0.00000000000E+00 -0.23769695650E+04  0.23769695650E+04  0.25500000920E-02 0. -1.
    10030    2    1    2    0    0  0.00000000000E+00  0.00000000000E+00 -0.12852532032E+04  0.34686859267E+04  0.32217861912E+04 0.  0.
        2    1    3    3  502    0 -0.13549300120E+03 -0.14427603891E+04  0.11489928070E+03  0.14536566783E+04  0.25500000920E-02 0.  1.
       -2    1    3    3    0  502  0.13549300120E+03  0.14427603891E+04 -0.14001524839E+04  0.20150292484E+04  0.25500000920E-02 0. -1.
</event>
<event>
 5   0  0.3656086E-06  0.3170807E+04  0.7818609E-02  0.8196570E-01
        2   -1    0    0  501    0  0.00000000000E+00  0.00000000000E+00  0.23160704254E+04  0.23160704254E+04  0.25500000920E-02 0. -1.
       -2   -1    0    0    0  501  0.00000000000E+00  0.00000000000E+00 -0.10852450506E+04  0.10852450506E+04  0.25500000920E-02 0.  1.
    10030    2    1    2    0    0  0.00000000000E+00  0.00000000000E+00  0.12308253748E+04  0.34013154761E+04  0.31708068160E+04 0.  0.
        3    1    3    3  502    0  0.52945830027E+03 -0.13591656927E+04 -0.50909700786E+02  0.14595373512E+04  0.10100000352E+00 0.  1.
       -3    1    3    3    0  502 -0.52945830027E+03  0.13591656927E+04  0.12817350756E+04  0.19417781248E+04  0.10100000352E+00 0. -1.
</event>
<event>
 5   0  0.1268836E-06  0.3178139E+04  0.7818609E-02  0.8194615E-01
        1   -1    0    0  501    0  0.00000000000E+00  0.00000000000E+00  0.20258512549E+04  0.20258512550E+04  0.50400001928E-02 0. -1.
       -1   -1    0    0    0  501  0.00000000000E+00  0.00000000000E+00 -0.12464592831E+04  0.12464592832E+04  0.50400001928E-02 0.  1.
    10030    2    1    2    0    0  0.00000000000E+00  0.00000000000E+00  0.77939197180E+03  0.32723105381E+04  0.31781385137E+04 0.  0.
        1    1    3    3  502    0  0.11602040021E+04  0.77219484546E+03  0.11757186865E+04  0.18233684859E+04  0.50400001928E-02 0. -1.
       -1    1    3    3    0  502 -0.11602040021E+04 -0.77219484546E+03 -0.39632671468E+03  0.14489420522E+04  0.50400001928E-02 0.  1.
</event>
<event>
 5   0  0.3656086E-06  0.3236926E+04  0.7818609E-02  0.8179133E-01
       -2   -1    0    0    0  501  0.00000000000E+00  0.00000000000E+00  0.12801524135E+04  0.12801524135E+04  0.25500000920E-02 0.  1.
        2   -1    0    0  501    0  0.00000000000E+00  0.00000000000E+00 -0.20461802210E+04  0.20461802210E+04  0.25500000920E-02 0. -1.
    10030    2    1    2    0    0  0.00000000000E+00  0.00000000000E+00 -0.76602780758E+03  0.33263326345E+04  0.32369260408E+04 0.  0.
        3    1    3    3  502    0 -0.11386071385E+04 -0.13169340063E+03  0.79119890635E+03  0.13927544964E+04  0.10100000352E+00 0.  1.
       -3    1    3    3    0  502  0.11386071385E+04  0.13169340063E+03 -0.15572267139E+04  0.19335781381E+04  0.10100000352E+00 0. -1.
</event>
<event>
 5   0  0.3745943E-06  0.3199594E+04  0.7818609E-02  0.8188925E-01
       -2   -1    0    0    0  501  0.00000000000E+00  0.00000000000E+00  0.11379948170E+04  0.11379948170E+04  0.25500000920E-02 0. -1.
        2   -1    0    0  501    0  0.00000000000E+00  0.00000000000E+00 -0.22489995259E+04  0.22489995259E+04  0.25500000920E-02 0.  1.
    10030    2    1    2    0    0  0.00000000000E+00  0.00000000000E+00 -0.11110047089E+04  0.33869943429E+04  0.31995936016E+04 0.  0.
        5    1    3    3  502    0 -0.32363065049E+03  0.76907392986E+03  0.88940374177E+03  0.12195378688E+04  0.46999998093E+01 0. -1.
       -5    1    3    3    0  502  0.32363065049E+03 -0.76907392986E+03 -0.20004084507E+04  0.21674564741E+04  0.46999998093E+01 0.  1.
</event>
<event>
 5   0  0.1268836E-06  0.3182576E+04  0.7818609E-02  0.8193434E-01
       -1   -1    0    0    0  501  0.00000000000E+00  0.00000000000E+00  0.15745616695E+04  0.15745616695E+04  0.50400001928E-02 0. -1.
        1   -1    0    0  501    0  0.00000000000E+00  0.00000000000E+00 -0.16081915735E+04  0.16081915735E+04  0.50400001928E-02 0.  1.
    10030    2    1    2    0    0  0.00000000000E+00  0.00000000000E+00 -0.33629903994E+02  0.31827532430E+04  0.31825755664E+04 0.  0.
        1    1    3    3  502    0  0.11129428719E+04 -0.47187367845E+03  0.10180810713E+04  0.15804416067E+04  0.50400001928E-02 0. -1.
       -1    1    3    3    0  502 -0.11129428719E+04  0.47187367845E+03 -0.10517109753E+04  0.16023116363E+04  0.50400001928E-02 0.  1.
</event>
<event>
 5   0  0.1273754E-06  0.2911758E+04  0.7818609E-02  0.8269388E-01
       -1   -1    0    0    0  501  0.00000000000E+00  0.00000000000E+00  0.13932649191E+04  0.13932649191E+04  0.50400001928E-02 0.  1.
        1   -1    0    0  501    0  0.00000000000E+00  0.00000000000E+00 -0.15213068837E+04  0.15213068837E+04  0.50400001928E-02 0. -1.
    10030    2    1    2    0    0  0.00000000000E+00  0.00000000000E+00 -0.12804196453E+03  0.29145718028E+04  0.29117578967E+04 0.  0.
        2    1    3    3  502    0 -0.18045598469E+03 -0.14395825255E+04 -0.18505641318E+03  0.14626031883E+04  0.25500000920E-02 0.  1.
       -2    1    3    3    0  502  0.18045598469E+03  0.14395825255E+04  0.57014448647E+02  0.14519686145E+04  0.25500000920E-02 0. -1.
</event>
<event>
 5   0  0.3497546E-06  0.3223479E+04  0.7818609E-02  0.8182644E-01
       -2   -1    0    0    0  501  0.00000000000E+00  0.00000000000E+00  0.12862860335E+04  0.12862860335E+04  0.25500000920E-02 0.  1.
        2   -1    0    0  501    0  0.00000000000E+00  0.00000000000E+00 -0.20195380841E+04  0.20195380841E+04  0.25500000920E-02 0. -1.
    10030    2    1    2    0    0  0.00000000000E+00  0.00000000000E+00 -0.73325205058E+03  0.33058241176E+04  0.32234786376E+04 0.  0.
        4    1    3    3  502    0  0.14059918477E+04 -0.46614335272E+03 -0.10181496362E+04  0.17974239889E+04  0.12699999809E+01 0. -1.
       -4    1    3    3    0  502 -0.14059918477E+04  0.46614335272E+03  0.28489758565E+03  0.15084001287E+04  0.12699999809E+01 0.  1.
</event>
<event>
 5   0  0.3497546E-06  0.3245142E+04  0.7818609E-02  0.8176996E-01
        2   -1    0    0  501    0  0.00000000000E+00  0.00000000000E+00  0.17889753786E+04  0.17889753786E+04  0.25500000920E-02 0. -1.
       -2   -1    0    0    0  501  0.00000000000E+00  0.00000000000E+00 -0.14716453783E+04  0.14716453783E+04  0.25500000920E-02 0.  1.
    10030    2    1    2    0    0  0.00000000000E+00  0.00000000000E+00  0.31733000024E+03  0.32606207569E+04  0.32451424300E+04 0.  0.
        4    1    3    3  502    0 -0.93875004417E+03  0.28456367742E+03  0.14573109170E+04  0.17566971434E+04  0.12699999809E+01 0. -1.
       -4    1    3    3    0  502  0.93875004417E+03 -0.28456367742E+03 -0.11399809167E+04  0.15039236135E+04  0.12699999809E+01 0.  1.
</event>
<event>
 5   0  0.3758062E-06  0.3068333E+04  0.7818609E-02  0.8224483E-01
        2   -1    0    0  501    0  0.00000000000E+00  0.00000000000E+00  0.24715117193E+04  0.24715117193E+04  0.25500000920E-02 0. -1.
       -2   -1    0    0    0  501  0.00000000000E+00  0.00000000000E+00 -0.95231862377E+03  0.95231862377E+03  0.25500000920E-02 0.  1.
    10030    2    1    2    0    0  0.00000000000E+00  0.00000000000E+00  0.15191930956E+04  0.34238303431E+04  0.30683328628E+04 0.  0.
        2    1    3    3  502    0  0.61684611793E+03  0.30988965131E+03 -0.76922791729E+03  0.10335580864E+04  0.25500000920E-02 0.  1.
       -2    1    3    3    0  502 -0.61684611793E+03 -0.30988965131E+03  0.22884210129E+04  0.23902722567E+04  0.25500000920E-02 0. -1.
</event>
<event>
 5   0  0.3531437E-06  0.3202486E+04  0.7818609E-02  0.8188161E-01
       -2   -1    0    0    0  501  0.00000000000E+00  0.00000000000E+00  0.14257021523E+04  0.14257021523E+04  0.25500000920E-02 0. -1.
        2   -1    0    0  501    0  0.00000000000E+00  0.00000000000E+00 -0.17983975438E+04  0.17983975438E+04  0.25500000920E-02 0.  1.
    10030    2    1    2    0    0  0.00000000000E+00  0.00000000000E+00 -0.37269539154E+03  0.32240996961E+04  0.32024860648E+04 0.  0.
        1    1    3    3  502    0  0.21016485723E+03  0.67793386919E+03  0.12586846051E+04  0.14450088351E+04  0.50400001928E-02 0. -1.
       -1    1    3    3    0  502 -0.21016485723E+03 -0.67793386919E+03 -0.16313799966E+04  0.17790908610E+04  0.50400001928E-02 0.  1.
</event>
<event>
 5   0  0.3497546E-06  0.3162295E+04  0.7818609E-02  0.8198846E-01
       -2   -1    0    0    0  501  0.00000000000E+00  0.00000000000E+00  0.27860378462E+04  0.27860378462E+04  0.25500000920E-02 0.  1.
        2   -1    0    0  501    0  0.00000000000E+00  0.00000000000E+00 -0.89734175929E+03  0.89734175930E+03  0.25500000920E-02 0. -1.
    10030    2    1    2    0    0  0.00000000000E+00  0.00000000000E+00  0.18886960869E+04  0.36833796055E+04  0.31622954336E+04 0.  0.
        4    1    3    3  502    0  0.43990583625E+03  0.93906903402E+03  0.23346190139E+04  0.25545675462E+04  0.12699999809E+01 0.  1.
       -4    1    3    3    0  502 -0.43990583625E+03 -0.93906903402E+03 -0.44592292698E+03  0.11288120593E+04  0.12699999809E+01 0. -1.
</event>
<event>
 5   0  0.3656086E-06  0.3091821E+04  0.7818609E-02  0.8217986E-01
        2   -1    0    0  501    0  0.00000000000E+00  0.00000000000E+00  0.15905298605E+04  0.15905298605E+04  0.25500000920E-02 0.  1.
       -2   -1    0    0    0  501  0.00000000000E+00  0.00000000000E+00 -0.15025426906E+04  0.15025426906E+04  0.25500000920E-02 0. -1.
    10030    2    1    2    0    0  0.00000000000E+00  0.00000000000E+00  0.87987169897E+02  0.30930725511E+04  0.30918208332E+04 0.  0.
        3    1    3    3  502    0 -0.33791824531E+03 -0.55466980103E+03 -0.13594256238E+04  0.15066138740E+04  0.10100000352E+00 0. -1.
       -3    1    3    3    0  502  0.33791824531E+03  0.55466980103E+03  0.14474127937E+04  0.15864586771E+04  0.10100000352E+00 0.  1.
</event>
<event>
 5   0  0.1240725E-06  0.3204625E+04  0.7818609E-02  0.8187597E-01
       -1   -1    0    0    0  501  0.00000000000E+00  0.00000000000E+00  0.19755723662E+04  0.19755723662E+04  0.50400001928E-02 0. -1.
        1   -1    0    0  501    0  0.00000000000E+00  0.00000000000E+00 -0.12995753211E+04  0.12995753211E+04  0.50400001928E-02 0.  1.
    10030    2    1    2    0    0  0.00000000000E+00  0.00000000000E+00  0.67599704510E+03  0.32751476872E+04  0.32046248405E+04 0.  0.
        3    1    3    3  502    0 -0.46655482167E+02 -0.12522529947E+04  0.13585174057E+04  0.18482109859E+04  0.10100000352E+00 0. -1.
       -3    1    3    3    0  502  0.46655482167E+02  0.12522529947E+04 -0.68252036057E+03  0.14269367013E+04  0.10100000352E+00 0.  1.
</event>
<event>
 5   0  0.1240725E-06  0.2807968E+04  0.7818609E-02  0.8300799E-01
        1   -1    0    0  501    0  0.00000000000E+00  0.00000000000E+00  0.10992152095E+04  0.10992152095E+04  0.50400001928E-02 0.  1.
       -1   -1    0    0    0  501  0.00000000000E+00  0.00000000000E+00 -0.17932527025E+04  0.17932527025E+04  0.50400001928E-02 0. -1.
    10030    2    1    2    0    0  0.00000000000E+00  0.00000000000E+00 -0.69403749297E+03  0.28924679121E+04  0.28079676958E+04 0.  0.
        3    1    3    3  502    0 -0.14028679308E+04 -0.15747396067E+02 -0.40233985584E+03  0.14595080615E+04  0.10100000352E+00 0.  1.
       -3    1    3    3    0  502  0.14028679308E+04  0.15747396067E+02 -0.29169763713E+03  0.14329598506E+04  0.10100000352E+00 0. -1.
</event>
<event>
 5   0  0.1273980E-06  0.3289134E+04  0.7818609E-02  0.8165666E-01
        1   -1    0    0  501    0  0.00000000000E+00  0.00000000000E+00  0.15532805271E+04  0.15532805271E+04  0.50400001928E-02 0. -1.
       -1   -1    0    0    0  501  0.00000000000E+00  0.00000000000E+00 -0.17412180210E+04  0.17412180210E+04  0.50400001928E-02 0.  1.
    10030    2    1    2    0    0  0.00000000000E+00  0.00000000000E+00 -0.18793749390E+03  0.32944985482E+04  0.32891336522E+04 0.  0.
        4    1    3    3  502    0 -0.13150490005E+03  0.13953948322E+04 -0.95570811014E+03  0.16964079348E+04  0.12699999809E+01 0.  1.
       -4    1    3    3    0  502  0.13150490005E+03 -0.13953948322E+04  0.76777061625E+03  0.15980906134E+04  0.12699999809E+01 0. -1.
</event>
<event>
 5   0  0.1268836E-06  0.3224442E+04  0.7818609E-02  0.8182392E-01
        1   -1    0    0  501    0  0.00000000000E+00  0.00000000000E+00  0.23705106812E+04  0.23705106813E+04  0.50400001928E-02 0. -1.
       -1   -1    0    0    0  501  0.00000000000E+00  0.00000000000E+00 -0.10964962695E+04  0.10964962695E+04  0.50400001928E-02 0.  1.
    10030    2    1    2    0    0  0.00000000000E+00  0.00000000000E+00  0.12740144117E+04  0.34670069508E+04  0.32244417308E+04 0.  0.
        1    1    3    3  502    0 -0.35084051635E+03 -0.86713437583E+03  0.20488933298E+04  0.22523265684E+04  0.50400001928E-02 0. -1.
       -1    1    3    3    0  502  0.35084051635E+03  0.86713437583E+03 -0.77487891809E+03  0.12146803824E+04  0.50400001928E-02 0.  1.
</event>
<event>
 5   0  0.3531437E-06  0.3208033E+04  0.7818609E-02  0.8186699E-01
        2   -1    0    0  501    0  0.00000000000E+00  0.00000000000E+00  0.16686318995E+04  0.16686318995E+04  0.25500000920E-02 0.  1.
       -2   -1    0    0    0  501  0.00000000000E+00  0.00000000000E+00 -0.15419032383E+04  0.15419032383E+04  0.25500000920E-02 0. -1.
    10030    2    1    2    0    0  0.00000000000E+00  0.00000000000E+00  0.12672866118E+03  0.32105351378E+04  0.32080329982E+04 0.  0.
        1    1    3    3  502    0  0.62548072731E+03  0.14172351018E+04 -0.35299796760E+03  0.15888326027E+04  0.50400001928E-02 0. -1.
       -1    1    3    3    0  502 -0.62548072731E+03 -0.14172351018E+04  0.47972662878E+03  0.16217025351E+04  0.50400001928E-02 0.  1.
</event>
<event>
 5   0  0.3497546E-06  0.3221900E+04  0.7818609E-02  0.8183057E-01
       -2   -1    0    0    0  501  0.00000000000E+00  0.00000000000E+00  0.14380166617E+04  0.14380166617E+04  0.25500000920E-02 0. -1.
        2   -1    0    0  501    0  0.00000000000E+00  0.00000000000E+00 -0.18046800273E+04  0.18046800273E+04  0.25500000920E-02 0.  1.
    10030    2    1    2    0    0  0.00000000000E+00  0.00000000000E+00 -0.36666336554E+03  0.32426966890E+04  0.32219000284E+04 0.  0.
        4    1    3    3  502    0  0.61191169751E+03  0.40331244824E+03  0.12605228461E+04  0.14580865252E+04  0.12699999809E+01 0. -1.
       -4    1    3    3    0  502 -0.61191169751E+03 -0.40331244824E+03 -0.16271862116E+04  0.17846101638E+04  0.12699999809E+01 0.  1.
</event>
<event>
 5   0  0.3758062E-06  0.3152451E+04  0.7818609E-02  0.8201489E-01
        2   -1    0    0  501    0  0.00000000000E+00  0.00000000000E+00  0.15503176979E+04  0.15503176979E+04  0.25500000920E-02 0.  1.
       -2   -1    0    0    0  501  0.00000000000E+00  0.00000000000E+00 -0.16025663277E+04  0.16025663277E+04  0.25500000920E-02 0. -1.
    10030    2    1    2    0    0  0.00000000000E+00  0.00000000000E+00 -0.52248629755E+02  0.31528840256E+04  0.31524510718E+04 0.  0.
        2    1    3    3  502    0  0.85236786189E+03  0.96381547531E+03  0.88450372401E+03  0.15613513635E+04  0.25500000920E-02 0.  1.
       -2    1    3    3    0  502 -0.85236786189E+03 -0.96381547531E+03 -0.93675235377E+03  0.15915326622E+04  0.25500000920E-02 0. -1.
</event>
<event>
 5   0  0.1306843E-06  0.3212259E+04  0.7818609E-02  0.8185587E-01
       -1   -1    0    0    0  501  0.00000000000E+00  0.00000000000E+00  0.98765695195E+03  0.98765695197E+03  0.50400001928E-02 0.  1.
        1   -1    0    0  501    0  0.00000000000E+00  0.00000000000E+00 -0.26118911419E+04  0.26118911419E+04  0.50400001928E-02 0. -1.
    10030    2    1    2    0    0  0.00000000000E+00  0.00000000000E+00 -0.16242341899E+04  0.35995480939E+04  0.32122592947E+04 0.  0.
        5    1    3    3  502    0  0.32186036274E+03  0.63756201968E+03 -0.24241557281E+04  0.25271787642E+04  0.46999998093E+01 0. -1.
       -5    1    3    3    0  502 -0.32186036274E+03 -0.63756201968E+03  0.79992153816E+03  0.10723693297E+04  0.46999998093E+01 0.  1.
</event>
<event>
 5   0  0.1240725E-06  0.3242894E+04  0.7818609E-02  0.8177580E-01
        1   -1    0    0  501    0  0.00000000000E+00  0.00000000000E+00  0.22512449463E+04  0.22512449463E+04  0.50400001928E-02 0. -1.
       -1   -1    0    0    0  501  0.00000000000E+00  0.00000000000E+00 -0.11678387551E+04  0.11678387552E+04  0.50400001928E-02 0.  1.
    10030    2    1    2    0    0  0.00000000000E+00  0.00000000000E+00  0.10834061912E+04  0.34190837015E+04  0.32428944452E+04 0.  0.
        3    1    3    3  502    0 -0.80832414118E+03 -0.11636127593E+04  0.13730271129E+04  0.19729637690E+04  0.10100000352E+00 0. -1.
       -3    1    3    3    0  502  0.80832414118E+03  0.11636127593E+04 -0.28962092171E+03  0.14461199325E+04  0.10100000352E+00 0.  1.
</event>
<event>
 5   0  0.3531437E-06  0.3107085E+04  0.7818609E-02  0.8213796E-01
        2   -1    0    0  501    0  0.00000000000E+00  0.00000000000E+00  0.25286552859E+04  0.25286552859E+04  0.25500000920E-02 0. -1.
       -2   -1    0    0    0  501  0.00000000000E+00  0.00000000000E+00 -0.95445732546E+03  0.95445732546E+03  0.25500000920E-02 0.  1.
    10030    2    1    2    0    0  0.00000000000E+00  0.00000000000E+00  0.15741979605E+04  0.34831126114E+04  0.31070845249E+04 0.  0.
        1    1    3    3  502    0  0.20565573128E+03  0.11602587252E+04  0.19220474998E+04  0.22544979887E+04  0.50400001928E-02 0. -1.
       -1    1    3    3    0  502 -0.20565573128E+03 -0.11602587252E+04 -0.34784953937E+03  0.12286146227E+04  0.50400001928E-02 0.  1.
</event>
<event>
 5   0  0.1273980E-06  0.3191135E+04  0.7818609E-02  0.8191162E-01
        1   -1    0    0  501    0  0.00000000000E+00  0.00000000000E+00  0.20696884628E+04  0.20696884628E+04  0.50400001928E-02 0.  1.
       -1   -1    0    0    0  501  0.00000000000E+00  0.00000000000E+00 -0.12300577524E+04  0.12300577524E+04  0.50400001928E-02 0. -1.
    10030    2    1    2    0    0  0.00000000000E+00  0.00000000000E+00  0.83963071041E+03  0.32997462153E+04  0.31911354336E+04 0.  0.
        4    1    3    3  502    0 -0.59808422023E+03  0.78891519456E+03  0.17136998715E+04  0.19791060561E+04  0.12699999809E+01 0.  1.
       -4    1    3    3    0  502  0.59808422023E+03 -0.78891519456E+03 -0.87406916112E+03  0.13206401592E+04  0.12699999809E+01 0. -1.
</event>
<event>
 5   0  0.1240725E-06  0.3307246E+04  0.7818609E-02  0.8161054E-01
       -1   -1    0    0    0  501  0.00000000000E+00  0.00000000000E+00  0.11546339234E+04  0.11546339234E+04  0.50400001928E-02 0. -1.
        1   -1    0    0  501    0  0.00000000000E+00  0.00000000000E+00 -0.23682567219E+04  0.23682567219E+04  0.50400001928E-02 0.  1.
    10030    2    1    2    0    0  0.00000000000E+00  0.00000000000E+00 -0.12136227985E+04  0.35228906453E+04  0.33072463171E+04 0.  0.
        3    1    3    3  502    0 -0.12366709722E+04 -0.10938976379E+04 -0.50859059072E+03  0.17276086174E+04  0.10100000352E+00 0.  1.
       -3    1    3    3    0  502  0.12366709722E+04  0.10938976379E+04 -0.70503220776E+03  0.17952820279E+04  0.10100000352E+00 0. -1.
</event>
<event>
 5   0  0.1268836E-06  0.2690468E+04  0.7818609E-02  0.8338104E-01
       -1   -1    0    0    0  501  0.00000000000E+00  0.00000000000E+00  0.68075532665E+03  0.68075532667E+03  0.50400001928E-02 0.  1.
        1   -1    0    0  501    0  0.00000000000E+00  0.00000000000E+00 -0.26583037912E+04  0.26583037912E+04  0.50400001928E-02 0. -1.
    10030    2    1    2    0    0  0.00000000000E+00  0.00000000000E+00 -0.19775484646E+04  0.33390591179E+04  0.26904679636E+04 0.  0.
        1    1    3    3  502    0 -0.49613187501E+03  0.29341430200E+03  0.51973382617E+03  0.77611986195E+03  0.50400001928E-02 0.  1.
       -1    1    3    3    0  502  0.49613187501E+03 -0.29341430200E+03 -0.24972822908E+04  0.25629392560E+04  0.50400001928E-02 0. -1.
</event>
<event>
 5   0  0.1306843E-06  0.3219697E+04  0.7818609E-02  0.8183635E-01
       -1   -1    0    0    0  501  0.00000000000E+00  0.00000000000E+00  0.11797458361E+04  0.11797458361E+04  0.50400001928E-02 0. -1.
        1   -1    0    0  501    0  0.00000000000E+00  0.00000000000E+00 -0.21967546521E+04  0.21967546521E+04  0.50400001928E-02 0.  1.
    10030    2    1    2    0    0  0.00000000000E+00  0.00000000000E+00 -0.10170088160E+04  0.33765004882E+04  0.32196969756E+04 0.  0.
        5    1    3    3  502    0  0.15074484734E+04  0.56724190828E+02 -0.10979935277E+04  0.18658055662E+04  0.46999998093E+01 0.  1.
       -5    1    3    3    0  502 -0.15074484734E+04 -0.56724190828E+02  0.80984711690E+02  0.15106949220E+04  0.46999998093E+01 0. -1.
</event>
<event>
 5   0  0.1240725E-06  0.3240342E+04  0.7818609E-02  0.8178244E-01
        1   -1    0    0  501    0  0.00000000000E+00  0.00000000000E+00  0.20276778286E+04  0.20276778286E+04  0.50400001928E-02 0. -1.
       -1   -1    0    0    0  501  0.00000000000E+00  0.00000000000E+00 -0.12945616183E+04  0.12945616183E+04  0.50400001928E-02 0.  1.
    10030    2    1    2    0    0  0.00000000000E+00  0.00000000000E+00  0.73311621027E+03  0.33222394469E+04  0.32403418901E+04 0.  0.
        3    1    3    3  502    0 -0.27237844912E+03 -0.11398662406E+04  0.15135229621E+04  0.19142196408E+04  0.10100000352E+00 0. -1.
       -3    1    3    3    0  502  0.27237844912E+03  0.11398662406E+04 -0.78040675187E+03  0.14080198062E+04  0.10100000352E+00 0.  1.
</event>
<event>
 5   0  0.3497546E-06  0.2960387E+04  0.7818609E-02  0.8255134E-01
       -2   -1    0    0    0  501  0.00000000000E+00  0.00000000000E+00  0.15519479874E+04  0.15519479874E+04  0.25500000920E-02 0. -1.
        2   -1    0    0  501    0  0.00000000000E+00  0.00000000000E+00 -0.14117568351E+04  0.14117568351E+04  0.25500000920E-02 0.  1.
    10030    2    1    2    0    0  0.00000000000E+00  0.00000000000E+00  0.14019115227E+03  0.29637048225E+04  0.29603872578E+04 0.  0.
        4    1    3    3  502    0 -0.10649150903E+04  0.87572982060E+03  0.60923850314E+03  0.15073553114E+04  0.12699999809E+01 0.  1.
       -4    1    3    3    0  502  0.10649150903E+04 -0.87572982060E+03 -0.46904735087E+03  0.14563495111E+04  0.12699999809E+01 0. -1.
</event>
<event>
 5   0  0.3531437E-06  0.3151928E+04  0.7818609E-02  0.8201630E-01
        2   -1    0    0  501    0  0.00000000000E+00  0.00000000000E+00  0.12713113080E+04  0.12713113080E+04  0.25500000920E-02 0.  1.
       -2   -1    0    0    0  501  0.00000000000E+00  0.00000000000E+00 -0.19536221164E+04  0.19536221164E+04  0.25500000920E-02 0. -1.
    10030    2    1    2    0    0  0.00000000000E+00  0.00000000000E+00 -0.68231080843E+03  0.32249334245E+04  0.31519275932E+04 0.  0.
        1    1    3    3  502    0 -0.11633128885E+04 -0.69055932891E+03 -0.11682685683E+04  0.17874620307E+04  0.50400001928E-02 0. -1.
       -1    1    3    3    0  502  0.11633128885E+04  0.69055932891E+03  0.48595775992E+03  0.14374713937E+04  0.50400001928E-02 0.  1.
</event>
<event>
 5   0  0.1273980E-06  0.3165096E+04  0.7818609E-02  0.8198096E-01
       -1   -1    0    0    0  501  0.00000000000E+00  0.00000000000E+00  0.14731082989E+04  0.14731082989E+04  0.50400001928E-02 0.  1.
        1   -1    0    0  501    0  0.00000000000E+00  0.00000000000E+00 -0.17001184096E+04  0.17001184096E+04  0.50400001928E-02 0. -1.
    10030    2    1    2    0    0  0.00000000000E+00  0.00000000000E+00 -0.22701011068E+03  0.31732267085E+04  0.31650962312E+04 0.  0.
        4    1    3    3  502    0 -0.39371735824E+03  0.27851649800E+03 -0.16246500046E+04  0.16947194600E+04  0.12699999809E+01 0. -1.
       -4    1    3    3    0  502  0.39371735824E+03 -0.27851649800E+03  0.13976398939E+04  0.14785072485E+04  0.12699999809E+01 0.  1.
</event>
<event>
 5   0  0.3745943E-06  0.3151603E+04  0.7818609E-02  0.8201717E-01
        2   -1    0    0  501    0  0.00000000000E+00  0.00000000000E+00  0.16894878417E+04  0.16894878417E+04  0.25500000920E-02 0. -1.
       -2   -1    0    0    0  501  0.00000000000E+00  0.00000000000E+00 -0.14697653200E+04  0.14697653200E+04  0.25500000920E-02 0.  1.
    10030    2    1    2    0    0  0.00000000000E+00  0.00000000000E+00  0.21972252168E+03  0.31592531616E+04  0.31516031718E+04 0.  0.
        5    1    3    3  502    0 -0.70647287815E+03 -0.13072716268E+04  0.63560120228E+03  0.16161912054E+04  0.46999998093E+01 0. -1.
       -5    1    3    3    0  502  0.70647287815E+03  0.13072716268E+04 -0.41587868060E+03  0.15430619563E+04  0.46999998093E+01 0.  1.
</event>
<event>
 5   0  0.1273980E-06  0.3126538E+04  0.7818609E-02  0.8208492E-01
        1   -1    0    0  501    0  0.00000000000E+00  0.00000000000E+00  0.25611809241E+04  0.25611809241E+04  0.50400001928E-02 0.  1.
       -1   -1    0    0    0  501  0.00000000000E+00  0.00000000000E+00 -0.95417302026E+03  0.95417302027E+03  0.50400001928E-02 0. -1.
    10030    2    1    2    0    0  0.00000000000E+00  0.00000000000E+00  0.16070079039E+04  0.35153539444E+04  0.31265378538E+04 0.  0.
        4    1    3    3  502    0  0.89261376791E+02 -0.86469744006E+03 -0.65735892208E+03  0.10898585328E+04  0.12699999809E+01 0. -1.
       -4    1    3    3    0  502 -0.89261376791E+02  0.86469744006E+03  0.22643668260E+04  0.24254954116E+04  0.12699999809E+01 0.  1.
</event>
<event>
 5   0  0.1268836E-06  0.3185369E+04  0.7818609E-02  0.8192692E-01
       -1   -1    0    0    0  501  0.00000000000E+00  0.00000000000E+00  0.11115841995E+04  0.11115841995E+04  0.50400001928E-02 0. -1.
        1   -1    0    0  501    0  0.00000000000E+00  0.00000000000E+00 -0.22820080675E+04  0.22820080675E+04  0.50400001928E-02 0.  1.
    10030    2    1    2    0    0  0.00000000000E+00  0.00000000000E+00 -0.11704238680E+04  0.33935922670E+04  0.31853691221E+04 0.  0.
        1    1    3    3  502    0 -0.15378868286E+04 -0.30521299529E+03 -0.88350228509E+03  0.17996741810E+04  0.50400001928E-02 0. -1.
       -1    1    3    3    0  502  0.15378868286E+04  0.30521299529E+03 -0.28692158294E+03  0.15939180860E+04  0.50400001928E-02 0.  1.
</event>
<event>
 5   0  0.1268836E-06  0.3249728E+04  0.7818609E-02  0.8175806E-01
       -1   -1    0    0    0  501  0.00000000000E+00  0.00000000000E+00  0.11119940032E+04  0.11119940032E+04  0.50400001928E-02 0. -1.
        1   -1    0    0  501    0  0.00000000000E+00  0.00000000000E+00 -0.23742780863E+04  0.23742780863E+04  0.50400001928E-02 0.  1.
    10030    2    1    2    0    0  0.00000000000E+00  0.00000000000E+00 -0.12622840832E+04  0.34862720895E+04  0.32497279848E+04 0.  0.
        1    1    3    3  502    0 -0.85920024794E+03 -0.13230347460E+04 -0.10487546429E+04  0.18943421830E+04  0.50400001928E-02 0. -1.
       -1    1    3    3    0  502  0.85920024794E+03  0.13230347460E+04 -0.21352944026E+03  0.15919299065E+04  0.50400001928E-02 0.  1.
</event>
<event>
 5   0  0.1240725E-06  0.3173350E+04  0.7818609E-02  0.8195891E-01
       -1   -1    0    0    0  501  0.00000000000E+00  0.00000000000E+00  0.11302077022E+04  0.11302077022E+04  0.50400001928E-02 0.  1.
        1   -1    0    0  501    0  0.00000000000E+00  0.00000000000E+00 -0.22274998646E+04  0.22274998646E+04  0.50400001928E-02 0. -1.
    10030    2    1    2    0    0  0.00000000000E+00  0.00000000000E+00 -0.10972921624E+04  0.33577075668E+04  0.31733499672E+04 0.  0.
        3    1    3    3  502    0 -0.72945312182E+03 -0.13789137435E+04 -0.24192148448E+03  0.15786167945E+04  0.10100000352E+00 0. -1.
       -3    1    3    3    0  502  0.72945312182E+03  0.13789137435E+04 -0.85537067794E+03  0.17790907723E+04  0.10100000352E+00 0.  1.
</event>
<event>
 5   0  0.3745943E-06  0.3198298E+04  0.7818609E-02  0.8189267E-01
       -2   -1    0    0    0  501  0.00000000000E+00  0.00000000000E+00  0.15829077822E+04  0.15829077822E+04  0.25500000920E-02 0. -1.
        2   -1    0    0  501    0  0.00000000000E+00  0.00000000000E+00 -0.16155568941E+04  0.16155568941E+04  0.25500000920E-02 0.  1.
    10030    2    1    2    0    0  0.00000000000E+00  0.00000000000E+00 -0.32649111897E+02  0.31984646762E+04  0.31982980350E+04 0.  0.
        5    1    3    3  502    0 -0.26298895529E+03  0.78828037699E+03 -0.13826703666E+04  0.16131796478E+04  0.46999998093E+01 0.  1.
       -5    1    3    3    0  502  0.26298895529E+03 -0.78828037699E+03  0.13500212547E+04  0.15852850285E+04  0.46999998093E+01 0. -1.
</event>
<event>
 5   0  0.3531437E-06  0.3246182E+04  0.7818609E-02  0.8176726E-01
       -2   -1    0    0    0  501  0.00000000000E+00  0.00000000000E+00  0.92279388417E+03  0.92279388417E+03  0.25500000920E-02 0.  1.
        2   -1    0    0  501    0  0.00000000000E+00  0.00000000000E+00 -0.28548354109E+04  0.28548354109E+04  0.25500000920E-02 0. -1.
    10030    2    1    2    0    0  0.00000000000E+00  0.00000000000E+00 -0.19320415268E+04  0.37776292951E+04  0.32461821622E+04 0.  0.
        1    1    3    3  502    0  0.77890589368E+03  0.39584879284E+03  0.62577480166E+03  0.10747021729E+04  0.50400001928E-02 0.  1.
       -1    1    3    3    0  502 -0.77890589368E+03 -0.39584879284E+03 -0.25578163284E+04  0.27029271222E+04  0.50400001928E-02 0. -1.
</event>
<event>
 5   0  0.1273980E-06  0.3206019E+04  0.7818609E-02  0.8187229E-01
        1   -1    0    0  501    0  0.00000000000E+00  0.00000000000E+00  0.93873022849E+03  0.93873022850E+03  0.50400001928E-02 0.  1.
       -1   -1    0    0    0  501  0.00000000000E+00  0.00000000000E+00 -0.27373564282E+04  0.27373564282E+04  0.50400001928E-02 0. -1.
    10030    2    1    2    0    0  0.00000000000E+00  0.00000000000E+00 -0.17986261997E+04  0.36760866567E+04  0.32060188554E+04 0.  0.
        4    1    3    3  502    0  0.63027833428E+03 -0.14559725566E+04 -0.11621137659E+04  0.19666257605E+04  0.12699999809E+01 0. -1.
       -4    1    3    3    0  502 -0.63027833428E+03  0.14559725566E+04 -0.63651243377E+03  0.17094608961E+04  0.12699999809E+01 0.  1.
</event>
<event>
 5   0  0.1240725E-06  0.3226977E+04  0.7818609E-02  0.8181729E-01
        1   -1    0    0  501    0  0.00000000000E+00  0.00000000000E+00  0.22154516312E+04  0.22154516312E+04  0.50400001928E-02 0.  1.
       -1   -1    0    0    0  501  0.00000000000E+00  0.00000000000E+00 -0.11750856600E+04  0.11750856600E+04  0.50400001928E-02 0. -1.
    10030    2    1    2    0    0  0.00000000000E+00  0.00000000000E+00  0.10403659711E+04  0.33905372912E+04  0.32269771876E+04 0.  0.
        3    1    3    3  502    0  0.70307983473E+03 -0.24975309498E+03 -0.98293877521E+03  0.12340447757E+04  0.10100000352E+00 0. -1.
       -3    1    3    3    0  502 -0.70307983473E+03  0.24975309498E+03  0.20233047464E+04  0.21564925155E+04  0.10100000352E+00 0.  1.
</event>
<event>
 5   0  0.3745943E-06  0.3223254E+04  0.7818609E-02  0.8182703E-01
        2   -1    0    0  501    0  0.00000000000E+00  0.00000000000E+00  0.16222522135E+04  0.16222522135E+04  0.25500000920E-02 0.  1.
       -2   -1    0    0    0  501  0.00000000000E+00  0.00000000000E+00 -0.16010708933E+04  0.16010708933E+04  0.25500000920E-02 0. -1.
    10030    2    1    2    0    0  0.00000000000E+00  0.00000000000E+00  0.21181320232E+02  0.32233231068E+04  0.32232535120E+04 0.  0.
        5    1    3    3  502    0 -0.10544279510E+03  0.15823770272E+04 -0.27626648989E+03  0.16097765382E+04  0.46999998093E+01 0. -1.
       -5    1    3    3    0  502  0.10544279510E+03 -0.15823770272E+04  0.29744781012E+03  0.16135465686E+04  0.46999998093E+01 0.  1.
</event>
<event>
 5   0  0.1240725E-06  0.3165208E+04  0.7818609E-02  0.8198066E-01
        1   -1    0    0  501    0  0.00000000000E+00  0.00000000000E+00  0.26243840190E+04  0.26243840190E+04  0.50400001928E-02 0.  1.
       -1   -1    0    0    0  501  0.00000000000E+00  0.00000000000E+00 -0.95437097193E+03  0.95437097194E+03  0.50400001928E-02 0. -1.
    10030    2    1    2    0    0  0.00000000000E+00  0.00000000000E+00  0.16700130471E+04  0.35787549910E+04  0.31652083198E+04 0.  0.
        3    1    3    3  502    0  0.14408476851E+04 -0.63669515943E+03  0.10072713478E+04  0.18697642515E+04  0.10100000352E+00 0. -1.
       -3    1    3    3    0  502 -0.14408476851E+04  0.63669515943E+03  0.66274169926E+03  0.17089907395E+04  0.10100000352E+00 0.  1.
</event>
<event>
 5   0  0.1240725E-06  0.3209625E+04  0.7818609E-02  0.8186280E-01
       -1   -1    0    0    0  501  0.00000000000E+00  0.00000000000E+00  0.20129105403E+04  0.20129105403E+04  0.50400001928E-02 0.  1.
        1   -1    0    0  501    0  0.00000000000E+00  0.00000000000E+00 -0.12794519789E+04  0.12794519790E+04  0.50400001928E-02 0. -1.
    10030    2    1    2    0    0  0.00000000000E+00  0.00000000000E+00  0.73345856136E+03  0.32923625193E+04  0.32096245103E+04 0.  0.
        3    1    3    3  502    0  0.71364301545E+03 -0.52407539445E+03  0.17396944613E+04  0.19520446208E+04  0.10100000352E+00 0.  1.
       -3    1    3    3    0  502 -0.71364301545E+03  0.52407539445E+03 -0.10062358999E+04  0.13403178985E+04  0.10100000352E+00 0. -1.
</event>
<event>
 5   0  0.3497546E-06  0.3208578E+04  0.7818609E-02  0.8186555E-01
        2   -1    0    0  501    0  0.00000000000E+00  0.00000000000E+00  0.16726038577E+04  0.16726038577E+04  0.25500000920E-02 0.  1.
       -2   -1    0    0    0  501  0.00000000000E+00  0.00000000000E+00 -0.15387645107E+04  0.15387645107E+04  0.25500000920E-02 0. -1.
    10030    2    1    2    0    0  0.00000000000E+00  0.00000000000E+00  0.13383934696E+03  0.32113683684E+04  0.32085781628E+04 0.  0.
        4    1    3    3  502    0 -0.73510823743E+03 -0.10391684060E+03 -0.13564840676E+04  0.15463613643E+04  0.12699999809E+01 0. -1.
       -4    1    3    3    0  502  0.73510823743E+03  0.10391684060E+03  0.14903234146E+04  0.16650070040E+04  0.12699999809E+01 0.  1.
</event>
<event>
 5   0  0.3758062E-06  0.3174876E+04  0.7818609E-02  0.8195484E-01
       -2   -1    0    0    0  501  0.00000000000E+00  0.00000000000E+00  0.18542197138E+04  0.18542197139E+04  0.25500000920E-02 0. -1.
        2   -1    0    0  501    0  0.00000000000E+00  0.00000000000E+00 -0.13590403404E+04  0.13590403404E+04  0.25500000920E-02 0.  1.
    10030    2    1    2    0    0  0.00000000000E+00  0.00000000000E+00  0.49517937342E+03  0.32132600543E+04  0.31748759920E+04 0.  0.
        2    1    3    3  502    0 -0.42056282877E+03 -0.42932064722E+03  0.17346284974E+04  0.18357901119E+04  0.25500000920E-02 0. -1.
       -2    1    3    3    0  502  0.42056282877E+03  0.42932064722E+03 -0.12394491240E+04  0.13774699423E+04  0.25500000920E-02 0.  1.
</event>
<event>
 5   0  0.1273754E-06  0.3163814E+04  0.7818609E-02  0.8198440E-01
        1   -1    0    0  501    0  0.00000000000E+00  0.00000000000E+00  0.22291217451E+04  0.22291217451E+04  0.50400001928E-02 0.  1.
       -1   -1    0    0    0  501  0.00000000000E+00  0.00000000000E+00 -0.11226080275E+04  0.11226080275E+04  0.50400001928E-02 0. -1.
    10030    2    1    2    0    0  0.00000000000E+00  0.00000000000E+00  0.11065137175E+04  0.33517297726E+04  0.31638141320E+04 0.  0.
        2    1    3    3  502    0 -0.12238433783E+04  0.30421587998E+02 -0.50810277758E+03  0.13254759598E+04  0.25500000920E-02 0. -1.
       -2    1    3    3    0  502  0.12238433783E+04 -0.30421587998E+02  0.16146164951E+04  0.20262538128E+04  0.25500000920E-02 0.  1.
</event>
<event>
 5   0  0.3758062E-06  0.3191350E+04  0.7818609E-02  0.8191105E-01
        2   -1    0    0  501    0  0.00000000000E+00  0.00000000000E+00  0.15986365225E+04  0.15986365225E+04  0.25500000920E-02 0.  1.
       -2   -1    0    0    0  501  0.00000000000E+00  0.00000000000E+00 -0.15927185740E+04  0.15927185740E+04  0.25500000920E-02 0. -1.
    10030    2    1    2    0    0  0.00000000000E+00  0.00000000000E+00  0.59179484668E+01  0.31913550965E+04  0.31913496095E+04 0.  0.
        2    1    3    3  502    0 -0.45211245482E+03  0.64450812404E+03  0.13909028899E+04  0.15982513078E+04  0.25500000920E-02 0.  1.
       -2    1    3    3    0  502  0.45211245482E+03 -0.64450812404E+03 -0.13849849414E+04  0.15931037887E+04  0.25500000920E-02 0. -1.
</event>
<event>
 5   0  0.1273754E-06  0.3192137E+04  0.7818609E-02  0.8190897E-01
       -1   -1    0    0    0  501  0.00000000000E+00  0.00000000000E+00  0.10875889270E+04  0.10875889270E+04  0.50400001928E-02 0.  1.
        1   -1    0    0  501    0  0.00000000000E+00  0.00000000000E+00 -0.23422764942E+04  0.23422764942E+04  0.50400001928E-02 0. -1.
    10030    2    1    2    0    0  0.00000000000E+00  0.00000000000E+00 -0.12546875672E+04  0.34298654212E+04  0.31921365754E+04 0.  0.
        2    1    3    3  502    0 -0.12211149739E+04 -0.83021717418E+03  0.23623559176E+02  0.14768007342E+04  0.25500000920E-02 0. -1.
       -2    1    3    3    0  502  0.12211149739E+04  0.83021717418E+03 -0.12783111264E+04  0.19530646870E+04  0.25500000920E-02 0.  1.
</event>
<event>
 5   0  0.1185575E-06  0.3193078E+04  0.7818609E-02  0.8190648E-01
        3   -1    0    0  501    0  0.00000000000E+00  0.00000000000E+00  0.17256548061E+04  0.17256548091E+04  0.10100000352E+00 0. -1.
       -3   -1    0    0    0  501  0.00000000000E+00  0.00000000000E+00 -0.14770838763E+04  0.14770838798E+04  0.10100000352E+00 0.  1.
    10030    2    1    2    0    0  0.00000000000E+00  0.00000000000E+00  0.24857092983E+03  0.32027386888E+04  0.31930780764E+04 0.  0.
        5    1    3    3  502    0  0.40207453518E+03  0.77313960134E+03 -0.12174860008E+04  0.14972317880E+04  0.46999998093E+01 0.  1.
       -5    1    3    3    0  502 -0.40207453518E+03 -0.77313960134E+03  0.14660569306E+04  0.17055069008E+04  0.46999998093E+01 0. -1.
</event>
<event>
 5   0  0.1268836E-06  0.3218007E+04  0.7818609E-02  0.8184078E-01
        1   -1    0    0  501    0  0.00000000000E+00  0.00000000000E+00  0.19492519443E+04  0.19492519443E+04  0.50400001928E-02 0.  1.
       -1   -1    0    0    0  501  0.00000000000E+00  0.00000000000E+00 -0.13281463466E+04  0.13281463466E+04  0.50400001928E-02 0. -1.
    10030    2    1    2    0    0  0.00000000000E+00  0.00000000000E+00  0.62110559770E+03  0.32773982909E+04  0.32180067423E+04 0.  0.
        1    1    3    3  502    0 -0.11122372489E+04 -0.30535420251E+03 -0.83201638647E+03  0.14221688206E+04  0.50400001928E-02 0.  1.
       -1    1    3    3    0  502  0.11122372489E+04  0.30535420251E+03  0.14531219842E+04  0.18552294704E+04  0.50400001928E-02 0. -1.
</event>
<event>
 5   0  0.3758062E-06  0.3182010E+04  0.7818609E-02  0.8193585E-01
        2   -1    0    0  501    0  0.00000000000E+00  0.00000000000E+00  0.18886335425E+04  0.18886335425E+04  0.25500000920E-02 0. -1.
       -2   -1    0    0    0  501  0.00000000000E+00  0.00000000000E+00 -0.13402795366E+04  0.13402795367E+04  0.25500000920E-02 0.  1.
    10030    2    1    2    0    0  0.00000000000E+00  0.00000000000E+00  0.54835400589E+03  0.32289130792E+04  0.31820099870E+04 0.  0.
        2    1    3    3  502    0 -0.57689904335E+03  0.12570723086E+04  0.10720580348E+04  0.17499576353E+04  0.25500000920E-02 0. -1.
       -2    1    3    3    0  502  0.57689904335E+03 -0.12570723086E+04 -0.52370402888E+03  0.14789554439E+04  0.25500000920E-02 0.  1.
</event>
<event>
 5   0  0.3497546E-06  0.3116121E+04  0.7818609E-02  0.8211328E-01
       -2   -1    0    0    0  501  0.00000000000E+00  0.00000000000E+00  0.10459563948E+04  0.10459563948E+04  0.25500000920E-02 0.  1.
        2   -1    0    0  501    0  0.00000000000E+00  0.00000000000E+00 -0.23208925395E+04  0.23208925395E+04  0.25500000920E-02 0. -1.
    10030    2    1    2    0    0  0.00000000000E+00  0.00000000000E+00 -0.12749361448E+04  0.33668489343E+04  0.31161209176E+04 0.  0.
        4    1    3    3  502    0 -0.90749159974E+02 -0.14856313189E+04 -0.11352020877E+04  0.18719031007E+04  0.12699999809E+01 0. -1.
       -4    1    3    3    0  502  0.90749159974E+02  0.14856313189E+04 -0.13973405708E+03  0.14949458336E+04  0.12699999809E+01 0.  1.
</event>
<event>
 5   0  0.3531437E-06  0.3211713E+04  0.7818609E-02  0.8185731E-01
        2   -1    0    0  501    0  0.00000000000E+00  0.00000000000E+00  0.79159833618E+03  0.79159833619E+03  0.25500000920E-02 0. -1.
       -2   -1    0    0    0  501  0.00000000000E+00  0.00000000000E+00 -0.32576816511E+04  0.32576816511E+04  0.25500000920E-02 0.  1.
    10030    2    1    2    0    0  0.00000000000E+00  0.00000000000E+00 -0.24660833149E+04  0.40492799872E+04  0.32117131720E+04 0.  0.
        1    1    3    3  502    0  0.31908278943E+03 -0.14669994329E+04 -0.19516606215E+04  0.24622916854E+04  0.50400001928E-02 0. -1.
       -1    1    3    3    0  502 -0.31908278943E+03  0.14669994329E+04 -0.51442269336E+03  0.15869883018E+04  0.50400001928E-02 0.  1.
</event>
<event>
 5   0  0.3531437E-06  0.2637132E+04  0.7818609E-02  0.8355696E-01
        2   -1    0    0  501    0  0.00000000000E+00  0.00000000000E+00  0.25142699828E+04  0.25142699828E+04  0.25500000920E-02 0.  1.
       -2   -1    0    0    0  501  0.00000000000E+00  0.00000000000E+00 -0.69149965245E+03  0.69149965245E+03  0.25500000920E-02 0. -1.
    10030    2    1    2    0    0  0.00000000000E+00  0.00000000000E+00  0.18227703303E+04  0.32057696352E+04  0.26371323966E+04 0.  0.
        1    1    3    3  502    0 -0.11467722636E+04  0.36113968591E+02  0.17012865062E+04  0.20520152581E+04  0.50400001928E-02 0.  1.
       -1    1    3    3    0  502  0.11467722636E+04 -0.36113968591E+02  0.12148382417E+03  0.11537543772E+04  0.50400001928E-02 0. -1.
</event>
<event>
 5   0  0.1273754E-06  0.3276359E+04  0.7818609E-02  0.8168937E-01
        1   -1    0    0  501    0  0.00000000000E+00  0.00000000000E+00  0.19607332512E+04  0.19607332512E+04  0.50400001928E-02 0.  1.
       -1   -1    0    0    0  501  0.00000000000E+00  0.00000000000E+00 -0.13686881765E+04  0.13686881765E+04  0.50400001928E-02 0. -1.
    10030    2    1    2    0    0  0.00000000000E+00  0.00000000000E+00  0.59204507475E+03  0.33294214277E+04  0.32763592099E+04 0.  0.
        2    1    3    3  502    0  0.15517579803E+04 -0.29158304264E+03  0.73973928585E+03  0.17436134065E+04  0.25500000920E-02 0.  1.
       -2    1    3    3    0  502 -0.15517579803E+04  0.29158304264E+03 -0.14769421110E+03  0.15858080212E+04  0.25500000920E-02 0. -1.
</event>
<event>
 5   0  0.1273754E-06  0.3207006E+04  0.7818609E-02  0.8186969E-01
        1   -1    0    0  501    0  0.00000000000E+00  0.00000000000E+00  0.18713689263E+04  0.18713689263E+04  0.50400001928E-02 0.  1.
       -1   -1    0    0    0  501  0.00000000000E+00  0.00000000000E+00 -0.13739788140E+04  0.13739788141E+04  0.50400001928E-02 0. -1.
    10030    2    1    2    0    0  0.00000000000E+00  0.00000000000E+00  0.49739011228E+03  0.32453477404E+04  0.32070056177E+04 0.  0.
        2    1    3    3  502    0  0.13681540056E+04 -0.83038073284E+03  0.34909674179E+03  0.16380616837E+04  0.25500000920E-02 0. -1.
       -2    1    3    3    0  502 -0.13681540056E+04  0.83038073284E+03  0.14829337048E+03  0.16072860567E+04  0.25500000920E-02 0.  1.
</event>
<event>
 5   0  0.3531437E-06  0.3183334E+04  0.7818609E-02  0.8193233E-01
        2   -1    0    0  501    0  0.00000000000E+00  0.00000000000E+00  0.20448979746E+04  0.20448979746E+04  0.25500000920E-02 0. -1.
       -2   -1    0    0    0  501  0.00000000000E+00  0.00000000000E+00 -0.12388898217E+04  0.12388898218E+04  0.25500000920E-02 0.  1.
    10030    2    1    2    0    0  0.00000000000E+00  0.00000000000E+00  0.80600815282E+03  0.32837877963E+04  0.31833336534E+04 0.  0.
        1    1    3    3  502    0  0.13870242455E+04 -0.26229930777E+03 -0.35556940143E+03  0.14557014748E+04  0.50400001928E-02 0.  1.
       -1    1    3    3    0  502 -0.13870242455E+04  0.26229930777E+03  0.11615775543E+04  0.18280863215E+04  0.50400001928E-02 0. -1.
</event>
<event>
 5   0  0.3745943E-06  0.3163958E+04  0.7818609E-02  0.8198401E-01
       -2   -1    0    0    0  501  0.00000000000E+00  0.00000000000E+00  0.10845994274E+04  0.10845994274E+04  0.25500000920E-02 0.  1.
        2   -1    0    0  501    0  0.00000000000E+00  0.00000000000E+00 -0.23074485003E+04  0.23074485003E+04  0.25500000920E-02 0. -1.
    10030    2    1    2    0    0  0.00000000000E+00  0.00000000000E+00 -0.12228490729E+04  0.33920479277E+04  0.31639578519E+04 0.  0.
        5    1    3    3  502    0 -0.78106930351E+02 -0.14353339803E+04  0.96764551709E+02  0.14407184999E+04  0.46999998093E+01 0.  1.
       -5    1    3    3    0  502  0.78106930351E+02  0.14353339803E+04 -0.13196136246E+04  0.19513294278E+04  0.46999998093E+01 0. -1.
</event>
<event>
 5   0  0.3497546E-06  0.3186665E+04  0.7818609E-02  0.8192348E-01
       -2   -1    0    0    0  501  0.00000000000E+00  0.00000000000E+00  0.21563508240E+04  0.21563508240E+04  0.25500000920E-02 0. -1.
        2   -1    0    0  501    0  0.00000000000E+00  0.00000000000E+00 -0.11773167658E+04  0.11773167658E+04  0.25500000920E-02 0.  1.
    10030    2    1    2    0    0  0.00000000000E+00  0.00000000000E+00  0.97903405825E+03  0.33336675898E+04  0.31866647003E+04 0.  0.
        4    1    3    3  502    0 -0.82789744318E+03 -0.18493592932E+03  0.19004718988E+04  0.20812041047E+04  0.12699999809E+01 0. -1.
       -4    1    3    3    0  502  0.82789744318E+03  0.18493592932E+03 -0.92143784060E+03  0.12524634850E+04  0.12699999809E+01 0.  1.
</event>
<event>
 5   0  0.1268836E-06  0.3177603E+04  0.7818609E-02  0.8194757E-01
       -1   -1    0    0    0  501  0.00000000000E+00  0.00000000000E+00  0.12456308821E+04  0.12456308821E+04  0.50400001928E-02 0.  1.
        1   -1    0    0  501    0  0.00000000000E+00  0.00000000000E+00 -0.20265150562E+04  0.20265150562E+04  0.50400001928E-02 0. -1.
    10030    2    1    2    0    0  0.00000000000E+00  0.00000000000E+00 -0.78088417411E+03  0.32721459383E+04  0.31776027045E+04 0.  0.
        1    1    3    3  502    0  0.39115931183E+03  0.58730890162E+03 -0.18562955401E+04  0.19858928686E+04  0.50400001928E-02 0. -1.
       -1    1    3    3    0  502 -0.39115931183E+03 -0.58730890162E+03  0.10754113660E+04  0.12862530697E+04  0.50400001928E-02 0.  1.
</event>
<event>
 5   0  0.3656086E-06  0.3036361E+04  0.7818609E-02  0.8233423E-01
        2   -1    0    0  501    0  0.00000000000E+00  0.00000000000E+00  0.20841901276E+04  0.20841901276E+04  0.25500000920E-02 0. -1.
       -2   -1    0    0    0  501  0.00000000000E+00  0.00000000000E+00 -0.11058837192E+04  0.11058837192E+04  0.25500000920E-02 0.  1.
    10030    2    1    2    0    0  0.00000000000E+00  0.00000000000E+00  0.97830640835E+03  0.31900738468E+04  0.30363609337E+04 0.  0.
        3    1    3    3  502    0  0.18271451811E+03 -0.11376865188E+04 -0.54940167579E+03  0.12765411947E+04  0.10100000352E+00 0.  1.
       -3    1    3    3    0  502 -0.18271451811E+03  0.11376865188E+04  0.15277080841E+04  0.19135326521E+04  0.10100000352E+00 0. -1.
</event>
<event>
 5   0  0.3531437E-06  0.3195952E+04  0.7818609E-02  0.8189887E-01
        2   -1    0    0  501    0  0.00000000000E+00  0.00000000000E+00  0.21561258362E+04  0.21561258362E+04  0.25500000920E-02 0. -1.
       -2   -1    0    0    0  501  0.00000000000E+00  0.00000000000E+00 -0.11843125559E+04  0.11843125560E+04  0.25500000920E-02 0.  1.
    10030    2    1    2    0    0  0.00000000000E+00  0.00000000000E+00  0.97181328023E+03  0.33404383921E+04  0.31959517518E+04 0.  0.
        1    1    3    3  502    0  0.48593904875E+03 -0.13000086769E+03 -0.10994005123E+04  0.12090154967E+04  0.50400001928E-02 0.  1.
       -1    1    3    3    0  502 -0.48593904875E+03  0.13000086769E+03  0.20712137926E+04  0.21314228954E+04  0.50400001928E-02 0. -1.
</event>
<event>
 5   0  0.1273980E-06  0.2958337E+04  0.7818609E-02  0.8255729E-01
        1   -1    0    0  501    0  0.00000000000E+00  0.00000000000E+00  0.94437058414E+03  0.94437058415E+03  0.50400001928E-02 0. -1.
       -1   -1    0    0    0  501  0.00000000000E+00  0.00000000000E+00 -0.23168236410E+04  0.23168236410E+04  0.50400001928E-02 0.  1.
    10030    2    1    2    0    0  0.00000000000E+00  0.00000000000E+00 -0.13724530568E+04  0.32611942251E+04  0.29583374353E+04 0.  0.
        4    1    3    3  502    0 -0.15102553522E+03  0.14502173562E+04 -0.41173897079E+03  0.15150807521E+04  0.12699999809E+01 0. -1.
       -4    1    3    3    0  502  0.15102553522E+03 -0.14502173562E+04 -0.96071408604E+03  0.17461134730E+04  0.12699999809E+01 0.  1.
</event>
<event>
 5   0  0.3656086E-06  0.3201983E+04  0.7818609E-02  0.8188294E-01
        2   -1    0    0  501    0  0.00000000000E+00  0.00000000000E+00  0.27198889074E+04  0.27198889074E+04  0.25500000920E-02 0. -1.
       -2   -1    0    0    0  501  0.00000000000E+00  0.00000000000E+00 -0.94238190292E+03  0.94238190292E+03  0.25500000920E-02 0.  1.
    10030    2    1    2    0    0  0.00000000000E+00  0.00000000000E+00  0.17775070045E+04  0.36622708103E+04  0.32019831881E+04 0.  0.
        3    1    3    3  502    0  0.56802123375E+03  0.13853635180E+04  0.24044363528E+03  0.15164739863E+04  0.10100000352E+00 0.  1.
       -3    1    3    3    0  502 -0.56802123375E+03 -0.13853635180E+04  0.15370633692E+04  0.21457968241E+04  0.10100000352E+00 0. -1.
</event>
<event>
 5   0  0.3531437E-06  0.3024164E+04  0.7818609E-02  0.8236864E-01
        2   -1    0    0  501    0  0.00000000000E+00  0.00000000000E+00  0.31592002785E+04  0.31592002785E+04  0.25500000920E-02 0. -1.
       -2   -1    0    0    0  501  0.00000000000E+00  0.00000000000E+00 -0.72372489005E+03  0.72372489006E+03  0.25500000920E-02 0.  1.
    10030    2    1    2    0    0  0.00000000000E+00  0.00000000000E+00  0.24354753884E+04  0.38829251686E+04  0.30241639335E+04 0.  0.
        1    1    3    3  502    0  0.14603983260E+04  0.10591916968E+03  0.73320450815E+03  0.16375503021E+04  0.50400001928E-02 0.  1.
       -1    1    3    3    0  502 -0.14603983260E+04 -0.10591916968E+03  0.17022708803E+04  0.22453748665E+04  0.50400001928E-02 0. -1.
</event>
<event>
 5   0  0.1273754E-06  0.3210761E+04  0.7818609E-02  0.8185981E-01
       -1   -1    0    0    0  501  0.00000000000E+00  0.00000000000E+00  0.18459870617E+04  0.18459870617E+04  0.50400001928E-02 0. -1.
        1   -1    0    0  501    0  0.00000000000E+00  0.00000000000E+00 -0.13961343131E+04  0.13961343131E+04  0.50400001928E-02 0.  1.
    10030    2    1    2    0    0  0.00000000000E+00  0.00000000000E+00  0.44985274865E+03  0.32421213748E+04  0.32107605818E+04 0.  0.
        2    1    3    3  502    0 -0.30182032874E+03  0.98362411613E+03 -0.10194389527E+04  0.14484017712E+04  0.25500000920E-02 0.  1.
       -2    1    3    3    0  502  0.30182032874E+03 -0.98362411613E+03  0.14692917013E+04  0.17937196036E+04  0.25500000920E-02 0. -1.
</event>
<event>
 5   0  0.3745943E-06  0.3201789E+04  0.7818609E-02  0.8188345E-01
       -2   -1    0    0    0  501  0.00000000000E+00  0.00000000000E+00  0.15282383832E+04  0.15282383832E+04  0.25500000920E-02 0. -1.
        2   -1    0    0  501    0  0.00000000000E+00  0.00000000000E+00 -0.16770044197E+04  0.16770044197E+04  0.25500000920E-02 0.  1.
    10030    2    1    2    0    0  0.00000000000E+00  0.00000000000E+00 -0.14876603650E+03  0.32052428029E+04  0.32017885770E+04 0.  0.
        5    1    3    3  502    0  0.50411277921E+03 -0.15159392953E+04 -0.17763881375E+03  0.16074138482E+04  0.46999998093E+01 0. -1.
       -5    1    3    3    0  502 -0.50411277921E+03  0.15159392953E+04  0.28872777252E+02  0.15978289547E+04  0.46999998093E+01 0.  1.
</event>
<event>
 5   0  0.1268836E-06  0.3065136E+04  0.7818609E-02  0.8225372E-01
       -1   -1    0    0    0  501  0.00000000000E+00  0.00000000000E+00  0.15465646422E+04  0.15465646422E+04  0.50400001928E-02 0. -1.
        1   -1    0    0  501    0  0.00000000000E+00  0.00000000000E+00 -0.15186979751E+04  0.15186979751E+04  0.50400001928E-02 0.  1.
    10030    2    1    2    0    0  0.00000000000E+00  0.00000000000E+00  0.27866667140E+02  0.30652626173E+04  0.30651359451E+04 0.  0.
        1    1    3    3  502    0  0.14130051633E+03 -0.12262184436E+04 -0.89450229387E+03  0.15243726123E+04  0.50400001928E-02 0.  1.
       -1    1    3    3    0  502 -0.14130051633E+03  0.12262184436E+04  0.92236896101E+03  0.15408900050E+04  0.50400001928E-02 0. -1.
</event>
<event>
 5   0  0.3531437E-06  0.3218640E+04  0.7818609E-02  0.8183912E-01
       -2   -1    0    0    0  501  0.00000000000E+00  0.00000000000E+00  0.10313784083E+04  0.10313784084E+04  0.25500000920E-02 0. -1.
        2   -1    0    0  501    0  0.00000000000E+00  0.00000000000E+00 -0.25111154916E+04  0.25111154916E+04  0.25500000920E-02 0.  1.
    10030    2    1    2    0    0  0.00000000000E+00  0.00000000000E+00 -0.14797370833E+04  0.35424939000E+04  0.32186396499E+04 0.  0.
        1    1    3    3  502    0 -0.10909763461E+04 -0.77366690006E+01  0.56222440892E+03  0.12273489845E+04  0.50400001928E-02 0. -1.
       -1    1    3    3    0  502  0.10909763461E+04  0.77366690006E+01 -0.20419614922E+04  0.23151449154E+04  0.50400001928E-02 0.  1.
</event>
<event>
 5   0  0.3758062E-06  0.2956563E+04  0.7818609E-02  0.8256244E-01
       -2   -1    0    0    0  501  0.00000000000E+00  0.00000000000E+00  0.15383773873E+04  0.15383773873E+04  0.25500000920E-02 0. -1.
        2   -1    0    0  501    0  0.00000000000E+00  0.00000000000E+00 -0.14205332864E+04  0.14205332864E+04  0.25500000920E-02 0.  1.
    10030    2    1    2    0    0  0.00000000000E+00  0.00000000000E+00  0.11784410095E+03  0.29589106737E+04  0.29565630626E+04 0.  0.
        2    1    3    3  502    0  0.13081441217E+04  0.49795922259E+03 -0.41696772544E+03  0.14605021446E+04  0.25500000920E-02 0. -1.
       -2    1    3    3    0  502 -0.13081441217E+04 -0.49795922259E+03  0.53481182639E+03  0.14984085291E+04  0.25500000920E-02 0.  1.
</event>
<event>
 5   0  0.1306843E-06  0.3240387E+04  0.7818609E-02  0.8178232E-01
        1   -1    0    0  501    0  0.00000000000E+00  0.00000000000E+00  0.18145767212E+04  0.18145767212E+04  0.50400001928E-02 0. -1.
       -1   -1    0    0    0  501  0.00000000000E+00  0.00000000000E+00 -0.14466333298E+04  0.14466333298E+04  0.50400001928E-02 0.  1.
    10030    2    1    2    0    0  0.00000000000E+00  0.00000000000E+00  0.36794339141E+03  0.32612100511E+04  0.32403871154E+04 0.  0.
        5    1    3    3  502    0 -0.39364699076E+03 -0.13072379541E+04 -0.69408879025E+03  0.15315385600E+04  0.46999998093E+01 0.  1.
       -5    1    3    3    0  502  0.39364699076E+03  0.13072379541E+04  0.10620321817E+04  0.17296714910E+04  0.46999998093E+01 0. -1.
</event>
<event>
 5   0  0.1240725E-06  0.3134635E+04  0.7818609E-02  0.8206297E-01
       -1   -1    0    0    0  501  0.00000000000E+00  0.00000000000E+00  0.79964673731E+03  0.79964673732E+03  0.50400001928E-02 0.  1.
        1   -1    0    0  501    0  0.00000000000E+00  0.00000000000E+00 -0.30719609961E+04  0.30719609961E+04  0.50400001928E-02 0. -1.
    10030    2    1    2    0    0  0.00000000000E+00  0.00000000000E+00 -0.22723142588E+04  0.38716077334E+04  0.31346346439E+04 0.  0.
        3    1    3    3  502    0  0.64237077766E+03 -0.28355202691E+02  0.62924149834E+03  0.89966055095E+03  0.10100000352E+00 0.  1.
       -3    1    3    3    0  502 -0.64237077766E+03  0.28355202691E+02 -0.29015557571E+04  0.29719471825E+04  0.10100000352E+00 0. -1.
</event>
<event>
 5   0  0.3656086E-06  0.3277130E+04  0.7818609E-02  0.8168739E-01
       -2   -1    0    0    0  501  0.00000000000E+00  0.00000000000E+00  0.12823950998E+04  0.12823950998E+04  0.25500000920E-02 0. -1.
        2   -1    0    0  501    0  0.00000000000E+00  0.00000000000E+00 -0.20936572474E+04  0.20936572474E+04  0.25500000920E-02 0.  1.
    10030    2    1    2    0    0  0.00000000000E+00  0.00000000000E+00 -0.81126214758E+03  0.33760523472E+04  0.32771303268E+04 0.  0.
        3    1    3    3  502    0  0.15137220633E+04 -0.11979196995E+03 -0.10400039045E+04  0.18404653576E+04  0.10100000352E+00 0.  1.
       -3    1    3    3    0  502 -0.15137220633E+04  0.11979196995E+03  0.22874175690E+03  0.15355869896E+04  0.10100000352E+00 0. -1.
</event>
<event>
 5   0  0.3745943E-06  0.3212635E+04  0.7818609E-02  0.8185488E-01
       -2   -1    0    0    0  501  0.00000000000E+00  0.00000000000E+00  0.17599714993E+04  0.17599714993E+04  0.25500000920E-02 0.  1.
        2   -1    0    0  501    0  0.00000000000E+00  0.00000000000E+00 -0.14660778032E+04  0.14660778032E+04  0.25500000920E-02 0. -1.
    10030    2    1    2    0    0  0.00000000000E+00  0.00000000000E+00  0.29389369618E+03  0.32260493025E+04  0.32126345260E+04 0.  0.
        5    1    3    3  502    0  0.13347508264E+04 -0.89174296554E+03  0.20608055093E+03  0.16184117427E+04  0.46999998093E+01 0.  1.
       -5    1    3    3    0  502 -0.13347508264E+04  0.89174296554E+03  0.87813145243E+02  0.16076375598E+04  0.46999998093E+01 0. -1.
</event>
<event>
 5   0  0.1306843E-06  0.3164654E+04  0.7818609E-02  0.8198215E-01
       -1   -1    0    0    0  501  0.00000000000E+00  0.00000000000E+00  0.20325456060E+04  0.20325456060E+04  0.50400001928E-02 0.  1.
        1   -1    0    0  501    0  0.00000000000E+00  0.00000000000E+00 -0.12318337470E+04  0.12318337470E+04  0.50400001928E-02 0. -1.
    10030    2    1    2    0    0  0.00000000000E+00  0.00000000000E+00  0.80071185895E+03  0.32643793530E+04  0.31646537060E+04 0.  0.
        5    1    3    3  502    0  0.21225148850E+03  0.12316097547E+04 -0.60070163251E+03  0.13866426445E+04  0.46999998093E+01 0. -1.
       -5    1    3    3    0  502 -0.21225148850E+03 -0.12316097547E+04  0.14014134915E+04  0.18777367085E+04  0.46999998093E+01 0.  1.
</event>
<event>
 5   0  0.3531437E-06  0.3221065E+04  0.7818609E-02  0.8183276E-01
       -2   -1    0    0    0  501  0.00000000000E+00  0.00000000000E+00  0.15905972141E+04  0.15905972141E+04  0.25500000920E-02 0.  1.
        2   -1    0    0  501    0  0.00000000000E+00  0.00000000000E+00 -0.16307178913E+04  0.16307178913E+04  0.25500000920E-02 0. -1.
    10030    2    1    2    0    0  0.00000000000E+00  0.00000000000E+00 -0.40120677212E+02  0.32213151055E+04  0.32210652493E+04 0.  0.
        1    1    3    3  502    0  0.32716954913E+03  0.15507812638E+04  0.26606130007E+03  0.16070939790E+04  0.50400001928E-02 0. -1.
       -1    1    3    3    0  502 -0.32716954913E+03 -0.15507812638E+04 -0.30618197728E+03  0.16142211265E+04  0.50400001928E-02 0.  1.
</event>
<event>
 5   0  0.1268836E-06  0.3164648E+04  0.7818609E-02  0.8198216E-01
       -1   -1    0    0    0  501  0.00000000000E+00  0.00000000000E+00  0.11030078294E+04  0.11030078294E+04  0.50400001928E-02 0.  1.
        1   -1    0    0  501    0  0.00000000000E+00  0.00000000000E+00 -0.22699291148E+04  0.22699291148E+04  0.50400001928E-02 0. -1.
    10030    2    1    2    0    0  0.00000000000E+00  0.00000000000E+00 -0.11669212854E+04  0.33729369442E+04  0.31646482179E+04 0.  0.
        1    1    3    3  502    0  0.48253066552E+03  0.11894873067E+04 -0.15695771070E+04  0.20276311772E+04  0.50400001928E-02 0. -1.
       -1    1    3    3    0  502 -0.48253066552E+03 -0.11894873067E+04  0.40265582158E+03  0.13453057670E+04  0.50400001928E-02 0.  1.
</event>
<event>
 5   0  0.3656086E-06  0.3224724E+04  0.7818609E-02  0.8182318E-01
        2   -1    0    0  501    0  0.00000000000E+00  0.00000000000E+00  0.14552008525E+04  0.14552008525E+04  0.25500000920E-02 0. -1.
       -2   -1    0    0    0  501  0.00000000000E+00  0.00000000000E+00 -0.17864963613E+04  0.17864963613E+04  0.25500000920E-02 0.  1.
    10030    2    1    2    0    0  0.00000000000E+00  0.00000000000E+00 -0.33129550880E+03  0.32416972137E+04  0.32247238814E+04 0.  0.
        3    1    3    3  502    0  0.13575596030E+04 -0.24958058730E+03  0.67207667053E+03  0.15352347073E+04  0.10100000352E+00 0. -1.
       -3    1    3    3    0  502 -0.13575596030E+04  0.24958058730E+03 -0.10033721793E+04  0.17064625064E+04  0.10100000352E+00 0.  1.
</event>
<event>
 5   0  0.3497546E-06  0.3177412E+04  0.7818609E-02  0.8194808E-01
       -2   -1    0    0    0  501  0.00000000000E+00  0.00000000000E+00  0.23021199336E+04  0.23021199336E+04  0.25500000920E-02 0. -1.
        2   -1    0    0  501    0  0.00000000000E+00  0.00000000000E+00 -0.10963753265E+04  0.10963753266E+04  0.25500000920E-02 0.  1.
    10030    2    1    2    0    0  0.00000000000E+00  0.00000000000E+00  0.12057446071E+04  0.33984952602E+04  0.31774124655E+04 0.  0.
        4    1    3    3  502    0 -0.19107675510E+03  0.51907152355E+03  0.21958063351E+04  0.22644011675E+04  0.12699999809E+01 0. -1.
       -4    1    3    3    0  502  0.19107675510E+03 -0.51907152355E+03 -0.99006172805E+03  0.11340940927E+04  0.12699999809E+01 0.  1.
</event>
<event>
 5   0  0.3758062E-06  0.3215510E+04  0.7818609E-02  0.8184733E-01
        2   -1    0    0  501    0  0.00000000000E+00  0.00000000000E+00  0.24978371763E+04  0.24978371763E+04  0.25500000920E-02 0. -1.
       -2   -1    0    0    0  501  0.00000000000E+00  0.00000000000E+00 -0.10348456662E+04  0.10348456662E+04  0.25500000920E-02 0.  1.
    10030    2    1    2    0    0  0.00000000000E+00  0.00000000000E+00  0.14629915101E+04  0.35326828425E+04  0.32155098985E+04 0.  0.
        2    1    3    3  502    0  0.14748165047E+04  0.38489700524E+03  0.12934646841E+04  0.19990698627E+04  0.25500000920E-02 0. -1.
       -2    1    3    3    0  502 -0.14748165047E+04 -0.38489700524E+03  0.16952682606E+03  0.15336129798E+04  0.25500000920E-02 0.  1.
</event>
<event>
 5   0  0.3497546E-06  0.3196939E+04  0.7818609E-02  0.8189626E-01
       -2   -1    0    0    0  501  0.00000000000E+00  0.00000000000E+00  0.90146833950E+03  0.90146833950E+03  0.25500000920E-02 0.  1.
        2   -1    0    0  501    0  0.00000000000E+00  0.00000000000E+00 -0.28343805532E+04  0.28343805532E+04  0.25500000920E-02 0. -1.
    10030    2    1    2    0    0  0.00000000000E+00  0.00000000000E+00 -0.19329122137E+04  0.37358488927E+04  0.31969387425E+04 0.  0.
        4    1    3    3  502    0  0.84151507423E+03 -0.95866135648E+03 -0.20921260602E+04  0.24503412582E+04  0.12699999809E+01 0. -1.
       -4    1    3    3    0  502 -0.84151507423E+03  0.95866135648E+03  0.15921384657E+03  0.12855076345E+04  0.12699999809E+01 0.  1.
</event>
<event>
 5   0  0.3531437E-06  0.3195399E+04  0.7818609E-02  0.8190033E-01
       -2   -1    0    0    0  501  0.00000000000E+00  0.00000000000E+00  0.89507779293E+03  0.89507779294E+03  0.25500000920E-02 0.  1.
        2   -1    0    0  501    0  0.00000000000E+00  0.00000000000E+00 -0.28518676633E+04  0.28518676633E+04  0.25500000920E-02 0. -1.
    10030    2    1    2    0    0  0.00000000000E+00  0.00000000000E+00 -0.19567898704E+04  0.37469454562E+04  0.31953988257E+04 0.  0.
        1    1    3    3  502    0 -0.18524251623E+03  0.15622392846E+04 -0.13053336151E+04  0.20442118821E+04  0.50400001928E-02 0. -1.
       -1    1    3    3    0  502  0.18524251623E+03 -0.15622392846E+04 -0.65145625521E+03  0.17027335741E+04  0.50400001928E-02 0.  1.
</event>
<event>
 5   0  0.1306843E-06  0.3217877E+04  0.7818609E-02  0.8184112E-01
        1   -1    0    0  501    0  0.00000000000E+00  0.00000000000E+00  0.25919508654E+04  0.25919508654E+04  0.50400001928E-02 0.  1.
       -1   -1    0    0    0  501  0.00000000000E+00  0.00000000000E+00 -0.99873905089E+03  0.99873905091E+03  0.50400001928E-02 0. -1.
    10030    2    1    2    0    0  0.00000000000E+00  0.00000000000E+00  0.15932118145E+04  0.35906899163E+04  0.32178766585E+04 0.  0.
        5    1    3    3  502    0 -0.64926226640E+03  0.71239148649E+03 -0.64090943994E+03  0.11575103113E+04  0.46999998093E+01 0. -1.
       -5    1    3    3    0  502  0.64926226640E+03 -0.71239148649E+03  0.22341212544E+04  0.24331796050E+04  0.46999998093E+01 0.  1.
</event>
<event>
 5   0  0.1268836E-06  0.3157370E+04  0.7818609E-02  0.8200167E-01
        1   -1    0    0  501    0  0.00000000000E+00  0.00000000000E+00  0.16568684485E+04  0.16568684485E+04  0.50400001928E-02 0. -1.
       -1   -1    0    0    0  501  0.00000000000E+00  0.00000000000E+00 -0.15041910855E+04  0.15041910855E+04  0.50400001928E-02 0.  1.
    10030    2    1    2    0    0  0.00000000000E+00  0.00000000000E+00  0.15267736298E+03  0.31610595340E+04  0.31573702665E+04 0.  0.
        1    1    3    3  502    0  0.61780923694E+03  0.63864678425E+03  0.13827345483E+04  0.16436279383E+04  0.50400001928E-02 0. -1.
       -1    1    3    3    0  502 -0.61780923694E+03 -0.63864678425E+03 -0.12300571854E+04  0.15174315957E+04  0.50400001928E-02 0.  1.
</event>
<event>
 5   0  0.3531437E-06  0.3230350E+04  0.7818609E-02  0.8180847E-01
        2   -1    0    0  501    0  0.00000000000E+00  0.00000000000E+00  0.19088796669E+04  0.19088796669E+04  0.25500000920E-02 0. -1.
       -2   -1    0    0    0  501  0.00000000000E+00  0.00000000000E+00 -0.13666605464E+04  0.13666605464E+04  0.25500000920E-02 0.  1.
    10030    2    1    2    0    0  0.00000000000E+00  0.00000000000E+00  0.54221912052E+03  0.32755402132E+04  0.32303501534E+04 0.  0.
        1    1    3    3  502    0 -0.31705126644E+03  0.11610077654E+04  0.13633646931E+04  0.18185774175E+04  0.50400001928E-02 0. -1.
       -1    1    3    3    0  502  0.31705126644E+03 -0.11610077654E+04 -0.82114557260E+03  0.14569627958E+04  0.50400001928E-02 0.  1.
</event>
<event>
 5   0  0.1273754E-06  0.3208427E+04  0.7818609E-02  0.8186595E-01
       -1   -1    0    0    0  501  0.00000000000E+00  0.00000000000E+00  0.12333453082E+04  0.12333453082E+04  0.50400001928E-02 0. -1.
        1   -1    0    0  501    0  0.00000000000E+00  0.00000000000E+00 -0.20866019911E+04  0.20866019911E+04  0.50400001928E-02 0.  1.
    10030    2    1    2    0    0  0.00000000000E+00  0.00000000000E+00 -0.85325668288E+03  0.33199472993E+04  0.32084268892E+04 0.  0.
        2    1    3    3  502    0 -0.11272791015E+04  0.86287253658E+03  0.34646416622E+03  0.14612818365E+04  0.25500000920E-02 0. -1.
       -2    1    3    3    0  502  0.11272791015E+04 -0.86287253658E+03 -0.11997208491E+04  0.18586654629E+04  0.25500000920E-02 0.  1.
</event>
<event>
 5   0  0.1240725E-06  0.3211341E+04  0.7818609E-02  0.8185829E-01
        1   -1    0    0  501    0  0.00000000000E+00  0.00000000000E+00  0.12882811650E+04  0.12882811650E+04  0.50400001928E-02 0.  1.
       -1   -1    0    0    0  501  0.00000000000E+00  0.00000000000E+00 -0.20012536854E+04  0.20012536854E+04  0.50400001928E-02 0. -1.
    10030    2    1    2    0    0  0.00000000000E+00  0.00000000000E+00 -0.71297252038E+03  0.32895348504E+04  0.32113407974E+04 0.  0.
        3    1    3    3  502    0  0.27805912346E+03 -0.15680172595E+04 -0.56687080151E+03  0.16903660899E+04  0.10100000352E+00 0. -1.
       -3    1    3    3    0  502 -0.27805912346E+03  0.15680172595E+04 -0.14610171887E+03  0.15991687605E+04  0.10100000352E+00 0.  1.
</event>
<event>
 5   0  0.1273980E-06  0.3322163E+04  0.7818609E-02  0.8157279E-01
       -1   -1    0    0    0  501  0.00000000000E+00  0.00000000000E+00  0.13632313103E+04  0.13632313103E+04  0.50400001928E-02 0. -1.
        1   -1    0    0  501    0  0.00000000000E+00  0.00000000000E+00 -0.20240080414E+04  0.20240080414E+04  0.50400001928E-02 0.  1.
    10030    2    1    2    0    0  0.00000000000E+00  0.00000000000E+00 -0.66077673105E+03  0.33872393517E+04  0.33221626296E+04 0.  0.
        4    1    3    3  502    0 -0.82177235612E+03  0.13988086579E+04  0.33269131517E+02  0.16226780071E+04  0.12699999809E+01 0. -1.
       -4    1    3    3    0  502  0.82177235612E+03 -0.13988086579E+04 -0.69404586257E+03  0.17645613446E+04  0.12699999809E+01 0.  1.
</event>
<event>
 5   0  0.3531437E-06  0.2973781E+04  0.7818609E-02  0.8251258E-01
       -2   -1    0    0    0  501  0.00000000000E+00  0.00000000000E+00  0.16556399387E+04  0.16556399387E+04  0.25500000920E-02 0. -1.
        2   -1    0    0  501    0  0.00000000000E+00  0.00000000000E+00 -0.13353404552E+04  0.13353404553E+04  0.25500000920E-02 0.  1.
    10030    2    1    2    0    0  0.00000000000E+00  0.00000000000E+00  0.32029948349E+03  0.29909803940E+04  0.29737807515E+04 0.  0.
        1    1    3    3  502    0  0.97410774128E+02 -0.14823404999E+03  0.16449607548E+04  0.16544963214E+04  0.50400001928E-02 0. -1.
       -1    1    3    3    0  502 -0.97410774128E+02  0.14823404999E+03 -0.13246612713E+04  0.13364840726E+04  0.50400001928E-02 0.  1.
</event>
<event>
 5   0  0.1273754E-06  0.3131143E+04  0.7818609E-02  0.8207243E-01
       -1   -1    0    0    0  501  0.00000000000E+00  0.00000000000E+00  0.15404191576E+04  0.15404191576E+04  0.50400001928E-02 0. -1.
        1   -1    0    0  501    0  0.00000000000E+00  0.00000000000E+00 -0.15911344061E+04  0.15911344061E+04  0.50400001928E-02 0.  1.
    10030    2    1    2    0    0  0.00000000000E+00  0.00000000000E+00 -0.50715248501E+02  0.31315535637E+04  0.31311428721E+04 0.  0.
        2    1    3    3  502    0 -0.28231898865E+03  0.81315935882E+03 -0.13332300940E+04  0.15869576673E+04  0.25500000920E-02 0.  1.
       -2    1    3    3    0  502  0.28231898865E+03 -0.81315935882E+03  0.12825148455E+04  0.15445958964E+04  0.25500000920E-02 0. -1.
</event>
<event>
 5   0  0.1306843E-06  0.3102156E+04  0.7818609E-02  0.8215146E-01
       -1   -1    0    0    0  501  0.00000000000E+00  0.00000000000E+00  0.31112588667E+04  0.31112588667E+04  0.50400001928E-02 0.  1.
        1   -1    0    0  501    0  0.00000000000E+00  0.00000000000E+00 -0.77326991546E+03  0.77326991548E+03  0.50400001928E-02 0. -1.
    10030    2    1    2    0    0  0.00000000000E+00  0.00000000000E+00  0.23379889512E+04  0.38845287821E+04  0.31021559476E+04 0.  0.
        5    1    3    3  502    0 -0.61382260160E+03  0.70236064803E+03 -0.38279374849E+03  0.10082865714E+04  0.46999998093E+01 0. -1.
       -5    1    3    3    0  502  0.61382260160E+03 -0.70236064803E+03  0.27207826997E+04  0.28762422108E+04  0.46999998093E+01 0.  1.
</event>
<event>
 5   0  0.1306843E-06  0.3179711E+04  0.7818609E-02  0.8194196E-01
       -1   -1    0    0    0  501  0.00000000000E+00  0.00000000000E+00  0.16108365553E+04  0.16108365553E+04  0.50400001928E-02 0. -1.
        1   -1    0    0  501    0  0.00000000000E+00  0.00000000000E+00 -0.15691479114E+04  0.15691479114E+04  0.50400001928E-02 0.  1.
    10030    2    1    2    0    0  0.00000000000E+00  0.00000000000E+00  0.41688643935E+02  0.31799844667E+04  0.31797111921E+04 0.  0.
        5    1    3    3  502    0 -0.13901501208E+04  0.66614464332E+03 -0.36822983396E+03  0.15848915877E+04  0.46999998093E+01 0.  1.
       -5    1    3    3    0  502  0.13901501208E+04 -0.66614464332E+03  0.40991847790E+03  0.15950928790E+04  0.46999998093E+01 0. -1.
</event>
<event>
 5   0  0.3531437E-06  0.3152184E+04  0.7818609E-02  0.8201561E-01
        2   -1    0    0  501    0  0.00000000000E+00  0.00000000000E+00  0.23852356880E+04  0.23852356880E+04  0.25500000920E-02 0.  1.
       -2   -1    0    0    0  501  0.00000000000E+00  0.00000000000E+00 -0.10414342845E+04  0.10414342845E+04  0.25500000920E-02 0. -1.
    10030    2    1    2    0    0  0.00000000000E+00  0.00000000000E+00  0.13438014035E+04  0.34266699725E+04  0.31521841457E+04 0.  0.
        1    1    3    3  502    0 -0.15397051778E+04  0.21195094387E+03  0.38748697753E+03  0.16017994241E+04  0.50400001928E-02 0.  1.
       -1    1    3    3    0  502  0.15397051778E+04 -0.21195094387E+03  0.95631442593E+03  0.18248705484E+04  0.50400001928E-02 0. -1.
</event>
<event>
 5   0  0.1306843E-06  0.2902171E+04  0.7818609E-02  0.8272232E-01
        1   -1    0    0  501    0  0.00000000000E+00  0.00000000000E+00  0.20111286337E+04  0.20111286337E+04  0.50400001928E-02 0.  1.
       -1   -1    0    0    0  501  0.00000000000E+00  0.00000000000E+00 -0.10469989153E+04  0.10469989153E+04  0.50400001928E-02 0. -1.
    10030    2    1    2    0    0  0.00000000000E+00  0.00000000000E+00  0.96412971843E+03  0.30581275490E+04  0.29021712548E+04 0.  0.
        5    1    3    3  502    0 -0.13421017263E+04 -0.50541421894E+03  0.71519308118E+03  0.16025616399E+04  0.46999998093E+01 0.  1.
       -5    1    3    3    0  502  0.13421017263E+04  0.50541421894E+03  0.24893663724E+03  0.14555659091E+04  0.46999998093E+01 0. -1.
</event>
<event>
 5   0  0.3758062E-06  0.3158228E+04  0.7818609E-02  0.8199937E-01
       -2   -1    0    0    0  501  0.00000000000E+00  0.00000000000E+00  0.10889954477E+04  0.10889954477E+04  0.25500000920E-02 0.  1.
        2   -1    0    0  501    0  0.00000000000E+00  0.00000000000E+00 -0.22898174056E+04  0.22898174056E+04  0.25500000920E-02 0. -1.
    10030    2    1    2    0    0  0.00000000000E+00  0.00000000000E+00 -0.12008219579E+04  0.33788128533E+04  0.31582278137E+04 0.  0.
        2    1    3    3  502    0 -0.44134661215E+03  0.13424788922E+04 -0.13543017732E+04  0.19573374009E+04  0.25500000920E-02 0. -1.
       -2    1    3    3    0  502  0.44134661215E+03 -0.13424788922E+04  0.15347981535E+03  0.14214754524E+04  0.25500000920E-02 0.  1.
</event>
<event>
 5   0  0.1273754E-06  0.3168980E+04  0.7818609E-02  0.8197058E-01
       -1   -1    0    0    0  501  0.00000000000E+00  0.00000000000E+00  0.10354798589E+04  0.10354798590E+04  0.50400001928E-02 0.  1.
        1   -1    0    0  501    0  0.00000000000E+00  0.00000000000E+00 -0.24245840812E+04  0.24245840812E+04  0.50400001928E-02 0. -1.
    10030    2    1    2    0    0  0.00000000000E+00  0.00000000000E+00 -0.13891042222E+04  0.34600639401E+04  0.31689796354E+04 0.  0.
        2    1    3    3  502    0  0.88312396476E+03 -0.10769861220E+04  0.13035873764E+03  0.13988568349E+04  0.25500000920E-02 0.  1.
       -2    1    3    3    0  502 -0.88312396476E+03  0.10769861220E+04 -0.15194629599E+04  0.20612071052E+04  0.25500000920E-02 0. -1.
</event>
<event>
 5   0  0.3745943E-06  0.3223150E+04  0.7818609E-02  0.8182730E-01
        2   -1    0    0  501    0  0.00000000000E+00  0.00000000000E+00  0.25389234552E+04  0.25389234552E+04  0.25500000920E-02 0.  1.
       -2   -1    0    0    0  501  0.00000000000E+00  0.00000000000E+00 -0.10229427370E+04  0.10229427370E+04  0.25500000920E-02 0. -1.
    10030    2    1    2    0    0  0.00000000000E+00  0.00000000000E+00  0.15159807183E+04  0.35618661922E+04  0.32231495828E+04 0.  0.
        5    1    3    3  502    0 -0.14773914421E+04  0.19915666014E+03  0.81442843947E+02  0.14929848879E+04  0.46999998093E+01 0.  1.
       -5    1    3    3    0  502  0.14773914421E+04 -0.19915666014E+03  0.14345378743E+04  0.20688813043E+04  0.46999998093E+01 0. -1.
</event>
<event>
 5   0  0.3497546E-06  0.3129572E+04  0.7818609E-02  0.8207669E-01
       -2   -1    0    0    0  501  0.00000000000E+00  0.00000000000E+00  0.16572878285E+04  0.16572878285E+04  0.25500000920E-02 0.  1.
        2   -1    0    0  501    0  0.00000000000E+00  0.00000000000E+00 -0.14774474745E+04  0.14774474745E+04  0.25500000920E-02 0. -1.
    10030    2    1    2    0    0  0.00000000000E+00  0.00000000000E+00  0.17984035407E+03  0.31347353030E+04  0.31295723137E+04 0.  0.
        4    1    3    3  502    0 -0.40637235683E+03 -0.20627385362E+03  0.15893422373E+04  0.16533897772E+04  0.12699999809E+01 0.  1.
       -4    1    3    3    0  502  0.40637235683E+03  0.20627385362E+03 -0.14095018832E+04  0.14813455258E+04  0.12699999809E+01 0. -1.
</event>
<event>
 5   0  0.3497546E-06  0.3175459E+04  0.7818609E-02  0.8195328E-01
       -2   -1    0    0    0  501  0.00000000000E+00  0.00000000000E+00  0.16021435304E+04  0.16021435304E+04  0.25500000920E-02 0.  1.
        2   -1    0    0  501    0  0.00000000000E+00  0.00000000000E+00 -0.15734456170E+04  0.15734456170E+04  0.25500000920E-02 0. -1.
    10030    2    1    2    0    0  0.00000000000E+00  0.00000000000E+00  0.28697913362E+02  0.31755891474E+04  0.31754594727E+04 0.  0.
        4    1    3    3  502    0 -0.70147366842E+03 -0.13981076840E+04 -0.25790047401E+03  0.15853342458E+04  0.12699999809E+01 0.  1.
       -4    1    3    3    0  502  0.70147366842E+03  0.13981076840E+04  0.28659838738E+03  0.15902549016E+04  0.12699999809E+01 0. -1.
</event>
<event>
 5   0  0.1306843E-06  0.2606482E+04  0.7818609E-02  0.8366003E-01
       -1   -1    0    0    0  501  0.00000000000E+00  0.00000000000E+00  0.89675385096E+03  0.89675385097E+03  0.50400001928E-02 0.  1.
        1   -1    0    0  501    0  0.00000000000E+00  0.00000000000E+00 -0.18939835090E+04  0.18939835090E+04  0.50400001928E-02 0. -1.
    10030    2    1    2    0    0  0.00000000000E+00  0.00000000000E+00 -0.99722965800E+03  0.27907373599E+04  0.26064819242E+04 0.  0.
        5    1    3    3  502    0  0.84746969079E+03  0.98591362810E+03 -0.59547751704E+03  0.14299811615E+04  0.46999998093E+01 0. -1.
       -5    1    3    3    0  502 -0.84746969079E+03 -0.98591362810E+03 -0.40175214096E+03  0.13607561985E+04  0.46999998093E+01 0.  1.
</event>
<event>
 5   0  0.1185575E-06  0.3155202E+04  0.7818609E-02  0.8200749E-01
       -3   -1    0    0    0  501  0.00000000000E+00  0.00000000000E+00  0.92940425942E+03  0.92940426491E+03  0.10100000352E+00 0.  1.
        3   -1    0    0  501    0  0.00000000000E+00  0.00000000000E+00 -0.26778719377E+04  0.26778719396E+04  0.10100000352E+00 0. -1.
    10030    2    1    2    0    0  0.00000000000E+00  0.00000000000E+00 -0.17484676783E+04  0.36072762045E+04  0.31552024331E+04 0.  0.
        4    1    3    3  502    0  0.83586630455E+03 -0.12743809464E+04 -0.13401879441E+04  0.20294887568E+04  0.12699999809E+01 0. -1.
       -4    1    3    3    0  502 -0.83586630455E+03  0.12743809464E+04 -0.40827973418E+03  0.15777874477E+04  0.12699999809E+01 0.  1.
</event>
<event>
 5   0  0.1306843E-06  0.3125010E+04  0.7818609E-02  0.8208907E-01
        1   -1    0    0  501    0  0.00000000000E+00  0.00000000000E+00  0.30180734857E+04  0.30180734857E+04  0.50400001928E-02 0.  1.
       -1   -1    0    0    0  501  0.00000000000E+00  0.00000000000E+00 -0.80893394305E+03  0.80893394306E+03  0.50400001928E-02 0. -1.
    10030    2    1    2    0    0  0.00000000000E+00  0.00000000000E+00  0.22091395426E+04  0.38270074287E+04  0.31250101345E+04 0.  0.
        5    1    3    3  502    0  0.52100028015E+03  0.42705244692E+03  0.28310862216E+04  0.29101351117E+04  0.46999998093E+01 0.  1.
       -5    1    3    3    0  502 -0.52100028015E+03 -0.42705244692E+03 -0.62194667894E+03  0.91687231705E+03  0.46999998093E+01 0. -1.
</event>
<event>
 5   0  0.3497546E-06  0.3213700E+04  0.7818609E-02  0.8185208E-01
        2   -1    0    0  501    0  0.00000000000E+00  0.00000000000E+00  0.23396446179E+04  0.23396446179E+04  0.25500000920E-02 0.  1.
       -2   -1    0    0    0  501  0.00000000000E+00  0.00000000000E+00 -0.11035723056E+04  0.11035723056E+04  0.25500000920E-02 0. -1.
    10030    2    1    2    0    0  0.00000000000E+00  0.00000000000E+00  0.12360723123E+04  0.34432169236E+04  0.32137000515E+04 0.  0.
        4    1    3    3  502    0  0.10381397176E+04 -0.12219870674E+04  0.50577255322E+03  0.16813072161E+04  0.12699999809E+01 0. -1.
       -4    1    3    3    0  502 -0.10381397176E+04  0.12219870674E+04  0.73029975912E+03  0.17619097075E+04  0.12699999809E+01 0.  1.
</event>
<event>
 5   0  0.3745943E-06  0.3200826E+04  0.7818609E-02  0.8188599E-01
        2   -1    0    0  501    0  0.00000000000E+00  0.00000000000E+00  0.32405304766E+04  0.32405304766E+04  0.25500000920E-02 0. -1.
       -2   -1    0    0    0  501  0.00000000000E+00  0.00000000000E+00 -0.79040207812E+03  0.79040207812E+03  0.25500000920E-02 0.  1.
    10030    2    1    2    0    0  0.00000000000E+00  0.00000000000E+00  0.24501283985E+04  0.40309325547E+04  0.32008261577E+04 0.  0.
        5    1    3    3  502    0 -0.14275533530E+04 -0.19426557449E+03  0.21026834560E+04  0.25489110410E+04  0.46999998093E+01 0. -1.
       -5    1    3    3    0  502  0.14275533530E+04  0.19426557449E+03  0.34744494253E+03  0.14820215137E+04  0.46999998093E+01 0.  1.
</event>
<event>
 5   0  0.1240725E-06  0.2325200E+04  0.7818609E-02  0.8468051E-01
       -1   -1    0    0    0  501  0.00000000000E+00  0.00000000000E+00  0.66628108458E+03  0.66628108460E+03  0.50400001928E-02 0.  1.
        1   -1    0    0  501    0  0.00000000000E+00  0.00000000000E+00 -0.20286321579E+04  0.20286321579E+04  0.50400001928E-02 0. -1.
    10030    2    1    2    0    0  0.00000000000E+00  0.00000000000E+00 -0.13623510733E+04  0.26949132425E+04  0.23252004081E+04 0.  0.
        3    1    3    3  502    0 -0.10972068478E+04  0.17258062393E+03 -0.10792929785E+04  0.15487156880E+04  0.10100000352E+00 0. -1.
       -3    1    3    3    0  502  0.10972068478E+04 -0.17258062393E+03 -0.28305809475E+03  0.11461975545E+04  0.10100000352E+00 0.  1.
</event>
<event>
 5   0  0.3497546E-06  0.3201713E+04  0.7818609E-02  0.8188365E-01
       -2   -1    0    0    0  501  0.00000000000E+00  0.00000000000E+00  0.17503960962E+04  0.17503960962E+04  0.25500000920E-02 0.  1.
        2   -1    0    0  501    0  0.00000000000E+00  0.00000000000E+00 -0.14640921926E+04  0.14640921926E+04  0.25500000920E-02 0. -1.
    10030    2    1    2    0    0  0.00000000000E+00  0.00000000000E+00  0.28630390362E+03  0.32144882888E+04  0.32017128281E+04 0.  0.
        4    1    3    3  502    0  0.53177519159E+03  0.13730738079E+04 -0.48754499541E+03  0.15510700409E+04  0.12699999809E+01 0. -1.
       -4    1    3    3    0  502 -0.53177519159E+03 -0.13730738079E+04  0.77384889904E+03  0.16634182480E+04  0.12699999809E+01 0.  1.
</event>
<event>
 5   0  0.3531437E-06  0.3157803E+04  0.7818609E-02  0.8200051E-01
       -2   -1    0    0    0  501  0.00000000000E+00  0.00000000000E+00  0.21536708856E+04  0.21536708856E+04  0.25500000920E-02 0.  1.
        2   -1    0    0  501    0  0.00000000000E+00  0.00000000000E+00 -0.11575258699E+04  0.11575258699E+04  0.25500000920E-02 0. -1.
    10030    2    1    2    0    0  0.00000000000E+00  0.00000000000E+00  0.99614501571E+03  0.33111967555E+04  0.31578028852E+04 0.  0.
        1    1    3    3  502    0 -0.89098121648E+03 -0.12938765397E+04  0.33239171344E+03  0.16057547382E+04  0.50400001928E-02 0.  1.
       -1    1    3    3    0  502  0.89098121648E+03  0.12938765397E+04  0.66375330227E+03  0.17054420173E+04  0.50400001928E-02 0. -1.
</event>
<event>
 5   0  0.1240725E-06  0.3192664E+04  0.7818609E-02  0.8190757E-01
       -1   -1    0    0    0  501  0.00000000000E+00  0.00000000000E+00  0.11783910751E+04  0.11783910751E+04  0.50400001928E-02 0. -1.
        1   -1    0    0  501    0  0.00000000000E+00  0.00000000000E+00 -0.21625042731E+04  0.21625042731E+04  0.50400001928E-02 0.  1.
    10030    2    1    2    0    0  0.00000000000E+00  0.00000000000E+00 -0.98411319801E+03  0.33408953483E+04  0.31926639256E+04 0.  0.
        3    1    3    3  502    0  0.99017850066E+03 -0.21129117018E+03  0.79941553280E+03  0.12900242734E+04  0.10100000352E+00 0. -1.
       -3    1    3    3    0  502 -0.99017850066E+03  0.21129117018E+03 -0.17835287308E+04  0.20508710748E+04  0.10100000352E+00 0.  1.
</event>
<event>
 5   0  0.3656086E-06  0.3566997E+04  0.7818609E-02  0.8098094E-01
       -2   -1    0    0    0  501  0.00000000000E+00  0.00000000000E+00  0.19594919258E+04  0.19594919258E+04  0.25500000920E-02 0. -1.
        2   -1    0    0  501    0  0.00000000000E+00  0.00000000000E+00 -0.16233120703E+04  0.16233120703E+04  0.25500000920E-02 0.  1.
    10030    2    1    2    0    0  0.00000000000E+00  0.00000000000E+00  0.33617985554E+03  0.35828039961E+04  0.35669969974E+04 0.  0.
        3    1    3    3  502    0 -0.69868006702E+03 -0.16391387836E+04  0.24548394105E+03  0.17986639940E+04  0.10100000352E+00 0. -1.
       -3    1    3    3    0  502  0.69868006702E+03  0.16391387836E+04  0.90695914489E+02  0.17841400021E+04  0.10100000352E+00 0.  1.
</event>
<event>
 5   0  0.1240725E-06  0.2743268E+04  0.7818609E-02  0.8321101E-01
       -1   -1    0    0    0  501  0.00000000000E+00  0.00000000000E+00  0.94366512702E+03  0.94366512703E+03  0.50400001928E-02 0.  1.
        1   -1    0    0  501    0  0.00000000000E+00  0.00000000000E+00 -0.19936938524E+04  0.19936938524E+04  0.50400001928E-02 0. -1.
    10030    2    1    2    0    0  0.00000000000E+00  0.00000000000E+00 -0.10500287254E+04  0.29373589794E+04  0.27432676592E+04 0.  0.
        3    1    3    3  502    0 -0.13073050296E+04  0.35597357035E+03 -0.29632490121E+03  0.13869290107E+04  0.10100000352E+00 0.  1.
       -3    1    3    3    0  502  0.13073050296E+04 -0.35597357035E+03 -0.75370382417E+03  0.15504299688E+04  0.10100000352E+00 0. -1.
</event>
<event>
 5   0  0.1306843E-06  0.3160418E+04  0.7818609E-02  0.8199350E-01
        1   -1    0    0  501    0  0.00000000000E+00  0.00000000000E+00  0.19845485761E+04  0.19845485761E+04  0.50400001928E-02 0.  1.
       -1   -1    0    0    0  501  0.00000000000E+00  0.00000000000E+00 -0.12582510110E+04  0.12582510110E+04  0.50400001928E-02 0. -1.
    10030    2    1    2    0    0  0.00000000000E+00  0.00000000000E+00  0.72629756511E+03  0.32427995871E+04  0.31604178536E+04 0.  0.
        5    1    3    3  502    0  0.73869283106E+02  0.57367413514E+03 -0.11457204395E+04  0.12834547518E+04  0.46999998093E+01 0. -1.
       -5    1    3    3    0  502 -0.73869283106E+02 -0.57367413514E+03  0.18720180046E+04  0.19593448354E+04  0.46999998093E+01 0.  1.
</event>
<event>
 5   0  0.1268836E-06  0.3219351E+04  0.7818609E-02  0.8183725E-01
        1   -1    0    0  501    0  0.00000000000E+00  0.00000000000E+00  0.15596832744E+04  0.15596832744E+04  0.50400001928E-02 0.  1.
       -1   -1    0    0    0  501  0.00000000000E+00  0.00000000000E+00 -0.16612700166E+04  0.16612700166E+04  0.50400001928E-02 0. -1.
    10030    2    1    2    0    0  0.00000000000E+00  0.00000000000E+00 -0.10158674222E+03  0.32209532910E+04  0.32193509030E+04 0.  0.
        1    1    3    3  502    0 -0.78392885233E+03 -0.10644912783E+04  0.86801492869E+03  0.15814980378E+04  0.50400001928E-02 0. -1.
       -1    1    3    3    0  502  0.78392885233E+03  0.10644912783E+04 -0.96960167091E+03  0.16394552532E+04  0.50400001928E-02 0.  1.
</event>
<event>
 5   0  0.1268836E-06  0.3244302E+04  0.7818609E-02  0.8177214E-01
       -1   -1    0    0    0  501  0.00000000000E+00  0.00000000000E+00  0.13090106738E+04  0.13090106738E+04  0.50400001928E-02 0.  1.
        1   -1    0    0  501    0  0.00000000000E+00  0.00000000000E+00 -0.20102007366E+04  0.20102007366E+04  0.50400001928E-02 0. -1.
    10030    2    1    2    0    0  0.00000000000E+00  0.00000000000E+00 -0.70119006286E+03  0.33192114104E+04  0.32443022182E+04 0.  0.
        1    1    3    3  502    0  0.23638437717E+03  0.56804666268E+03  0.11850004402E+04  0.13352080842E+04  0.50400001928E-02 0.  1.
       -1    1    3    3    0  502 -0.23638437717E+03 -0.56804666268E+03 -0.18861905031E+04  0.19840033263E+04  0.50400001928E-02 0. -1.
</event>
<event>
 5   0  0.3656086E-06  0.3199993E+04  0.7818609E-02  0.8188819E-01
        2   -1    0    0  501    0  0.00000000000E+00  0.00000000000E+00  0.19939250469E+04  0.19939250469E+04  0.25500000920E-02 0.  1.
       -2   -1    0    0    0  501  0.00000000000E+00  0.00000000000E+00 -0.12838943157E+04  0.12838943157E+04  0.25500000920E-02 0. -1.
    10030    2    1    2    0    0  0.00000000000E+00  0.00000000000E+00  0.71003073124E+03  0.32778193627E+04  0.31999931461E+04 0.  0.
        3    1    3    3  502    0 -0.68676789223E+03 -0.11039441892E+04 -0.60021308328E+03  0.14319911544E+04  0.10100000352E+00 0. -1.
       -3    1    3    3    0  502  0.68676789223E+03  0.11039441892E+04  0.13102438145E+04  0.18458282083E+04  0.10100000352E+00 0.  1.
</event>
<event>
 5   0  0.1268836E-06  0.3246559E+04  0.7818609E-02  0.8176628E-01
       -1   -1    0    0    0  501  0.00000000000E+00  0.00000000000E+00  0.11042390780E+04  0.11042390781E+04  0.50400001928E-02 0.  1.
        1   -1    0    0  501    0  0.00000000000E+00  0.00000000000E+00 -0.23862914515E+04  0.23862914515E+04  0.50400001928E-02 0. -1.
    10030    2    1    2    0    0  0.00000000000E+00  0.00000000000E+00 -0.12820523734E+04  0.34905305295E+04  0.32465589613E+04 0.  0.
        1    1    3    3  502    0 -0.84646185578E+03  0.85777364950E+03  0.52824973074E+03  0.13157967492E+04  0.50400001928E-02 0.  1.
       -1    1    3    3    0  502  0.84646185578E+03 -0.85777364950E+03 -0.18103021042E+04  0.21747337804E+04  0.50400001928E-02 0. -1.
</event>
<event>
 5   0  0.1273754E-06  0.3168686E+04  0.7818609E-02  0.8197136E-01
       -1   -1    0    0    0  501  0.00000000000E+00  0.00000000000E+00  0.11612402393E+04  0.11612402393E+04  0.50400001928E-02 0.  1.
        1   -1    0    0  501    0  0.00000000000E+00  0.00000000000E+00 -0.21616054343E+04  0.21616054343E+04  0.50400001928E-02 0. -1.
    10030    2    1    2    0    0  0.00000000000E+00  0.00000000000E+00 -0.10003651950E+04  0.33228456737E+04  0.31686862968E+04 0.  0.
        2    1    3    3  502    0 -0.55024690033E+03 -0.14099824049E+04 -0.99128404133E+03  0.18092722526E+04  0.25500000920E-02 0. -1.
       -2    1    3    3    0  502  0.55024690033E+03  0.14099824049E+04 -0.90811536609E+01  0.15135734210E+04  0.25500000920E-02 0.  1.
</event>
<event>
 5   0  0.1306843E-06  0.3199110E+04  0.7818609E-02  0.8189052E-01
        1   -1    0    0  501    0  0.00000000000E+00  0.00000000000E+00  0.24940987521E+04  0.24940987521E+04  0.50400001928E-02 0. -1.
       -1   -1    0    0    0  501  0.00000000000E+00  0.00000000000E+00 -0.10258521796E+04  0.10258521796E+04  0.50400001928E-02 0.  1.
    10030    2    1    2    0    0  0.00000000000E+00  0.00000000000E+00  0.14682465725E+04  0.35199509318E+04  0.31991102770E+04 0.  0.
        5    1    3    3  502    0 -0.98363332077E+03 -0.10350202239E+04  0.15273657869E+04  0.20908538234E+04  0.46999998093E+01 0. -1.
       -5    1    3    3    0  502  0.98363332077E+03  0.10350202239E+04 -0.59119214422E+02  0.14290971084E+04  0.46999998093E+01 0.  1.
</event>
<event>
 5   0  0.3531437E-06  0.3241270E+04  0.7818609E-02  0.8178002E-01
       -2   -1    0    0    0  501  0.00000000000E+00  0.00000000000E+00  0.17870122044E+04  0.17870122044E+04  0.25500000920E-02 0.  1.
        2   -1    0    0  501    0  0.00000000000E+00  0.00000000000E+00 -0.14697485224E+04  0.14697485224E+04  0.25500000920E-02 0. -1.
    10030    2    1    2    0    0  0.00000000000E+00  0.00000000000E+00  0.31726368196E+03  0.32567607267E+04  0.32412704588E+04 0.  0.
        1    1    3    3  502    0  0.71832442437E+03  0.14401855968E+04  0.35015763680E+03  0.16470382214E+04  0.50400001928E-02 0. -1.
       -1    1    3    3    0  502 -0.71832442437E+03 -0.14401855968E+04 -0.32893954836E+02  0.16097225054E+04  0.50400001928E-02 0.  1.
</event>
<event>
 5   0  0.3656086E-06  0.3158912E+04  0.7818609E-02  0.8199753E-01
       -2   -1    0    0    0  501  0.00000000000E+00  0.00000000000E+00  0.12565587677E+04  0.12565587677E+04  0.25500000920E-02 0. -1.
        2   -1    0    0  501    0  0.00000000000E+00  0.00000000000E+00 -0.19853280398E+04  0.19853280398E+04  0.25500000920E-02 0.  1.
    10030    2    1    2    0    0  0.00000000000E+00  0.00000000000E+00 -0.72876927208E+03  0.32418868074E+04  0.31589120628E+04 0.  0.
        3    1    3    3  502    0 -0.13092996830E+04  0.44151973878E+03 -0.11496471414E+04  0.17974687479E+04  0.10100000352E+00 0.  1.
       -3    1    3    3    0  502  0.13092996830E+04 -0.44151973878E+03  0.42087786933E+03  0.14444180596E+04  0.10100000352E+00 0. -1.
</event>
<event>
 5   0  0.1273980E-06  0.3178462E+04  0.7818609E-02  0.8194529E-01
       -1   -1    0    0    0  501  0.00000000000E+00  0.00000000000E+00  0.13394770700E+04  0.13394770700E+04  0.50400001928E-02 0. -1.
        1   -1    0    0  501    0  0.00000000000E+00  0.00000000000E+00 -0.18855532690E+04  0.18855532690E+04  0.50400001928E-02 0.  1.
    10030    2    1    2    0    0  0.00000000000E+00  0.00000000000E+00 -0.54607619902E+03  0.32250303390E+04  0.31784621238E+04 0.  0.
        4    1    3    3  502    0 -0.12396632521E+04  0.78269180625E+03  0.34936775122E+03  0.15071266970E+04  0.12699999809E+01 0. -1.
       -4    1    3    3    0  502  0.12396632521E+04 -0.78269180625E+03 -0.89544395024E+03  0.17179036420E+04  0.12699999809E+01 0.  1.
</event>
<event>
 5   0  0.1273754E-06  0.3186416E+04  0.7818609E-02  0.8192414E-01
        1   -1    0    0  501    0  0.00000000000E+00  0.00000000000E+00  0.22886855473E+04  0.22886855473E+04  0.50400001928E-02 0.  1.
       -1   -1    0    0    0  501  0.00000000000E+00  0.00000000000E+00 -0.11090699581E+04  0.11090699581E+04  0.50400001928E-02 0. -1.
    10030    2    1    2    0    0  0.00000000000E+00  0.00000000000E+00  0.11796155892E+04  0.33977555054E+04  0.31864164097E+04 0.  0.
        2    1    3    3  502    0 -0.92306228700E+03 -0.70930044866E+02 -0.79281625471E+03  0.12188653210E+04  0.25500000920E-02 0. -1.
       -2    1    3    3    0  502  0.92306228700E+03  0.70930044866E+02  0.19724318439E+04  0.21788901844E+04  0.25500000920E-02 0.  1.
</event>
<event>
 5   0  0.1273980E-06  0.3187562E+04  0.7818609E-02  0.8192110E-01
       -1   -1    0    0    0  501  0.00000000000E+00  0.00000000000E+00  0.13725289070E+04  0.13725289070E+04  0.50400001928E-02 0. -1.
        1   -1    0    0  501    0  0.00000000000E+00  0.00000000000E+00 -0.18506988397E+04  0.18506988397E+04  0.50400001928E-02 0.  1.
    10030    2    1    2    0    0  0.00000000000E+00  0.00000000000E+00 -0.47816993264E+03  0.32232277467E+04  0.31875618618E+04 0.  0.
        4    1    3    3  502    0 -0.21322082556E+03 -0.98329254914E+03  0.10107908305E+04  0.14261932104E+04  0.12699999809E+01 0. -1.
       -4    1    3    3    0  502  0.21322082556E+03  0.98329254914E+03 -0.14889607631E+04  0.17970345363E+04  0.12699999809E+01 0.  1.
</event>
<event>
 5   0  0.1268836E-06  0.3021241E+04  0.7818609E-02  0.8237691E-01
       -1   -1    0    0    0  501  0.00000000000E+00  0.00000000000E+00  0.11155046058E+04  0.11155046058E+04  0.50400001928E-02 0.  1.
        1   -1    0    0  501    0  0.00000000000E+00  0.00000000000E+00 -0.20456877323E+04  0.20456877324E+04  0.50400001928E-02 0. -1.
    10030    2    1    2    0    0  0.00000000000E+00  0.00000000000E+00 -0.93018312656E+03  0.31611923382E+04  0.30212408626E+04 0.  0.
        1    1    3    3  502    0  0.53323134418E+03 -0.11559367836E+04 -0.13160603150E+04  0.18309943383E+04  0.50400001928E-02 0. -1.
       -1    1    3    3    0  502 -0.53323134418E+03  0.11559367836E+04  0.38587718843E+03  0.13301979998E+04  0.50400001928E-02 0.  1.
</event>
<event>
 5   0  0.1268836E-06  0.3195781E+04  0.7818609E-02  0.8189932E-01
        1   -1    0    0  501    0  0.00000000000E+00  0.00000000000E+00  0.19029120209E+04  0.19029120209E+04  0.50400001928E-02 0.  1.
       -1   -1    0    0    0  501  0.00000000000E+00  0.00000000000E+00 -0.13417617265E+04  0.13417617266E+04  0.50400001928E-02 0. -1.
    10030    2    1    2    0    0  0.00000000000E+00  0.00000000000E+00  0.56115029435E+03  0.32446737474E+04  0.31957812933E+04 0.  0.
        1    1    3    3  502    0 -0.62636690499E+02  0.13496350211E+04  0.11467487123E+04  0.17721373125E+04  0.50400001928E-02 0.  1.
       -1    1    3    3    0  502  0.62636690499E+02 -0.13496350211E+04 -0.58559841797E+03  0.14725364350E+04  0.50400001928E-02 0. -1.
</event>
<event>
 5   0  0.3497546E-06  0.3197847E+04  0.7818609E-02  0.8189386E-01
       -2   -1    0    0    0  501  0.00000000000E+00  0.00000000000E+00  0.21712450518E+04  0.21712450518E+04  0.25500000920E-02 0. -1.
        2   -1    0    0  501    0  0.00000000000E+00  0.00000000000E+00 -0.11774610480E+04  0.11774610480E+04  0.25500000920E-02 0.  1.
    10030    2    1    2    0    0  0.00000000000E+00  0.00000000000E+00  0.99378400380E+03  0.33487060998E+04  0.31978470721E+04 0.  0.
        4    1    3    3  502    0  0.12874386637E+04  0.93633123749E+03  0.65341005899E+03  0.17208023759E+04  0.12699999809E+01 0.  1.
       -4    1    3    3    0  502 -0.12874386637E+04 -0.93633123749E+03  0.34037394481E+03  0.16279037239E+04  0.12699999809E+01 0. -1.
</event>
<event>
 5   0  0.3497546E-06  0.3521688E+04  0.7818609E-02  0.8108669E-01
       -2   -1    0    0    0  501  0.00000000000E+00  0.00000000000E+00  0.14485621335E+04  0.14485621335E+04  0.25500000920E-02 0. -1.
        2   -1    0    0  501    0  0.00000000000E+00  0.00000000000E+00 -0.21404477958E+04  0.21404477958E+04  0.25500000920E-02 0.  1.
    10030    2    1    2    0    0  0.00000000000E+00  0.00000000000E+00 -0.69188566233E+03  0.35890099293E+04  0.35216880190E+04 0.  0.
        4    1    3    3  502    0 -0.10984030209E+04 -0.44628150278E+03 -0.16727187089E+04  0.20502794610E+04  0.12699999809E+01 0.  1.
       -4    1    3    3    0  502  0.10984030209E+04  0.44628150278E+03  0.98083304661E+03  0.15387304683E+04  0.12699999809E+01 0. -1.
</event>
<event>
 5   0  0.1268836E-06  0.3193539E+04  0.7818609E-02  0.8190525E-01
       -1   -1    0    0    0  501  0.00000000000E+00  0.00000000000E+00  0.11482480875E+04  0.11482480875E+04  0.50400001928E-02 0. -1.
        1   -1    0    0  501    0  0.00000000000E+00  0.00000000000E+00 -0.22204901580E+04  0.22204901580E+04  0.50400001928E-02 0.  1.
    10030    2    1    2    0    0  0.00000000000E+00  0.00000000000E+00 -0.10722420705E+04  0.33687382455E+04  0.31935394641E+04 0.  0.
        1    1    3    3  502    0 -0.17290052367E+03 -0.84097616075E+02  0.11359929071E+04  0.11521488120E+04  0.50400001928E-02 0. -1.
       -1    1    3    3    0  502  0.17290052367E+03  0.84097616075E+02 -0.22082349776E+04  0.22165894334E+04  0.50400001928E-02 0.  1.
</event>
<event>
 5   0  0.1273980E-06  0.3153142E+04  0.7818609E-02  0.8201303E-01
        1   -1    0    0  501    0  0.00000000000E+00  0.00000000000E+00  0.15241238537E+04  0.15241238537E+04  0.50400001928E-02 0.  1.
       -1   -1    0    0    0  501  0.00000000000E+00  0.00000000000E+00 -0.16308224913E+04  0.16308224914E+04  0.50400001928E-02 0. -1.
    10030    2    1    2    0    0  0.00000000000E+00  0.00000000000E+00 -0.10669863765E+03  0.31549463451E+04  0.31531415828E+04 0.  0.
        4    1    3    3  502    0  0.67673627248E+03  0.10433535153E+04 -0.10229319827E+04  0.16102639518E+04  0.12699999809E+01 0. -1.
       -4    1    3    3    0  502 -0.67673627248E+03 -0.10433535153E+04  0.91623334508E+03  0.15446823932E+04  0.12699999809E+01 0.  1.
</event>
<event>
 5   0  0.3497546E-06  0.2652467E+04  0.7818609E-02  0.8350594E-01
       -2   -1    0    0    0  501  0.00000000000E+00  0.00000000000E+00  0.10506609087E+04  0.10506609087E+04  0.25500000920E-02 0. -1.
        2   -1    0    0  501    0  0.00000000000E+00  0.00000000000E+00 -0.16740852185E+04  0.16740852185E+04  0.25500000920E-02 0.  1.
    10030    2    1    2    0    0  0.00000000000E+00  0.00000000000E+00 -0.62342430972E+03  0.27247461272E+04  0.26524674527E+04 0.  0.
        4    1    3    3  502    0  0.47441618864E+03  0.30985995214E+02 -0.15835381938E+04  0.16533679796E+04  0.12699999809E+01 0.  1.
       -4    1    3    3    0  502 -0.47441618864E+03 -0.30985995214E+02  0.96011388404E+03  0.10713781476E+04  0.12699999809E+01 0. -1.
</event>
<event>
 5   0  0.3497546E-06  0.3219335E+04  0.7818609E-02  0.8183729E-01
        2   -1    0    0  501    0  0.00000000000E+00  0.00000000000E+00  0.15990076473E+04  0.15990076473E+04  0.25500000920E-02 0. -1.
       -2   -1    0    0    0  501  0.00000000000E+00  0.00000000000E+00 -0.16203987105E+04  0.16203987105E+04  0.25500000920E-02 0.  1.
    10030    2    1    2    0    0  0.00000000000E+00  0.00000000000E+00 -0.21391063174E+02  0.32194063578E+04  0.32193352915E+04 0.  0.
        4    1    3    3  502    0 -0.12348015005E+04  0.83406217573E+03  0.59811496570E+03  0.16056579909E+04  0.12699999809E+01 0. -1.
       -4    1    3    3    0  502  0.12348015005E+04 -0.83406217573E+03 -0.61950602887E+03  0.16137483668E+04  0.12699999809E+01 0.  1.
</event>
<event>
 5   0  0.3745943E-06  0.3109908E+04  0.7818609E-02  0.8213024E-01
        2   -1    0    0  501    0  0.00000000000E+00  0.00000000000E+00  0.23845280938E+04  0.23845280938E+04  0.25500000920E-02 0. -1.
       -2   -1    0    0    0  501  0.00000000000E+00  0.00000000000E+00 -0.10139874349E+04  0.10139874349E+04  0.25500000920E-02 0.  1.
    10030    2    1    2    0    0  0.00000000000E+00  0.00000000000E+00  0.13705406589E+04  0.33985155287E+04  0.31099077319E+04 0.  0.
        5    1    3    3  502    0  0.66874454136E+03 -0.11252136688E+04 -0.23199049988E+03  0.13293482404E+04  0.46999998093E+01 0. -1.
       -5    1    3    3    0  502 -0.66874454136E+03  0.11252136688E+04  0.16025311588E+04  0.20691672883E+04  0.46999998093E+01 0.  1.
</event>
<event>
 5   0  0.3531437E-06  0.3360338E+04  0.7818609E-02  0.8147710E-01
        2   -1    0    0  501    0  0.00000000000E+00  0.00000000000E+00  0.18351499876E+04  0.18351499876E+04  0.25500000920E-02 0.  1.
       -2   -1    0    0    0  501  0.00000000000E+00  0.00000000000E+00 -0.15382761446E+04  0.15382761446E+04  0.25500000920E-02 0. -1.
    10030    2    1    2    0    0  0.00000000000E+00  0.00000000000E+00  0.29687384292E+03  0.33734261322E+04  0.33603377495E+04 0.  0.
        1    1    3    3  502    0 -0.12512217298E+02 -0.14222302709E+04 -0.74951440434E+03  0.16076900639E+04  0.50400001928E-02 0. -1.
       -1    1    3    3    0  502  0.12512217298E+02  0.14222302709E+04  0.10463882473E+04  0.17657360684E+04  0.50400001928E-02 0.  1.
</event>
<event>
 5   0  0.1306843E-06  0.3206068E+04  0.7818609E-02  0.8187217E-01
        1   -1    0    0  501    0  0.00000000000E+00  0.00000000000E+00  0.29666860166E+04  0.29666860166E+04  0.50400001928E-02 0.  1.
       -1   -1    0    0    0  501  0.00000000000E+00  0.00000000000E+00 -0.86619117392E+03  0.86619117393E+03  0.50400001928E-02 0. -1.
    10030    2    1    2    0    0  0.00000000000E+00  0.00000000000E+00  0.21004948426E+04  0.38328771905E+04  0.32060675248E+04 0.  0.
        5    1    3    3  502    0 -0.88508566038E+03  0.15108679880E+03 -0.53734457466E+03  0.10464058146E+04  0.46999998093E+01 0. -1.
       -5    1    3    3    0  502  0.88508566038E+03 -0.15108679880E+03  0.26378394173E+04  0.27864713759E+04  0.46999998093E+01 0.  1.
</event>
<event>
 5   0  0.3745943E-06  0.3298858E+04  0.7818609E-02  0.8163186E-01
       -2   -1    0    0    0  501  0.00000000000E+00  0.00000000000E+00  0.13557699900E+04  0.13557699900E+04  0.25500000920E-02 0. -1.
        2   -1    0    0  501    0  0.00000000000E+00  0.00000000000E+00 -0.20066944797E+04  0.20066944797E+04  0.25500000920E-02 0.  1.
    10030    2    1    2    0    0  0.00000000000E+00  0.00000000000E+00 -0.65092448970E+03  0.33624644698E+04  0.32988580780E+04 0.  0.
        5    1    3    3  502    0  0.54088684805E+03  0.31924845788E+03  0.12291058399E+04  0.13802903375E+04  0.46999998093E+01 0. -1.
       -5    1    3    3    0  502 -0.54088684805E+03 -0.31924845788E+03 -0.18800303296E+04  0.19821741322E+04  0.46999998093E+01 0.  1.
</event>
<event>
 5   0  0.1273754E-06  0.3233950E+04  0.7818609E-02  0.8179908E-01
       -1   -1    0    0    0  501  0.00000000000E+00  0.00000000000E+00  0.15257456585E+04  0.15257456585E+04  0.50400001928E-02 0. -1.
        1   -1    0    0  501    0  0.00000000000E+00  0.00000000000E+00 -0.17136587855E+04  0.17136587855E+04  0.50400001928E-02 0.  1.
    10030    2    1    2    0    0  0.00000000000E+00  0.00000000000E+00 -0.18791312702E+03  0.32394044440E+04  0.32339495680E+04 0.  0.
        2    1    3    3  502    0  0.11648202105E+04 -0.61408167420E+03  0.84608524252E+03  0.15651717679E+04  0.25500000920E-02 0. -1.
       -2    1    3    3    0  502 -0.11648202105E+04  0.61408167420E+03 -0.10339983695E+04  0.16742326761E+04  0.25500000920E-02 0.  1.
</event>
<event>
 5   0  0.3745943E-06  0.3197766E+04  0.7818609E-02  0.8189407E-01
       -2   -1    0    0    0  501  0.00000000000E+00  0.00000000000E+00  0.14749719382E+04  0.14749719382E+04  0.25500000920E-02 0. -1.
        2   -1    0    0  501    0  0.00000000000E+00  0.00000000000E+00 -0.17332039160E+04  0.17332039160E+04  0.25500000920E-02 0.  1.
    10030    2    1    2    0    0  0.00000000000E+00  0.00000000000E+00 -0.25823197772E+03  0.32081758542E+04  0.31977661824E+04 0.  0.
        5    1    3    3  502    0 -0.12366950306E+03 -0.13739755556E+04  0.68178621287E+03  0.15388169168E+04  0.46999998093E+01 0. -1.
       -5    1    3    3    0  502  0.12366950306E+03  0.13739755556E+04 -0.94001819060E+03  0.16693589374E+04  0.46999998093E+01 0.  1.
</event>
<event>
 5   0  0.1240725E-06  0.3209499E+04  0.7818609E-02  0.8186313E-01
        1   -1    0    0  501    0  0.00000000000E+00  0.00000000000E+00  0.29017023449E+04  0.29017023449E+04  0.50400001928E-02 0. -1.
       -1   -1    0    0    0  501  0.00000000000E+00  0.00000000000E+00 -0.88748629261E+03  0.88748629262E+03  0.50400001928E-02 0.  1.
    10030    2    1    2    0    0  0.00000000000E+00  0.00000000000E+00  0.20142160523E+04  0.37891886376E+04  0.32094990615E+04 0.  0.
        3    1    3    3  502    0  0.26688181382E+03  0.12813862531E+04 -0.89051580421E+02  0.13119096106E+04  0.10100000352E+00 0.  1.
       -3    1    3    3    0  502 -0.26688181382E+03 -0.12813862531E+04  0.21032676327E+04  0.24772790270E+04  0.10100000352E+00 0. -1.
</event>
<event>
 5   0  0.1273980E-06  0.3178258E+04  0.7818609E-02  0.8194583E-01
        1   -1    0    0  501    0  0.00000000000E+00  0.00000000000E+00  0.23692532588E+04  0.23692532588E+04  0.50400001928E-02 0. -1.
       -1   -1    0    0    0  501  0.00000000000E+00  0.00000000000E+00 -0.10658765107E+04  0.10658765107E+04  0.50400001928E-02 0.  1.
    10030    2    1    2    0    0  0.00000000000E+00  0.00000000000E+00  0.13033767482E+04  0.34351297695E+04  0.31782582629E+04 0.  0.
        4    1    3    3  502    0 -0.13462701090E+03 -0.12494481707E+04 -0.39959296304E+03  0.13186816569E+04  0.12699999809E+01 0.  1.
       -4    1    3    3    0  502  0.13462701090E+03  0.12494481707E+04  0.17029697112E+04  0.21164481126E+04  0.12699999809E+01 0. -1.
</event>
<event>
 5   0  0.1240725E-06  0.3377647E+04  0.7818609E-02  0.8143414E-01
       -1   -1    0    0    0  501  0.00000000000E+00  0.00000000000E+00  0.16382483032E+04  0.16382483032E+04  0.50400001928E-02 0. -1.
        1   -1    0    0  501    0  0.00000000000E+00  0.00000000000E+00 -0.17409598038E+04  0.17409598038E+04  0.50400001928E-02 0.  1.
    10030    2    1    2    0    0  0.00000000000E+00  0.00000000000E+00 -0.10271150063E+03  0.33792081070E+04  0.33776467811E+04 0.  0.
        3    1    3    3  502    0  0.46257160639E+03 -0.11377192138E+04  0.11083810827E+04  0.16543536911E+04  0.10100000352E+00 0. -1.
       -3    1    3    3    0  502 -0.46257160639E+03  0.11377192138E+04 -0.12110925833E+04  0.17248544159E+04  0.10100000352E+00 0.  1.
</event>
<event>
 5   0  0.1240725E-06  0.3038318E+04  0.7818609E-02  0.8232873E-01
        1   -1    0    0  501    0  0.00000000000E+00  0.00000000000E+00  0.14287058594E+04  0.14287058594E+04  0.50400001928E-02 0.  1.
       -1   -1    0    0    0  501  0.00000000000E+00  0.00000000000E+00 -0.16153393584E+04  0.16153393584E+04  0.50400001928E-02 0. -1.
    10030    2    1    2    0    0  0.00000000000E+00  0.00000000000E+00 -0.18663349904E+03  0.30440452178E+04  0.30383184864E+04 0.  0.
        3    1    3    3  502    0  0.14332557067E+04  0.25729976940E+03 -0.52705270674E+03  0.15486154002E+04  0.10100000352E+00 0. -1.
       -3    1    3    3    0  502 -0.14332557067E+04 -0.25729976940E+03  0.34041920770E+03  0.14954298175E+04  0.10100000352E+00 0.  1.
</event>
<event>
 5   0  0.3758062E-06  0.3083494E+04  0.7818609E-02  0.8220282E-01
        2   -1    0    0  501    0  0.00000000000E+00  0.00000000000E+00  0.12047434802E+04  0.12047434802E+04  0.25500000920E-02 0. -1.
       -2   -1    0    0    0  501  0.00000000000E+00  0.00000000000E+00 -0.19730209904E+04  0.19730209904E+04  0.25500000920E-02 0.  1.
    10030    2    1    2    0    0  0.00000000000E+00  0.00000000000E+00 -0.76827751024E+03  0.31777644706E+04  0.30834942351E+04 0.  0.
        2    1    3    3  502    0  0.79197325820E+03  0.13184854243E+04 -0.49397438263E+03  0.16154368284E+04  0.25500000920E-02 0.  1.
       -2    1    3    3    0  502 -0.79197325820E+03 -0.13184854243E+04 -0.27430312761E+03  0.15623276422E+04  0.25500000920E-02 0. -1.
</event>
<event>
 5   0  0.1306843E-06  0.3253753E+04  0.7818609E-02  0.8174764E-01
       -1   -1    0    0    0  501  0.00000000000E+00  0.00000000000E+00  0.14791510097E+04  0.14791510097E+04  0.50400001928E-02 0. -1.
        1   -1    0    0  501    0  0.00000000000E+00  0.00000000000E+00 -0.17893558913E+04  0.17893558913E+04  0.50400001928E-02 0.  1.
    10030    2    1    2    0    0  0.00000000000E+00  0.00000000000E+00 -0.31020488161E+03  0.32685069010E+04  0.32537532625E+04 0.  0.
        5    1    3    3  502    0 -0.14667669810E+04 -0.70319937520E+03 -0.12649973769E+03  0.16315388476E+04  0.46999998093E+01 0.  1.
       -5    1    3    3    0  502  0.14667669810E+04  0.70319937520E+03 -0.18370514392E+03  0.16369680533E+04  0.46999998093E+01 0. -1.
</event>
<event>
 5   0  0.1273754E-06  0.3408697E+04  0.7818609E-02  0.8135775E-01
        1   -1    0    0  501    0  0.00000000000E+00  0.00000000000E+00  0.17063686009E+04  0.17063686009E+04  0.50400001928E-02 0.  1.
       -1   -1    0    0    0  501  0.00000000000E+00  0.00000000000E+00 -0.17023303262E+04  0.17023303263E+04  0.50400001928E-02 0. -1.
    10030    2    1    2    0    0  0.00000000000E+00  0.00000000000E+00  0.40382746968E+01  0.34086989272E+04  0.34086965351E+04 0.  0.
        2    1    3    3  502    0 -0.53171032351E+03 -0.14558280678E+04  0.71099903239E+03  0.17051893898E+04  0.25500000920E-02 0.  1.
       -2    1    3    3    0  502  0.53171032351E+03  0.14558280678E+04 -0.70696075769E+03  0.17035095374E+04  0.25500000920E-02 0. -1.
</event>
<event>
 5   0  0.1240725E-06  0.3149730E+04  0.7818609E-02  0.8202221E-01
        1   -1    0    0  501    0  0.00000000000E+00  0.00000000000E+00  0.22726103853E+04  0.22726103853E+04  0.50400001928E-02 0. -1.
       -1   -1    0    0    0  501  0.00000000000E+00  0.00000000000E+00 -0.10913436850E+04  0.10913436850E+04  0.50400001928E-02 0.  1.
    10030    2    1    2    0    0  0.00000000000E+00  0.00000000000E+00  0.11812667003E+04  0.33639540703E+04  0.31497295074E+04 0.  0.
        3    1    3    3  502    0  0.10989164793E+04 -0.15779725792E+03  0.17836010362E+04  0.21008926840E+04  0.10100000352E+00 0. -1.
       -3    1    3    3    0  502 -0.10989164793E+04  0.15779725792E+03 -0.60233433586E+03  0.12630613863E+04  0.10100000352E+00 0.  1.
</event>
<event>
 5   0  0.3531437E-06  0.3216349E+04  0.7818609E-02  0.8184513E-01
       -2   -1    0    0    0  501  0.00000000000E+00  0.00000000000E+00  0.13997508737E+04  0.13997508737E+04  0.25500000920E-02 0. -1.
        2   -1    0    0  501    0  0.00000000000E+00  0.00000000000E+00 -0.18476325596E+04  0.18476325596E+04  0.25500000920E-02 0.  1.
    10030    2    1    2    0    0  0.00000000000E+00  0.00000000000E+00 -0.44788168591E+03  0.32473834332E+04  0.32163490417E+04 0.  0.
        1    1    3    3  502    0  0.13586015922E+04 -0.84634521582E+03 -0.38076756681E+03  0.16453213821E+04  0.50400001928E-02 0.  1.
       -1    1    3    3    0  502 -0.13586015922E+04  0.84634521582E+03 -0.67114119096E+02  0.16020620511E+04  0.50400001928E-02 0. -1.
</event>
<event>
 5   0  0.3758062E-06  0.2989579E+04  0.7818609E-02  0.8246713E-01
       -2   -1    0    0    0  501  0.00000000000E+00  0.00000000000E+00  0.12659222378E+04  0.12659222378E+04  0.25500000920E-02 0. -1.
        2   -1    0    0  501    0  0.00000000000E+00  0.00000000000E+00 -0.17650336640E+04  0.17650336640E+04  0.25500000920E-02 0.  1.
    10030    2    1    2    0    0  0.00000000000E+00  0.00000000000E+00 -0.49911142629E+03  0.30309559018E+04  0.29895788103E+04 0.  0.
        2    1    3    3  502    0 -0.34589516613E+03  0.91997606071E+03  0.89226267838E+03  0.13274532404E+04  0.25500000920E-02 0. -1.
       -2    1    3    3    0  502  0.34589516613E+03 -0.91997606071E+03 -0.13913741047E+04  0.17035026614E+04  0.25500000920E-02 0.  1.
</event>
<event>
 5   0  0.1240725E-06  0.3298726E+04  0.7818609E-02  0.8163220E-01
        1   -1    0    0  501    0  0.00000000000E+00  0.00000000000E+00  0.25400919253E+04  0.25400919253E+04  0.50400001928E-02 0. -1.
       -1   -1    0    0    0  501  0.00000000000E+00  0.00000000000E+00 -0.10709839999E+04  0.10709839999E+04  0.50400001928E-02 0.  1.
    10030    2    1    2    0    0  0.00000000000E+00  0.00000000000E+00  0.14691079253E+04  0.36110759252E+04  0.32987256996E+04 0.  0.
        3    1    3    3  502    0 -0.48238163987E+03 -0.13605689655E+04  0.16079462507E+04  0.21608635107E+04  0.10100000352E+00 0. -1.
       -3    1    3    3    0  502  0.48238163987E+03  0.13605689655E+04 -0.13883832542E+03  0.14502124145E+04  0.10100000352E+00 0.  1.
</event>
<event>
 5   0  0.3531437E-06  0.3208120E+04  0.7818609E-02  0.8186676E-01
        2   -1    0    0  501    0  0.00000000000E+00  0.00000000000E+00  0.10726392766E+04  0.10726392767E+04  0.25500000920E-02 0.  1.
       -2   -1    0    0    0  501  0.00000000000E+00  0.00000000000E+00 -0.23987643001E+04  0.23987643001E+04  0.25500000920E-02 0. -1.
    10030    2    1    2    0    0  0.00000000000E+00  0.00000000000E+00 -0.13261250234E+04  0.34714035767E+04  0.32081201996E+04 0.  0.
        1    1    3    3  502    0 -0.81350132554E+03  0.12032085374E+04 -0.13997541177E+04  0.20171283502E+04  0.50400001928E-02 0. -1.
       -1    1    3    3    0  502  0.81350132554E+03 -0.12032085374E+04  0.73629094288E+02  0.14542752266E+04  0.50400001928E-02 0.  1.
</event>
<event>
 5   0  0.1268836E-06  0.3111215E+04  0.7818609E-02  0.8212667E-01
        1   -1    0    0  501    0  0.00000000000E+00  0.00000000000E+00  0.16319193614E+04  0.16319193614E+04  0.50400001928E-02 0. -1.
       -1   -1    0    0    0  501  0.00000000000E+00  0.00000000000E+00 -0.14828643859E+04  0.14828643859E+04  0.50400001928E-02 0.  1.
    10030    2    1    2    0    0  0.00000000000E+00  0.00000000000E+00  0.14905497546E+03  0.31147837473E+04  0.31112152621E+04 0.  0.
        1    1    3    3  502    0  0.50487695113E+02  0.15103288415E+04  0.44410246948E+03  0.15750775284E+04  0.50400001928E-02 0. -1.
       -1    1    3    3    0  502 -0.50487695113E+02 -0.15103288415E+04 -0.29504749402E+03  0.15397062190E+04  0.50400001928E-02 0.  1.
</event>
<event>
 5   0  0.1240725E-06  0.3172516E+04  0.7818609E-02  0.8196114E-01
        1   -1    0    0  501    0  0.00000000000E+00  0.00000000000E+00  0.14284497692E+04  0.14284497692E+04  0.50400001928E-02 0.  1.
       -1   -1    0    0    0  501  0.00000000000E+00  0.00000000000E+00 -0.17615001918E+04  0.17615001918E+04  0.50400001928E-02 0. -1.
    10030    2    1    2    0    0  0.00000000000E+00  0.00000000000E+00 -0.33305042258E+03  0.31899499610E+04  0.31725160629E+04 0.  0.
        3    1    3    3  502    0  0.91586489960E+03 -0.12168599201E+04 -0.61242349194E+03  0.16415295072E+04  0.10100000352E+00 0. -1.
       -3    1    3    3    0  502 -0.91586489960E+03  0.12168599201E+04  0.27937306936E+03  0.15484204537E+04  0.10100000352E+00 0.  1.
</event>
<event>
 5   0  0.3497546E-06  0.3344743E+04  0.7818609E-02  0.8151603E-01
       -2   -1    0    0    0  501  0.00000000000E+00  0.00000000000E+00  0.23533606451E+04  0.23533606451E+04  0.25500000920E-02 0. -1.
        2   -1    0    0  501    0  0.00000000000E+00  0.00000000000E+00 -0.11884394467E+04  0.11884394467E+04  0.25500000920E-02 0.  1.
    10030    2    1    2    0    0  0.00000000000E+00  0.00000000000E+00  0.11649211984E+04  0.35418000918E+04  0.33447431130E+04 0.  0.
        4    1    3    3  502    0  0.19843439546E+03  0.92950880518E+03 -0.87464019322E+03  0.12916500721E+04  0.12699999809E+01 0.  1.
       -4    1    3    3    0  502 -0.19843439546E+03 -0.92950880518E+03  0.20395613916E+04  0.22501500197E+04  0.12699999809E+01 0. -1.
</event>
<event>
 5   0  0.3745943E-06  0.2952068E+04  0.7818609E-02  0.8257552E-01
        2   -1    0    0  501    0  0.00000000000E+00  0.00000000000E+00  0.15059360550E+04  0.15059360550E+04  0.25500000920E-02 0.  1.
       -2   -1    0    0    0  501  0.00000000000E+00  0.00000000000E+00 -0.14467258606E+04  0.14467258606E+04  0.25500000920E-02 0. -1.
    10030    2    1    2    0    0  0.00000000000E+00  0.00000000000E+00  0.59210194431E+02  0.29526619156E+04  0.29520681802E+04 0.  0.
        5    1    3    3  502    0  0.10128719397E+04 -0.31483760385E+03 -0.99706238785E+03  0.14557430330E+04  0.46999998093E+01 0. -1.
       -5    1    3    3    0  502 -0.10128719397E+04  0.31483760385E+03  0.10562725823E+04  0.14969188826E+04  0.46999998093E+01 0.  1.
</event>
<event>
 5   0  0.3531437E-06  0.3226653E+04  0.7818609E-02  0.8181814E-01
       -2   -1    0    0    0  501  0.00000000000E+00  0.00000000000E+00  0.23661874907E+04  0.23661874907E+04  0.25500000920E-02 0.  1.
        2   -1    0    0  501    0  0.00000000000E+00  0.00000000000E+00 -0.11000065490E+04  0.11000065490E+04  0.25500000920E-02 0. -1.
    10030    2    1    2    0    0  0.00000000000E+00  0.00000000000E+00  0.12661809417E+04  0.34661940398E+04  0.32266525912E+04 0.  0.
        1    1    3    3  502    0  0.19584214583E+03  0.15698400078E+04  0.97291324639E+03  0.18572323444E+04  0.50400001928E-02 0.  1.
       -1    1    3    3    0  502 -0.19584214583E+03 -0.15698400078E+04  0.29326769534E+03  0.16089616954E+04  0.50400001928E-02 0. -1.
</event>
<event>
 5   0  0.3745943E-06  0.3445166E+04  0.7818609E-02  0.8126909E-01
       -2   -1    0    0    0  501  0.00000000000E+00  0.00000000000E+00  0.19094213761E+04  0.19094213761E+04  0.25500000920E-02 0.  1.
        2   -1    0    0  501    0  0.00000000000E+00  0.00000000000E+00 -0.15540265077E+04  0.15540265077E+04  0.25500000920E-02 0. -1.
    10030    2    1    2    0    0  0.00000000000E+00  0.00000000000E+00  0.35539486836E+03  0.34634478838E+04  0.34451655594E+04 0.  0.
        5    1    3    3  502    0 -0.13340095087E+03  0.11412652256E+04 -0.11124628654E+04  0.15993366893E+04  0.46999998093E+01 0. -1.
       -5    1    3    3    0  502  0.13340095087E+03 -0.11412652256E+04  0.14678577338E+04  0.18641111945E+04  0.46999998093E+01 0.  1.
</event>
<event>
 5   0  0.3497546E-06  0.3024790E+04  0.7818609E-02  0.8236687E-01
       -2   -1    0    0    0  501  0.00000000000E+00  0.00000000000E+00  0.96165381549E+03  0.96165381550E+03  0.25500000920E-02 0.  1.
        2   -1    0    0  501    0  0.00000000000E+00  0.00000000000E+00 -0.23785464647E+04  0.23785464647E+04  0.25500000920E-02 0. -1.
    10030    2    1    2    0    0  0.00000000000E+00  0.00000000000E+00 -0.14168926492E+04  0.33402002802E+04  0.30247897666E+04 0.  0.
        4    1    3    3  502    0  0.33180652968E+03 -0.85711670601E+03  0.61787600150E+03  0.11074822739E+04  0.12699999809E+01 0.  1.
       -4    1    3    3    0  502 -0.33180652968E+03  0.85711670601E+03 -0.20347686507E+04  0.22327180063E+04  0.12699999809E+01 0. -1.
</event>
<event>
 5   0  0.1240725E-06  0.2740060E+04  0.7818609E-02  0.8322123E-01
       -1   -1    0    0    0  501  0.00000000000E+00  0.00000000000E+00  0.13853966040E+04  0.13853966040E+04  0.50400001928E-02 0. -1.
        1   -1    0    0  501    0  0.00000000000E+00  0.00000000000E+00 -0.13548336607E+04  0.13548336607E+04  0.50400001928E-02 0.  1.
    10030    2    1    2    0    0  0.00000000000E+00  0.00000000000E+00  0.30562943308E+02  0.27402302647E+04  0.27400598187E+04 0.  0.
        3    1    3    3  502    0  0.78218938323E+03 -0.92085975229E+03  0.66121562518E+03  0.13773195083E+04  0.10100000352E+00 0. -1.
       -3    1    3    3    0  502 -0.78218938323E+03  0.92085975229E+03 -0.63065268187E+03  0.13629107564E+04  0.10100000352E+00 0.  1.
</event>
<event>
 5   0  0.1240725E-06  0.3206923E+04  0.7818609E-02  0.8186991E-01
       -1   -1    0    0    0  501  0.00000000000E+00  0.00000000000E+00  0.10843973635E+04  0.10843973636E+04  0.50400001928E-02 0.  1.
        1   -1    0    0  501    0  0.00000000000E+00  0.00000000000E+00 -0.23709833077E+04  0.23709833077E+04  0.50400001928E-02 0. -1.
    10030    2    1    2    0    0  0.00000000000E+00  0.00000000000E+00 -0.12865859442E+04  0.34553806713E+04  0.32069225422E+04 0.  0.
        3    1    3    3  502    0 -0.14673288147E+04 -0.39690599001E+03 -0.93358245441E+02  0.15229261268E+04  0.10100000352E+00 0.  1.
       -3    1    3    3    0  502  0.14673288147E+04  0.39690599001E+03 -0.11932276988E+04  0.19324545445E+04  0.10100000352E+00 0. -1.
</event>
<event>
 5   0  0.3656086E-06  0.3174531E+04  0.7818609E-02  0.8195576E-01
       -2   -1    0    0    0  501  0.00000000000E+00  0.00000000000E+00  0.16266089081E+04  0.16266089081E+04  0.25500000920E-02 0. -1.
        2   -1    0    0  501    0  0.00000000000E+00  0.00000000000E+00 -0.15488741663E+04  0.15488741663E+04  0.25500000920E-02 0.  1.
    10030    2    1    2    0    0  0.00000000000E+00  0.00000000000E+00  0.77734741819E+02  0.31754830744E+04  0.31745314718E+04 0.  0.
        3    1    3    3  502    0  0.76190179369E+03 -0.52208526936E+03  0.13301242380E+04  0.16193510646E+04  0.10100000352E+00 0. -1.
       -3    1    3    3    0  502 -0.76190179369E+03  0.52208526936E+03 -0.12523894961E+04  0.15561320098E+04  0.10100000352E+00 0.  1.
</event>
<event>
 5   0  0.3497546E-06  0.3360991E+04  0.7818609E-02  0.8147547E-01
       -2   -1    0    0    0  501  0.00000000000E+00  0.00000000000E+00  0.10569305738E+04  0.10569305738E+04  0.25500000920E-02 0. -1.
        2   -1    0    0  501    0  0.00000000000E+00  0.00000000000E+00 -0.26719501890E+04  0.26719501890E+04  0.25500000920E-02 0.  1.
    10030    2    1    2    0    0  0.00000000000E+00  0.00000000000E+00 -0.16150196152E+04  0.37288807628E+04  0.33609914290E+04 0.  0.
        4    1    3    3  502    0 -0.78966065162E+03 -0.10244726505E+04 -0.19977660464E+04  0.23799535595E+04  0.12699999809E+01 0.  1.
       -4    1    3    3    0  502  0.78966065162E+03  0.10244726505E+04  0.38274643114E+03  0.13489272033E+04  0.12699999809E+01 0. -1.
</event>
<event>
 5   0  0.1273754E-06  0.3154939E+04  0.7818609E-02  0.8200820E-01
       -1   -1    0    0    0  501  0.00000000000E+00  0.00000000000E+00  0.10771950629E+04  0.10771950629E+04  0.50400001928E-02 0.  1.
        1   -1    0    0  501    0  0.00000000000E+00  0.00000000000E+00 -0.23100832576E+04  0.23100832576E+04  0.50400001928E-02 0. -1.
    10030    2    1    2    0    0  0.00000000000E+00  0.00000000000E+00 -0.12328881947E+04  0.33872783205E+04  0.31549391627E+04 0.  0.
        2    1    3    3  502    0 -0.49953503421E+03 -0.14639845936E+03 -0.22152144236E+04  0.22755532738E+04  0.25500000920E-02 0. -1.
       -2    1    3    3    0  502  0.49953503421E+03  0.14639845936E+03  0.98232622899E+03  0.11117250467E+04  0.25500000920E-02 0.  1.
</event>
<event>
 5   0  0.1268836E-06  0.3136657E+04  0.7818609E-02  0.8205749E-01
       -1   -1    0    0    0  501  0.00000000000E+00  0.00000000000E+00  0.13938842698E+04  0.13938842698E+04  0.50400001928E-02 0.  1.
        1   -1    0    0  501    0  0.00000000000E+00  0.00000000000E+00 -0.17646042377E+04  0.17646042377E+04  0.50400001928E-02 0. -1.
    10030    2    1    2    0    0  0.00000000000E+00  0.00000000000E+00 -0.37071996794E+03  0.31584885075E+04  0.31366568759E+04 0.  0.
        1    1    3    3  502    0 -0.12005383185E+04 -0.40396934315E+03  0.74583080198E+03  0.14699479820E+04  0.50400001928E-02 0.  1.
       -1    1    3    3    0  502  0.12005383185E+04  0.40396934315E+03 -0.11165507699E+04  0.16885405255E+04  0.50400001928E-02 0. -1.
</event>
<event>
 5   0  0.1273754E-06  0.3333333E+04  0.7818609E-02  0.8154465E-01
       -1   -1    0    0    0  501  0.00000000000E+00  0.00000000000E+00  0.12031992814E+04  0.12031992814E+04  0.50400001928E-02 0. -1.
        1   -1    0    0  501    0  0.00000000000E+00  0.00000000000E+00 -0.23086599412E+04  0.23086599412E+04  0.50400001928E-02 0.  1.
    10030    2    1    2    0    0  0.00000000000E+00  0.00000000000E+00 -0.11054606598E+04  0.35118592226E+04  0.33333334560E+04 0.  0.
        2    1    3    3  502    0 -0.13079648310E+04  0.68643380650E+03  0.26050064523E+03  0.14999413175E+04  0.25500000920E-02 0. -1.
       -2    1    3    3    0  502  0.13079648310E+04 -0.68643380650E+03 -0.13659613051E+04  0.20119179051E+04  0.25500000920E-02 0.  1.
</event>
<event>
 5   0  0.3497546E-06  0.3117771E+04  0.7818609E-02  0.8210878E-01
       -2   -1    0    0    0  501  0.00000000000E+00  0.00000000000E+00  0.31094388744E+04  0.31094388744E+04  0.25500000920E-02 0.  1.
        2   -1    0    0  501    0  0.00000000000E+00  0.00000000000E+00 -0.78153128080E+03  0.78153128080E+03  0.25500000920E-02 0. -1.
    10030    2    1    2    0    0  0.00000000000E+00  0.00000000000E+00  0.23279075936E+04  0.38909701552E+04  0.31177708358E+04 0.  0.
        4    1    3    3  502    0  0.65790829482E+03 -0.28635718199E+03 -0.56319463168E+03  0.91215873955E+03  0.12699999809E+01 0. -1.
       -4    1    3    3    0  502 -0.65790829482E+03  0.28635718199E+03  0.28911022253E+04  0.29788114157E+04  0.12699999809E+01 0.  1.
</event>
<event>
 5   0  0.3497546E-06  0.3195380E+04  0.7818609E-02  0.8190038E-01
       -2   -1    0    0    0  501  0.00000000000E+00  0.00000000000E+00  0.13476737999E+04  0.13476737999E+04  0.25500000920E-02 0.  1.
        2   -1    0    0  501    0  0.00000000000E+00  0.00000000000E+00 -0.18940884678E+04  0.18940884678E+04  0.25500000920E-02 0. -1.
    10030    2    1    2    0    0  0.00000000000E+00  0.00000000000E+00 -0.54641466794E+03  0.32417622677E+04  0.31953800417E+04 0.  0.
        4    1    3    3  502    0  0.81942871623E+03  0.92097895652E+03 -0.13042994859E+04  0.17946766899E+04  0.12699999809E+01 0. -1.
       -4    1    3    3    0  502 -0.81942871623E+03 -0.92097895652E+03  0.75788481800E+03  0.14470855778E+04  0.12699999809E+01 0.  1.
</event>
<event>
 5   0  0.3745943E-06  0.3233433E+04  0.7818609E-02  0.8180043E-01
       -2   -1    0    0    0  501  0.00000000000E+00  0.00000000000E+00  0.10043850109E+04  0.10043850109E+04  0.25500000920E-02 0. -1.
        2   -1    0    0  501    0  0.00000000000E+00  0.00000000000E+00 -0.26023603620E+04  0.26023603620E+04  0.25500000920E-02 0.  1.
    10030    2    1    2    0    0  0.00000000000E+00  0.00000000000E+00 -0.15979753511E+04  0.36067453728E+04  0.32334326901E+04 0.  0.
        5    1    3    3  502    0  0.14994636840E+04 -0.43694899613E+03 -0.12648601873E+04  0.20097783828E+04  0.46999998093E+01 0.  1.
       -5    1    3    3    0  502 -0.14994636840E+04  0.43694899613E+03 -0.33311516381E+03  0.15969669900E+04  0.46999998093E+01 0. -1.
</event>
<event>
 5   0  0.1240725E-06  0.3196495E+04  0.7818609E-02  0.8189743E-01
        1   -1    0    0  501    0  0.00000000000E+00  0.00000000000E+00  0.28107445812E+04  0.28107445812E+04  0.50400001928E-02 0. -1.
       -1   -1    0    0    0  501  0.00000000000E+00  0.00000000000E+00 -0.90879648672E+03  0.90879648673E+03  0.50400001928E-02 0.  1.
    10030    2    1    2    0    0  0.00000000000E+00  0.00000000000E+00  0.19019480945E+04  0.37195410680E+04  0.31964948306E+04 0.  0.
        3    1    3    3  502    0  0.43213107978E+03  0.12866191771E+04  0.19330323131E+04  0.23619356703E+04  0.10100000352E+00 0. -1.
       -3    1    3    3    0  502 -0.43213107978E+03 -0.12866191771E+04 -0.31084218594E+02  0.13576053977E+04  0.10100000352E+00 0.  1.
</event>
<event>
 5   0  0.1273754E-06  0.3210923E+04  0.7818609E-02  0.8185938E-01
        1   -1    0    0  501    0  0.00000000000E+00  0.00000000000E+00  0.20449564444E+04  0.20449564444E+04  0.50400001928E-02 0.  1.
       -1   -1    0    0    0  501  0.00000000000E+00  0.00000000000E+00 -0.12604214157E+04  0.12604214157E+04  0.50400001928E-02 0. -1.
    10030    2    1    2    0    0  0.00000000000E+00  0.00000000000E+00  0.78453502874E+03  0.33053778602E+04  0.32109231674E+04 0.  0.
        2    1    3    3  502    0 -0.10941237341E+04 -0.11302361913E+04  0.72259047339E+03  0.17310914435E+04  0.25500000920E-02 0. -1.
       -2    1    3    3    0  502  0.10941237341E+04  0.11302361913E+04  0.61944555347E+02  0.15742864166E+04  0.25500000920E-02 0.  1.
</event>
<event>
 5   0  0.3531437E-06  0.3194939E+04  0.7818609E-02  0.8190155E-01
        2   -1    0    0  501    0  0.00000000000E+00  0.00000000000E+00  0.13466903322E+04  0.13466903322E+04  0.25500000920E-02 0.  1.
       -2   -1    0    0    0  501  0.00000000000E+00  0.00000000000E+00 -0.18949484751E+04  0.18949484751E+04  0.25500000920E-02 0. -1.
    10030    2    1    2    0    0  0.00000000000E+00  0.00000000000E+00 -0.54825814289E+03  0.32416388074E+04  0.31949389926E+04 0.  0.
        1    1    3    3  502    0  0.72896954833E+03 -0.12743315796E+04 -0.91308896304E+03  0.17288866451E+04  0.50400001928E-02 0. -1.
       -1    1    3    3    0  502 -0.72896954833E+03  0.12743315796E+04  0.36483082016E+03  0.15127521623E+04  0.50400001928E-02 0.  1.
</event>
<event>
 5   0  0.1273980E-06  0.3193182E+04  0.7818609E-02  0.8190620E-01
       -1   -1    0    0    0  501  0.00000000000E+00  0.00000000000E+00  0.10184266432E+04  0.10184266432E+04  0.50400001928E-02 0.  1.
        1   -1    0    0  501    0  0.00000000000E+00  0.00000000000E+00 -0.25029808874E+04  0.25029808874E+04  0.50400001928E-02 0. -1.
    10030    2    1    2    0    0  0.00000000000E+00  0.00000000000E+00 -0.14845542442E+04  0.35214075305E+04  0.31931817506E+04 0.  0.
        4    1    3    3  502    0 -0.28041927669E+03  0.15699375234E+04 -0.65856666086E+03  0.17254131267E+04  0.12699999809E+01 0.  1.
       -4    1    3    3    0  502  0.28041927669E+03 -0.15699375234E+04 -0.82598758336E+03  0.17959944039E+04  0.12699999809E+01 0. -1.
</event>
<event>
 5   0  0.3497546E-06  0.3195508E+04  0.7818609E-02  0.8190004E-01
       -2   -1    0    0    0  501  0.00000000000E+00  0.00000000000E+00  0.22629122354E+04  0.22629122354E+04  0.25500000920E-02 0.  1.
        2   -1    0    0  501    0  0.00000000000E+00  0.00000000000E+00 -0.11281119710E+04  0.11281119710E+04  0.25500000920E-02 0. -1.
    10030    2    1    2    0    0  0.00000000000E+00  0.00000000000E+00  0.11348002644E+04  0.33910242063E+04  0.31955083364E+04 0.  0.
        4    1    3    3  502    0 -0.99374183475E+03 -0.40991388380E+03  0.18217834057E+04  0.21152892513E+04  0.12699999809E+01 0.  1.
       -4    1    3    3    0  502  0.99374183475E+03  0.40991388380E+03 -0.68698314130E+03  0.12757349551E+04  0.12699999809E+01 0. -1.
</event>
<event>
 5   0  0.3758062E-06  0.3111363E+04  0.7818609E-02  0.8212626E-01
       -2   -1    0    0    0  501  0.00000000000E+00  0.00000000000E+00  0.17320482757E+04  0.17320482757E+04  0.25500000920E-02 0.  1.
        2   -1    0    0  501    0  0.00000000000E+00  0.00000000000E+00 -0.13972737260E+04  0.13972737260E+04  0.25500000920E-02 0. -1.
    10030    2    1    2    0    0  0.00000000000E+00  0.00000000000E+00  0.33477454966E+03  0.31293220017E+04  0.31113633975E+04 0.  0.
        2    1    3    3  502    0 -0.66695484661E+03  0.51998705241E+03  0.14806536445E+04  0.17051541036E+04  0.25500000920E-02 0.  1.
       -2    1    3    3    0  502  0.66695484661E+03 -0.51998705241E+03 -0.11458790948E+04  0.14241678981E+04  0.25500000920E-02 0. -1.
</event>
<event>
 5   0  0.1273980E-06  0.3269385E+04  0.7818609E-02  0.8170729E-01
       -1   -1    0    0    0  501  0.00000000000E+00  0.00000000000E+00  0.14710049205E+04  0.14710049205E+04  0.50400001928E-02 0.  1.
        1   -1    0    0  501    0  0.00000000000E+00  0.00000000000E+00 -0.18165941681E+04  0.18165941681E+04  0.50400001928E-02 0. -1.
    10030    2    1    2    0    0  0.00000000000E+00  0.00000000000E+00 -0.34558924765E+03  0.32875990886E+04  0.32693846270E+04 0.  0.
        4    1    3    3  502    0 -0.96801526097E+03 -0.21530881484E+03  0.11339860589E+04  0.15064320184E+04  0.12699999809E+01 0.  1.
       -4    1    3    3    0  502  0.96801526097E+03  0.21530881484E+03 -0.14795753066E+04  0.17811670702E+04  0.12699999809E+01 0. -1.
</event>
<event>
 5   0  0.3497546E-06  0.3194390E+04  0.7818609E-02  0.8190300E-01
        2   -1    0    0  501    0  0.00000000000E+00  0.00000000000E+00  0.26573176197E+04  0.26573176197E+04  0.25500000920E-02 0.  1.
       -2   -1    0    0    0  501  0.00000000000E+00  0.00000000000E+00 -0.96000289311E+03  0.96000289311E+03  0.25500000920E-02 0. -1.
    10030    2    1    2    0    0  0.00000000000E+00  0.00000000000E+00  0.16973147266E+04  0.36173205128E+04  0.31943904600E+04 0.  0.
        4    1    3    3  502    0 -0.19721295507E+03 -0.12332085146E+03  0.26380357004E+04  0.26482701810E+04  0.12699999809E+01 0.  1.
       -4    1    3    3    0  502  0.19721295507E+03  0.12332085146E+03 -0.94072097383E+03  0.96905033180E+03  0.12699999809E+01 0. -1.
</event>
<event>
 5   0  0.1240725E-06  0.3076485E+04  0.7818609E-02  0.8222221E-01
       -1   -1    0    0    0  501  0.00000000000E+00  0.00000000000E+00  0.20590680866E+04  0.20590680866E+04  0.50400001928E-02 0. -1.
        1   -1    0    0  501    0  0.00000000000E+00  0.00000000000E+00 -0.11491560636E+04  0.11491560636E+04  0.50400001928E-02 0.  1.
    10030    2    1    2    0    0  0.00000000000E+00  0.00000000000E+00  0.90991202297E+03  0.32082241502E+04  0.30764853824E+04 0.  0.
        3    1    3    3  502    0 -0.48866726692E+03 -0.12259328115E+04 -0.36912587875E+03  0.13703871280E+04  0.10100000352E+00 0.  1.
       -3    1    3    3    0  502  0.48866726692E+03  0.12259328115E+04  0.12790379017E+04  0.18378370222E+04  0.10100000352E+00 0. -1.
</event>
<event>
 5   0  0.3745943E-06  0.3163174E+04  0.7818609E-02  0.8198611E-01
        2   -1    0    0  501    0  0.00000000000E+00  0.00000000000E+00  0.17214693688E+04  0.17214693688E+04  0.25500000920E-02 0. -1.
       -2   -1    0    0    0  501  0.00000000000E+00  0.00000000000E+00 -0.14530715170E+04  0.14530715170E+04  0.25500000920E-02 0.  1.
    10030    2    1    2    0    0  0.00000000000E+00  0.00000000000E+00  0.26839785181E+03  0.31745408859E+04  0.31631744228E+04 0.  0.
        5    1    3    3  502    0  0.35447297858E+03  0.15391442711E+04  0.51563279936E+02  0.15802838484E+04  0.46999998093E+01 0. -1.
       -5    1    3    3    0  502 -0.35447297858E+03 -0.15391442711E+04  0.21683457188E+03  0.15942570374E+04  0.46999998093E+01 0.  1.
</event>
<event>
 5   0  0.3745943E-06  0.3140208E+04  0.7818609E-02  0.8204789E-01
       -2   -1    0    0    0  501  0.00000000000E+00  0.00000000000E+00  0.10923855598E+04  0.10923855598E+04  0.25500000920E-02 0.  1.
        2   -1    0    0  501    0  0.00000000000E+00  0.00000000000E+00 -0.22567362367E+04  0.22567362367E+04  0.25500000920E-02 0. -1.
    10030    2    1    2    0    0  0.00000000000E+00  0.00000000000E+00 -0.11643506769E+04  0.33491217965E+04  0.31402076856E+04 0.  0.
        5    1    3    3  502    0 -0.87576322886E+03  0.94377492164E+03 -0.15405875670E+04  0.20077610608E+04  0.46999998093E+01 0. -1.
       -5    1    3    3    0  502  0.87576322886E+03 -0.94377492164E+03  0.37623689011E+03  0.13413607357E+04  0.46999998093E+01 0.  1.
</event>
<event>
 5   0  0.3531437E-06  0.3194739E+04  0.7818609E-02  0.8190208E-01
       -2   -1    0    0    0  501  0.00000000000E+00  0.00000000000E+00  0.13874569029E+04  0.13874569029E+04  0.25500000920E-02 0.  1.
        2   -1    0    0  501    0  0.00000000000E+00  0.00000000000E+00 -0.18390404400E+04  0.18390404400E+04  0.25500000920E-02 0. -1.
    10030    2    1    2    0    0  0.00000000000E+00  0.00000000000E+00 -0.45158353714E+03  0.32264973430E+04  0.31947390211E+04 0.  0.
        1    1    3    3  502    0  0.59194252124E+03 -0.14066915851E+04  0.25050234922E+03  0.15465861085E+04  0.50400001928E-02 0. -1.
       -1    1    3    3    0  502 -0.59194252124E+03  0.14066915851E+04 -0.70208588636E+03  0.16799112345E+04  0.50400001928E-02 0.  1.
</event>
<event>
 5   0  0.1273980E-06  0.3195099E+04  0.7818609E-02  0.8190113E-01
        1   -1    0    0  501    0  0.00000000000E+00  0.00000000000E+00  0.19548839933E+04  0.19548839933E+04  0.50400001928E-02 0. -1.
       -1   -1    0    0    0  501  0.00000000000E+00  0.00000000000E+00 -0.13055320760E+04  0.13055320760E+04  0.50400001928E-02 0.  1.
    10030    2    1    2    0    0  0.00000000000E+00  0.00000000000E+00  0.64935191734E+03  0.32604160693E+04  0.31950985951E+04 0.  0.
        4    1    3    3  502    0 -0.92816028790E+03 -0.12820791429E+04  0.54579373327E+03  0.16742463561E+04  0.12699999809E+01 0.  1.
       -4    1    3    3    0  502  0.92816028790E+03  0.12820791429E+04  0.10355818408E+03  0.15861697132E+04  0.12699999809E+01 0. -1.
</event>
<event>
 5   0  0.1240725E-06  0.3207623E+04  0.7818609E-02  0.8186807E-01
        1   -1    0    0  501    0  0.00000000000E+00  0.00000000000E+00  0.23682146412E+04  0.23682146412E+04  0.50400001928E-02 0. -1.
       -1   -1    0    0    0  501  0.00000000000E+00  0.00000000000E+00 -0.10861391337E+04  0.10861391337E+04  0.50400001928E-02 0.  1.
    10030    2    1    2    0    0  0.00000000000E+00  0.00000000000E+00  0.12820755075E+04  0.34543537750E+04  0.32076225457E+04 0.  0.
        3    1    3    3  502    0 -0.61015572432E+03 -0.81425227622E+03 -0.69404539017E+03  0.12316638304E+04  0.10100000352E+00 0.  1.
       -3    1    3    3    0  502  0.61015572432E+03  0.81425227622E+03  0.19761208977E+04  0.22226899446E+04  0.10100000352E+00 0. -1.
</event>
<event>
 5   0  0.1240725E-06  0.3223591E+04  0.7818609E-02  0.8182615E-01
        1   -1    0    0  501    0  0.00000000000E+00  0.00000000000E+00  0.18529296274E+04  0.18529296274E+04  0.50400001928E-02 0.  1.
       -1   -1    0    0    0  501  0.00000000000E+00  0.00000000000E+00 -0.14020413504E+04  0.14020413504E+04  0.50400001928E-02 0. -1.
    10030    2    1    2    0    0  0.00000000000E+00  0.00000000000E+00  0.45088827693E+03  0.32549709778E+04  0.32235905180E+04 0.  0.
        3    1    3    3  502    0 -0.94349742640E+03  0.61183673754E+02  0.15435068410E+04  0.18100674612E+04  0.10100000352E+00 0.  1.
       -3    1    3    3    0  502  0.94349742640E+03 -0.61183673754E+02 -0.10926185641E+04  0.14449035166E+04  0.10100000352E+00 0. -1.
</event>
<event>
 5   0  0.3497546E-06  0.3207560E+04  0.7818609E-02  0.8186823E-01
       -2   -1    0    0    0  501  0.00000000000E+00  0.00000000000E+00  0.12846369501E+04  0.12846369501E+04  0.25500000920E-02 0.  1.
        2   -1    0    0  501    0  0.00000000000E+00  0.00000000000E+00 -0.20022082664E+04  0.20022082664E+04  0.25500000920E-02 0. -1.
    10030    2    1    2    0    0  0.00000000000E+00  0.00000000000E+00 -0.71757131637E+03  0.32868452165E+04  0.32075602696E+04 0.  0.
        4    1    3    3  502    0  0.16893109180E+03  0.10827084109E+03 -0.19892950782E+04  0.19993891092E+04  0.12699999809E+01 0. -1.
       -4    1    3    3    0  502 -0.16893109180E+03 -0.10827084109E+03  0.12717237619E+04  0.12874561073E+04  0.12699999809E+01 0.  1.
</event>
<event>
 5   0  0.1306843E-06  0.3006957E+04  0.7818609E-02  0.8241747E-01
        1   -1    0    0  501    0  0.00000000000E+00  0.00000000000E+00  0.17411170604E+04  0.17411170604E+04  0.50400001928E-02 0. -1.
       -1   -1    0    0    0  501  0.00000000000E+00  0.00000000000E+00 -0.12982746067E+04  0.12982746068E+04  0.50400001928E-02 0.  1.
    10030    2    1    2    0    0  0.00000000000E+00  0.00000000000E+00  0.44284245369E+03  0.30393916672E+04  0.30069573106E+04 0.  0.
        5    1    3    3  502    0  0.34707456858E+03  0.11920606216E+04 -0.63563787649E+03  0.13948214515E+04  0.46999998093E+01 0.  1.
       -5    1    3    3    0  502 -0.34707456858E+03 -0.11920606216E+04  0.10784803302E+04  0.16445702157E+04  0.46999998093E+01 0. -1.
</event>
<event>
 5   0  0.1273980E-06  0.3230683E+04  0.7818609E-02  0.8180761E-01
        1   -1    0    0  501    0  0.00000000000E+00  0.00000000000E+00  0.27217250734E+04  0.27217250734E+04  0.50400001928E-02 0. -1.
       -1   -1    0    0    0  501  0.00000000000E+00  0.00000000000E+00 -0.95870381924E+03  0.95870381926E+03  0.50400001928E-02 0.  1.
    10030    2    1    2    0    0  0.00000000000E+00  0.00000000000E+00  0.17630212541E+04  0.36804288926E+04  0.32306830379E+04 0.  0.
        4    1    3    3  502    0 -0.11519821791E+04 -0.53743733301E+03  0.20169699350E+04  0.23841290148E+04  0.12699999809E+01 0. -1.
       -4    1    3    3    0  502  0.11519821791E+04  0.53743733301E+03 -0.25394868084E+03  0.12962998778E+04  0.12699999809E+01 0.  1.
</event>
<event>
 5   0  0.1273754E-06  0.3206643E+04  0.7818609E-02  0.8187065E-01
       -1   -1    0    0    0  501  0.00000000000E+00  0.00000000000E+00  0.12656464609E+04  0.12656464609E+04  0.50400001928E-02 0.  1.
        1   -1    0    0  501    0  0.00000000000E+00  0.00000000000E+00 -0.20310879713E+04  0.20310879713E+04  0.50400001928E-02 0. -1.
    10030    2    1    2    0    0  0.00000000000E+00  0.00000000000E+00 -0.76544151042E+03  0.32967344323E+04  0.32066426697E+04 0.  0.
        2    1    3    3  502    0  0.12447557087E+04  0.62768602277E+03  0.43151050534E+03  0.14593175918E+04  0.25500000920E-02 0.  1.
       -2    1    3    3    0  502 -0.12447557087E+04 -0.62768602277E+03 -0.11969520158E+04  0.18374168405E+04  0.25500000920E-02 0. -1.
</event>
<event>
 5   0  0.3656086E-06  0.3010018E+04  0.7818609E-02  0.8240876E-01
       -2   -1    0    0    0  501  0.00000000000E+00  0.00000000000E+00  0.15273190953E+04  0.15273190953E+04  0.25500000920E-02 0.  1.
        2   -1    0    0  501    0  0.00000000000E+00  0.00000000000E+00 -0.14830249265E+04  0.14830249265E+04  0.25500000920E-02 0. -1.
    10030    2    1    2    0    0  0.00000000000E+00  0.00000000000E+00  0.44294168799E+02  0.30103440218E+04  0.30100181322E+04 0.  0.
        3    1    3    3  502    0  0.28205985108E+03 -0.14641063941E+04  0.22683234646E+03  0.15081837476E+04  0.10100000352E+00 0. -1.
       -3    1    3    3    0  502 -0.28205985108E+03  0.14641063941E+04 -0.18253817766E+03  0.15021602742E+04  0.10100000352E+00 0.  1.
</event>
<event>
 5   0  0.3497546E-06  0.3222614E+04  0.7818609E-02  0.8182870E-01
       -2   -1    0    0    0  501  0.00000000000E+00  0.00000000000E+00  0.12474029528E+04  0.12474029528E+04  0.25500000920E-02 0.  1.
        2   -1    0    0  501    0  0.00000000000E+00  0.00000000000E+00 -0.20813722611E+04  0.20813722611E+04  0.25500000920E-02 0. -1.
    10030    2    1    2    0    0  0.00000000000E+00  0.00000000000E+00 -0.83396930838E+03  0.33287752139E+04  0.32226137866E+04 0.  0.
        4    1    3    3  502    0 -0.67549273224E+02 -0.14350330121E+04  0.33672779678E+03  0.14755574784E+04  0.12699999809E+01 0.  1.
       -4    1    3    3    0  502  0.67549273224E+02  0.14350330121E+04 -0.11706971052E+04  0.18532177355E+04  0.12699999809E+01 0. -1.
</event>
<event>
 5   0  0.3531437E-06  0.3110553E+04  0.7818609E-02  0.8212848E-01
        2   -1    0    0  501    0  0.00000000000E+00  0.00000000000E+00  0.15099987658E+04  0.15099987658E+04  0.25500000920E-02 0. -1.
       -2   -1    0    0    0  501  0.00000000000E+00  0.00000000000E+00 -0.16019118994E+04  0.16019118994E+04  0.25500000920E-02 0.  1.
    10030    2    1    2    0    0  0.00000000000E+00  0.00000000000E+00 -0.91913133589E+02  0.31119106653E+04  0.31105529998E+04 0.  0.
        1    1    3    3  502    0  0.92154844533E+03 -0.95972726572E+03 -0.85163845526E+03  0.15797518856E+04  0.50400001928E-02 0.  1.
       -1    1    3    3    0  502 -0.92154844533E+03  0.95972726572E+03  0.75972532167E+03  0.15321587797E+04  0.50400001928E-02 0. -1.
</event>
<event>
 5   0  0.3656086E-06  0.3108467E+04  0.7818609E-02  0.8213418E-01
        2   -1    0    0  501    0  0.00000000000E+00  0.00000000000E+00  0.29576325829E+04  0.29576325829E+04  0.25500000920E-02 0. -1.
       -2   -1    0    0    0  501  0.00000000000E+00  0.00000000000E+00 -0.81674837569E+03  0.81674837570E+03  0.25500000920E-02 0.  1.
    10030    2    1    2    0    0  0.00000000000E+00  0.00000000000E+00  0.21408842072E+04  0.37743809586E+04  0.31084668941E+04 0.  0.
        3    1    3    3  502    0 -0.34701116749E+03 -0.42489980331E+03  0.28361641072E+04  0.28887338829E+04  0.10100000352E+00 0. -1.
       -3    1    3    3    0  502  0.34701116749E+03  0.42489980331E+03 -0.69527989996E+03  0.88564707570E+03  0.10100000352E+00 0.  1.
</event>
<event>
 5   0  0.1306843E-06  0.2577453E+04  0.7818609E-02  0.8375900E-01
       -1   -1    0    0    0  501  0.00000000000E+00  0.00000000000E+00  0.17143487373E+04  0.17143487373E+04  0.50400001928E-02 0.  1.
        1   -1    0    0  501    0  0.00000000000E+00  0.00000000000E+00 -0.96877366566E+03  0.96877366568E+03  0.50400001928E-02 0. -1.
    10030    2    1    2    0    0  0.00000000000E+00  0.00000000000E+00  0.74557507159E+03  0.26831224029E+04  0.25774529369E+04 0.  0.
        5    1    3    3  502    0  0.34656853694E+02  0.69237710409E+03 -0.75812436325E+03  0.10273080317E+04  0.46999998093E+01 0. -1.
       -5    1    3    3    0  502 -0.34656853694E+02 -0.69237710409E+03  0.15036994348E+04  0.16558143713E+04  0.46999998093E+01 0.  1.
</event>
<event>
 5   0  0.1273980E-06  0.3182201E+04  0.7818609E-02  0.8193534E-01
       -1   -1    0    0    0  501  0.00000000000E+00  0.00000000000E+00  0.16819022672E+04  0.16819022672E+04  0.50400001928E-02 0.  1.
        1   -1    0    0  501    0  0.00000000000E+00  0.00000000000E+00 -0.15052012674E+04  0.15052012674E+04  0.50400001928E-02 0. -1.
    10030    2    1    2    0    0  0.00000000000E+00  0.00000000000E+00  0.17670099978E+03  0.31871035347E+04  0.31822013917E+04 0.  0.
        4    1    3    3  502    0 -0.92599513074E+03 -0.11906452383E+03 -0.12020272330E+04  0.15220099950E+04  0.12699999809E+01 0. -1.
       -4    1    3    3    0  502  0.92599513074E+03  0.11906452383E+03  0.13787282328E+04  0.16650935397E+04  0.12699999809E+01 0.  1.
</event>
<event>
 5   0  0.1306843E-06  0.3179143E+04  0.7818609E-02  0.8194347E-01
       -1   -1    0    0    0  501  0.00000000000E+00  0.00000000000E+00  0.17687261290E+04  0.17687261290E+04  0.50400001928E-02 0.  1.
        1   -1    0    0  501    0  0.00000000000E+00  0.00000000000E+00 -0.14285633886E+04  0.14285633886E+04  0.50400001928E-02 0. -1.
    10030    2    1    2    0    0  0.00000000000E+00  0.00000000000E+00  0.34016274039E+03  0.31972895176E+04  0.31791428986E+04 0.  0.
        5    1    3    3  502    0 -0.78677555374E+03 -0.95899795910E+03  0.11697482871E+04  0.17050002940E+04  0.46999998093E+01 0.  1.
       -5    1    3    3    0  502  0.78677555374E+03  0.95899795910E+03 -0.82958554671E+03  0.14922892236E+04  0.46999998093E+01 0. -1.
</event>
<event>
 5   0  0.1268836E-06  0.3207463E+04  0.7818609E-02  0.8186849E-01
       -1   -1    0    0    0  501  0.00000000000E+00  0.00000000000E+00  0.24151301592E+04  0.24151301592E+04  0.50400001928E-02 0.  1.
        1   -1    0    0  501    0  0.00000000000E+00  0.00000000000E+00 -0.10649340584E+04  0.10649340584E+04  0.50400001928E-02 0. -1.
    10030    2    1    2    0    0  0.00000000000E+00  0.00000000000E+00  0.13501961008E+04  0.34800642176E+04  0.32074627742E+04 0.  0.
        1    1    3    3  502    0 -0.68133773506E+03 -0.11354609655E+04 -0.30647991441E+03  0.13591992684E+04  0.50400001928E-02 0. -1.
       -1    1    3    3    0  502  0.68133773506E+03  0.11354609655E+04  0.16566760152E+04  0.21208649492E+04  0.50400001928E-02 0.  1.
</event>
<event>
 5   0  0.3497546E-06  0.3237939E+04  0.7818609E-02  0.8178869E-01
        2   -1    0    0  501    0  0.00000000000E+00  0.00000000000E+00  0.25789592081E+04  0.25789592081E+04  0.25500000920E-02 0. -1.
       -2   -1    0    0    0  501  0.00000000000E+00  0.00000000000E+00 -0.10163258460E+04  0.10163258460E+04  0.25500000920E-02 0.  1.
    10030    2    1    2    0    0  0.00000000000E+00  0.00000000000E+00  0.15626333621E+04  0.35952850541E+04  0.32379394058E+04 0.  0.
        4    1    3    3  502    0  0.86941205245E+03  0.30090867084E+03  0.22604914605E+04  0.24405422760E+04  0.12699999809E+01 0. -1.
       -4    1    3    3    0  502 -0.86941205245E+03 -0.30090867084E+03 -0.69785809838E+03  0.11547427781E+04  0.12699999809E+01 0.  1.
</event>
<event>
 5   0  0.3531437E-06  0.3154840E+04  0.7818609E-02  0.8200847E-01
       -2   -1    0    0    0  501  0.00000000000E+00  0.00000000000E+00  0.16297026313E+04  0.16297026313E+04  0.25500000920E-02 0. -1.
        2   -1    0    0  501    0  0.00000000000E+00  0.00000000000E+00 -0.15268149389E+04  0.15268149389E+04  0.25500000920E-02 0.  1.
    10030    2    1    2    0    0  0.00000000000E+00  0.00000000000E+00  0.10288769241E+03  0.31565175703E+04  0.31548402961E+04 0.  0.
        1    1    3    3  502    0  0.82313314671E+03 -0.38897953996E+03  0.13403061264E+04  0.16202696604E+04  0.50400001928E-02 0. -1.
       -1    1    3    3    0  502 -0.82313314671E+03  0.38897953996E+03 -0.12374184340E+04  0.15362479099E+04  0.50400001928E-02 0.  1.
</event>
<event>
 5   0  0.3758062E-06  0.3186019E+04  0.7818609E-02  0.8192519E-01
        2   -1    0    0  501    0  0.00000000000E+00  0.00000000000E+00  0.20088135341E+04  0.20088135341E+04  0.25500000920E-02 0.  1.
       -2   -1    0    0    0  501  0.00000000000E+00  0.00000000000E+00 -0.12632724237E+04  0.12632724237E+04  0.25500000920E-02 0. -1.
    10030    2    1    2    0    0  0.00000000000E+00  0.00000000000E+00  0.74554111042E+03  0.32720859578E+04  0.31860186704E+04 0.  0.
        2    1    3    3  502    0 -0.77401554424E+03 -0.13923192141E+04  0.36754535970E+03  0.16348524240E+04  0.25500000920E-02 0.  1.
       -2    1    3    3    0  502  0.77401554424E+03  0.13923192141E+04  0.37799575072E+03  0.16372335338E+04  0.25500000920E-02 0. -1.
</event>
<event>
 5   0  0.1240725E-06  0.3086530E+04  0.7818609E-02  0.8219444E-01
       -1   -1    0    0    0  501  0.00000000000E+00  0.00000000000E+00  0.24161255349E+04  0.24161255349E+04  0.50400001928E-02 0.  1.
        1   -1    0    0  501    0  0.00000000000E+00  0.00000000000E+00 -0.98573777599E+03  0.98573777600E+03  0.50400001928E-02 0. -1.
    10030    2    1    2    0    0  0.00000000000E+00  0.00000000000E+00  0.14303877589E+04  0.34018633109E+04  0.30865295795E+04 0.  0.
        3    1    3    3  502    0  0.80334215932E+03  0.68316058060E+03 -0.52668641401E+03  0.11787559513E+04  0.10100000352E+00 0. -1.
       -3    1    3    3    0  502 -0.80334215932E+03 -0.68316058060E+03  0.19570741729E+04  0.22231073596E+04  0.10100000352E+00 0.  1.
</event>
<event>
 5   0  0.3656086E-06  0.2789850E+04  0.7818609E-02  0.8306426E-01
       -2   -1    0    0    0  501  0.00000000000E+00  0.00000000000E+00  0.18689695319E+04  0.18689695319E+04  0.25500000920E-02 0.  1.
        2   -1    0    0  501    0  0.00000000000E+00  0.00000000000E+00 -0.10411172181E+04  0.10411172181E+04  0.25500000920E-02 0. -1.
    10030    2    1    2    0    0  0.00000000000E+00  0.00000000000E+00  0.82785231386E+03  0.29100867500E+04  0.27898504331E+04 0.  0.
        3    1    3    3  502    0 -0.66493018174E+03  0.88191468332E+03 -0.47479723630E+03  0.12022221430E+04  0.10100000352E+00 0. -1.
       -3    1    3    3    0  502  0.66493018174E+03 -0.88191468332E+03  0.13026495502E+04  0.17078646070E+04  0.10100000352E+00 0.  1.
</event>
<event>
 5   0  0.3745943E-06  0.3209748E+04  0.7818609E-02  0.8186247E-01
        2   -1    0    0  501    0  0.00000000000E+00  0.00000000000E+00  0.19095277665E+04  0.19095277665E+04  0.25500000920E-02 0.  1.
       -2   -1    0    0    0  501  0.00000000000E+00  0.00000000000E+00 -0.13488260805E+04  0.13488260805E+04  0.25500000920E-02 0. -1.
    10030    2    1    2    0    0  0.00000000000E+00  0.00000000000E+00  0.56070168598E+03  0.32583538469E+04  0.32097481850E+04 0.  0.
        5    1    3    3  502    0  0.71472189584E+03  0.16453535061E+03  0.17294474924E+04  0.18785393232E+04  0.46999998093E+01 0.  1.
       -5    1    3    3    0  502 -0.71472189584E+03 -0.16453535061E+03 -0.11687458064E+04  0.13798145237E+04  0.46999998093E+01 0. -1.
</event>
<event>
 5   0  0.3531437E-06  0.3246844E+04  0.7818609E-02  0.8176554E-01
       -2   -1    0    0    0  501  0.00000000000E+00  0.00000000000E+00  0.19765991784E+04  0.19765991784E+04  0.25500000920E-02 0.  1.
        2   -1    0    0  501    0  0.00000000000E+00  0.00000000000E+00 -0.13333500551E+04  0.13333500551E+04  0.25500000920E-02 0. -1.
    10030    2    1    2    0    0  0.00000000000E+00  0.00000000000E+00  0.64324912333E+03  0.33099492336E+04  0.32468437742E+04 0.  0.
        1    1    3    3  502    0  0.12037697653E+04 -0.16867226456E+03 -0.77538828960E+03  0.14417832640E+04  0.50400001928E-02 0. -1.
       -1    1    3    3    0  502 -0.12037697653E+04  0.16867226456E+03  0.14186374129E+04  0.18681659696E+04  0.50400001928E-02 0.  1.
</event>
<event>
 5   0  0.1240725E-06  0.2993269E+04  0.7818609E-02  0.8245656E-01
        1   -1    0    0  501    0  0.00000000000E+00  0.00000000000E+00  0.13150618261E+04  0.13150618261E+04  0.50400001928E-02 0.  1.
       -1   -1    0    0    0  501  0.00000000000E+00  0.00000000000E+00 -0.17032769589E+04  0.17032769589E+04  0.50400001928E-02 0. -1.
    10030    2    1    2    0    0  0.00000000000E+00  0.00000000000E+00 -0.38821513279E+03  0.30183387849E+04  0.29932687870E+04 0.  0.
        3    1    3    3  502    0  0.50166514493E+03  0.11625195539E+04  0.61057027888E+03  0.14056726882E+04  0.10100000352E+00 0.  1.
       -3    1    3    3    0  502 -0.50166514493E+03 -0.11625195539E+04 -0.99878541167E+03  0.16126660967E+04  0.10100000352E+00 0. -1.
</event>
<event>
 5   0  0.1273980E-06  0.3204685E+04  0.7818609E-02  0.8187581E-01
        1   -1    0    0  501    0  0.00000000000E+00  0.00000000000E+00  0.17633000051E+04  0.17633000051E+04  0.50400001928E-02 0.  1.
       -1   -1    0    0    0  501  0.00000000000E+00  0.00000000000E+00 -0.14560773854E+04  0.14560773854E+04  0.50400001928E-02 0. -1.
    10030    2    1    2    0    0  0.00000000000E+00  0.00000000000E+00  0.30722261972E+03  0.32193773905E+04  0.32046848588E+04 0.  0.
        4    1    3    3  502    0  0.90241074477E+03 -0.77924467763E+03  0.12290013951E+04  0.17123123144E+04  0.12699999809E+01 0.  1.
       -4    1    3    3    0  502 -0.90241074477E+03  0.77924467763E+03 -0.92177877538E+03  0.15070650761E+04  0.12699999809E+01 0. -1.
</event>
<event>
 5   0  0.1240725E-06  0.3260646E+04  0.7818609E-02  0.8172982E-01
        1   -1    0    0  501    0  0.00000000000E+00  0.00000000000E+00  0.17862790340E+04  0.17862790340E+04  0.50400001928E-02 0. -1.
       -1   -1    0    0    0  501  0.00000000000E+00  0.00000000000E+00 -0.14879830625E+04  0.14879830625E+04  0.50400001928E-02 0.  1.
    10030    2    1    2    0    0  0.00000000000E+00  0.00000000000E+00  0.29829597149E+03  0.32742620965E+04  0.32606459161E+04 0.  0.
        3    1    3    3  502    0  0.14769452487E+04  0.55556831345E+03  0.56065128581E+03  0.16746203430E+04  0.10100000352E+00 0. -1.
       -3    1    3    3    0  502 -0.14769452487E+04 -0.55556831345E+03 -0.26235531432E+03  0.15996417536E+04  0.10100000352E+00 0.  1.
</event>
<event>
 5   0  0.3497546E-06  0.3031934E+04  0.7818609E-02  0.8234670E-01
        2   -1    0    0  501    0  0.00000000000E+00  0.00000000000E+00  0.17367000380E+04  0.17367000380E+04  0.25500000920E-02 0. -1.
       -2   -1    0    0    0  501  0.00000000000E+00  0.00000000000E+00 -0.13232893165E+04  0.13232893165E+04  0.25500000920E-02 0.  1.
    10030    2    1    2    0    0  0.00000000000E+00  0.00000000000E+00  0.41341072156E+03  0.30599893545E+04  0.30319344361E+04 0.  0.
        4    1    3    3  502    0 -0.66643930492E+02  0.76323443956E+03  0.15269329888E+04  0.17083600874E+04  0.12699999809E+01 0. -1.
       -4    1    3    3    0  502  0.66643930492E+02 -0.76323443956E+03 -0.11135222672E+04  0.13516292671E+04  0.12699999809E+01 0.  1.
</event>
<event>
 5   0  0.3745943E-06  0.3327875E+04  0.7818609E-02  0.8155839E-01
       -2   -1    0    0    0  501  0.00000000000E+00  0.00000000000E+00  0.95855044102E+03  0.95855044102E+03  0.25500000920E-02 0. -1.
        2   -1    0    0  501    0  0.00000000000E+00  0.00000000000E+00 -0.28884109977E+04  0.28884109977E+04  0.25500000920E-02 0.  1.
    10030    2    1    2    0    0  0.00000000000E+00  0.00000000000E+00 -0.19298605567E+04  0.38469614387E+04  0.33278747787E+04 0.  0.
        5    1    3    3  502    0  0.28120319738E+03 -0.16067455244E+04 -0.58510790816E+03  0.17329396333E+04  0.46999998093E+01 0. -1.
       -5    1    3    3    0  502 -0.28120319738E+03  0.16067455244E+04 -0.13447526485E+04  0.21140218055E+04  0.46999998093E+01 0.  1.
</event>
<event>
 5   0  0.3758062E-06  0.3159709E+04  0.7818609E-02  0.8199540E-01
        2   -1    0    0  501    0  0.00000000000E+00  0.00000000000E+00  0.20941873332E+04  0.20941873332E+04  0.25500000920E-02 0.  1.
       -2   -1    0    0    0  501  0.00000000000E+00  0.00000000000E+00 -0.11918421066E+04  0.11918421066E+04  0.25500000920E-02 0. -1.
    10030    2    1    2    0    0  0.00000000000E+00  0.00000000000E+00  0.90234522656E+03  0.32860294399E+04  0.31597092543E+04 0.  0.
        2    1    3    3  502    0 -0.10428933883E+04  0.51117526424E+02 -0.78184933746E+03  0.13044263135E+04  0.25500000920E-02 0. -1.
       -2    1    3    3    0  502  0.10428933883E+04 -0.51117526424E+02  0.16841945640E+04  0.19816031263E+04  0.25500000920E-02 0.  1.
</event>
<event>
 5   0  0.3656086E-06  0.3212083E+04  0.7818609E-02  0.8185633E-01
        2   -1    0    0  501    0  0.00000000000E+00  0.00000000000E+00  0.18009044837E+04  0.18009044837E+04  0.25500000920E-02 0.  1.
       -2   -1    0    0    0  501  0.00000000000E+00  0.00000000000E+00 -0.14322628155E+04  0.14322628155E+04  0.25500000920E-02 0. -1.
    10030    2    1    2    0    0  0.00000000000E+00  0.00000000000E+00  0.36864166816E+03  0.32331672992E+04  0.32120825184E+04 0.  0.
        3    1    3    3  502    0 -0.10084600991E+04 -0.12478989012E+04  0.25638040665E+03  0.16247997914E+04  0.10100000352E+00 0. -1.
       -3    1    3    3    0  502  0.10084600991E+04  0.12478989012E+04  0.11226126151E+03  0.16083675078E+04  0.10100000352E+00 0.  1.
</event>
<event>
 5   0  0.3758062E-06  0.3281619E+04  0.7818609E-02  0.8167588E-01
       -2   -1    0    0    0  501  0.00000000000E+00  0.00000000000E+00  0.11271323422E+04  0.11271323422E+04  0.25500000920E-02 0.  1.
        2   -1    0    0  501    0  0.00000000000E+00  0.00000000000E+00 -0.23885883911E+04  0.23885883911E+04  0.25500000920E-02 0. -1.
    10030    2    1    2    0    0  0.00000000000E+00  0.00000000000E+00 -0.12614560489E+04  0.35157207334E+04  0.32816186420E+04 0.  0.
        2    1    3    3  502    0  0.49870736935E+03 -0.15487365912E+04 -0.85789490176E+03  0.18393688406E+04  0.25500000920E-02 0.  1.
       -2    1    3    3    0  502 -0.49870736935E+03  0.15487365912E+04 -0.40356114713E+03  0.16763518928E+04  0.25500000920E-02 0. -1.
</event>
<event>
 5   0  0.3656086E-06  0.3214742E+04  0.7818609E-02  0.8184935E-01
       -2   -1    0    0    0  501  0.00000000000E+00  0.00000000000E+00  0.19272365688E+04  0.19272365688E+04  0.25500000920E-02 0.  1.
        2   -1    0    0  501    0  0.00000000000E+00  0.00000000000E+00 -0.13405935259E+04  0.13405935259E+04  0.25500000920E-02 0. -1.
    10030    2    1    2    0    0  0.00000000000E+00  0.00000000000E+00  0.58664304292E+03  0.32678300947E+04  0.32147415865E+04 0.  0.
        3    1    3    3  502    0 -0.83670210512E+03 -0.11233899355E+04  0.10947353814E+04  0.17777853992E+04  0.10100000352E+00 0.  1.
       -3    1    3    3    0  502  0.83670210512E+03  0.11233899355E+04 -0.50809233849E+03  0.14900446955E+04  0.10100000352E+00 0. -1.
</event>
<event>
 5   0  0.3656086E-06  0.2351362E+04  0.7818609E-02  0.8457941E-01
        2   -1    0    0  501    0  0.00000000000E+00  0.00000000000E+00  0.20355095201E+04  0.20355095201E+04  0.25500000920E-02 0.  1.
       -2   -1    0    0    0  501  0.00000000000E+00  0.00000000000E+00 -0.67905626816E+03  0.67905626817E+03  0.25500000920E-02 0. -1.
    10030    2    1    2    0    0  0.00000000000E+00  0.00000000000E+00  0.13564532520E+04  0.27145657883E+04  0.23513617319E+04 0.  0.
        3    1    3    3  502    0  0.33228454453E+03  0.17525389749E+03  0.19643542258E+04  0.19999536199E+04  0.10100000352E+00 0.  1.
       -3    1    3    3    0  502 -0.33228454453E+03 -0.17525389749E+03 -0.60790097380E+03  0.71461216843E+03  0.10100000352E+00 0. -1.
</event>
<event>
 5   0  0.3497546E-06  0.3201237E+04  0.7818609E-02  0.8188491E-01
       -2   -1    0    0    0  501  0.00000000000E+00  0.00000000000E+00  0.11156066237E+04  0.11156066237E+04  0.25500000920E-02 0. -1.
        2   -1    0    0  501    0  0.00000000000E+00  0.00000000000E+00 -0.22964899152E+04  0.22964899152E+04  0.25500000920E-02 0.  1.
    10030    2    1    2    0    0  0.00000000000E+00  0.00000000000E+00 -0.11808832915E+04  0.34120965389E+04  0.32012368614E+04 0.  0.
        4    1    3    3  502    0  0.63322139848E+03  0.50364539345E+03  0.88159515289E+03  0.11965950227E+04  0.12699999809E+01 0. -1.
       -4    1    3    3    0  502 -0.63322139848E+03 -0.50364539345E+03 -0.20624784444E+04  0.22155015162E+04  0.12699999809E+01 0.  1.
</event>
<event>
 5   0  0.1306843E-06  0.3118028E+04  0.7818609E-02  0.8210808E-01
       -1   -1    0    0    0  501  0.00000000000E+00  0.00000000000E+00  0.12066958148E+04  0.12066958148E+04  0.50400001928E-02 0.  1.
        1   -1    0    0  501    0  0.00000000000E+00  0.00000000000E+00 -0.20141983811E+04  0.20141983812E+04  0.50400001928E-02 0. -1.
    10030    2    1    2    0    0  0.00000000000E+00  0.00000000000E+00 -0.80750256632E+03  0.32208941960E+04  0.31180280671E+04 0.  0.
        5    1    3    3  502    0  0.94421081286E+03  0.39897430685E+03 -0.16171475033E+04  0.19146547193E+04  0.46999998093E+01 0. -1.
       -5    1    3    3    0  502 -0.94421081286E+03 -0.39897430685E+03  0.80964493695E+03  0.13062394767E+04  0.46999998093E+01 0.  1.
</event>
<event>
 5   0  0.1273754E-06  0.3200222E+04  0.7818609E-02  0.8188759E-01
        1   -1    0    0  501    0  0.00000000000E+00  0.00000000000E+00  0.13837610152E+04  0.13837610152E+04  0.50400001928E-02 0. -1.
       -1   -1    0    0    0  501  0.00000000000E+00  0.00000000000E+00 -0.18502872041E+04  0.18502872041E+04  0.50400001928E-02 0.  1.
    10030    2    1    2    0    0  0.00000000000E+00  0.00000000000E+00 -0.46652618886E+03  0.32340482193E+04  0.32002220548E+04 0.  0.
        2    1    3    3  502    0  0.11537784699E+03  0.37459044197E+03 -0.18010232925E+04  0.18431806604E+04  0.25500000920E-02 0.  1.
       -2    1    3    3    0  502 -0.11537784699E+03 -0.37459044197E+03  0.13344971036E+04  0.13908675589E+04  0.25500000920E-02 0. -1.
</event>
<event>
 5   0  0.1273754E-06  0.3187239E+04  0.7818609E-02  0.8192195E-01
        1   -1    0    0  501    0  0.00000000000E+00  0.00000000000E+00  0.22415261465E+04  0.22415261465E+04  0.50400001928E-02 0. -1.
       -1   -1    0    0    0  501  0.00000000000E+00  0.00000000000E+00 -0.11329885868E+04  0.11329885868E+04  0.50400001928E-02 0.  1.
    10030    2    1    2    0    0  0.00000000000E+00  0.00000000000E+00  0.11085375596E+04  0.33745147333E+04  0.31872392700E+04 0.  0.
        2    1    3    3  502    0  0.86803914351E+03  0.12180243865E+04  0.11366319928E+04  0.18785653164E+04  0.25500000920E-02 0. -1.
       -2    1    3    3    0  502 -0.86803914351E+03 -0.12180243865E+04 -0.28094433183E+02  0.14959494169E+04  0.25500000920E-02 0.  1.
</event>
<event>
 5   0  0.1240725E-06  0.3205282E+04  0.7818609E-02  0.8187424E-01
       -1   -1    0    0    0  501  0.00000000000E+00  0.00000000000E+00  0.99212352829E+03  0.99212352830E+03  0.50400001928E-02 0. -1.
        1   -1    0    0  501    0  0.00000000000E+00  0.00000000000E+00 -0.25888487632E+04  0.25888487632E+04  0.50400001928E-02 0.  1.
    10030    2    1    2    0    0  0.00000000000E+00  0.00000000000E+00 -0.15967252349E+04  0.35809722915E+04  0.32052817469E+04 0.  0.
        3    1    3    3  502    0  0.24510164130E+03 -0.94973379091E+03 -0.22143522269E+04  0.24218639275E+04  0.10100000352E+00 0.  1.
       -3    1    3    3    0  502 -0.24510164130E+03  0.94973379091E+03  0.61762699199E+03  0.11591083640E+04  0.10100000352E+00 0. -1.
</event>
<event>
 5   0  0.3531437E-06  0.3302536E+04  0.7818609E-02  0.8162250E-01
        2   -1    0    0  501    0  0.00000000000E+00  0.00000000000E+00  0.18035467229E+04  0.18035467229E+04  0.25500000920E-02 0. -1.
       -2   -1    0    0    0  501  0.00000000000E+00  0.00000000000E+00 -0.15118462785E+04  0.15118462785E+04  0.25500000920E-02 0.  1.
    10030    2    1    2    0    0  0.00000000000E+00  0.00000000000E+00  0.29170044444E+03  0.33153930014E+04  0.33025356326E+04 0.  0.
        1    1    3    3  502    0  0.50874073523E+03 -0.13495113925E+04  0.95314967696E+03  0.17287256697E+04  0.50400001928E-02 0. -1.
       -1    1    3    3    0  502 -0.50874073523E+03  0.13495113925E+04 -0.66144923253E+03  0.15866673317E+04  0.50400001928E-02 0.  1.
</event>
<event>
 5   0  0.1240725E-06  0.3197373E+04  0.7818609E-02  0.8189511E-01
        1   -1    0    0  501    0  0.00000000000E+00  0.00000000000E+00  0.21116054597E+04  0.21116054597E+04  0.50400001928E-02 0.  1.
       -1   -1    0    0    0  501  0.00000000000E+00  0.00000000000E+00 -0.12103580767E+04  0.12103580768E+04  0.50400001928E-02 0. -1.
    10030    2    1    2    0    0  0.00000000000E+00  0.00000000000E+00  0.90124738293E+03  0.33219635364E+04  0.31973731237E+04 0.  0.
        3    1    3    3  502    0 -0.93476691651E+03 -0.10801883015E+04 -0.29512179007E+03  0.14586613164E+04  0.10100000352E+00 0. -1.
       -3    1    3    3    0  502  0.93476691651E+03  0.10801883015E+04  0.11963691730E+04  0.18633022200E+04  0.10100000352E+00 0.  1.
</event>
<event>
 5   0  0.3656086E-06  0.3219495E+04  0.7818609E-02  0.8183687E-01
        2   -1    0    0  501    0  0.00000000000E+00  0.00000000000E+00  0.19065765286E+04  0.19065765286E+04  0.25500000920E-02 0.  1.
       -2   -1    0    0    0  501  0.00000000000E+00  0.00000000000E+00 -0.13591311050E+04  0.13591311050E+04  0.25500000920E-02 0. -1.
    10030    2    1    2    0    0  0.00000000000E+00  0.00000000000E+00  0.54744542362E+03  0.32657076336E+04  0.32194952797E+04 0.  0.
        3    1    3    3  502    0 -0.70748007111E+03 -0.14451376514E+04  0.22469077870E+03  0.16246343708E+04  0.10100000352E+00 0. -1.
       -3    1    3    3    0  502  0.70748007111E+03  0.14451376514E+04  0.32275464492E+03  0.16410732627E+04  0.10100000352E+00 0.  1.
</event>
<event>
 5   0  0.1268836E-06  0.3140593E+04  0.7818609E-02  0.8204685E-01
       -1   -1    0    0    0  501  0.00000000000E+00  0.00000000000E+00  0.16814124129E+04  0.16814124130E+04  0.50400001928E-02 0.  1.
        1   -1    0    0  501    0  0.00000000000E+00  0.00000000000E+00 -0.14665240964E+04  0.14665240964E+04  0.50400001928E-02 0. -1.
    10030    2    1    2    0    0  0.00000000000E+00  0.00000000000E+00  0.21488831654E+03  0.31479365094E+04  0.31405934596E+04 0.  0.
        1    1    3    3  502    0 -0.89093658332E+03  0.12707697536E+04  0.34718545119E+03  0.15903337699E+04  0.50400001928E-02 0.  1.
       -1    1    3    3    0  502  0.89093658332E+03 -0.12707697536E+04 -0.13229713464E+03  0.15576027395E+04  0.50400001928E-02 0. -1.
</event>
<event>
 5   0  0.3497546E-06  0.3221942E+04  0.7818609E-02  0.8183046E-01
       -2   -1    0    0    0  501  0.00000000000E+00  0.00000000000E+00  0.15682156779E+04  0.15682156779E+04  0.25500000920E-02 0. -1.
        2   -1    0    0  501    0  0.00000000000E+00  0.00000000000E+00 -0.16548916778E+04  0.16548916778E+04  0.25500000920E-02 0.  1.
    10030    2    1    2    0    0  0.00000000000E+00  0.00000000000E+00 -0.86675999974E+02  0.32231073557E+04  0.32219416968E+04 0.  0.
        4    1    3    3  502    0 -0.83846098130E+03 -0.62666318854E+03  0.11816465270E+04  0.15786113191E+04  0.12699999809E+01 0. -1.
       -4    1    3    3    0  502  0.83846098130E+03  0.62666318854E+03 -0.12683225270E+04  0.16444960366E+04  0.12699999809E+01 0.  1.
</event>
<event>
 5   0  0.3497546E-06  0.3173439E+04  0.7818609E-02  0.8195867E-01
       -2   -1    0    0    0  501  0.00000000000E+00  0.00000000000E+00  0.11310703293E+04  0.11310703293E+04  0.25500000920E-02 0.  1.
        2   -1    0    0  501    0  0.00000000000E+00  0.00000000000E+00 -0.22259257575E+04  0.22259257575E+04  0.25500000920E-02 0. -1.
    10030    2    1    2    0    0  0.00000000000E+00  0.00000000000E+00 -0.10948554282E+04  0.33569960868E+04  0.31734388789E+04 0.  0.
        4    1    3    3  502    0 -0.80665464078E+03  0.91324974171E+03  0.52770600822E+03  0.13278524181E+04  0.12699999809E+01 0.  1.
       -4    1    3    3    0  502  0.80665464078E+03 -0.91324974171E+03 -0.16225614365E+04  0.20291436687E+04  0.12699999809E+01 0. -1.
</event>
<event>
 5   0  0.1306843E-06  0.3158245E+04  0.7818609E-02  0.8199933E-01
        1   -1    0    0  501    0  0.00000000000E+00  0.00000000000E+00  0.11815560086E+04  0.11815560086E+04  0.50400001928E-02 0.  1.
       -1   -1    0    0    0  501  0.00000000000E+00  0.00000000000E+00 -0.21104605490E+04  0.21104605490E+04  0.50400001928E-02 0. -1.
    10030    2    1    2    0    0  0.00000000000E+00  0.00000000000E+00 -0.92890454038E+03  0.32920165575E+04  0.31582446659E+04 0.  0.
        5    1    3    3  502    0 -0.16131881120E+03 -0.15047375430E+04 -0.93449193222E+03  0.17786388317E+04  0.46999998093E+01 0. -1.
       -5    1    3    3    0  502  0.16131881120E+03  0.15047375430E+04  0.55873918372E+01  0.15133777259E+04  0.46999998093E+01 0.  1.
</event>
<event>
 5   0  0.1240725E-06  0.3198530E+04  0.7818609E-02  0.8189206E-01
       -1   -1    0    0    0  501  0.00000000000E+00  0.00000000000E+00  0.14351074266E+04  0.14351074266E+04  0.50400001928E-02 0. -1.
        1   -1    0    0  501    0  0.00000000000E+00  0.00000000000E+00 -0.17821995675E+04  0.17821995675E+04  0.50400001928E-02 0.  1.
    10030    2    1    2    0    0  0.00000000000E+00  0.00000000000E+00 -0.34709214088E+03  0.32173069941E+04  0.31985295590E+04 0.  0.
        3    1    3    3  502    0 -0.50892883649E+03 -0.12082138608E+04  0.74772301328E+03  0.15092643933E+04  0.10100000352E+00 0. -1.
       -3    1    3    3    0  502  0.50892883649E+03  0.12082138608E+04 -0.10948151542E+04  0.17080426008E+04  0.10100000352E+00 0.  1.
</event>
<event>
 5   0  0.1273754E-06  0.3260549E+04  0.7818609E-02  0.8173007E-01
        1   -1    0    0  501    0  0.00000000000E+00  0.00000000000E+00  0.23475000760E+04  0.23475000760E+04  0.50400001928E-02 0.  1.
       -1   -1    0    0    0  501  0.00000000000E+00  0.00000000000E+00 -0.11321812047E+04  0.11321812047E+04  0.50400001928E-02 0. -1.
    10030    2    1    2    0    0  0.00000000000E+00  0.00000000000E+00  0.12153188713E+04  0.34796812806E+04  0.32605493181E+04 0.  0.
        2    1    3    3  502    0  0.73964140404E+02 -0.90570508334E+03 -0.83682931025E+03  0.12353362646E+04  0.25500000920E-02 0. -1.
       -2    1    3    3    0  502 -0.73964140404E+02  0.90570508334E+03  0.20521481816E+04  0.22443450161E+04  0.25500000920E-02 0.  1.
</event>
<event>
 5   0  0.3497546E-06  0.3228900E+04  0.7818609E-02  0.8181226E-01
        2   -1    0    0  501    0  0.00000000000E+00  0.00000000000E+00  0.30479695261E+04  0.30479695261E+04  0.25500000920E-02 0.  1.
       -2   -1    0    0    0  501  0.00000000000E+00  0.00000000000E+00 -0.85514241639E+03  0.85514241639E+03  0.25500000920E-02 0. -1.
    10030    2    1    2    0    0  0.00000000000E+00  0.00000000000E+00  0.21928271097E+04  0.39031119425E+04  0.32288995188E+04 0.  0.
        4    1    3    3  502    0  0.84346415230E+03 -0.49248282694E+03 -0.45748966092E+03  0.10785497271E+04  0.12699999809E+01 0. -1.
       -4    1    3    3    0  502 -0.84346415230E+03  0.49248282694E+03  0.26503167706E+04  0.28245622154E+04  0.12699999809E+01 0.  1.
</event>
<event>
 5   0  0.1240725E-06  0.3207802E+04  0.7818609E-02  0.8186760E-01
        1   -1    0    0  501    0  0.00000000000E+00  0.00000000000E+00  0.15892889736E+04  0.15892889736E+04  0.50400001928E-02 0.  1.
       -1   -1    0    0    0  501  0.00000000000E+00  0.00000000000E+00 -0.16186476458E+04  0.16186476459E+04  0.50400001928E-02 0. -1.
    10030    2    1    2    0    0  0.00000000000E+00  0.00000000000E+00 -0.29358672275E+02  0.32079366194E+04  0.32078022730E+04 0.  0.
        3    1    3    3  502    0 -0.84930296766E+03  0.11115875458E+04 -0.79928624670E+03  0.16111489432E+04  0.10100000352E+00 0. -1.
       -3    1    3    3    0  502  0.84930296766E+03 -0.11115875458E+04  0.76992757443E+03  0.15967876762E+04  0.10100000352E+00 0.  1.
</event>
<event>
 5   0  0.3758062E-06  0.3269746E+04  0.7818609E-02  0.8170637E-01
        2   -1    0    0  501    0  0.00000000000E+00  0.00000000000E+00  0.23809136667E+04  0.23809136667E+04  0.25500000920E-02 0.  1.
       -2   -1    0    0    0  501  0.00000000000E+00  0.00000000000E+00 -0.11225981905E+04  0.11225981905E+04  0.25500000920E-02 0. -1.
    10030    2    1    2    0    0  0.00000000000E+00  0.00000000000E+00  0.12583154762E+04  0.35035118572E+04  0.32697457846E+04 0.  0.
        2    1    3    3  502    0 -0.66743415264E+03 -0.39585615090E+03 -0.91269107544E+03  0.11979880799E+04  0.25500000920E-02 0. -1.
       -2    1    3    3    0  502  0.66743415264E+03  0.39585615090E+03  0.21710065517E+04  0.23055237773E+04  0.25500000920E-02 0.  1.
</event>
<event>
 5   0  0.3497546E-06  0.3201459E+04  0.7818609E-02  0.8188432E-01
        2   -1    0    0  501    0  0.00000000000E+00  0.00000000000E+00  0.22816133108E+04  0.22816133108E+04  0.25500000920E-02 0. -1.
       -2   -1    0    0    0  501  0.00000000000E+00  0.00000000000E+00 -0.11230366586E+04  0.11230366586E+04  0.25500000920E-02 0.  1.
    10030    2    1    2    0    0  0.00000000000E+00  0.00000000000E+00  0.11585766522E+04  0.34046499695E+04  0.32014592853E+04 0.  0.
        4    1    3    3  502    0  0.26220605129E+03 -0.12275638678E+04 -0.47706733590E+03  0.13428551369E+04  0.12699999809E+01 0.  1.
       -4    1    3    3    0  502 -0.26220605129E+03  0.12275638678E+04  0.16356439881E+04  0.20617948326E+04  0.12699999809E+01 0. -1.
</event>
<event>
 5   0  0.1306843E-06  0.3212576E+04  0.7818609E-02  0.8185504E-01
        1   -1    0    0  501    0  0.00000000000E+00  0.00000000000E+00  0.26383968189E+04  0.26383968190E+04  0.50400001928E-02 0.  1.
       -1   -1    0    0    0  501  0.00000000000E+00  0.00000000000E+00 -0.97792762205E+03  0.97792762206E+03  0.50400001928E-02 0. -1.
    10030    2    1    2    0    0  0.00000000000E+00  0.00000000000E+00  0.16604691969E+04  0.36163244410E+04  0.32125759927E+04 0.  0.
        5    1    3    3  502    0  0.13065936004E+04  0.93070411459E+03  0.92266397312E+03  0.18506020325E+04  0.46999998093E+01 0.  1.
       -5    1    3    3    0  502 -0.13065936004E+04 -0.93070411459E+03  0.73780522378E+03  0.17657224085E+04  0.46999998093E+01 0. -1.
</event>
<event>
 5   0  0.1273754E-06  0.3155103E+04  0.7818609E-02  0.8200776E-01
       -1   -1    0    0    0  501  0.00000000000E+00  0.00000000000E+00  0.18696217064E+04  0.18696217064E+04  0.50400001928E-02 0. -1.
        1   -1    0    0  501    0  0.00000000000E+00  0.00000000000E+00 -0.13311077952E+04  0.13311077952E+04  0.50400001928E-02 0.  1.
    10030    2    1    2    0    0  0.00000000000E+00  0.00000000000E+00  0.53851391115E+03  0.32007295016E+04  0.31551025514E+04 0.  0.
        2    1    3    3  502    0 -0.61391309581E+03 -0.11347309631E+04 -0.65170653335E+03  0.14454151838E+04  0.25500000920E-02 0.  1.
       -2    1    3    3    0  502  0.61391309581E+03  0.11347309631E+04  0.11902204445E+04  0.17553143178E+04  0.25500000920E-02 0. -1.
</event>
<event>
 5   0  0.3758062E-06  0.3148670E+04  0.7818609E-02  0.8202506E-01
        2   -1    0    0  501    0  0.00000000000E+00  0.00000000000E+00  0.25924560499E+04  0.25924560499E+04  0.25500000920E-02 0.  1.
       -2   -1    0    0    0  501  0.00000000000E+00  0.00000000000E+00 -0.95605507554E+03  0.95605507554E+03  0.25500000920E-02 0. -1.
    10030    2    1    2    0    0  0.00000000000E+00  0.00000000000E+00  0.16364009743E+04  0.35485111254E+04  0.31486700460E+04 0.  0.
        2    1    3    3  502    0 -0.15367304563E+04 -0.14531610445E+03  0.46924638531E+03  0.16133348802E+04  0.25500000920E-02 0. -1.
       -2    1    3    3    0  502  0.15367304563E+04  0.14531610445E+03  0.11671545890E+04  0.19351762452E+04  0.25500000920E-02 0.  1.
</event>
<event>
 5   0  0.3656086E-06  0.3215393E+04  0.7818609E-02  0.8184764E-01
        2   -1    0    0  501    0  0.00000000000E+00  0.00000000000E+00  0.22450662523E+04  0.22450662523E+04  0.25500000920E-02 0. -1.
       -2   -1    0    0    0  501  0.00000000000E+00  0.00000000000E+00 -0.11512750145E+04  0.11512750145E+04  0.25500000920E-02 0.  1.
    10030    2    1    2    0    0  0.00000000000E+00  0.00000000000E+00  0.10937912379E+04  0.33963412668E+04  0.32153934018E+04 0.  0.
        3    1    3    3  502    0  0.32539381556E+02  0.89284304215E+03 -0.86490703947E+03  0.12434997814E+04  0.10100000352E+00 0.  1.
       -3    1    3    3    0  502 -0.32539381556E+02 -0.89284304215E+03  0.19586982773E+04  0.21528414854E+04  0.10100000352E+00 0. -1.
</event>
<event>
 5   0  0.3745943E-06  0.3271064E+04  0.7818609E-02  0.8170298E-01
       -2   -1    0    0    0  501  0.00000000000E+00  0.00000000000E+00  0.10024212766E+04  0.10024212766E+04  0.25500000920E-02 0. -1.
        2   -1    0    0  501    0  0.00000000000E+00  0.00000000000E+00 -0.26685031713E+04  0.26685031713E+04  0.25500000920E-02 0.  1.
    10030    2    1    2    0    0  0.00000000000E+00  0.00000000000E+00 -0.16660818948E+04  0.36709244479E+04  0.32710636530E+04 0.  0.
        5    1    3    3  502    0 -0.11506162120E+04 -0.99006194827E+03 -0.15164133684E+04  0.21456169095E+04  0.46999998093E+01 0. -1.
       -5    1    3    3    0  502  0.11506162120E+04  0.99006194827E+03 -0.14966852637E+03  0.15253075383E+04  0.46999998093E+01 0.  1.
</event>
<event>
 5   0  0.1273754E-06  0.3190359E+04  0.7818609E-02  0.8191368E-01
        1   -1    0    0  501    0  0.00000000000E+00  0.00000000000E+00  0.16432606985E+04  0.16432606985E+04  0.50400001928E-02 0. -1.
       -1   -1    0    0    0  501  0.00000000000E+00  0.00000000000E+00 -0.15485055727E+04  0.15485055727E+04  0.50400001928E-02 0.  1.
    10030    2    1    2    0    0  0.00000000000E+00  0.00000000000E+00  0.94755125877E+02  0.31917662712E+04  0.31903594462E+04 0.  0.
        2    1    3    3  502    0  0.59391589806E+03  0.56188948868E+03 -0.13229499288E+04  0.15552017251E+04  0.25500000920E-02 0.  1.
       -2    1    3    3    0  502 -0.59391589806E+03 -0.56188948868E+03  0.14177050547E+04  0.16365645461E+04  0.25500000920E-02 0. -1.
</event>
<event>
 5   0  0.3758062E-06  0.3196438E+04  0.7818609E-02  0.8189758E-01
        2   -1    0    0  501    0  0.00000000000E+00  0.00000000000E+00  0.21231543015E+04  0.21231543015E+04  0.25500000920E-02 0. -1.
       -2   -1    0    0    0  501  0.00000000000E+00  0.00000000000E+00 -0.12030705679E+04  0.12030705679E+04  0.25500000920E-02 0.  1.
    10030    2    1    2    0    0  0.00000000000E+00  0.00000000000E+00  0.92008373364E+03  0.33262248695E+04  0.31964382999E+04 0.  0.
        2    1    3    3  502    0 -0.15927239829E+03 -0.11794211081E+04 -0.64999608200E+03  0.13560592737E+04  0.25500000920E-02 0.  1.
       -2    1    3    3    0  502  0.15927239829E+03  0.11794211081E+04  0.15700798156E+04  0.19701655957E+04  0.25500000920E-02 0. -1.
</event>
<event>
 5   0  0.1273754E-06  0.3212211E+04  0.7818609E-02  0.8185600E-01
        1   -1    0    0  501    0  0.00000000000E+00  0.00000000000E+00  0.17620108637E+04  0.17620108637E+04  0.50400001928E-02 0.  1.
       -1   -1    0    0    0  501  0.00000000000E+00  0.00000000000E+00 -0.14639947848E+04  0.14639947848E+04  0.50400001928E-02 0. -1.
    10030    2    1    2    0    0  0.00000000000E+00  0.00000000000E+00  0.29801607890E+03  0.32260056486E+04  0.32122108992E+04 0.  0.
        2    1    3    3  502    0  0.83946493597E+03 -0.55390467056E+02 -0.12250067288E+04  0.14860723294E+04  0.25500000920E-02 0. -1.
       -2    1    3    3    0  502 -0.83946493597E+03  0.55390467056E+02  0.15230228077E+04  0.17399333192E+04  0.25500000920E-02 0.  1.
</event>
<event>
 5   0  0.3745943E-06  0.3272644E+04  0.7818609E-02  0.8169891E-01
       -2   -1    0    0    0  501  0.00000000000E+00  0.00000000000E+00  0.11575917975E+04  0.11575917975E+04  0.25500000920E-02 0.  1.
        2   -1    0    0  501    0  0.00000000000E+00  0.00000000000E+00 -0.23130337294E+04  0.23130337294E+04  0.25500000920E-02 0. -1.
    10030    2    1    2    0    0  0.00000000000E+00  0.00000000000E+00 -0.11554419319E+04  0.34706255269E+04  0.32726435018E+04 0.  0.
        5    1    3    3  502    0  0.79655245898E+03 -0.13233638215E+04 -0.49164664325E+01  0.15446144779E+04  0.46999998093E+01 0.  1.
       -5    1    3    3    0  502 -0.79655245898E+03  0.13233638215E+04 -0.11505254655E+04  0.19260110489E+04  0.46999998093E+01 0. -1.
</event>
<event>
 5   0  0.1268836E-06  0.3228143E+04  0.7818609E-02  0.8181424E-01
        1   -1    0    0  501    0  0.00000000000E+00  0.00000000000E+00  0.20111132727E+04  0.20111132727E+04  0.50400001928E-02 0.  1.
       -1   -1    0    0    0  501  0.00000000000E+00  0.00000000000E+00 -0.12954152107E+04  0.12954152107E+04  0.50400001928E-02 0. -1.
    10030    2    1    2    0    0  0.00000000000E+00  0.00000000000E+00  0.71569806201E+03  0.33065284834E+04  0.32281429485E+04 0.  0.
        1    1    3    3  502    0  0.13892554820E+04  0.66827929190E+03 -0.13188062659E+03  0.15472622615E+04  0.50400001928E-02 0. -1.
       -1    1    3    3    0  502 -0.13892554820E+04 -0.66827929190E+03  0.84757868860E+03  0.17592662219E+04  0.50400001928E-02 0.  1.
</event>
<event>
 5   0  0.1273754E-06  0.3207467E+04  0.7818609E-02  0.8186848E-01
        1   -1    0    0  501    0  0.00000000000E+00  0.00000000000E+00  0.13949583494E+04  0.13949583494E+04  0.50400001928E-02 0. -1.
       -1   -1    0    0    0  501  0.00000000000E+00  0.00000000000E+00 -0.18437544286E+04  0.18437544286E+04  0.50400001928E-02 0.  1.
    10030    2    1    2    0    0  0.00000000000E+00  0.00000000000E+00 -0.44879607920E+03  0.32387127781E+04  0.32074666854E+04 0.  0.
        2    1    3    3  502    0  0.14665702803E+04 -0.57289701005E+01  0.43084528531E+03  0.15285577739E+04  0.25500000920E-02 0. -1.
       -2    1    3    3    0  502 -0.14665702803E+04  0.57289701005E+01 -0.87964136451E+03  0.17101550042E+04  0.25500000920E-02 0.  1.
</event>
<event>
 5   0  0.1268836E-06  0.3186520E+04  0.7818609E-02  0.8192386E-01
        1   -1    0    0  501    0  0.00000000000E+00  0.00000000000E+00  0.17044377137E+04  0.17044377137E+04  0.50400001928E-02 0.  1.
       -1   -1    0    0    0  501  0.00000000000E+00  0.00000000000E+00 -0.14893345855E+04  0.14893345855E+04  0.50400001928E-02 0. -1.
    10030    2    1    2    0    0  0.00000000000E+00  0.00000000000E+00  0.21510312820E+03  0.31937722992E+04  0.31865203818E+04 0.  0.
        1    1    3    3  502    0 -0.11427881974E+04  0.11089686861E+04  0.55456114626E+02  0.15933774793E+04  0.50400001928E-02 0.  1.
       -1    1    3    3    0  502  0.11427881974E+04 -0.11089686861E+04  0.15964701357E+03  0.16003948200E+04  0.50400001928E-02 0. -1.
</event>
<event>
 5   0  0.3745943E-06  0.3179321E+04  0.7818609E-02  0.8194300E-01
        2   -1    0    0  501    0  0.00000000000E+00  0.00000000000E+00  0.18210122277E+04  0.18210122277E+04  0.25500000920E-02 0.  1.
       -2   -1    0    0    0  501  0.00000000000E+00  0.00000000000E+00 -0.13877007542E+04  0.13877007542E+04  0.25500000920E-02 0. -1.
    10030    2    1    2    0    0  0.00000000000E+00  0.00000000000E+00  0.43331147352E+03  0.32087129818E+04  0.31793207084E+04 0.  0.
        5    1    3    3  502    0  0.13408132531E+04 -0.82836902148E+03  0.73194401387E+01  0.15760872691E+04  0.46999998093E+01 0. -1.
       -5    1    3    3    0  502 -0.13408132531E+04  0.82836902148E+03  0.42599203338E+03  0.16326257128E+04  0.46999998093E+01 0.  1.
</event>
<event>
 5   0  0.1306843E-06  0.3209475E+04  0.7818609E-02  0.8186319E-01
       -1   -1    0    0    0  501  0.00000000000E+00  0.00000000000E+00  0.79230761386E+03  0.79230761387E+03  0.50400001928E-02 0. -1.
        1   -1    0    0  501    0  0.00000000000E+00  0.00000000000E+00 -0.32502306566E+04  0.32502306566E+04  0.50400001928E-02 0.  1.
    10030    2    1    2    0    0  0.00000000000E+00  0.00000000000E+00 -0.24579230427E+04  0.40425382705E+04  0.32094750325E+04 0.  0.
        5    1    3    3  502    0  0.10465791716E+04  0.29397024900E+03  0.25786470623E+03  0.11172568042E+04  0.46999998093E+01 0. -1.
       -5    1    3    3    0  502 -0.10465791716E+04 -0.29397024900E+03 -0.27157877490E+04  0.29252814663E+04  0.46999998093E+01 0.  1.
</event>
<event>
 5   0  0.1240725E-06  0.3196825E+04  0.7818609E-02  0.8189656E-01
       -1   -1    0    0    0  501  0.00000000000E+00  0.00000000000E+00  0.10831796123E+04  0.10831796123E+04  0.50400001928E-02 0.  1.
        1   -1    0    0  501    0  0.00000000000E+00  0.00000000000E+00 -0.23587245997E+04  0.23587245997E+04  0.50400001928E-02 0. -1.
    10030    2    1    2    0    0  0.00000000000E+00  0.00000000000E+00 -0.12755449874E+04  0.34419042120E+04  0.31968249233E+04 0.  0.
        3    1    3    3  502    0 -0.95454114470E+03  0.10382423337E+04  0.17210913703E+03  0.14208157888E+04  0.10100000352E+00 0.  1.
       -3    1    3    3    0  502  0.95454114470E+03 -0.10382423337E+04 -0.14476541244E+04  0.20210884232E+04  0.10100000352E+00 0. -1.
</event>
<event>
 5   0  0.3531437E-06  0.3213425E+04  0.7818609E-02  0.8185281E-01
        2   -1    0    0  501    0  0.00000000000E+00  0.00000000000E+00  0.27599927031E+04  0.27599927031E+04  0.25500000920E-02 0.  1.
       -2   -1    0    0    0  501  0.00000000000E+00  0.00000000000E+00 -0.93533759592E+03  0.93533759593E+03  0.25500000920E-02 0. -1.
    10030    2    1    2    0    0  0.00000000000E+00  0.00000000000E+00  0.18246551072E+04  0.36953302990E+04  0.32134249266E+04 0.  0.
        1    1    3    3  502    0  0.12069939399E+04 -0.51812147517E+03 -0.15177390855E+03  0.13222403538E+04  0.50400001928E-02 0. -1.
       -1    1    3    3    0  502 -0.12069939399E+04  0.51812147517E+03  0.19764290157E+04  0.23730899452E+04  0.50400001928E-02 0.  1.
</event>
<event>
 5   0  0.1240725E-06  0.3252307E+04  0.7818609E-02  0.8175138E-01
        1   -1    0    0  501    0  0.00000000000E+00  0.00000000000E+00  0.19514955176E+04  0.19514955176E+04  0.50400001928E-02 0.  1.
       -1   -1    0    0    0  501  0.00000000000E+00  0.00000000000E+00 -0.13550505826E+04  0.13550505826E+04  0.50400001928E-02 0. -1.
    10030    2    1    2    0    0  0.00000000000E+00  0.00000000000E+00  0.59644493500E+03  0.33065461003E+04  0.32523069585E+04 0.  0.
        3    1    3    3  502    0 -0.14539381722E+04  0.72576580780E+03  0.23635608393E+03  0.16421134020E+04  0.10100000352E+00 0. -1.
       -3    1    3    3    0  502  0.14539381722E+04 -0.72576580780E+03  0.36008885107E+03  0.16644326983E+04  0.10100000352E+00 0.  1.
</event>
<event>
 5   0  0.3656086E-06  0.3215901E+04  0.7818609E-02  0.8184630E-01
       -2   -1    0    0    0  501  0.00000000000E+00  0.00000000000E+00  0.12135891405E+04  0.12135891405E+04  0.25500000920E-02 0.  1.
        2   -1    0    0  501    0  0.00000000000E+00  0.00000000000E+00 -0.21304614781E+04  0.21304614781E+04  0.25500000920E-02 0. -1.
    10030    2    1    2    0    0  0.00000000000E+00  0.00000000000E+00 -0.91687233757E+03  0.33440506186E+04  0.32159010644E+04 0.  0.
        3    1    3    3  502    0 -0.67242183754E+03 -0.31439094454E+03 -0.19416381704E+04  0.20786898731E+04  0.10100000352E+00 0. -1.
       -3    1    3    3    0  502  0.67242183754E+03  0.31439094454E+03  0.10247658329E+04  0.12653607454E+04  0.10100000352E+00 0.  1.
</event>
<event>
 5   0  0.1268836E-06  0.3227479E+04  0.7818609E-02  0.8181597E-01
       -1   -1    0    0    0  501  0.00000000000E+00  0.00000000000E+00  0.20089166352E+04  0.20089166352E+04  0.50400001928E-02 0.  1.
        1   -1    0    0  501    0  0.00000000000E+00  0.00000000000E+00 -0.12962986279E+04  0.12962986279E+04  0.50400001928E-02 0. -1.
    10030    2    1    2    0    0  0.00000000000E+00  0.00000000000E+00  0.71261800730E+03  0.33052152631E+04  0.32274794362E+04 0.  0.
        1    1    3    3  502    0 -0.11599954400E+04 -0.11097580191E+04  0.52459464598E+03  0.16888907083E+04  0.50400001928E-02 0. -1.
       -1    1    3    3    0  502  0.11599954400E+04  0.11097580191E+04  0.18802336132E+03  0.16163245548E+04  0.50400001928E-02 0.  1.
</event>
<event>
 5   0  0.1268836E-06  0.3126066E+04  0.7818609E-02  0.8208621E-01
       -1   -1    0    0    0  501  0.00000000000E+00  0.00000000000E+00  0.14197835574E+04  0.14197835574E+04  0.50400001928E-02 0. -1.
        1   -1    0    0  501    0  0.00000000000E+00  0.00000000000E+00 -0.17207357480E+04  0.17207357480E+04  0.50400001928E-02 0.  1.
    10030    2    1    2    0    0  0.00000000000E+00  0.00000000000E+00 -0.30095219060E+03  0.31405193054E+04  0.31260661040E+04 0.  0.
        1    1    3    3  502    0 -0.11409788822E+04 -0.30452543244E+03 -0.11791750745E+04  0.16688386395E+04  0.50400001928E-02 0.  1.
       -1    1    3    3    0  502  0.11409788822E+04  0.30452543244E+03  0.87822288385E+03  0.14716806659E+04  0.50400001928E-02 0. -1.
</event>
<event>
 5   0  0.3531437E-06  0.3239634E+04  0.7818609E-02  0.8178428E-01
       -2   -1    0    0    0  501  0.00000000000E+00  0.00000000000E+00  0.15319460918E+04  0.15319460918E+04  0.25500000920E-02 0.  1.
        2   -1    0    0  501    0  0.00000000000E+00  0.00000000000E+00 -0.17127285621E+04  0.17127285621E+04  0.25500000920E-02 0. -1.
    10030    2    1    2    0    0  0.00000000000E+00  0.00000000000E+00 -0.18078247035E+03  0.32446746539E+04  0.32396344405E+04 0.  0.
        1    1    3    3  502    0  0.10398619536E+04  0.11318383458E+04 -0.60249573785E+03  0.16508700851E+04  0.50400001928E-02 0. -1.
       -1    1    3    3    0  502 -0.10398619536E+04 -0.11318383458E+04  0.42171326750E+03  0.15938045688E+04  0.50400001928E-02 0.  1.
</event>
<event>
 5   0  0.1240725E-06  0.3172406E+04  0.7818609E-02  0.8196143E-01
       -1   -1    0    0    0  501  0.00000000000E+00  0.00000000000E+00  0.18805809179E+04  0.18805809179E+04  0.50400001928E-02 0.  1.
        1   -1    0    0  501    0  0.00000000000E+00  0.00000000000E+00 -0.13379060600E+04  0.13379060600E+04  0.50400001928E-02 0. -1.
    10030    2    1    2    0    0  0.00000000000E+00  0.00000000000E+00  0.54267485788E+03  0.32184869779E+04  0.31724064092E+04 0.  0.
        3    1    3    3  502    0 -0.85448452070E+02  0.93377902390E+02 -0.13327744516E+04  0.13387713097E+04  0.10100000352E+00 0. -1.
       -3    1    3    3    0  502  0.85448452070E+02 -0.93377902390E+02  0.18754493095E+04  0.18797156682E+04  0.10100000352E+00 0.  1.
</event>
<event>
 5   0  0.1268836E-06  0.3137128E+04  0.7818609E-02  0.8205622E-01
       -1   -1    0    0    0  501  0.00000000000E+00  0.00000000000E+00  0.12106311159E+04  0.12106311159E+04  0.50400001928E-02 0. -1.
        1   -1    0    0  501    0  0.00000000000E+00  0.00000000000E+00 -0.20323229558E+04  0.20323229558E+04  0.50400001928E-02 0.  1.
    10030    2    1    2    0    0  0.00000000000E+00  0.00000000000E+00 -0.82169183989E+03  0.32429540717E+04  0.31371282459E+04 0.  0.
        1    1    3    3  502    0  0.75047017313E+03 -0.13256906699E+04 -0.24428466519E+02  0.15235675184E+04  0.50400001928E-02 0. -1.
       -1    1    3    3    0  502 -0.75047017313E+03  0.13256906699E+04 -0.79726337337E+03  0.17193865533E+04  0.50400001928E-02 0.  1.
</event>
<event>
 5   0  0.3656086E-06  0.3036517E+04  0.7818609E-02  0.8233379E-01
       -2   -1    0    0    0  501  0.00000000000E+00  0.00000000000E+00  0.13679383145E+04  0.13679383145E+04  0.25500000920E-02 0. -1.
        2   -1    0    0  501    0  0.00000000000E+00  0.00000000000E+00 -0.16850973501E+04  0.16850973501E+04  0.25500000920E-02 0.  1.
    10030    2    1    2    0    0  0.00000000000E+00  0.00000000000E+00 -0.31715903554E+03  0.30530356646E+04  0.30365172345E+04 0.  0.
        3    1    3    3  502    0 -0.73223906017E+03  0.12858741510E+04  0.18306720162E+03  0.14910264867E+04  0.10100000352E+00 0. -1.
       -3    1    3    3    0  502  0.73223906017E+03 -0.12858741510E+04 -0.50022623716E+03  0.15620091780E+04  0.10100000352E+00 0.  1.
</event>
<event>
 5   0  0.3745943E-06  0.3245747E+04  0.7818609E-02  0.8176839E-01
       -2   -1    0    0    0  501  0.00000000000E+00  0.00000000000E+00  0.99810916154E+03  0.99810916154E+03  0.25500000920E-02 0. -1.
        2   -1    0    0  501    0  0.00000000000E+00  0.00000000000E+00 -0.26387079173E+04  0.26387079173E+04  0.25500000920E-02 0.  1.
    10030    2    1    2    0    0  0.00000000000E+00  0.00000000000E+00 -0.16405987558E+04  0.36368170789E+04  0.32457470924E+04 0.  0.
        5    1    3    3  502    0 -0.11444579192E+04 -0.10777055340E+04 -0.36866766496E+03  0.16146736773E+04  0.46999998093E+01 0. -1.
       -5    1    3    3    0  502  0.11444579192E+04  0.10777055340E+04 -0.12719310908E+04  0.20221434016E+04  0.46999998093E+01 0.  1.
</event>
<event>
 5   0  0.3758062E-06  0.3185153E+04  0.7818609E-02  0.8192749E-01
       -2   -1    0    0    0  501  0.00000000000E+00  0.00000000000E+00  0.14361037899E+04  0.14361037899E+04  0.25500000920E-02 0.  1.
        2   -1    0    0  501    0  0.00000000000E+00  0.00000000000E+00 -0.17660983868E+04  0.17660983868E+04  0.25500000920E-02 0. -1.
    10030    2    1    2    0    0  0.00000000000E+00  0.00000000000E+00 -0.32999459683E+03  0.32022021767E+04  0.31851534259E+04 0.  0.
        2    1    3    3  502    0  0.47249281450E+03 -0.30866507584E+03 -0.16621887164E+04  0.17553902466E+04  0.25500000920E-02 0. -1.
       -2    1    3    3    0  502 -0.47249281450E+03  0.30866507584E+03  0.13321941196E+04  0.14468119301E+04  0.25500000920E-02 0.  1.
</event>
<event>
 5   0  0.3758062E-06  0.3079689E+04  0.7818609E-02  0.8221334E-01
        2   -1    0    0  501    0  0.00000000000E+00  0.00000000000E+00  0.20839489586E+04  0.20839489586E+04  0.25500000920E-02 0. -1.
       -2   -1    0    0    0  501  0.00000000000E+00  0.00000000000E+00 -0.11378022449E+04  0.11378022449E+04  0.25500000920E-02 0.  1.
    10030    2    1    2    0    0  0.00000000000E+00  0.00000000000E+00  0.94614671369E+03  0.32217512035E+04  0.30796894670E+04 0.  0.
        2    1    3    3  502    0  0.14061488844E+04  0.11365015093E+03  0.11187565689E+04  0.18004964044E+04  0.25500000920E-02 0. -1.
       -2    1    3    3    0  502 -0.14061488844E+04 -0.11365015093E+03 -0.17260985525E+03  0.14212547991E+04  0.25500000920E-02 0.  1.
</event>
<event>
 5   0  0.3656086E-06  0.3193515E+04  0.7818609E-02  0.8190532E-01
        2   -1    0    0  501    0  0.00000000000E+00  0.00000000000E+00  0.17016476996E+04  0.17016476996E+04  0.25500000920E-02 0. -1.
       -2   -1    0    0    0  501  0.00000000000E+00  0.00000000000E+00 -0.14983325977E+04  0.14983325977E+04  0.25500000920E-02 0.  1.
    10030    2    1    2    0    0  0.00000000000E+00  0.00000000000E+00  0.20331510183E+03  0.31999802973E+04  0.31935148148E+04 0.  0.
        3    1    3    3  502    0 -0.80314659675E+03 -0.10646296932E+04  0.98158881619E+03  0.16558977788E+04  0.10100000352E+00 0. -1.
       -3    1    3    3    0  502  0.80314659675E+03  0.10646296932E+04 -0.77827371436E+03  0.15440825185E+04  0.10100000352E+00 0.  1.
</event>
<event>
 5   0  0.1273754E-06  0.3170936E+04  0.7818609E-02  0.8196535E-01
        1   -1    0    0  501    0  0.00000000000E+00  0.00000000000E+00  0.20664271754E+04  0.20664271754E+04  0.50400001928E-02 0.  1.
       -1   -1    0    0    0  501  0.00000000000E+00  0.00000000000E+00 -0.12164514737E+04  0.12164514737E+04  0.50400001928E-02 0. -1.
    10030    2    1    2    0    0  0.00000000000E+00  0.00000000000E+00  0.84997570165E+03  0.32828786491E+04  0.31709357501E+04 0.  0.
        2    1    3    3  502    0 -0.11388784377E+04 -0.52865657665E+03 -0.57727215718E+03  0.13819424791E+04  0.25500000920E-02 0. -1.
       -2    1    3    3    0  502  0.11388784377E+04  0.52865657665E+03  0.14272478588E+04  0.19009361700E+04  0.25500000920E-02 0.  1.
</event>
<event>
 5   0  0.3531437E-06  0.3211157E+04  0.7818609E-02  0.8185877E-01
       -2   -1    0    0    0  501  0.00000000000E+00  0.00000000000E+00  0.14230408604E+04  0.14230408604E+04  0.25500000920E-02 0.  1.
        2   -1    0    0  501    0  0.00000000000E+00  0.00000000000E+00 -0.18115310963E+04  0.18115310963E+04  0.25500000920E-02 0. -1.
    10030    2    1    2    0    0  0.00000000000E+00  0.00000000000E+00 -0.38849023585E+03  0.32345719567E+04  0.32111572805E+04 0.  0.
        1    1    3    3  502    0  0.10792716313E+03 -0.10032595910E+04 -0.14522329155E+04  0.17683773694E+04  0.50400001928E-02 0. -1.
       -1    1    3    3    0  502 -0.10792716313E+03  0.10032595910E+04  0.10637426797E+04  0.14661945874E+04  0.50400001928E-02 0.  1.
</event>
<event>
 5   0  0.1240725E-06  0.2969741E+04  0.7818609E-02  0.8252425E-01
        1   -1    0    0  501    0  0.00000000000E+00  0.00000000000E+00  0.85211841865E+03  0.85211841867E+03  0.50400001928E-02 0. -1.
       -1   -1    0    0    0  501  0.00000000000E+00  0.00000000000E+00 -0.25874811959E+04  0.25874811959E+04  0.50400001928E-02 0.  1.
    10030    2    1    2    0    0  0.00000000000E+00  0.00000000000E+00 -0.17353627772E+04  0.34395996146E+04  0.29697409887E+04 0.  0.
        3    1    3    3  502    0  0.10496757259E+04  0.97796008203E+03 -0.13111664541E+04  0.19435489529E+04  0.10100000352E+00 0.  1.
       -3    1    3    3    0  502 -0.10496757259E+04 -0.97796008203E+03 -0.42419632316E+03  0.14960506617E+04  0.10100000352E+00 0. -1.
</event>
<event>
 5   0  0.1240725E-06  0.3180762E+04  0.7818609E-02  0.8193916E-01
        1   -1    0    0  501    0  0.00000000000E+00  0.00000000000E+00  0.12825969552E+04  0.12825969552E+04  0.50400001928E-02 0.  1.
       -1   -1    0    0    0  501  0.00000000000E+00  0.00000000000E+00 -0.19720240939E+04  0.19720240939E+04  0.50400001928E-02 0. -1.
    10030    2    1    2    0    0  0.00000000000E+00  0.00000000000E+00 -0.68942713871E+03  0.32546210491E+04  0.31807622347E+04 0.  0.
        3    1    3    3  502    0  0.39896509117E+03 -0.50978670491E+03  0.11416903497E+04  0.13124452344E+04  0.10100000352E+00 0.  1.
       -3    1    3    3    0  502 -0.39896509117E+03  0.50978670491E+03 -0.18311174884E+04  0.19421758147E+04  0.10100000352E+00 0. -1.
</event>
<event>
 5   0  0.1273980E-06  0.3187151E+04  0.7818609E-02  0.8192219E-01
        1   -1    0    0  501    0  0.00000000000E+00  0.00000000000E+00  0.16206243600E+04  0.16206243600E+04  0.50400001928E-02 0. -1.
       -1   -1    0    0    0  501  0.00000000000E+00  0.00000000000E+00 -0.15669780031E+04  0.15669780031E+04  0.50400001928E-02 0.  1.
    10030    2    1    2    0    0  0.00000000000E+00  0.00000000000E+00  0.53646356881E+02  0.31876023631E+04  0.31871509054E+04 0.  0.
        4    1    3    3  502    0  0.18781968037E+03  0.14411827718E+04 -0.62687256837E+03  0.15827996854E+04  0.12699999809E+01 0.  1.
       -4    1    3    3    0  502 -0.18781968037E+03 -0.14411827718E+04  0.68051892525E+03  0.16048026778E+04  0.12699999809E+01 0. -1.
</event>
<event>
 5   0  0.3497546E-06  0.2871158E+04  0.7818609E-02  0.8281511E-01
        2   -1    0    0  501    0  0.00000000000E+00  0.00000000000E+00  0.20682278959E+04  0.20682278959E+04  0.25500000920E-02 0. -1.
       -2   -1    0    0    0  501  0.00000000000E+00  0.00000000000E+00 -0.99645057925E+03  0.99645057925E+03  0.25500000920E-02 0.  1.
    10030    2    1    2    0    0  0.00000000000E+00  0.00000000000E+00  0.10717773166E+04  0.30646784751E+04  0.28711578744E+04 0.  0.
        4    1    3    3  502    0  0.11264708450E+04 -0.15501003695E+03  0.14712641843E+04  0.18594581440E+04  0.12699999809E+01 0. -1.
       -4    1    3    3    0  502 -0.11264708450E+04  0.15501003695E+03 -0.39948686769E+03  0.12052203311E+04  0.12699999809E+01 0.  1.
</event>
<event>
 5   0  0.1240725E-06  0.3234460E+04  0.7818609E-02  0.8179775E-01
       -1   -1    0    0    0  501  0.00000000000E+00  0.00000000000E+00  0.18007583815E+04  0.18007583815E+04  0.50400001928E-02 0.  1.
        1   -1    0    0  501    0  0.00000000000E+00  0.00000000000E+00 -0.14524064214E+04  0.14524064214E+04  0.50400001928E-02 0. -1.
    10030    2    1    2    0    0  0.00000000000E+00  0.00000000000E+00  0.34835196012E+03  0.32531648029E+04  0.32344601012E+04 0.  0.
        3    1    3    3  502    0 -0.94341604526E+02 -0.11119075259E+04  0.13514982294E+04  0.17526511800E+04  0.10100000352E+00 0.  1.
       -3    1    3    3    0  502  0.94341604526E+02  0.11119075259E+04 -0.10031462693E+04  0.15005136228E+04  0.10100000352E+00 0. -1.
</event>
<event>
 5   0  0.3745943E-06  0.3199316E+04  0.7818609E-02  0.8188998E-01
        2   -1    0    0  501    0  0.00000000000E+00  0.00000000000E+00  0.16999397247E+04  0.16999397247E+04  0.25500000920E-02 0. -1.
       -2   -1    0    0    0  501  0.00000000000E+00  0.00000000000E+00 -0.15052920093E+04  0.15052920093E+04  0.25500000920E-02 0.  1.
    10030    2    1    2    0    0  0.00000000000E+00  0.00000000000E+00  0.19464771540E+03  0.32052317340E+04  0.31993159793E+04 0.  0.
        5    1    3    3  502    0 -0.20003204576E+03  0.11303505120E+04 -0.10188180628E+04  0.15348346602E+04  0.46999998093E+01 0.  1.
       -5    1    3    3    0  502  0.20003204576E+03 -0.11303505120E+04  0.12134657782E+04  0.16703970737E+04  0.46999998093E+01 0. -1.
</event>
<event>
 5   0  0.1240725E-06  0.3199797E+04  0.7818609E-02  0.8188871E-01
        1   -1    0    0  501    0  0.00000000000E+00  0.00000000000E+00  0.25072695028E+04  0.25072695028E+04  0.50400001928E-02 0. -1.
       -1   -1    0    0    0  501  0.00000000000E+00  0.00000000000E+00 -0.10209015323E+04  0.10209015323E+04  0.50400001928E-02 0.  1.
    10030    2    1    2    0    0  0.00000000000E+00  0.00000000000E+00  0.14863679705E+04  0.35281710350E+04  0.31997970418E+04 0.  0.
        3    1    3    3  502    0  0.46942184298E+03  0.13552611890E+04 -0.38501736610E+02  0.14347725085E+04  0.10100000352E+00 0.  1.
       -3    1    3    3    0  502 -0.46942184298E+03 -0.13552611890E+04  0.15248697071E+04  0.20933985266E+04  0.10100000352E+00 0. -1.
</event>
<event>
 5   0  0.3531437E-06  0.3256185E+04  0.7818609E-02  0.8174134E-01
        2   -1    0    0  501    0  0.00000000000E+00  0.00000000000E+00  0.19250875719E+04  0.19250875719E+04  0.25500000920E-02 0.  1.
       -2   -1    0    0    0  501  0.00000000000E+00  0.00000000000E+00 -0.13769168268E+04  0.13769168268E+04  0.25500000920E-02 0. -1.
    10030    2    1    2    0    0  0.00000000000E+00  0.00000000000E+00  0.54817074511E+03  0.33020043987E+04  0.32561851734E+04 0.  0.
        1    1    3    3  502    0 -0.90966781518E+03 -0.50113902933E+03  0.15455423710E+04  0.18620786990E+04  0.50400001928E-02 0.  1.
       -1    1    3    3    0  502  0.90966781518E+03  0.50113902933E+03 -0.99737162587E+03  0.14399256998E+04  0.50400001928E-02 0. -1.
</event>
<event>
 5   0  0.1240725E-06  0.3228548E+04  0.7818609E-02  0.8181318E-01
        1   -1    0    0  501    0  0.00000000000E+00  0.00000000000E+00  0.25078070789E+04  0.25078070789E+04  0.50400001928E-02 0. -1.
       -1   -1    0    0    0  501  0.00000000000E+00  0.00000000000E+00 -0.10391071838E+04  0.10391071838E+04  0.50400001928E-02 0.  1.
    10030    2    1    2    0    0  0.00000000000E+00  0.00000000000E+00  0.14686998951E+04  0.35469142628E+04  0.32285478788E+04 0.  0.
        3    1    3    3  502    0 -0.12549080084E+03  0.45127731492E+03  0.24315086945E+04  0.24762135808E+04  0.10100000352E+00 0. -1.
       -3    1    3    3    0  502  0.12549080084E+03 -0.45127731492E+03 -0.96280879939E+03  0.10707006820E+04  0.10100000352E+00 0.  1.
</event>
<event>
 5   0  0.3745943E-06  0.3233463E+04  0.7818609E-02  0.8180035E-01
        2   -1    0    0  501    0  0.00000000000E+00  0.00000000000E+00  0.15865479494E+04  0.15865479494E+04  0.25500000920E-02 0.  1.
       -2   -1    0    0    0  501  0.00000000000E+00  0.00000000000E+00 -0.16474897483E+04  0.16474897483E+04  0.25500000920E-02 0. -1.
    10030    2    1    2    0    0  0.00000000000E+00  0.00000000000E+00 -0.60941798915E+02  0.32340376978E+04  0.32334634570E+04 0.  0.
        5    1    3    3  502    0 -0.57810591749E+03 -0.12872270001E+04  0.75874438351E+03  0.16021469755E+04  0.46999998093E+01 0.  1.
       -5    1    3    3    0  502  0.57810591749E+03  0.12872270001E+04 -0.81968618243E+03  0.16318907222E+04  0.46999998093E+01 0. -1.
</event>
<event>
 5   0  0.3656086E-06  0.2823678E+04  0.7818609E-02  0.8295955E-01
       -2   -1    0    0    0  501  0.00000000000E+00  0.00000000000E+00  0.91939958905E+03  0.91939958906E+03  0.25500000920E-02 0.  1.
        2   -1    0    0  501    0  0.00000000000E+00  0.00000000000E+00 -0.21680333593E+04  0.21680333593E+04  0.25500000920E-02 0. -1.
    10030    2    1    2    0    0  0.00000000000E+00  0.00000000000E+00 -0.12486337702E+04  0.30874329483E+04  0.28236777292E+04 0.  0.
        3    1    3    3  502    0  0.92324289231E+03 -0.77292905517E+03  0.18176482392E+03  0.12177172184E+04  0.10100000352E+00 0.  1.
       -3    1    3    3    0  502 -0.92324289231E+03  0.77292905517E+03 -0.14303985941E+04  0.18697157300E+04  0.10100000352E+00 0. -1.
</event>
<event>
 5   0  0.3656086E-06  0.3175844E+04  0.7818609E-02  0.8195226E-01
       -2   -1    0    0    0  501  0.00000000000E+00  0.00000000000E+00  0.90168857623E+03  0.90168857623E+03  0.25500000920E-02 0.  1.
        2   -1    0    0  501    0  0.00000000000E+00  0.00000000000E+00 -0.27964159259E+04  0.27964159259E+04  0.25500000920E-02 0. -1.
    10030    2    1    2    0    0  0.00000000000E+00  0.00000000000E+00 -0.18947273496E+04  0.36981045021E+04  0.31758440105E+04 0.  0.
        3    1    3    3  502    0 -0.22724006660E+03  0.11935578481E+02 -0.27773317142E+04  0.27866381119E+04  0.10100000352E+00 0. -1.
       -3    1    3    3    0  502  0.22724006660E+03 -0.11935578481E+02  0.88260436456E+03  0.91146639019E+03  0.10100000352E+00 0.  1.
</event>
<event>
 5   0  0.1268836E-06  0.3174544E+04  0.7818609E-02  0.8195573E-01
        1   -1    0    0  501    0  0.00000000000E+00  0.00000000000E+00  0.23369298529E+04  0.23369298529E+04  0.50400001928E-02 0.  1.
       -1   -1    0    0    0  501  0.00000000000E+00  0.00000000000E+00 -0.10780948192E+04  0.10780948192E+04  0.50400001928E-02 0. -1.
    10030    2    1    2    0    0  0.00000000000E+00  0.00000000000E+00  0.12588350337E+04  0.34150246722E+04  0.31745437262E+04 0.  0.
        1    1    3    3  502    0  0.15595251296E+04  0.28930390600E+03  0.69411122224E+03  0.17313595145E+04  0.50400001928E-02 0.  1.
       -1    1    3    3    0  502 -0.15595251296E+04 -0.28930390600E+03  0.56472381145E+03  0.16836651576E+04  0.50400001928E-02 0. -1.
</event>
<event>
 5   0  0.1273980E-06  0.3276434E+04  0.7818609E-02  0.8168918E-01
       -1   -1    0    0    0  501  0.00000000000E+00  0.00000000000E+00  0.11203753178E+04  0.11203753178E+04  0.50400001928E-02 0. -1.
        1   -1    0    0  501    0  0.00000000000E+00  0.00000000000E+00 -0.23954066245E+04  0.23954066245E+04  0.50400001928E-02 0.  1.
    10030    2    1    2    0    0  0.00000000000E+00  0.00000000000E+00 -0.12750313067E+04  0.35157819423E+04  0.32764337064E+04 0.  0.
        4    1    3    3  502    0 -0.64441363441E+03  0.13208835159E+03  0.97243224827E+03  0.11740282600E+04  0.12699999809E+01 0. -1.
       -4    1    3    3    0  502  0.64441363441E+03 -0.13208835159E+03 -0.22474635550E+04  0.23417536823E+04  0.12699999809E+01 0.  1.
</event>
<event>
 5   0  0.1268836E-06  0.3009000E+04  0.7818609E-02  0.8241166E-01
       -1   -1    0    0    0  501  0.00000000000E+00  0.00000000000E+00  0.95772832282E+03  0.95772832284E+03  0.50400001928E-02 0.  1.
        1   -1    0    0  501    0  0.00000000000E+00  0.00000000000E+00 -0.23634258235E+04  0.23634258235E+04  0.50400001928E-02 0. -1.
    10030    2    1    2    0    0  0.00000000000E+00  0.00000000000E+00 -0.14056975007E+04  0.33211541463E+04  0.30089997342E+04 0.  0.
        1    1    3    3  502    0  0.33573899641E+03 -0.52675926315E+03  0.80783415755E+03  0.10211718862E+04  0.50400001928E-02 0.  1.
       -1    1    3    3    0  502 -0.33573899641E+03  0.52675926315E+03 -0.22135316582E+04  0.22999822601E+04  0.50400001928E-02 0. -1.
</event>
<event>
 5   0  0.1185575E-06  0.3207450E+04  0.7818609E-02  0.8186853E-01
        3   -1    0    0  501    0  0.00000000000E+00  0.00000000000E+00  0.16679267636E+04  0.16679267666E+04  0.10100000352E+00 0.  1.
       -3   -1    0    0    0  501  0.00000000000E+00  0.00000000000E+00 -0.15419941259E+04  0.15419941292E+04  0.10100000352E+00 0. -1.
    10030    2    1    2    0    0  0.00000000000E+00  0.00000000000E+00  0.12593263769E+03  0.32099208958E+04  0.32074496299E+04 0.  0.
        4    1    3    3  502    0 -0.77737218186E+03 -0.37744344559E+03 -0.12890596340E+04  0.15519173356E+04  0.12699999809E+01 0. -1.
       -4    1    3    3    0  502  0.77737218186E+03  0.37744344559E+03  0.14149922717E+04  0.16580035602E+04  0.12699999809E+01 0.  1.
</event>
<event>
 5   0  0.1240725E-06  0.3217954E+04  0.7818609E-02  0.8184092E-01
       -1   -1    0    0    0  501  0.00000000000E+00  0.00000000000E+00  0.14076132656E+04  0.14076132656E+04  0.50400001928E-02 0.  1.
        1   -1    0    0  501    0  0.00000000000E+00  0.00000000000E+00 -0.18391462595E+04  0.18391462595E+04  0.50400001928E-02 0. -1.
    10030    2    1    2    0    0  0.00000000000E+00  0.00000000000E+00 -0.43153299390E+03  0.32467595251E+04  0.32179538046E+04 0.  0.
        3    1    3    3  502    0  0.17539278521E+03  0.17512581147E+03  0.13882364402E+04  0.14101886764E+04  0.10100000352E+00 0.  1.
       -3    1    3    3    0  502 -0.17539278521E+03 -0.17512581147E+03 -0.18197694341E+04  0.18365708487E+04  0.10100000352E+00 0. -1.
</event>
<event>
 5   0  0.1273980E-06  0.3241685E+04  0.7818609E-02  0.8177894E-01
       -1   -1    0    0    0  501  0.00000000000E+00  0.00000000000E+00  0.12164314233E+04  0.12164314233E+04  0.50400001928E-02 0. -1.
        1   -1    0    0  501    0  0.00000000000E+00  0.00000000000E+00 -0.21597033555E+04  0.21597033555E+04  0.50400001928E-02 0.  1.
    10030    2    1    2    0    0  0.00000000000E+00  0.00000000000E+00 -0.94327193219E+03  0.33761347788E+04  0.32416853805E+04 0.  0.
        4    1    3    3  502    0 -0.11241835602E+04  0.23107991281E+03  0.72036081106E+03  0.13550305953E+04  0.12699999809E+01 0. -1.
       -4    1    3    3    0  502  0.11241835602E+04 -0.23107991281E+03 -0.16636327432E+04  0.20211041835E+04  0.12699999809E+01 0.  1.
</event>
<event>
 5   0  0.1273754E-06  0.3296360E+04  0.7818609E-02  0.8163822E-01
       -1   -1    0    0    0  501  0.00000000000E+00  0.00000000000E+00  0.19600870306E+04  0.19600870306E+04  0.50400001928E-02 0.  1.
        1   -1    0    0  501    0  0.00000000000E+00  0.00000000000E+00 -0.13859064575E+04  0.13859064576E+04  0.50400001928E-02 0. -1.
    10030    2    1    2    0    0  0.00000000000E+00  0.00000000000E+00  0.57418057307E+03  0.33459934882E+04  0.32963599762E+04 0.  0.
        2    1    3    3  502    0  0.52761033061E+02  0.84340789814E+03 -0.11492698602E+04  0.14265138698E+04  0.25500000920E-02 0. -1.
       -2    1    3    3    0  502 -0.52761033061E+02 -0.84340789814E+03  0.17234504333E+04  0.19194796183E+04  0.25500000920E-02 0.  1.
</event>
<event>
 5   0  0.3758062E-06  0.3204875E+04  0.7818609E-02  0.8187531E-01
        2   -1    0    0  501    0  0.00000000000E+00  0.00000000000E+00  0.15241545992E+04  0.15241545992E+04  0.25500000920E-02 0. -1.
       -2   -1    0    0    0  501  0.00000000000E+00  0.00000000000E+00 -0.16847410902E+04  0.16847410902E+04  0.25500000920E-02 0.  1.
    10030    2    1    2    0    0  0.00000000000E+00  0.00000000000E+00 -0.16058649097E+03  0.32088956894E+04  0.32048749624E+04 0.  0.
        2    1    3    3  502    0  0.14452957097E+04  0.23962075260E+03  0.56975780661E+03  0.15719165855E+04  0.25500000920E-02 0. -1.
       -2    1    3    3    0  502 -0.14452957097E+04 -0.23962075260E+03 -0.73034429759E+03  0.16369791039E+04  0.25500000920E-02 0.  1.
</event>
<event>
 5   0  0.1306843E-06  0.3124859E+04  0.7818609E-02  0.8208949E-01
        1   -1    0    0  501    0  0.00000000000E+00  0.00000000000E+00  0.22419026810E+04  0.22419026810E+04  0.50400001928E-02 0.  1.
       -1   -1    0    0    0  501  0.00000000000E+00  0.00000000000E+00 -0.10888900913E+04  0.10888900913E+04  0.50400001928E-02 0. -1.
    10030    2    1    2    0    0  0.00000000000E+00  0.00000000000E+00  0.11530125897E+04  0.33307927723E+04  0.31248587904E+04 0.  0.
        5    1    3    3  502    0 -0.11506442548E+04  0.40137558924E+03  0.16187375606E+04  0.20261830976E+04  0.46999998093E+01 0.  1.
       -5    1    3    3    0  502  0.11506442548E+04 -0.40137558924E+03 -0.46572497092E+03  0.13046096747E+04  0.46999998093E+01 0. -1.
</event>
<event>
 5   0  0.1240725E-06  0.3140148E+04  0.7818609E-02  0.8204805E-01
        1   -1    0    0  501    0  0.00000000000E+00  0.00000000000E+00  0.16555451884E+04  0.16555451884E+04  0.50400001928E-02 0.  1.
       -1   -1    0    0    0  501  0.00000000000E+00  0.00000000000E+00 -0.14890152562E+04  0.14890152562E+04  0.50400001928E-02 0. -1.
    10030    2    1    2    0    0  0.00000000000E+00  0.00000000000E+00  0.16652993223E+03  0.31445604447E+04  0.31401477946E+04 0.  0.
        3    1    3    3  502    0 -0.89555802451E+03 -0.12757683616E+04  0.27200513517E+03  0.15822755422E+04  0.10100000352E+00 0.  1.
       -3    1    3    3    0  502  0.89555802451E+03  0.12757683616E+04 -0.10547520294E+03  0.15622849024E+04  0.10100000352E+00 0. -1.
</event>
<event>
 5   0  0.3758062E-06  0.3162106E+04  0.7818609E-02  0.8198897E-01
       -2   -1    0    0    0  501  0.00000000000E+00  0.00000000000E+00  0.15620784706E+04  0.15620784706E+04  0.25500000920E-02 0. -1.
        2   -1    0    0  501    0  0.00000000000E+00  0.00000000000E+00 -0.16002583364E+04  0.16002583364E+04  0.25500000920E-02 0.  1.
    10030    2    1    2    0    0  0.00000000000E+00  0.00000000000E+00 -0.38179865794E+02  0.31623368070E+04  0.31621063199E+04 0.  0.
        2    1    3    3  502    0 -0.12609183282E+04  0.90459367345E+03 -0.32164190049E+03  0.15848212065E+04  0.25500000920E-02 0.  1.
       -2    1    3    3    0  502  0.12609183282E+04 -0.90459367345E+03  0.28346203469E+03  0.15775156004E+04  0.25500000920E-02 0. -1.
</event>
<event>
 5   0  0.1273754E-06  0.3251026E+04  0.7818609E-02  0.8175470E-01
        1   -1    0    0  501    0  0.00000000000E+00  0.00000000000E+00  0.11760281004E+04  0.11760281004E+04  0.50400001928E-02 0. -1.
       -1   -1    0    0    0  501  0.00000000000E+00  0.00000000000E+00 -0.22467937179E+04  0.22467937179E+04  0.50400001928E-02 0.  1.
    10030    2    1    2    0    0  0.00000000000E+00  0.00000000000E+00 -0.10707656175E+04  0.34228218183E+04  0.32510260215E+04 0.  0.
        2    1    3    3  502    0  0.15375309972E+04 -0.49619540799E+03 -0.72395969357E+03  0.17704036512E+04  0.25500000920E-02 0.  1.
       -2    1    3    3    0  502 -0.15375309972E+04  0.49619540799E+03 -0.34680592388E+03  0.16524181671E+04  0.25500000920E-02 0. -1.
</event>
<event>
 5   0  0.1306843E-06  0.3197536E+04  0.7818609E-02  0.8189468E-01
       -1   -1    0    0    0  501  0.00000000000E+00  0.00000000000E+00  0.14021070000E+04  0.14021070000E+04  0.50400001928E-02 0.  1.
        1   -1    0    0  501    0  0.00000000000E+00  0.00000000000E+00 -0.18230123936E+04  0.18230123937E+04  0.50400001928E-02 0. -1.
    10030    2    1    2    0    0  0.00000000000E+00  0.00000000000E+00 -0.42090539369E+03  0.32251193936E+04  0.31975355749E+04 0.  0.
        5    1    3    3  502    0  0.86500457503E+02 -0.12647411674E+04 -0.11930143501E+04  0.17407923137E+04  0.46999998093E+01 0. -1.
       -5    1    3    3    0  502 -0.86500457503E+02  0.12647411674E+04  0.77210895640E+03  0.14843270800E+04  0.46999998093E+01 0.  1.
</event>
<event>
 5   0  0.3531437E-06  0.2957113E+04  0.7818609E-02  0.8256085E-01
       -2   -1    0    0    0  501  0.00000000000E+00  0.00000000000E+00  0.14240021609E+04  0.14240021609E+04  0.25500000920E-02 0. -1.
        2   -1    0    0  501    0  0.00000000000E+00  0.00000000000E+00 -0.15352005049E+04  0.15352005049E+04  0.25500000920E-02 0.  1.
    10030    2    1    2    0    0  0.00000000000E+00  0.00000000000E+00 -0.11119834401E+03  0.29592026658E+04  0.29571126704E+04 0.  0.
        1    1    3    3  502    0 -0.13028379334E+04  0.51594128902E+03 -0.52768118967E+03  0.14973408204E+04  0.50400001928E-02 0.  1.
       -1    1    3    3    0  502  0.13028379334E+04 -0.51594128902E+03  0.41648284566E+03  0.14618618454E+04  0.50400001928E-02 0. -1.
</event>
<event>
 5   0  0.3758062E-06  0.3233660E+04  0.7818609E-02  0.8179984E-01
        2   -1    0    0  501    0  0.00000000000E+00  0.00000000000E+00  0.23517061626E+04  0.23517061626E+04  0.25500000920E-02 0.  1.
       -2   -1    0    0    0  501  0.00000000000E+00  0.00000000000E+00 -0.11115929366E+04  0.11115929366E+04  0.25500000920E-02 0. -1.
    10030    2    1    2    0    0  0.00000000000E+00  0.00000000000E+00  0.12401132259E+04  0.34632990992E+04  0.32336604394E+04 0.  0.
        2    1    3    3  502    0 -0.11577421252E+04 -0.11016853737E+04  0.88253719116E+03  0.18256367067E+04  0.25500000920E-02 0.  1.
       -2    1    3    3    0  502  0.11577421252E+04  0.11016853737E+04  0.35757603478E+03  0.16376623925E+04  0.25500000920E-02 0. -1.
</event>
<event>
 5   0  0.3497546E-06  0.2991812E+04  0.7818609E-02  0.8246073E-01
       -2   -1    0    0    0  501  0.00000000000E+00  0.00000000000E+00  0.14382994016E+04  0.14382994016E+04  0.25500000920E-02 0. -1.
        2   -1    0    0  501    0  0.00000000000E+00  0.00000000000E+00 -0.15558199651E+04  0.15558199651E+04  0.25500000920E-02 0.  1.
    10030    2    1    2    0    0  0.00000000000E+00  0.00000000000E+00 -0.11752056353E+03  0.29941193667E+04  0.29918121096E+04 0.  0.
        4    1    3    3  502    0 -0.25984803803E+03  0.14704516391E+04 -0.14818402428E+03  0.15005696064E+04  0.12699999809E+01 0. -1.
       -4    1    3    3    0  502  0.25984803803E+03 -0.14704516391E+04  0.30663460753E+02  0.14935497603E+04  0.12699999809E+01 0.  1.
</event>
<event>
 5   0  0.3745943E-06  0.3278197E+04  0.7818609E-02  0.8168465E-01
       -2   -1    0    0    0  501  0.00000000000E+00  0.00000000000E+00  0.15507389083E+04  0.15507389083E+04  0.25500000920E-02 0. -1.
        2   -1    0    0  501    0  0.00000000000E+00  0.00000000000E+00 -0.17324929475E+04  0.17324929475E+04  0.25500000920E-02 0.  1.
    10030    2    1    2    0    0  0.00000000000E+00  0.00000000000E+00 -0.18175403919E+03  0.32832318558E+04  0.32781972010E+04 0.  0.
        5    1    3    3  502    0 -0.58290966099E+03  0.16477626492E+01  0.14434142890E+04  0.15566802137E+04  0.46999998093E+01 0. -1.
       -5    1    3    3    0  502  0.58290966099E+03 -0.16477626492E+01 -0.16251683282E+04  0.17265516421E+04  0.46999998093E+01 0.  1.
</event>
<event>
 5   0  0.3497546E-06  0.3190457E+04  0.7818609E-02  0.8191342E-01
       -2   -1    0    0    0  501  0.00000000000E+00  0.00000000000E+00  0.14348813656E+04  0.14348813656E+04  0.25500000920E-02 0. -1.
        2   -1    0    0  501    0  0.00000000000E+00  0.00000000000E+00 -0.17734941744E+04  0.17734941744E+04  0.25500000920E-02 0.  1.
    10030    2    1    2    0    0  0.00000000000E+00  0.00000000000E+00 -0.33861280885E+03  0.32083755400E+04  0.31904568594E+04 0.  0.
        4    1    3    3  502    0  0.13865651321E+04 -0.41059347707E+02  0.62283807691E+03  0.15205846305E+04  0.12699999809E+01 0. -1.
       -4    1    3    3    0  502 -0.13865651321E+04  0.41059347707E+02 -0.96145088576E+03  0.16877909095E+04  0.12699999809E+01 0.  1.
</event>
<event>
 5   0  0.3531437E-06  0.3182873E+04  0.7818609E-02  0.8193355E-01
       -2   -1    0    0    0  501  0.00000000000E+00  0.00000000000E+00  0.10918636108E+04  0.10918636108E+04  0.25500000920E-02 0.  1.
        2   -1    0    0  501    0  0.00000000000E+00  0.00000000000E+00 -0.23195848318E+04  0.23195848318E+04  0.25500000920E-02 0. -1.
    10030    2    1    2    0    0  0.00000000000E+00  0.00000000000E+00 -0.12277212210E+04  0.34114484425E+04  0.31828730857E+04 0.  0.
        1    1    3    3  502    0 -0.24334177908E+03 -0.13207617027E+04 -0.15290189322E+04  0.20350738541E+04  0.50400001928E-02 0. -1.
       -1    1    3    3    0  502  0.24334177908E+03  0.13207617027E+04  0.30129771114E+03  0.13763745884E+04  0.50400001928E-02 0.  1.
</event>
<event>
 5   0  0.1273980E-06  0.3154708E+04  0.7818609E-02  0.8200882E-01
        1   -1    0    0  501    0  0.00000000000E+00  0.00000000000E+00  0.13652206297E+04  0.13652206297E+04  0.50400001928E-02 0. -1.
       -1   -1    0    0    0  501  0.00000000000E+00  0.00000000000E+00 -0.18224492476E+04  0.18224492476E+04  0.50400001928E-02 0.  1.
    10030    2    1    2    0    0  0.00000000000E+00  0.00000000000E+00 -0.45722861792E+03  0.31876698773E+04  0.31547077896E+04 0.  0.
        4    1    3    3  502    0  0.99836132081E+03  0.32622631567E+02  0.10049005003E+04  0.14169037340E+04  0.12699999809E+01 0. -1.
       -4    1    3    3    0  502 -0.99836132081E+03 -0.32622631567E+02 -0.14621291182E+04  0.17707661433E+04  0.12699999809E+01 0.  1.
</event>
<event>
 5   0  0.3758062E-06  0.3246350E+04  0.7818609E-02  0.8176682E-01
        2   -1    0    0  501    0  0.00000000000E+00  0.00000000000E+00  0.21517283175E+04  0.21517283175E+04  0.25500000920E-02 0.  1.
       -2   -1    0    0    0  501  0.00000000000E+00  0.00000000000E+00 -0.12244559808E+04  0.12244559808E+04  0.25500000920E-02 0. -1.
    10030    2    1    2    0    0  0.00000000000E+00  0.00000000000E+00  0.92727233664E+03  0.33761842983E+04  0.32463497085E+04 0.  0.
        2    1    3    3  502    0 -0.81292595176E+03  0.14002167880E+04  0.34396475202E+03  0.16552242770E+04  0.25500000920E-02 0.  1.
       -2    1    3    3    0  502  0.81292595176E+03 -0.14002167880E+04  0.58330758462E+03  0.17209600213E+04  0.25500000920E-02 0. -1.
</event>
<event>
 5   0  0.3656086E-06  0.3187862E+04  0.7818609E-02  0.8192030E-01
       -2   -1    0    0    0  501  0.00000000000E+00  0.00000000000E+00  0.94051976582E+03  0.94051976583E+03  0.25500000920E-02 0.  1.
        2   -1    0    0  501    0  0.00000000000E+00  0.00000000000E+00 -0.27012896474E+04  0.27012896474E+04  0.25500000920E-02 0. -1.
    10030    2    1    2    0    0  0.00000000000E+00  0.00000000000E+00 -0.17607698816E+04  0.36418094133E+04  0.31878621718E+04 0.  0.
        3    1    3    3  502    0  0.44287048200E+03 -0.13034469300E+04 -0.17982282306E+04  0.22646706036E+04  0.10100000352E+00 0. -1.
       -3    1    3    3    0  502 -0.44287048200E+03  0.13034469300E+04  0.37458349006E+02  0.13771388097E+04  0.10100000352E+00 0.  1.
</event>
<event>
 5   0  0.3745943E-06  0.3192505E+04  0.7818609E-02  0.8190799E-01
        2   -1    0    0  501    0  0.00000000000E+00  0.00000000000E+00  0.16054347789E+04  0.16054347789E+04  0.25500000920E-02 0. -1.
       -2   -1    0    0    0  501  0.00000000000E+00  0.00000000000E+00 -0.15871228826E+04  0.15871228826E+04  0.25500000920E-02 0.  1.
    10030    2    1    2    0    0  0.00000000000E+00  0.00000000000E+00  0.18311896365E+02  0.31925576615E+04  0.31925051443E+04 0.  0.
        5    1    3    3  502    0  0.53237359195E+03 -0.50647635885E+03 -0.14079277851E+04  0.15881507112E+04  0.46999998093E+01 0.  1.
       -5    1    3    3    0  502 -0.53237359195E+03  0.50647635885E+03  0.14262396814E+04  0.16044069503E+04  0.46999998093E+01 0. -1.
</event>
<event>
 5   0  0.3531437E-06  0.3163350E+04  0.7818609E-02  0.8198564E-01
        2   -1    0    0  501    0  0.00000000000E+00  0.00000000000E+00  0.15658954717E+04  0.15658954717E+04  0.25500000920E-02 0. -1.
       -2   -1    0    0    0  501  0.00000000000E+00  0.00000000000E+00 -0.15976137184E+04  0.15976137184E+04  0.25500000920E-02 0.  1.
    10030    2    1    2    0    0  0.00000000000E+00  0.00000000000E+00 -0.31718246784E+02  0.31635091901E+04  0.31633501780E+04 0.  0.
        1    1    3    3  502    0  0.81770098847E+03  0.78685531152E+03  0.10859765915E+04  0.15707072754E+04  0.50400001928E-02 0. -1.
       -1    1    3    3    0  502 -0.81770098847E+03 -0.78685531152E+03 -0.11176948383E+04  0.15928019147E+04  0.50400001928E-02 0.  1.
</event>
<event>
 5   0  0.1268836E-06  0.3341175E+04  0.7818609E-02  0.8152497E-01
       -1   -1    0    0    0  501  0.00000000000E+00  0.00000000000E+00  0.25633367104E+04  0.25633367104E+04  0.50400001928E-02 0. -1.
        1   -1    0    0  501    0  0.00000000000E+00  0.00000000000E+00 -0.10887616184E+04  0.10887616184E+04  0.50400001928E-02 0.  1.
    10030    2    1    2    0    0  0.00000000000E+00  0.00000000000E+00  0.14745750920E+04  0.36520983288E+04  0.33411750181E+04 0.  0.
        1    1    3    3  502    0 -0.75392347825E+03 -0.25616006439E+03 -0.86799915321E+03  0.11778969054E+04  0.50400001928E-02 0.  1.
       -1    1    3    3    0  502  0.75392347825E+03  0.25616006439E+03  0.23425742452E+04  0.24742014235E+04  0.50400001928E-02 0. -1.
</event>
<event>
 5   0  0.3758062E-06  0.3195496E+04  0.7818609E-02  0.8190008E-01
       -2   -1    0    0    0  501  0.00000000000E+00  0.00000000000E+00  0.11484575833E+04  0.11484575833E+04  0.25500000920E-02 0.  1.
        2   -1    0    0  501    0  0.00000000000E+00  0.00000000000E+00 -0.22228057041E+04  0.22228057041E+04  0.25500000920E-02 0. -1.
    10030    2    1    2    0    0  0.00000000000E+00  0.00000000000E+00 -0.10743481207E+04  0.33712632874E+04  0.31954956217E+04 0.  0.
        2    1    3    3  502    0  0.10878551826E+04  0.11436602322E+04 -0.79861618032E+03  0.17689475483E+04  0.25500000920E-02 0.  1.
       -2    1    3    3    0  502 -0.10878551826E+04 -0.11436602322E+04 -0.27573194040E+03  0.16023157392E+04  0.25500000920E-02 0. -1.
</event>
<event>
 5   0  0.1306843E-06  0.3273919E+04  0.7818609E-02  0.8169563E-01
        1   -1    0    0  501    0  0.00000000000E+00  0.00000000000E+00  0.13063366195E+04  0.13063366195E+04  0.50400001928E-02 0. -1.
       -1   -1    0    0    0  501  0.00000000000E+00  0.00000000000E+00 -0.20512606511E+04  0.20512606511E+04  0.50400001928E-02 0.  1.
    10030    2    1    2    0    0  0.00000000000E+00  0.00000000000E+00 -0.74492403160E+03  0.33575972707E+04  0.32739193056E+04 0.  0.
        5    1    3    3  502    0  0.29492870207E+03 -0.13391395631E+04  0.54444568282E+03  0.14753714449E+04  0.46999998093E+01 0. -1.
       -5    1    3    3    0  502 -0.29492870207E+03  0.13391395631E+04 -0.12893697144E+04  0.18822258258E+04  0.46999998093E+01 0.  1.
</event>
<event>
 5   0  0.3745943E-06  0.3206803E+04  0.7818609E-02  0.8187023E-01
       -2   -1    0    0    0  501  0.00000000000E+00  0.00000000000E+00  0.18075006088E+04  0.18075006088E+04  0.25500000920E-02 0.  1.
        2   -1    0    0  501    0  0.00000000000E+00  0.00000000000E+00 -0.14223486772E+04  0.14223486772E+04  0.25500000920E-02 0. -1.
    10030    2    1    2    0    0  0.00000000000E+00  0.00000000000E+00  0.38515193167E+03  0.32298492860E+04  0.32068028315E+04 0.  0.
        5    1    3    3  502    0 -0.26403559494E+03 -0.32605164636E+03 -0.13660758706E+04  0.14290590770E+04  0.46999998093E+01 0. -1.
       -5    1    3    3    0  502  0.26403559494E+03  0.32605164636E+03  0.17512278022E+04  0.18007902090E+04  0.46999998093E+01 0.  1.
</event>
<event>
 5   0  0.1273980E-06  0.2461501E+04  0.7818609E-02  0.8416831E-01
        1   -1    0    0  501    0  0.00000000000E+00  0.00000000000E+00  0.23639999946E+04  0.23639999946E+04  0.50400001928E-02 0.  1.
       -1   -1    0    0    0  501  0.00000000000E+00  0.00000000000E+00 -0.64075574709E+03  0.64075574711E+03  0.50400001928E-02 0. -1.
    10030    2    1    2    0    0  0.00000000000E+00  0.00000000000E+00  0.17232442475E+04  0.30047557417E+04  0.24615008289E+04 0.  0.
        4    1    3    3  502    0 -0.10075610415E+04  0.63536449597E+03  0.12396013518E+04  0.17191510752E+04  0.12699999809E+01 0.  1.
       -4    1    3    3    0  502  0.10075610415E+04 -0.63536449597E+03  0.48364289573E+03  0.12856046665E+04  0.12699999809E+01 0. -1.
</event>
<event>
 5   0  0.3497546E-06  0.3181139E+04  0.7818609E-02  0.8193816E-01
       -2   -1    0    0    0  501  0.00000000000E+00  0.00000000000E+00  0.10626434853E+04  0.10626434853E+04  0.25500000920E-02 0. -1.
        2   -1    0    0  501    0  0.00000000000E+00  0.00000000000E+00 -0.23807709853E+04  0.23807709853E+04  0.25500000920E-02 0.  1.
    10030    2    1    2    0    0  0.00000000000E+00  0.00000000000E+00 -0.13181275000E+04  0.34434144706E+04  0.31811386499E+04 0.  0.
        4    1    3    3  502    0  0.60237753620E+03  0.93828207949E+03 -0.18869029822E+04  0.21917199716E+04  0.12699999809E+01 0.  1.
       -4    1    3    3    0  502 -0.60237753620E+03 -0.93828207949E+03  0.56877548218E+03  0.12516944990E+04  0.12699999809E+01 0. -1.
</event>
<event>
 5   0  0.1268836E-06  0.3245873E+04  0.7818609E-02  0.8176806E-01
       -1   -1    0    0    0  501  0.00000000000E+00  0.00000000000E+00  0.11532110703E+04  0.11532110703E+04  0.50400001928E-02 0. -1.
        1   -1    0    0  501    0  0.00000000000E+00  0.00000000000E+00 -0.22839899730E+04  0.22839899730E+04  0.50400001928E-02 0.  1.
    10030    2    1    2    0    0  0.00000000000E+00  0.00000000000E+00 -0.11307789027E+04  0.34372010433E+04  0.32458727771E+04 0.  0.
        1    1    3    3  502    0 -0.24584598199E+03 -0.10980939709E+04 -0.18037993204E+04  0.21260156641E+04  0.50400001928E-02 0.  1.
       -1    1    3    3    0  502  0.24584598199E+03  0.10980939709E+04  0.67302041772E+03  0.13111853792E+04  0.50400001928E-02 0. -1.
</event>
<event>
 5   0  0.3531437E-06  0.3198464E+04  0.7818609E-02  0.8189223E-01
       -2   -1    0    0    0  501  0.00000000000E+00  0.00000000000E+00  0.12926286938E+04  0.12926286938E+04  0.25500000920E-02 0. -1.
        2   -1    0    0  501    0  0.00000000000E+00  0.00000000000E+00 -0.19785599228E+04  0.19785599228E+04  0.25500000920E-02 0.  1.
    10030    2    1    2    0    0  0.00000000000E+00  0.00000000000E+00 -0.68593122900E+03  0.32711886167E+04  0.31984642119E+04 0.  0.
        1    1    3    3  502    0 -0.22099580449E+03  0.85957328060E+01 -0.19628440428E+04  0.19752644807E+04  0.50400001928E-02 0.  1.
       -1    1    3    3    0  502  0.22099580449E+03 -0.85957328060E+01  0.12769128138E+04  0.12959241360E+04  0.50400001928E-02 0. -1.
</event>
<event>
 5   0  0.1273980E-06  0.3222248E+04  0.7818609E-02  0.8182966E-01
       -1   -1    0    0    0  501  0.00000000000E+00  0.00000000000E+00  0.31712580396E+04  0.31712580396E+04  0.50400001928E-02 0.  1.
        1   -1    0    0  501    0  0.00000000000E+00  0.00000000000E+00 -0.81851437575E+03  0.81851437577E+03  0.50400001928E-02 0. -1.
    10030    2    1    2    0    0  0.00000000000E+00  0.00000000000E+00  0.23527436639E+04  0.39897724154E+04  0.32222478456E+04 0.  0.
        4    1    3    3  502    0  0.12058334564E+02 -0.14330081516E+04  0.20879905390E+04  0.25324620174E+04  0.12699999809E+01 0.  1.
       -4    1    3    3    0  502 -0.12058334564E+02  0.14330081516E+04  0.26475312490E+03  0.14573103980E+04  0.12699999809E+01 0. -1.
</event>
<event>
 5   0  0.3656086E-06  0.2605783E+04  0.7818609E-02  0.8366239E-01
        2   -1    0    0  501    0  0.00000000000E+00  0.00000000000E+00  0.13057571566E+04  0.13057571566E+04  0.25500000920E-02 0.  1.
       -2   -1    0    0    0  501  0.00000000000E+00  0.00000000000E+00 -0.13000321605E+04  0.13000321605E+04  0.25500000920E-02 0. -1.
    10030    2    1    2    0    0  0.00000000000E+00  0.00000000000E+00  0.57249960739E+01  0.26057893172E+04  0.26057830282E+04 0.  0.
        3    1    3    3  502    0  0.36809014210E+03 -0.67632994515E+03 -0.10481460993E+04  0.13005855617E+04  0.10100000352E+00 0. -1.
       -3    1    3    3    0  502 -0.36809014210E+03  0.67632994515E+03  0.10538710954E+04  0.13052037555E+04  0.10100000352E+00 0.  1.
</event>
<event>
 5   0  0.1240725E-06  0.3216438E+04  0.7818609E-02  0.8184489E-01
        1   -1    0    0  501    0  0.00000000000E+00  0.00000000000E+00  0.12748382124E+04  0.12748382124E+04  0.50400001928E-02 0. -1.
       -1   -1    0    0    0  501  0.00000000000E+00  0.00000000000E+00 -0.20287816656E+04  0.20287816656E+04  0.50400001928E-02 0.  1.
    10030    2    1    2    0    0  0.00000000000E+00  0.00000000000E+00 -0.75394345323E+03  0.33036198781E+04  0.32164380249E+04 0.  0.
        3    1    3    3  502    0 -0.19320138373E+03  0.69479543531E+03  0.10994542117E+04  0.13148638885E+04  0.10100000352E+00 0. -1.
       -3    1    3    3    0  502  0.19320138373E+03 -0.69479543531E+03 -0.18533976649E+04  0.19887559896E+04  0.10100000352E+00 0.  1.
</event>
<event>
 5   0  0.3531437E-06  0.3151117E+04  0.7818609E-02  0.8201848E-01
        2   -1    0    0  501    0  0.00000000000E+00  0.00000000000E+00  0.13580641419E+04  0.13580641419E+04  0.25500000920E-02 0. -1.
       -2   -1    0    0    0  501  0.00000000000E+00  0.00000000000E+00 -0.18278843323E+04  0.18278843323E+04  0.25500000920E-02 0.  1.
    10030    2    1    2    0    0  0.00000000000E+00  0.00000000000E+00 -0.46982019039E+03  0.31859484741E+04  0.31511167336E+04 0.  0.
        1    1    3    3  502    0  0.15124900032E+04 -0.34778049744E+03 -0.50958734340E+03  0.16334798881E+04  0.50400001928E-02 0. -1.
       -1    1    3    3    0  502 -0.15124900032E+04  0.34778049744E+03  0.39767153004E+02  0.15524685860E+04  0.50400001928E-02 0.  1.
</event>
<event>
 5   0  0.1273980E-06  0.3197464E+04  0.7818609E-02  0.8189487E-01
       -1   -1    0    0    0  501  0.00000000000E+00  0.00000000000E+00  0.16829047820E+04  0.16829047820E+04  0.50400001928E-02 0. -1.
        1   -1    0    0  501    0  0.00000000000E+00  0.00000000000E+00 -0.15187688688E+04  0.15187688688E+04  0.50400001928E-02 0.  1.
    10030    2    1    2    0    0  0.00000000000E+00  0.00000000000E+00  0.16413591314E+03  0.32016736508E+04  0.31974636148E+04 0.  0.
        4    1    3    3  502    0 -0.41139709738E+03  0.14569922255E+04 -0.43228909711E+03  0.15744679715E+04  0.12699999809E+01 0.  1.
       -4    1    3    3    0  502  0.41139709738E+03 -0.14569922255E+04  0.59642501025E+03  0.16272056793E+04  0.12699999809E+01 0. -1.
</event>
<event>
 5   0  0.3656086E-06  0.3218994E+04  0.7818609E-02  0.8183819E-01
        2   -1    0    0  501    0  0.00000000000E+00  0.00000000000E+00  0.11451497531E+04  0.11451497531E+04  0.25500000920E-02 0.  1.
       -2   -1    0    0    0  501  0.00000000000E+00  0.00000000000E+00 -0.22621319963E+04  0.22621319963E+04  0.25500000920E-02 0. -1.
    10030    2    1    2    0    0  0.00000000000E+00  0.00000000000E+00 -0.11169822433E+04  0.34072817494E+04  0.32189935676E+04 0.  0.
        3    1    3    3  502    0  0.63341233463E+03  0.58779689128E+03 -0.19957683560E+04  0.21748121096E+04  0.10100000352E+00 0. -1.
       -3    1    3    3    0  502 -0.63341233463E+03 -0.58779689128E+03  0.87878611268E+03  0.12324696398E+04  0.10100000352E+00 0.  1.
</event>
<event>
 5   0  0.1273980E-06  0.3240449E+04  0.7818609E-02  0.8178216E-01
        1   -1    0    0  501    0  0.00000000000E+00  0.00000000000E+00  0.17297896822E+04  0.17297896822E+04  0.50400001928E-02 0. -1.
       -1   -1    0    0    0  501  0.00000000000E+00  0.00000000000E+00 -0.15175993905E+04  0.15175993905E+04  0.50400001928E-02 0.  1.
    10030    2    1    2    0    0  0.00000000000E+00  0.00000000000E+00  0.21219029163E+03  0.32473890727E+04  0.32404492080E+04 0.  0.
        4    1    3    3  502    0  0.27419793344E+01  0.72926839589E+03  0.15560130610E+04  0.17184348026E+04  0.12699999809E+01 0. -1.
       -4    1    3    3    0  502 -0.27419793344E+01 -0.72926839589E+03 -0.13438227694E+04  0.15289542701E+04  0.12699999809E+01 0.  1.
</event>
<event>
 5   0  0.1185575E-06  0.3134538E+04  0.7818609E-02  0.8206323E-01
       -3   -1    0    0    0  501  0.00000000000E+00  0.00000000000E+00  0.17891414903E+04  0.17891414932E+04  0.10100000352E+00 0.  1.
        3   -1    0    0  501    0  0.00000000000E+00  0.00000000000E+00 -0.13729112513E+04  0.13729112550E+04  0.10100000352E+00 0. -1.
    10030    2    1    2    0    0  0.00000000000E+00  0.00000000000E+00  0.41623023906E+03  0.31620527482E+04  0.31345382388E+04 0.  0.
        4    1    3    3  502    0  0.88978346011E+03  0.78177799451E+03 -0.82726620060E+03  0.14447361067E+04  0.12699999809E+01 0.  1.
       -4    1    3    3    0  502 -0.88978346011E+03 -0.78177799451E+03  0.12434964397E+04  0.17173166414E+04  0.12699999809E+01 0. -1.
</event>
<event>
 5   0  0.1273980E-06  0.3221680E+04  0.7818609E-02  0.8183115E-01
        1   -1    0    0  501    0  0.00000000000E+00  0.00000000000E+00  0.12276599224E+04  0.12276599224E+04  0.50400001928E-02 0.  1.
       -1   -1    0    0    0  501  0.00000000000E+00  0.00000000000E+00 -0.21136189770E+04  0.21136189770E+04  0.50400001928E-02 0. -1.
    10030    2    1    2    0    0  0.00000000000E+00  0.00000000000E+00 -0.88595905457E+03  0.33412788994E+04  0.32216798781E+04 0.  0.
        4    1    3    3  502    0 -0.73228496242E+03 -0.12476806687E+04 -0.11776957601E+04  0.18654536267E+04  0.12699999809E+01 0. -1.
       -4    1    3    3    0  502  0.73228496242E+03  0.12476806687E+04  0.29173670553E+03  0.14758252727E+04  0.12699999809E+01 0.  1.
</event>
<event>
 5   0  0.1306843E-06  0.3195463E+04  0.7818609E-02  0.8190016E-01
       -1   -1    0    0    0  501  0.00000000000E+00  0.00000000000E+00  0.18198446437E+04  0.18198446437E+04  0.50400001928E-02 0. -1.
        1   -1    0    0  501    0  0.00000000000E+00  0.00000000000E+00 -0.14027274379E+04  0.14027274379E+04  0.50400001928E-02 0.  1.
    10030    2    1    2    0    0  0.00000000000E+00  0.00000000000E+00  0.41711720581E+03  0.32225720816E+04  0.31954630428E+04 0.  0.
        5    1    3    3  502    0  0.89055284984E+03 -0.90279937149E+03  0.11887054927E+04  0.17381524449E+04  0.46999998093E+01 0. -1.
       -5    1    3    3    0  502 -0.89055284984E+03  0.90279937149E+03 -0.77158828685E+03  0.14844196367E+04  0.46999998093E+01 0.  1.
</event>
<event>
 5   0  0.3758062E-06  0.3149701E+04  0.7818609E-02  0.8202229E-01
       -2   -1    0    0    0  501  0.00000000000E+00  0.00000000000E+00  0.10595031701E+04  0.10595031701E+04  0.25500000920E-02 0.  1.
        2   -1    0    0  501    0  0.00000000000E+00  0.00000000000E+00 -0.23408652996E+04  0.23408652996E+04  0.25500000920E-02 0. -1.
    10030    2    1    2    0    0  0.00000000000E+00  0.00000000000E+00 -0.12813621295E+04  0.34003684697E+04  0.31497010688E+04 0.  0.
        2    1    3    3  502    0  0.10056919310E+04  0.12117771816E+04 -0.66041142496E+03  0.17076192339E+04  0.25500000920E-02 0.  1.
       -2    1    3    3    0  502 -0.10056919310E+04 -0.12117771816E+04 -0.62095070452E+03  0.16927492358E+04  0.25500000920E-02 0. -1.
</event>
<event>
 5   0  0.3497546E-06  0.3201092E+04  0.7818609E-02  0.8188529E-01
       -2   -1    0    0    0  501  0.00000000000E+00  0.00000000000E+00  0.15160864357E+04  0.15160864357E+04  0.25500000920E-02 0. -1.
        2   -1    0    0  501    0  0.00000000000E+00  0.00000000000E+00 -0.16897110417E+04  0.16897110417E+04  0.25500000920E-02 0.  1.
    10030    2    1    2    0    0  0.00000000000E+00  0.00000000000E+00 -0.17362460603E+03  0.32057974773E+04  0.32010923076E+04 0.  0.
        4    1    3    3  502    0 -0.35142145946E+03 -0.27703130438E+03  0.14521647174E+04  0.15195484083E+04  0.12699999809E+01 0. -1.
       -4    1    3    3    0  502  0.35142145946E+03  0.27703130438E+03 -0.16257893234E+04  0.16862490690E+04  0.12699999809E+01 0.  1.
</event>
<event>
 5   0  0.3745943E-06  0.3211825E+04  0.7818609E-02  0.8185701E-01
       -2   -1    0    0    0  501  0.00000000000E+00  0.00000000000E+00  0.17411897928E+04  0.17411897928E+04  0.25500000920E-02 0. -1.
        2   -1    0    0  501    0  0.00000000000E+00  0.00000000000E+00 -0.14811454436E+04  0.14811454436E+04  0.25500000920E-02 0.  1.
    10030    2    1    2    0    0  0.00000000000E+00  0.00000000000E+00  0.26004434923E+03  0.32223352365E+04  0.32118252307E+04 0.  0.
        5    1    3    3  502    0 -0.11133690447E+04 -0.16883188497E+03 -0.10186428382E+04  0.15184696760E+04  0.46999998093E+01 0.  1.
       -5    1    3    3    0  502  0.11133690447E+04  0.16883188497E+03  0.12786871874E+04  0.17038655605E+04  0.46999998093E+01 0. -1.
</event>
<event>
 5   0  0.3745943E-06  0.3066836E+04  0.7818609E-02  0.8224899E-01
       -2   -1    0    0    0  501  0.00000000000E+00  0.00000000000E+00  0.15555141247E+04  0.15555141247E+04  0.25500000920E-02 0. -1.
        2   -1    0    0  501    0  0.00000000000E+00  0.00000000000E+00 -0.15116358259E+04  0.15116358259E+04  0.25500000920E-02 0.  1.
    10030    2    1    2    0    0  0.00000000000E+00  0.00000000000E+00  0.43878298780E+02  0.30671499506E+04  0.30668360756E+04 0.  0.
        5    1    3    3  502    0 -0.30508541201E+02  0.34252340391E+03 -0.14725684119E+04  0.15121947199E+04  0.46999998093E+01 0.  1.
       -5    1    3    3    0  502  0.30508541201E+02 -0.34252340391E+03  0.15164467106E+04  0.15549552307E+04  0.46999998093E+01 0. -1.
</event>
<event>
 5   0  0.1273980E-06  0.3187264E+04  0.7818609E-02  0.8192189E-01
       -1   -1    0    0    0  501  0.00000000000E+00  0.00000000000E+00  0.18196479368E+04  0.18196479368E+04  0.50400001928E-02 0.  1.
        1   -1    0    0  501    0  0.00000000000E+00  0.00000000000E+00 -0.13956893988E+04  0.13956893988E+04  0.50400001928E-02 0. -1.
    10030    2    1    2    0    0  0.00000000000E+00  0.00000000000E+00  0.42395853800E+03  0.32153373355E+04  0.31872642406E+04 0.  0.
        4    1    3    3  502    0  0.13858762574E+04 -0.23514041490E+03 -0.54544516544E+03  0.15077984139E+04  0.12699999809E+01 0. -1.
       -4    1    3    3    0  502 -0.13858762574E+04  0.23514041490E+03  0.96940370344E+03  0.17075389216E+04  0.12699999809E+01 0.  1.
</event>
<event>
 5   0  0.1268836E-06  0.3109617E+04  0.7818609E-02  0.8213104E-01
       -1   -1    0    0    0  501  0.00000000000E+00  0.00000000000E+00  0.11426625230E+04  0.11426625230E+04  0.50400001928E-02 0. -1.
        1   -1    0    0  501    0  0.00000000000E+00  0.00000000000E+00 -0.21156107130E+04  0.21156107130E+04  0.50400001928E-02 0.  1.
    10030    2    1    2    0    0  0.00000000000E+00  0.00000000000E+00 -0.97294819003E+03  0.32582732360E+04  0.31096167448E+04 0.  0.
        1    1    3    3  502    0  0.71937510218E+03 -0.54380971408E+03  0.84064478458E+03  0.12328475967E+04  0.50400001928E-02 0. -1.
       -1    1    3    3    0  502 -0.71937510218E+03  0.54380971408E+03 -0.18135929746E+04  0.20254256393E+04  0.50400001928E-02 0.  1.
</event>
<event>
 5   0  0.3656086E-06  0.3207734E+04  0.7818609E-02  0.8186778E-01
       -2   -1    0    0    0  501  0.00000000000E+00  0.00000000000E+00  0.11166511184E+04  0.11166511184E+04  0.25500000920E-02 0.  1.
        2   -1    0    0  501    0  0.00000000000E+00  0.00000000000E+00 -0.23036643773E+04  0.23036643773E+04  0.25500000920E-02 0. -1.
    10030    2    1    2    0    0  0.00000000000E+00  0.00000000000E+00 -0.11870132589E+04  0.34203154957E+04  0.32077340309E+04 0.  0.
        3    1    3    3  502    0  0.13858236192E+03 -0.12071310699E+04  0.52278286722E+03  0.13227518389E+04  0.10100000352E+00 0.  1.
       -3    1    3    3    0  502 -0.13858236192E+03  0.12071310699E+04 -0.17097961261E+04  0.20975636567E+04  0.10100000352E+00 0. -1.
</event>
<event>
 5   0  0.3531437E-06  0.3168892E+04  0.7818609E-02  0.8197081E-01
       -2   -1    0    0    0  501  0.00000000000E+00  0.00000000000E+00  0.11967526520E+04  0.11967526520E+04  0.25500000920E-02 0. -1.
        2   -1    0    0  501    0  0.00000000000E+00  0.00000000000E+00 -0.20977343711E+04  0.20977343711E+04  0.25500000920E-02 0.  1.
    10030    2    1    2    0    0  0.00000000000E+00  0.00000000000E+00 -0.90098171914E+03  0.32944870231E+04  0.31688920283E+04 0.  0.
        1    1    3    3  502    0 -0.15672963870E+04  0.12500286458E+03 -0.65428423912E+03  0.17029772595E+04  0.50400001928E-02 0. -1.
       -1    1    3    3    0  502  0.15672963870E+04 -0.12500286458E+03 -0.24669748002E+03  0.15915097636E+04  0.50400001928E-02 0.  1.
</event>
<event>
 5   0  0.3745943E-06  0.3168702E+04  0.7818609E-02  0.8197132E-01
       -2   -1    0    0    0  501  0.00000000000E+00  0.00000000000E+00  0.14687615575E+04  0.14687615575E+04  0.25500000920E-02 0. -1.
        2   -1    0    0  501    0  0.00000000000E+00  0.00000000000E+00 -0.17090376356E+04  0.17090376357E+04  0.25500000920E-02 0.  1.
    10030    2    1    2    0    0  0.00000000000E+00  0.00000000000E+00 -0.24027607811E+03  0.31777991932E+04  0.31687024345E+04 0.  0.
        5    1    3    3  502    0 -0.84901316473E+03  0.59666264074E+02  0.12200228402E+04  0.14875689018E+04  0.46999998093E+01 0. -1.
       -5    1    3    3    0  502  0.84901316473E+03 -0.59666264074E+02 -0.14602989184E+04  0.16902302914E+04  0.46999998093E+01 0.  1.
</event>
<event>
 5   0  0.1240725E-06  0.3196859E+04  0.7818609E-02  0.8189647E-01
        1   -1    0    0  501    0  0.00000000000E+00  0.00000000000E+00  0.18606626859E+04  0.18606626859E+04  0.50400001928E-02 0. -1.
       -1   -1    0    0    0  501  0.00000000000E+00  0.00000000000E+00 -0.13731541196E+04  0.13731541197E+04  0.50400001928E-02 0.  1.
    10030    2    1    2    0    0  0.00000000000E+00  0.00000000000E+00  0.48750856625E+03  0.32338168056E+04  0.31968588536E+04 0.  0.
        3    1    3    3  502    0 -0.91547626899E+03  0.30320667776E+03  0.15332246199E+04  0.18113003158E+04  0.10100000352E+00 0. -1.
       -3    1    3    3    0  502  0.91547626899E+03 -0.30320667776E+03 -0.10457160537E+04  0.14225164898E+04  0.10100000352E+00 0.  1.
</event>
<event>
 5   0  0.3758062E-06  0.3205579E+04  0.7818609E-02  0.8187345E-01
        2   -1    0    0  501    0  0.00000000000E+00  0.00000000000E+00  0.17810004794E+04  0.17810004794E+04  0.25500000920E-02 0.  1.
       -2   -1    0    0    0  501  0.00000000000E+00  0.00000000000E+00 -0.14424111068E+04  0.14424111068E+04  0.25500000920E-02 0. -1.
    10030    2    1    2    0    0  0.00000000000E+00  0.00000000000E+00  0.33858937251E+03  0.32234115862E+04  0.32055794314E+04 0.  0.
        2    1    3    3  502    0  0.54421625192E+03  0.92875357332E+03  0.13634107708E+04  0.17371365688E+04  0.25500000920E-02 0.  1.
       -2    1    3    3    0  502 -0.54421625192E+03 -0.92875357332E+03 -0.10248213983E+04  0.14862750174E+04  0.25500000920E-02 0. -1.
</event>
<event>
 5   0  0.1268836E-06  0.3257002E+04  0.7818609E-02  0.8173923E-01
        1   -1    0    0  501    0  0.00000000000E+00  0.00000000000E+00  0.18407159545E+04  0.18407159545E+04  0.50400001928E-02 0. -1.
       -1   -1    0    0    0  501  0.00000000000E+00  0.00000000000E+00 -0.14407519830E+04  0.14407519830E+04  0.50400001928E-02 0.  1.
    10030    2    1    2    0    0  0.00000000000E+00  0.00000000000E+00  0.39996397146E+03  0.32814679375E+04  0.32570017879E+04 0.  0.
        1    1    3    3  502    0 -0.10962858253E+04  0.53106075089E+03 -0.88894540654E+03  0.15080093063E+04  0.50400001928E-02 0.  1.
       -1    1    3    3    0  502  0.10962858253E+04 -0.53106075089E+03  0.12889093780E+04  0.17734586312E+04  0.50400001928E-02 0. -1.
</event>
<event>
 5   0  0.3656086E-06  0.3220096E+04  0.7818609E-02  0.8183530E-01
        2   -1    0    0  501    0  0.00000000000E+00  0.00000000000E+00  0.21253953964E+04  0.21253953964E+04  0.25500000920E-02 0.  1.
       -2   -1    0    0    0  501  0.00000000000E+00  0.00000000000E+00 -0.12196575346E+04  0.12196575346E+04  0.25500000920E-02 0. -1.
    10030    2    1    2    0    0  0.00000000000E+00  0.00000000000E+00  0.90573786174E+03  0.33450529310E+04  0.32200959671E+04 0.  0.
        3    1    3    3  502    0 -0.16037985438E+04 -0.55390927526E+02  0.31735927086E+03  0.16358346008E+04  0.10100000352E+00 0.  1.
       -3    1    3    3    0  502  0.16037985438E+04  0.55390927526E+02  0.58837859088E+03  0.17092183303E+04  0.10100000352E+00 0. -1.
</event>
<event>
 5   0  0.3758062E-06  0.3222399E+04  0.7818609E-02  0.8182927E-01
       -2   -1    0    0    0  501  0.00000000000E+00  0.00000000000E+00  0.11479360562E+04  0.11479360562E+04  0.25500000920E-02 0. -1.
        2   -1    0    0  501    0  0.00000000000E+00  0.00000000000E+00 -0.22614181566E+04  0.22614181566E+04  0.25500000920E-02 0.  1.
    10030    2    1    2    0    0  0.00000000000E+00  0.00000000000E+00 -0.11134821005E+04  0.34093542128E+04  0.32223987587E+04 0.  0.
        2    1    3    3  502    0 -0.42790072323E+03  0.15496140153E+04 -0.44298171096E+03  0.16675237395E+04  0.25500000920E-02 0.  1.
       -2    1    3    3    0  502  0.42790072323E+03 -0.15496140153E+04 -0.67050038951E+03  0.17418304733E+04  0.25500000920E-02 0. -1.
</event>
<event>
 5   0  0.1268836E-06  0.3216237E+04  0.7818609E-02  0.8184542E-01
        1   -1    0    0  501    0  0.00000000000E+00  0.00000000000E+00  0.16038823727E+04  0.16038823727E+04  0.50400001928E-02 0.  1.
       -1   -1    0    0    0  501  0.00000000000E+00  0.00000000000E+00 -0.16123653840E+04  0.16123653840E+04  0.50400001928E-02 0. -1.
    10030    2    1    2    0    0  0.00000000000E+00  0.00000000000E+00 -0.84830113190E+01  0.32162477567E+04  0.32162365695E+04 0.  0.
        1    1    3    3  502    0  0.22902463282E+03 -0.12056889668E+04  0.10349474874E+04  0.16053829664E+04  0.50400001928E-02 0.  1.
       -1    1    3    3    0  502 -0.22902463282E+03  0.12056889668E+04 -0.10434304987E+04  0.16108647903E+04  0.50400001928E-02 0. -1.
</event>
<event>
 5   0  0.3745943E-06  0.3199300E+04  0.7818609E-02  0.8189002E-01
       -2   -1    0    0    0  501  0.00000000000E+00  0.00000000000E+00  0.10008024391E+04  0.10008024391E+04  0.25500000920E-02 0. -1.
        2   -1    0    0  501    0  0.00000000000E+00  0.00000000000E+00 -0.25568277771E+04  0.25568277771E+04  0.25500000920E-02 0.  1.
    10030    2    1    2    0    0  0.00000000000E+00  0.00000000000E+00 -0.15560253380E+04  0.35576302161E+04  0.31992995956E+04 0.  0.
        5    1    3    3  502    0 -0.38851859101E+03  0.10876452933E+04 -0.20087433284E+04  0.23171082903E+04  0.46999998093E+01 0.  1.
       -5    1    3    3    0  502  0.38851859101E+03 -0.10876452933E+04  0.45271799041E+03  0.12405219258E+04  0.46999998093E+01 0. -1.
</event>
<event>
 5   0  0.3758062E-06  0.3195867E+04  0.7818609E-02  0.8189909E-01
       -2   -1    0    0    0  501  0.00000000000E+00  0.00000000000E+00  0.13218495625E+04  0.13218495626E+04  0.25500000920E-02 0. -1.
        2   -1    0    0  501    0  0.00000000000E+00  0.00000000000E+00 -0.19316811646E+04  0.19316811646E+04  0.25500000920E-02 0.  1.
    10030    2    1    2    0    0  0.00000000000E+00  0.00000000000E+00 -0.60983160202E+03  0.32535307271E+04  0.31958672703E+04 0.  0.
        2    1    3    3  502    0  0.44563270040E+02  0.14569387695E+04 -0.97150898796E+03  0.17517095012E+04  0.25500000920E-02 0.  1.
       -2    1    3    3    0  502 -0.44563270040E+02 -0.14569387695E+04  0.36167738594E+03  0.15018212259E+04  0.25500000920E-02 0. -1.
</event>
<event>
 5   0  0.3745943E-06  0.3187859E+04  0.7818609E-02  0.8192031E-01
        2   -1    0    0  501    0  0.00000000000E+00  0.00000000000E+00  0.18665094684E+04  0.18665094684E+04  0.25500000920E-02 0. -1.
       -2   -1    0    0    0  501  0.00000000000E+00  0.00000000000E+00 -0.13611561403E+04  0.13611561403E+04  0.25500000920E-02 0.  1.
    10030    2    1    2    0    0  0.00000000000E+00  0.00000000000E+00  0.50535332809E+03  0.32276656086E+04  0.31878587319E+04 0.  0.
        5    1    3    3  502    0  0.14648856258E+04  0.80567964318E+02  0.88351998061E+03  0.17126034975E+04  0.46999998093E+01 0. -1.
       -5    1    3    3    0  502 -0.14648856258E+04 -0.80567964318E+02 -0.37816665252E+03  0.15150621111E+04  0.46999998093E+01 0.  1.
</event>
<event>
 5   0  0.1268836E-06  0.3201448E+04  0.7818609E-02  0.8188435E-01
        1   -1    0    0  501    0  0.00000000000E+00  0.00000000000E+00  0.12561272698E+04  0.12561272698E+04  0.50400001928E-02 0. -1.
       -1   -1    0    0    0  501  0.00000000000E+00  0.00000000000E+00 -0.20398553575E+04  0.20398553575E+04  0.50400001928E-02 0.  1.
    10030    2    1    2    0    0  0.00000000000E+00  0.00000000000E+00 -0.78372808767E+03  0.32959826273E+04  0.32014483853E+04 0.  0.
        1    1    3    3  502    0  0.52109045194E+03 -0.39082378764E+03 -0.18972444762E+04  0.20059449381E+04  0.50400001928E-02 0.  1.
       -1    1    3    3    0  502 -0.52109045194E+03  0.39082378764E+03  0.11135163885E+04  0.12900376892E+04  0.50400001928E-02 0. -1.
</event>
<event>
 5   0  0.3497546E-06  0.3100397E+04  0.7818609E-02  0.8215629E-01
        2   -1    0    0  501    0  0.00000000000E+00  0.00000000000E+00  0.22665103563E+04  0.22665103563E+04  0.25500000920E-02 0. -1.
       -2   -1    0    0    0  501  0.00000000000E+00  0.00000000000E+00 -0.10602712397E+04  0.10602712397E+04  0.25500000920E-02 0.  1.
    10030    2    1    2    0    0  0.00000000000E+00  0.00000000000E+00  0.12062391165E+04  0.33267815960E+04  0.31003972296E+04 0.  0.
        4    1    3    3  502    0  0.29371575532E+03  0.14522322290E+04  0.10923342076E+04  0.18407723992E+04  0.12699999809E+01 0. -1.
       -4    1    3    3    0  502 -0.29371575532E+03 -0.14522322290E+04  0.11390490894E+03  0.14860091968E+04  0.12699999809E+01 0.  1.
</event>
<event>
 5   0  0.3656086E-06  0.3202462E+04  0.7818609E-02  0.8188167E-01
       -2   -1    0    0    0  501  0.00000000000E+00  0.00000000000E+00  0.13665063276E+04  0.13665063276E+04  0.25500000920E-02 0. -1.
        2   -1    0    0  501    0  0.00000000000E+00  0.00000000000E+00 -0.18762746113E+04  0.18762746113E+04  0.25500000920E-02 0.  1.
    10030    2    1    2    0    0  0.00000000000E+00  0.00000000000E+00 -0.50976828375E+03  0.32427809390E+04  0.32024622582E+04 0.  0.
        3    1    3    3  502    0  0.60999256294E+03  0.14110433705E+04  0.19887229339E+03  0.15500595213E+04  0.10100000352E+00 0.  1.
       -3    1    3    3    0  502 -0.60999256294E+03 -0.14110433705E+04 -0.70864057714E+03  0.16927214177E+04  0.10100000352E+00 0. -1.
</event>
<event>
 5   0  0.3745943E-06  0.3210277E+04  0.7818609E-02  0.8186108E-01
        2   -1    0    0  501    0  0.00000000000E+00  0.00000000000E+00  0.14214443160E+04  0.14214443160E+04  0.25500000920E-02 0.  1.
       -2   -1    0    0    0  501  0.00000000000E+00  0.00000000000E+00 -0.18125710588E+04  0.18125710588E+04  0.25500000920E-02 0. -1.
    10030    2    1    2    0    0  0.00000000000E+00  0.00000000000E+00 -0.39112674277E+03  0.32340153748E+04  0.32102765170E+04 0.  0.
        5    1    3    3  502    0  0.11549461500E+03  0.15584269953E+04 -0.56489825548E+03  0.16616756106E+04  0.46999998093E+01 0. -1.
       -5    1    3    3    0  502 -0.11549461500E+03 -0.15584269953E+04  0.17377151270E+03  0.15723397643E+04  0.46999998093E+01 0.  1.
</event>
<event>
 5   0  0.3656086E-06  0.2711954E+04  0.7818609E-02  0.8331137E-01
       -2   -1    0    0    0  501  0.00000000000E+00  0.00000000000E+00  0.59386773564E+03  0.59386773564E+03  0.25500000920E-02 0. -1.
        2   -1    0    0  501    0  0.00000000000E+00  0.00000000000E+00 -0.30961000056E+04  0.30961000056E+04  0.25500000920E-02 0.  1.
    10030    2    1    2    0    0  0.00000000000E+00  0.00000000000E+00 -0.25022322699E+04  0.36899677412E+04  0.27119542029E+04 0.  0.
        3    1    3    3  502    0  0.24162472558E+03 -0.12112700178E+04 -0.20124814254E+04  0.23612791156E+04  0.10100000352E+00 0.  1.
       -3    1    3    3    0  502 -0.24162472558E+03  0.12112700178E+04 -0.48975084452E+03  0.13286886256E+04  0.10100000352E+00 0. -1.
</event>
<event>
 5   0  0.1240725E-06  0.3200201E+04  0.7818609E-02  0.8188764E-01
        1   -1    0    0  501    0  0.00000000000E+00  0.00000000000E+00  0.16480889095E+04  0.16480889095E+04  0.50400001928E-02 0. -1.
       -1   -1    0    0    0  501  0.00000000000E+00  0.00000000000E+00 -0.15535089858E+04  0.15535089858E+04  0.50400001928E-02 0.  1.
    10030    2    1    2    0    0  0.00000000000E+00  0.00000000000E+00  0.94579923644E+02  0.32015978953E+04  0.32002005752E+04 0.  0.
        3    1    3    3  502    0  0.34061682332E+03  0.48912852241E+03 -0.14383009702E+04  0.15569124005E+04  0.10100000352E+00 0.  1.
       -3    1    3    3    0  502 -0.34061682332E+03 -0.48912852241E+03  0.15328808939E+04  0.16446854948E+04  0.10100000352E+00 0. -1.
</event>
<event>
 5   0  0.1240725E-06  0.3221538E+04  0.7818609E-02  0.8183152E-01
        1   -1    0    0  501    0  0.00000000000E+00  0.00000000000E+00  0.79519162520E+03  0.79519162521E+03  0.50400001928E-02 0.  1.
       -1   -1    0    0    0  501  0.00000000000E+00  0.00000000000E+00 -0.32628328147E+04  0.32628328147E+04  0.50400001928E-02 0. -1.
    10030    2    1    2    0    0  0.00000000000E+00  0.00000000000E+00 -0.24676411895E+04  0.40580244399E+04  0.32215383460E+04 0.  0.
        3    1    3    3  502    0 -0.10682156574E+04  0.28910955643E+02  0.28439294957E+03  0.11058028278E+04  0.10100000352E+00 0.  1.
       -3    1    3    3    0  502  0.10682156574E+04 -0.28910955643E+02 -0.27520341391E+04  0.29522216121E+04  0.10100000352E+00 0. -1.
</event>
<event>
 5   0  0.3497546E-06  0.3206508E+04  0.7818609E-02  0.8187101E-01
        2   -1    0    0  501    0  0.00000000000E+00  0.00000000000E+00  0.19302785962E+04  0.19302785962E+04  0.25500000920E-02 0.  1.
       -2   -1    0    0    0  501  0.00000000000E+00  0.00000000000E+00 -0.13316334174E+04  0.13316334174E+04  0.25500000920E-02 0. -1.
    10030    2    1    2    0    0  0.00000000000E+00  0.00000000000E+00  0.59864517876E+03  0.32619120136E+04  0.32065080593E+04 0.  0.
        4    1    3    3  502    0  0.18515767194E+03  0.12438920135E+04  0.13109247849E+04  0.18166111608E+04  0.12699999809E+01 0.  1.
       -4    1    3    3    0  502 -0.18515767194E+03 -0.12438920135E+04 -0.71227960619E+03  0.14453008528E+04  0.12699999809E+01 0. -1.
</event>
<event>
 5   0  0.1306843E-06  0.3297857E+04  0.7818609E-02  0.8163441E-01
        1   -1    0    0  501    0  0.00000000000E+00  0.00000000000E+00  0.15092718399E+04  0.15092718399E+04  0.50400001928E-02 0.  1.
       -1   -1    0    0    0  501  0.00000000000E+00  0.00000000000E+00 -0.18015081030E+04  0.18015081030E+04  0.50400001928E-02 0. -1.
    10030    2    1    2    0    0  0.00000000000E+00  0.00000000000E+00 -0.29223626306E+03  0.33107799429E+04  0.32978571523E+04 0.  0.
        5    1    3    3  502    0  0.66763510357E+03 -0.14081081662E+04  0.39491677244E+03  0.16076338471E+04  0.46999998093E+01 0.  1.
       -5    1    3    3    0  502 -0.66763510357E+03  0.14081081662E+04 -0.68715303550E+03  0.17031460958E+04  0.46999998093E+01 0. -1.
</event>
<event>
 5   0  0.1240725E-06  0.3230568E+04  0.7818609E-02  0.8180791E-01
       -1   -1    0    0    0  501  0.00000000000E+00  0.00000000000E+00  0.11434577695E+04  0.11434577695E+04  0.50400001928E-02 0.  1.
        1   -1    0    0  501    0  0.00000000000E+00  0.00000000000E+00 -0.22818006868E+04  0.22818006868E+04  0.50400001928E-02 0. -1.
    10030    2    1    2    0    0  0.00000000000E+00  0.00000000000E+00 -0.11383429173E+04  0.34252584563E+04  0.32305682000E+04 0.  0.
        3    1    3    3  502    0 -0.11746587854E+04 -0.11078412793E+04 -0.52167026868E+03  0.16968427864E+04  0.10100000352E+00 0.  1.
       -3    1    3    3    0  502  0.11746587854E+04  0.11078412793E+04 -0.61667264860E+03  0.17284156699E+04  0.10100000352E+00 0. -1.
</event>
<event>
 5   0  0.1185575E-06  0.3276095E+04  0.7818609E-02  0.8169005E-01
        3   -1    0    0  501    0  0.00000000000E+00  0.00000000000E+00  0.22872141287E+04  0.22872141309E+04  0.10100000352E+00 0.  1.
       -3   -1    0    0    0  501  0.00000000000E+00  0.00000000000E+00 -0.11731303739E+04  0.11731303783E+04  0.10100000352E+00 0. -1.
    10030    2    1    2    0    0  0.00000000000E+00  0.00000000000E+00  0.11140837548E+04  0.34603445092E+04  0.32760954671E+04 0.  0.
        3    1    3    3  502    0 -0.13342997300E+04  0.89791218285E+03  0.22875951222E+03  0.16244792957E+04  0.10100000352E+00 0. -1.
       -3    1    3    3    0  502  0.13342997300E+04 -0.89791218285E+03  0.88532424254E+03  0.18358652135E+04  0.10100000352E+00 0.  1.
</event>
<event>
 5   0  0.1240725E-06  0.3221206E+04  0.7818609E-02  0.8183239E-01
        1   -1    0    0  501    0  0.00000000000E+00  0.00000000000E+00  0.16799616839E+04  0.16799616839E+04  0.50400001928E-02 0.  1.
       -1   -1    0    0    0  501  0.00000000000E+00  0.00000000000E+00 -0.15441081913E+04  0.15441081913E+04  0.50400001928E-02 0. -1.
    10030    2    1    2    0    0  0.00000000000E+00  0.00000000000E+00  0.13585349260E+03  0.32240698753E+04  0.32212063562E+04 0.  0.
        3    1    3    3  502    0  0.63806805462E+03 -0.14483578932E+04  0.36680760454E+03  0.16246289601E+04  0.10100000352E+00 0.  1.
       -3    1    3    3    0  502 -0.63806805462E+03  0.14483578932E+04 -0.23095411195E+03  0.15994409152E+04  0.10100000352E+00 0. -1.
</event>
<event>
 5   0  0.3531437E-06  0.3270208E+04  0.7818609E-02  0.8170518E-01
        2   -1    0    0  501    0  0.00000000000E+00  0.00000000000E+00  0.23453788057E+04  0.23453788057E+04  0.25500000920E-02 0. -1.
       -2   -1    0    0    0  501  0.00000000000E+00  0.00000000000E+00 -0.11399288797E+04  0.11399288797E+04  0.25500000920E-02 0.  1.
    10030    2    1    2    0    0  0.00000000000E+00  0.00000000000E+00  0.12054499260E+04  0.34853076854E+04  0.32702079655E+04 0.  0.
        1    1    3    3  502    0  0.12534370903E+04  0.65949536360E+03 -0.26803802739E+03  0.14414864058E+04  0.50400001928E-02 0.  1.
       -1    1    3    3    0  502 -0.12534370903E+04 -0.65949536360E+03  0.14734879534E+04  0.20438212796E+04  0.50400001928E-02 0. -1.
</event>
<event>
 5   0  0.1273754E-06  0.3214549E+04  0.7818609E-02  0.8184985E-01
        1   -1    0    0  501    0  0.00000000000E+00  0.00000000000E+00  0.11636899590E+04  0.11636899590E+04  0.50400001928E-02 0. -1.
       -1   -1    0    0    0  501  0.00000000000E+00  0.00000000000E+00 -0.22199477761E+04  0.22199477761E+04  0.50400001928E-02 0.  1.
    10030    2    1    2    0    0  0.00000000000E+00  0.00000000000E+00 -0.10562578171E+04  0.33836377351E+04  0.32145487625E+04 0.  0.
        2    1    3    3  502    0 -0.13706297877E+04  0.69224206924E+03 -0.10279824088E+04  0.18478563067E+04  0.25500000920E-02 0. -1.
       -2    1    3    3    0  502  0.13706297877E+04 -0.69224206924E+03 -0.28275408300E+02  0.15357814285E+04  0.25500000920E-02 0.  1.
</event>
<event>
 5   0  0.1240725E-06  0.2774707E+04  0.7818609E-02  0.8311164E-01
        1   -1    0    0  501    0  0.00000000000E+00  0.00000000000E+00  0.15791721329E+04  0.15791721329E+04  0.50400001928E-02 0. -1.
       -1   -1    0    0    0  501  0.00000000000E+00  0.00000000000E+00 -0.12188344542E+04  0.12188344542E+04  0.50400001928E-02 0.  1.
    10030    2    1    2    0    0  0.00000000000E+00  0.00000000000E+00  0.36033767879E+03  0.27980065871E+04  0.27747067627E+04 0.  0.
        3    1    3    3  502    0  0.78620420478E+03  0.18619249228E+03  0.13174534674E+04  0.15454670313E+04  0.10100000352E+00 0. -1.
       -3    1    3    3    0  502 -0.78620420478E+03 -0.18619249228E+03 -0.95711578864E+03  0.12525395558E+04  0.10100000352E+00 0.  1.
</event>
<event>
 5   0  0.1273754E-06  0.3215465E+04  0.7818609E-02  0.8184745E-01
       -1   -1    0    0    0  501  0.00000000000E+00  0.00000000000E+00  0.12687038896E+04  0.12687038896E+04  0.50400001928E-02 0.  1.
        1   -1    0    0  501    0  0.00000000000E+00  0.00000000000E+00 -0.20373580789E+04  0.20373580789E+04  0.50400001928E-02 0. -1.
    10030    2    1    2    0    0  0.00000000000E+00  0.00000000000E+00 -0.76865418926E+03  0.33060619685E+04  0.32154652038E+04 0.  0.
        2    1    3    3  502    0  0.13218046968E+04  0.90064625916E+03 -0.55161592317E+03  0.16919253729E+04  0.25500000920E-02 0. -1.
       -2    1    3    3    0  502 -0.13218046968E+04 -0.90064625916E+03 -0.21703826608E+03  0.16141365957E+04  0.25500000920E-02 0.  1.
</event>
<event>
 5   0  0.1240725E-06  0.3204765E+04  0.7818609E-02  0.8187560E-01
       -1   -1    0    0    0  501  0.00000000000E+00  0.00000000000E+00  0.20299153528E+04  0.20299153528E+04  0.50400001928E-02 0.  1.
        1   -1    0    0  501    0  0.00000000000E+00  0.00000000000E+00 -0.12648950801E+04  0.12648950801E+04  0.50400001928E-02 0. -1.
    10030    2    1    2    0    0  0.00000000000E+00  0.00000000000E+00  0.76502027273E+03  0.32948104329E+04  0.32047651663E+04 0.  0.
        3    1    3    3  502    0  0.44574676829E+03 -0.13433043235E+04  0.11549343907E+04  0.18267539911E+04  0.10100000352E+00 0.  1.
       -3    1    3    3    0  502 -0.44574676829E+03  0.13433043235E+04 -0.38991411796E+03  0.14680564419E+04  0.10100000352E+00 0. -1.
</event>
<event>
 5   0  0.3745943E-06  0.2967351E+04  0.7818609E-02  0.8253116E-01
       -2   -1    0    0    0  501  0.00000000000E+00  0.00000000000E+00  0.19144773610E+04  0.19144773610E+04  0.25500000920E-02 0.  1.
        2   -1    0    0  501    0  0.00000000000E+00  0.00000000000E+00 -0.11498138916E+04  0.11498138916E+04  0.25500000920E-02 0. -1.
    10030    2    1    2    0    0  0.00000000000E+00  0.00000000000E+00  0.76466346933E+03  0.30642912526E+04  0.29673507813E+04 0.  0.
        5    1    3    3  502    0  0.46390312845E+03 -0.70646255059E+03  0.16415847648E+04  0.18463797220E+04  0.46999998093E+01 0.  1.
       -5    1    3    3    0  502 -0.46390312845E+03  0.70646255059E+03 -0.87692129544E+03  0.12179115306E+04  0.46999998093E+01 0. -1.
</event>
<event>
 5   0  0.3531437E-06  0.3389242E+04  0.7818609E-02  0.8140552E-01
       -2   -1    0    0    0  501  0.00000000000E+00  0.00000000000E+00  0.14144391820E+04  0.14144391820E+04  0.25500000920E-02 0.  1.
        2   -1    0    0  501    0  0.00000000000E+00  0.00000000000E+00 -0.20303034970E+04  0.20303034970E+04  0.25500000920E-02 0. -1.
    10030    2    1    2    0    0  0.00000000000E+00  0.00000000000E+00 -0.61586431499E+03  0.34447426790E+04  0.33892422856E+04 0.  0.
        1    1    3    3  502    0  0.16030549667E+04 -0.53707711648E+03 -0.42604076808E+03  0.17434872501E+04  0.50400001928E-02 0.  1.
       -1    1    3    3    0  502 -0.16030549667E+04  0.53707711648E+03 -0.18982354691E+03  0.17012554289E+04  0.50400001928E-02 0. -1.
</event>
<event>
 5   0  0.1268836E-06  0.3174331E+04  0.7818609E-02  0.8195629E-01
       -1   -1    0    0    0  501  0.00000000000E+00  0.00000000000E+00  0.14149678814E+04  0.14149678814E+04  0.50400001928E-02 0. -1.
        1   -1    0    0  501    0  0.00000000000E+00  0.00000000000E+00 -0.17803187393E+04  0.17803187393E+04  0.50400001928E-02 0.  1.
    10030    2    1    2    0    0  0.00000000000E+00  0.00000000000E+00 -0.36535085790E+03  0.31952866206E+04  0.31743306914E+04 0.  0.
        1    1    3    3  502    0 -0.45496172204E+03  0.12324315189E+04  0.71383107615E+03  0.14951362555E+04  0.50400001928E-02 0. -1.
       -1    1    3    3    0  502  0.45496172204E+03 -0.12324315189E+04 -0.10791819341E+04  0.17001503651E+04  0.50400001928E-02 0.  1.
</event>
<event>
 5   0  0.3758062E-06  0.3130413E+04  0.7818609E-02  0.8207440E-01
        2   -1    0    0  501    0  0.00000000000E+00  0.00000000000E+00  0.18941735623E+04  0.18941735623E+04  0.25500000920E-02 0. -1.
       -2   -1    0    0    0  501  0.00000000000E+00  0.00000000000E+00 -0.12933725175E+04  0.12933725175E+04  0.25500000920E-02 0.  1.
    10030    2    1    2    0    0  0.00000000000E+00  0.00000000000E+00  0.60080104488E+03  0.31875460798E+04  0.31304134097E+04 0.  0.
        2    1    3    3  502    0 -0.12257646709E+04 -0.31643560490E+03  0.12376568667E+04  0.17704307499E+04  0.25500000920E-02 0. -1.
       -2    1    3    3    0  502  0.12257646709E+04  0.31643560490E+03 -0.63685582186E+03  0.14171153299E+04  0.25500000920E-02 0.  1.
</event>
<event>
 5   0  0.3745943E-06  0.3186394E+04  0.7818609E-02  0.8192420E-01
       -2   -1    0    0    0  501  0.00000000000E+00  0.00000000000E+00  0.23863661931E+04  0.23863661931E+04  0.25500000920E-02 0.  1.
        2   -1    0    0  501    0  0.00000000000E+00  0.00000000000E+00 -0.10636579226E+04  0.10636579226E+04  0.25500000920E-02 0. -1.
    10030    2    1    2    0    0  0.00000000000E+00  0.00000000000E+00  0.13227082704E+04  0.34500241157E+04  0.31863943933E+04 0.  0.
        5    1    3    3  502    0  0.34528293103E+03  0.20768602343E+03  0.23302790998E+04  0.23648629051E+04  0.46999998093E+01 0.  1.
       -5    1    3    3    0  502 -0.34528293103E+03 -0.20768602343E+03 -0.10075708294E+04  0.10851612106E+04  0.46999998093E+01 0. -1.
</event>
<event>
 5   0  0.1273754E-06  0.3224911E+04  0.7818609E-02  0.8182269E-01
        1   -1    0    0  501    0  0.00000000000E+00  0.00000000000E+00  0.14960726083E+04  0.14960726083E+04  0.50400001928E-02 0. -1.
       -1   -1    0    0    0  501  0.00000000000E+00  0.00000000000E+00 -0.17378919706E+04  0.17378919706E+04  0.50400001928E-02 0.  1.
    10030    2    1    2    0    0  0.00000000000E+00  0.00000000000E+00 -0.24181936229E+03  0.32339645789E+04  0.32249108970E+04 0.  0.
        2    1    3    3  502    0  0.59166971823E+03  0.91177943363E+03 -0.13153024829E+04  0.17062928860E+04  0.25500000920E-02 0.  1.
       -2    1    3    3    0  502 -0.59166971823E+03 -0.91177943363E+03  0.10734831206E+04  0.15276716929E+04  0.25500000920E-02 0. -1.
</event>
<event>
 5   0  0.3758062E-06  0.3130436E+04  0.7818609E-02  0.8207434E-01
        2   -1    0    0  501    0  0.00000000000E+00  0.00000000000E+00  0.19402270547E+04  0.19402270547E+04  0.25500000920E-02 0.  1.
       -2   -1    0    0    0  501  0.00000000000E+00  0.00000000000E+00 -0.12626910852E+04  0.12626910852E+04  0.25500000920E-02 0. -1.
    10030    2    1    2    0    0  0.00000000000E+00  0.00000000000E+00  0.67753596952E+03  0.32029181399E+04  0.31304360113E+04 0.  0.
        2    1    3    3  502    0  0.10926558710E+04 -0.66495889896E+03 -0.58425088892E+03  0.14062063472E+04  0.25500000920E-02 0. -1.
       -2    1    3    3    0  502 -0.10926558710E+04  0.66495889896E+03  0.12617868584E+04  0.17967117927E+04  0.25500000920E-02 0.  1.
</event>
<event>
 5   0  0.3656086E-06  0.3166256E+04  0.7818609E-02  0.8197786E-01
        2   -1    0    0  501    0  0.00000000000E+00  0.00000000000E+00  0.26436010043E+04  0.26436010043E+04  0.25500000920E-02 0. -1.
       -2   -1    0    0    0  501  0.00000000000E+00  0.00000000000E+00 -0.94806077020E+03  0.94806077020E+03  0.25500000920E-02 0.  1.
    10030    2    1    2    0    0  0.00000000000E+00  0.00000000000E+00  0.16955402341E+04  0.35916617745E+04  0.31662560884E+04 0.  0.
        3    1    3    3  502    0  0.12048336173E+04 -0.10059515995E+04  0.10822602774E+04  0.19065282542E+04  0.10100000352E+00 0.  1.
       -3    1    3    3    0  502 -0.12048336173E+04  0.10059515995E+04  0.61327995671E+03  0.16851335203E+04  0.10100000352E+00 0. -1.
</event>
<event>
 5   0  0.1185575E-06  0.3162909E+04  0.7818609E-02  0.8198682E-01
        3   -1    0    0  501    0  0.00000000000E+00  0.00000000000E+00  0.17853044578E+04  0.17853044607E+04  0.10100000352E+00 0.  1.
       -3   -1    0    0    0  501  0.00000000000E+00  0.00000000000E+00 -0.14008808680E+04  0.14008808716E+04  0.10100000352E+00 0. -1.
    10030    2    1    2    0    0  0.00000000000E+00  0.00000000000E+00  0.38442358985E+03  0.31861853323E+04  0.31629093372E+04 0.  0.
        4    1    3    3  502    0 -0.93068167538E+03  0.33580387356E+03  0.14350106318E+04  0.17430403749E+04  0.12699999809E+01 0.  1.
       -4    1    3    3    0  502  0.93068167538E+03 -0.33580387356E+03 -0.10505870419E+04  0.14431449574E+04  0.12699999809E+01 0. -1.
</event>
<event>
 5   0  0.1306843E-06  0.3236609E+04  0.7818609E-02  0.8179215E-01
        1   -1    0    0  501    0  0.00000000000E+00  0.00000000000E+00  0.19054439538E+04  0.19054439538E+04  0.50400001928E-02 0.  1.
       -1   -1    0    0    0  501  0.00000000000E+00  0.00000000000E+00 -0.13744352047E+04  0.13744352047E+04  0.50400001928E-02 0. -1.
    10030    2    1    2    0    0  0.00000000000E+00  0.00000000000E+00  0.53100874902E+03  0.32798791585E+04  0.32366088739E+04 0.  0.
        5    1    3    3  502    0 -0.17826847056E+03  0.55499323936E+03 -0.12643439038E+04  0.13922588626E+04  0.46999998093E+01 0. -1.
       -5    1    3    3    0  502  0.17826847056E+03 -0.55499323936E+03  0.17953526529E+04  0.18876202959E+04  0.46999998093E+01 0.  1.
</event>
<event>
 5   0  0.3531437E-06  0.3193955E+04  0.7818609E-02  0.8190416E-01
        2   -1    0    0  501    0  0.00000000000E+00  0.00000000000E+00  0.19331703616E+04  0.19331703616E+04  0.25500000920E-02 0.  1.
       -2   -1    0    0    0  501  0.00000000000E+00  0.00000000000E+00 -0.13192509889E+04  0.13192509889E+04  0.25500000920E-02 0. -1.
    10030    2    1    2    0    0  0.00000000000E+00  0.00000000000E+00  0.61391937274E+03  0.32524213505E+04  0.31939548596E+04 0.  0.
        1    1    3    3  502    0 -0.81827359806E+03 -0.37903845663E+02 -0.10890209127E+04  0.13627086743E+04  0.50400001928E-02 0. -1.
       -1    1    3    3    0  502  0.81827359806E+03  0.37903845663E+02  0.17029402854E+04  0.18897126762E+04  0.50400001928E-02 0.  1.
</event>
<event>
 5   0  0.1273980E-06  0.3220714E+04  0.7818609E-02  0.8183368E-01
       -1   -1    0    0    0  501  0.00000000000E+00  0.00000000000E+00  0.98256858429E+03  0.98256858430E+03  0.50400001928E-02 0.  1.
        1   -1    0    0  501    0  0.00000000000E+00  0.00000000000E+00 -0.26392554367E+04  0.26392554367E+04  0.50400001928E-02 0. -1.
    10030    2    1    2    0    0  0.00000000000E+00  0.00000000000E+00 -0.16566868524E+04  0.36218240210E+04  0.32207138824E+04 0.  0.
        4    1    3    3  502    0 -0.35588752037E+03  0.12994634702E+04 -0.18202282961E+04  0.22646178265E+04  0.12699999809E+01 0. -1.
       -4    1    3    3    0  502  0.35588752037E+03 -0.12994634702E+04  0.16354144363E+03  0.13572061945E+04  0.12699999809E+01 0.  1.
</event>
<event>
 5   0  0.1273754E-06  0.3213667E+04  0.7818609E-02  0.8185217E-01
       -1   -1    0    0    0  501  0.00000000000E+00  0.00000000000E+00  0.12704668726E+04  0.12704668726E+04  0.50400001928E-02 0. -1.
        1   -1    0    0  501    0  0.00000000000E+00  0.00000000000E+00 -0.20322555302E+04  0.20322555302E+04  0.50400001928E-02 0.  1.
    10030    2    1    2    0    0  0.00000000000E+00  0.00000000000E+00 -0.76178865761E+03  0.33027224028E+04  0.32136666460E+04 0.  0.
        2    1    3    3  502    0 -0.27231337005E+02 -0.11429739990E+04 -0.15412449677E+04  0.19190016046E+04  0.25500000920E-02 0.  1.
       -2    1    3    3    0  502  0.27231337005E+02  0.11429739990E+04  0.77945631011E+03  0.13837207982E+04  0.25500000920E-02 0. -1.
</event>
<event>
 5   0  0.3497546E-06  0.3041214E+04  0.7818609E-02  0.8232059E-01
        2   -1    0    0  501    0  0.00000000000E+00  0.00000000000E+00  0.14683914274E+04  0.14683914274E+04  0.25500000920E-02 0. -1.
       -2   -1    0    0    0  501  0.00000000000E+00  0.00000000000E+00 -0.15746794092E+04  0.15746794092E+04  0.25500000920E-02 0.  1.
    10030    2    1    2    0    0  0.00000000000E+00  0.00000000000E+00 -0.10628798173E+03  0.30430708366E+04  0.30412140637E+04 0.  0.
        4    1    3    3  502    0 -0.90817072820E+03  0.24629128339E+03 -0.12483650738E+04  0.15632819446E+04  0.12699999809E+01 0.  1.
       -4    1    3    3    0  502  0.90817072820E+03 -0.24629128339E+03  0.11420770921E+04  0.14797888920E+04  0.12699999809E+01 0. -1.
</event>
<event>
 5   0  0.3758062E-06  0.3191976E+04  0.7818609E-02  0.8190940E-01
        2   -1    0    0  501    0  0.00000000000E+00  0.00000000000E+00  0.16933536985E+04  0.16933536985E+04  0.25500000920E-02 0. -1.
       -2   -1    0    0    0  501  0.00000000000E+00  0.00000000000E+00 -0.15042207144E+04  0.15042207144E+04  0.25500000920E-02 0.  1.
    10030    2    1    2    0    0  0.00000000000E+00  0.00000000000E+00  0.18913298414E+03  0.31975744129E+04  0.31919760088E+04 0.  0.
        2    1    3    3  502    0 -0.97231570577E+03  0.11345540605E+04 -0.46727989926E+03  0.15655546149E+04  0.25500000920E-02 0.  1.
       -2    1    3    3    0  502  0.97231570577E+03 -0.11345540605E+04  0.65641288340E+03  0.16320197981E+04  0.25500000920E-02 0. -1.
</event>
<event>
 5   0  0.3656086E-06  0.3226928E+04  0.7818609E-02  0.8181742E-01
        2   -1    0    0  501    0  0.00000000000E+00  0.00000000000E+00  0.20956010129E+04  0.20956010129E+04  0.25500000920E-02 0. -1.
       -2   -1    0    0    0  501  0.00000000000E+00  0.00000000000E+00 -0.12422525828E+04  0.12422525828E+04  0.25500000920E-02 0.  1.
    10030    2    1    2    0    0  0.00000000000E+00  0.00000000000E+00  0.85334843013E+03  0.33378535957E+04  0.32269278088E+04 0.  0.
        3    1    3    3  502    0  0.55716405860E+03  0.15114785726E+04  0.52071988240E+03  0.16929703097E+04  0.10100000352E+00 0.  1.
       -3    1    3    3    0  502 -0.55716405860E+03 -0.15114785726E+04  0.33262854773E+03  0.16448832860E+04  0.10100000352E+00 0. -1.
</event>
<event>
 5   0  0.1273754E-06  0.3195533E+04  0.7818609E-02  0.8189998E-01
        1   -1    0    0  501    0  0.00000000000E+00  0.00000000000E+00  0.21046071643E+04  0.21046071643E+04  0.50400001928E-02 0.  1.
       -1   -1    0    0    0  501  0.00000000000E+00  0.00000000000E+00 -0.12129855083E+04  0.12129855083E+04  0.50400001928E-02 0. -1.
    10030    2    1    2    0    0  0.00000000000E+00  0.00000000000E+00  0.89162165601E+03  0.33175926727E+04  0.31955331268E+04 0.  0.
        2    1    3    3  502    0  0.49390124175E+03 -0.75320835515E+03 -0.92429318757E+03  0.12905731903E+04  0.25500000920E-02 0. -1.
       -2    1    3    3    0  502 -0.49390124175E+03  0.75320835515E+03  0.18159148436E+04  0.20270194824E+04  0.25500000920E-02 0.  1.
</event>
<event>
 5   0  0.3497546E-06  0.3194828E+04  0.7818609E-02  0.8190184E-01
       -2   -1    0    0    0  501  0.00000000000E+00  0.00000000000E+00  0.11340118352E+04  0.11340118352E+04  0.25500000920E-02 0. -1.
        2   -1    0    0  501    0  0.00000000000E+00  0.00000000000E+00 -0.22501809407E+04  0.22501809407E+04  0.25500000920E-02 0.  1.
    10030    2    1    2    0    0  0.00000000000E+00  0.00000000000E+00 -0.11161691055E+04  0.33841927759E+04  0.31948282070E+04 0.  0.
        4    1    3    3  502    0 -0.13911967422E+04  0.10071544047E+03 -0.13827932732E+04  0.19641005130E+04  0.12699999809E+01 0.  1.
       -4    1    3    3    0  502  0.13911967422E+04 -0.10071544047E+03  0.26662416775E+03  0.14200922630E+04  0.12699999809E+01 0. -1.
</event>
<event>
 5   0  0.3656086E-06  0.3002699E+04  0.7818609E-02  0.8242961E-01
        2   -1    0    0  501    0  0.00000000000E+00  0.00000000000E+00  0.14999614160E+04  0.14999614160E+04  0.25500000920E-02 0.  1.
       -2   -1    0    0    0  501  0.00000000000E+00  0.00000000000E+00 -0.15027386528E+04  0.15027386528E+04  0.25500000920E-02 0. -1.
    10030    2    1    2    0    0  0.00000000000E+00  0.00000000000E+00 -0.27772368254E+01  0.30027000688E+04  0.30026987844E+04 0.  0.
        3    1    3    3  502    0 -0.89991262823E+03 -0.10755236243E+04  0.53476101404E+03  0.15008541425E+04  0.10100000352E+00 0.  1.
       -3    1    3    3    0  502  0.89991262823E+03  0.10755236243E+04 -0.53753825086E+03  0.15018459262E+04  0.10100000352E+00 0. -1.
</event>
<event>
 5   0  0.1240725E-06  0.3188108E+04  0.7818609E-02  0.8191965E-01
       -1   -1    0    0    0  501  0.00000000000E+00  0.00000000000E+00  0.15406149009E+04  0.15406149009E+04  0.50400001928E-02 0. -1.
        1   -1    0    0  501    0  0.00000000000E+00  0.00000000000E+00 -0.16493465471E+04  0.16493465471E+04  0.50400001928E-02 0.  1.
    10030    2    1    2    0    0  0.00000000000E+00  0.00000000000E+00 -0.10873164614E+03  0.31899614480E+04  0.31881078195E+04 0.  0.
        3    1    3    3  502    0 -0.11722915760E+04 -0.88923031124E+03  0.55918705775E+03  0.15740674259E+04  0.10100000352E+00 0. -1.
       -3    1    3    3    0  502  0.11722915760E+04  0.88923031124E+03 -0.66791870389E+03  0.16158940221E+04  0.10100000352E+00 0.  1.
</event>
<event>
 5   0  0.3656086E-06  0.3209605E+04  0.7818609E-02  0.8186285E-01
        2   -1    0    0  501    0  0.00000000000E+00  0.00000000000E+00  0.20748362740E+04  0.20748362740E+04  0.25500000920E-02 0. -1.
       -2   -1    0    0    0  501  0.00000000000E+00  0.00000000000E+00 -0.12412505282E+04  0.12412505282E+04  0.25500000920E-02 0.  1.
    10030    2    1    2    0    0  0.00000000000E+00  0.00000000000E+00  0.83358574579E+03  0.33160868022E+04  0.32096053471E+04 0.  0.
        3    1    3    3  502    0  0.13231436938E+04 -0.84691618267E+02  0.13509516832E+04  0.18928688188E+04  0.10100000352E+00 0. -1.
       -3    1    3    3    0  502 -0.13231436938E+04  0.84691618267E+02 -0.51736593746E+03  0.14232179834E+04  0.10100000352E+00 0.  1.
</event>
<event>
 5   0  0.1273754E-06  0.3082303E+04  0.7818609E-02  0.8220611E-01
       -1   -1    0    0    0  501  0.00000000000E+00  0.00000000000E+00  0.11979657076E+04  0.11979657076E+04  0.50400001928E-02 0. -1.
        1   -1    0    0  501    0  0.00000000000E+00  0.00000000000E+00 -0.19826512651E+04  0.19826512651E+04  0.50400001928E-02 0.  1.
    10030    2    1    2    0    0  0.00000000000E+00  0.00000000000E+00 -0.78468555754E+03  0.31806169727E+04  0.30823031815E+04 0.  0.
        2    1    3    3  502    0  0.90558171939E+03 -0.10618114512E+04  0.28244666640E+03  0.14238321277E+04  0.25500000920E-02 0. -1.
       -2    1    3    3    0  502 -0.90558171939E+03  0.10618114512E+04 -0.10671322239E+04  0.17567848451E+04  0.25500000920E-02 0.  1.
</event>
<event>
 5   0  0.1268836E-06  0.3195675E+04  0.7818609E-02  0.8189960E-01
        1   -1    0    0  501    0  0.00000000000E+00  0.00000000000E+00  0.18123215456E+04  0.18123215456E+04  0.50400001928E-02 0.  1.
       -1   -1    0    0    0  501  0.00000000000E+00  0.00000000000E+00 -0.14087369158E+04  0.14087369158E+04  0.50400001928E-02 0. -1.
    10030    2    1    2    0    0  0.00000000000E+00  0.00000000000E+00  0.40358462972E+03  0.32210584614E+04  0.31956747423E+04 0.  0.
        1    1    3    3  502    0 -0.85908889831E+02  0.17900942549E+03 -0.13962536454E+04  0.14103010154E+04  0.50400001928E-02 0. -1.
       -1    1    3    3    0  502  0.85908889831E+02 -0.17900942549E+03  0.17998382751E+04  0.18107574460E+04  0.50400001928E-02 0.  1.
</event>
<event>
 5   0  0.3497546E-06  0.3188679E+04  0.7818609E-02  0.8191813E-01
        2   -1    0    0  501    0  0.00000000000E+00  0.00000000000E+00  0.19798520523E+04  0.19798520523E+04  0.25500000920E-02 0.  1.
       -2   -1    0    0    0  501  0.00000000000E+00  0.00000000000E+00 -0.12838935269E+04  0.12838935269E+04  0.25500000920E-02 0. -1.
    10030    2    1    2    0    0  0.00000000000E+00  0.00000000000E+00  0.69595852541E+03  0.32637455793E+04  0.31886794974E+04 0.  0.
        4    1    3    3  502    0  0.62587876855E+03 -0.71780724325E+02  0.18470537658E+04  0.19515342508E+04  0.12699999809E+01 0.  1.
       -4    1    3    3    0  502 -0.62587876855E+03  0.71780724325E+02 -0.11510952404E+04  0.13122113285E+04  0.12699999809E+01 0. -1.
</event>
<event>
 5   0  0.3497546E-06  0.3152715E+04  0.7818609E-02  0.8201418E-01
        2   -1    0    0  501    0  0.00000000000E+00  0.00000000000E+00  0.16008333876E+04  0.16008333876E+04  0.25500000920E-02 0.  1.
       -2   -1    0    0    0  501  0.00000000000E+00  0.00000000000E+00 -0.15522558407E+04  0.15522558407E+04  0.25500000920E-02 0. -1.
    10030    2    1    2    0    0  0.00000000000E+00  0.00000000000E+00  0.48577546829E+02  0.31530892283E+04  0.31527150051E+04 0.  0.
        4    1    3    3  502    0 -0.49020352350E+03  0.12798966100E+04  0.80314082509E+03  0.15885438693E+04  0.12699999809E+01 0.  1.
       -4    1    3    3    0  502  0.49020352350E+03 -0.12798966100E+04 -0.75456327826E+03  0.15645453590E+04  0.12699999809E+01 0. -1.
</event>
<event>
 5   0  0.3497546E-06  0.3256959E+04  0.7818609E-02  0.8173934E-01
       -2   -1    0    0    0  501  0.00000000000E+00  0.00000000000E+00  0.14866705259E+04  0.14866705259E+04  0.25500000920E-02 0.  1.
        2   -1    0    0  501    0  0.00000000000E+00  0.00000000000E+00 -0.17838152491E+04  0.17838152491E+04  0.25500000920E-02 0. -1.
    10030    2    1    2    0    0  0.00000000000E+00  0.00000000000E+00 -0.29714472316E+03  0.32704857750E+04  0.32569590445E+04 0.  0.
        4    1    3    3  502    0 -0.45696100300E+03  0.50259327860E+03 -0.16347633622E+04  0.17702729239E+04  0.12699999809E+01 0. -1.
       -4    1    3    3    0  502  0.45696100300E+03 -0.50259327860E+03  0.13376186390E+04  0.15002128510E+04  0.12699999809E+01 0.  1.
</event>
<event>
 5   0  0.1268836E-06  0.3182309E+04  0.7818609E-02  0.8193505E-01
       -1   -1    0    0    0  501  0.00000000000E+00  0.00000000000E+00  0.13438981154E+04  0.13438981154E+04  0.50400001928E-02 0.  1.
        1   -1    0    0  501    0  0.00000000000E+00  0.00000000000E+00 -0.18839022984E+04  0.18839022984E+04  0.50400001928E-02 0. -1.
    10030    2    1    2    0    0  0.00000000000E+00  0.00000000000E+00 -0.54000418299E+03  0.32278004138E+04  0.31823090664E+04 0.  0.
        1    1    3    3  502    0  0.99663086506E+03 -0.12340139996E+04 -0.39712979196E+03  0.16351684024E+04  0.50400001928E-02 0.  1.
       -1    1    3    3    0  502 -0.99663086506E+03  0.12340139996E+04 -0.14287439103E+03  0.15926320115E+04  0.50400001928E-02 0. -1.
</event>
<event>
 5   0  0.3656086E-06  0.3197992E+04  0.7818609E-02  0.8189348E-01
        2   -1    0    0  501    0  0.00000000000E+00  0.00000000000E+00  0.19418320356E+04  0.19418320356E+04  0.25500000920E-02 0. -1.
       -2   -1    0    0    0  501  0.00000000000E+00  0.00000000000E+00 -0.13166888268E+04  0.13166888268E+04  0.25500000920E-02 0.  1.
    10030    2    1    2    0    0  0.00000000000E+00  0.00000000000E+00  0.62514320876E+03  0.32585208623E+04  0.31979922106E+04 0.  0.
        3    1    3    3  502    0  0.10636306943E+04 -0.11016226384E+04 -0.15647346011E+03  0.15392747140E+04  0.10100000352E+00 0.  1.
       -3    1    3    3    0  502 -0.10636306943E+04  0.11016226384E+04  0.78161666886E+03  0.17192461483E+04  0.10100000352E+00 0. -1.
</event>
<event>
 5   0  0.3531437E-06  0.3186741E+04  0.7818609E-02  0.8192328E-01
        2   -1    0    0  501    0  0.00000000000E+00  0.00000000000E+00  0.22188199551E+04  0.22188199551E+04  0.25500000920E-02 0.  1.
       -2   -1    0    0    0  501  0.00000000000E+00  0.00000000000E+00 -0.11442248394E+04  0.11442248394E+04  0.25500000920E-02 0. -1.
    10030    2    1    2    0    0  0.00000000000E+00  0.00000000000E+00  0.10745951157E+04  0.33630447945E+04  0.31867405962E+04 0.  0.
        1    1    3    3  502    0 -0.11069613959E+04 -0.42139320734E+03  0.16620441276E+04  0.20409131411E+04  0.50400001928E-02 0.  1.
       -1    1    3    3    0  502  0.11069613959E+04  0.42139320734E+03 -0.58744901194E+03  0.13221316534E+04  0.50400001928E-02 0. -1.
</event>
<event>
 5   0  0.1273754E-06  0.3169394E+04  0.7818609E-02  0.8196947E-01
       -1   -1    0    0    0  501  0.00000000000E+00  0.00000000000E+00  0.14898448151E+04  0.14898448151E+04  0.50400001928E-02 0. -1.
        1   -1    0    0  501    0  0.00000000000E+00  0.00000000000E+00 -0.16855880248E+04  0.16855880249E+04  0.50400001928E-02 0.  1.
    10030    2    1    2    0    0  0.00000000000E+00  0.00000000000E+00 -0.19574320974E+03  0.31754328400E+04  0.31693939984E+04 0.  0.
        2    1    3    3  502    0 -0.32561353595E+03  0.12644217040E+04 -0.99762398844E+03  0.16431798571E+04  0.25500000920E-02 0.  1.
       -2    1    3    3    0  502  0.32561353595E+03 -0.12644217040E+04  0.80188077869E+03  0.15322529829E+04  0.25500000920E-02 0. -1.
</event>
<event>
 5   0  0.1268836E-06  0.3182461E+04  0.7818609E-02  0.8193465E-01
       -1   -1    0    0    0  501  0.00000000000E+00  0.00000000000E+00  0.36889472506E+04  0.36889472506E+04  0.50400001928E-02 0. -1.
        1   -1    0    0  501    0  0.00000000000E+00  0.00000000000E+00 -0.68637849048E+03  0.68637849050E+03  0.50400001928E-02 0.  1.
    10030    2    1    2    0    0  0.00000000000E+00  0.00000000000E+00  0.30025687601E+04  0.43753257411E+04  0.31824607117E+04 0.  0.
        1    1    3    3  502    0  0.10584170665E+04 -0.11653854507E+03 -0.12437605057E+03  0.10720528537E+04  0.50400001928E-02 0.  1.
       -1    1    3    3    0  502 -0.10584170665E+04  0.11653854507E+03  0.31269448107E+04  0.33032728874E+04  0.50400001928E-02 0. -1.
</event>
<event>
 5   0  0.1273754E-06  0.3207115E+04  0.7818609E-02  0.8186941E-01
        1   -1    0    0  501    0  0.00000000000E+00  0.00000000000E+00  0.18535735523E+04  0.18535735523E+04  0.50400001928E-02 0.  1.
       -1   -1    0    0    0  501  0.00000000000E+00  0.00000000000E+00 -0.13872642781E+04  0.13872642781E+04  0.50400001928E-02 0. -1.
    10030    2    1    2    0    0  0.00000000000E+00  0.00000000000E+00  0.46630927415E+03  0.32408378304E+04  0.32071148255E+04 0.  0.
        2    1    3    3  502    0  0.12094445122E+04 -0.97457207301E+03 -0.16959567329E+03  0.15624690224E+04  0.25500000920E-02 0. -1.
       -2    1    3    3    0  502 -0.12094445122E+04  0.97457207301E+03  0.63590494744E+03  0.16783688080E+04  0.25500000920E-02 0.  1.
</event>
<event>
 5   0  0.3656086E-06  0.3128519E+04  0.7818609E-02  0.8207955E-01
        2   -1    0    0  501    0  0.00000000000E+00  0.00000000000E+00  0.23520888802E+04  0.23520888802E+04  0.25500000920E-02 0. -1.
       -2   -1    0    0    0  501  0.00000000000E+00  0.00000000000E+00 -0.10403124533E+04  0.10403124533E+04  0.25500000920E-02 0.  1.
    10030    2    1    2    0    0  0.00000000000E+00  0.00000000000E+00  0.13117764270E+04  0.33924013335E+04  0.31285187251E+04 0.  0.
        3    1    3    3  502    0  0.14748237787E+04 -0.52103614599E+03  0.63638503906E+03  0.16886591639E+04  0.10100000352E+00 0. -1.
       -3    1    3    3    0  502 -0.14748237787E+04  0.52103614599E+03  0.67539138791E+03  0.17037421696E+04  0.10100000352E+00 0.  1.
</event>
<event>
 5   0  0.1273754E-06  0.3095886E+04  0.7818609E-02  0.8216868E-01
       -1   -1    0    0    0  501  0.00000000000E+00  0.00000000000E+00  0.15263015129E+04  0.15263015129E+04  0.50400001928E-02 0. -1.
        1   -1    0    0  501    0  0.00000000000E+00  0.00000000000E+00 -0.15698917497E+04  0.15698917497E+04  0.50400001928E-02 0.  1.
    10030    2    1    2    0    0  0.00000000000E+00  0.00000000000E+00 -0.43590236744E+02  0.30961932626E+04  0.30958864015E+04 0.  0.
        2    1    3    3  502    0 -0.53949405330E+03  0.48710577181E+02 -0.14720083630E+04  0.15685136833E+04  0.25500000920E-02 0.  1.
       -2    1    3    3    0  502  0.53949405330E+03 -0.48710577181E+02  0.14284181262E+04  0.15276795794E+04  0.25500000920E-02 0. -1.
</event>
<event>
 5   0  0.3497546E-06  0.3206985E+04  0.7818609E-02  0.8186975E-01
       -2   -1    0    0    0  501  0.00000000000E+00  0.00000000000E+00  0.11965763219E+04  0.11965763219E+04  0.25500000920E-02 0.  1.
        2   -1    0    0  501    0  0.00000000000E+00  0.00000000000E+00 -0.21487877919E+04  0.21487877920E+04  0.25500000920E-02 0. -1.
    10030    2    1    2    0    0  0.00000000000E+00  0.00000000000E+00 -0.95221147004E+03  0.33453641139E+04  0.32069852464E+04 0.  0.
        4    1    3    3  502    0 -0.11936119591E+04  0.52602866165E+03  0.49675118607E+03  0.13957718351E+04  0.12699999809E+01 0. -1.
       -4    1    3    3    0  502  0.11936119591E+04 -0.52602866165E+03 -0.14489626561E+04  0.19495922788E+04  0.12699999809E+01 0.  1.
</event>
<event>
 5   0  0.1240725E-06  0.3110088E+04  0.7818609E-02  0.8212975E-01
        1   -1    0    0  501    0  0.00000000000E+00  0.00000000000E+00  0.13331244388E+04  0.13331244388E+04  0.50400001928E-02 0.  1.
       -1   -1    0    0    0  501  0.00000000000E+00  0.00000000000E+00 -0.18139057447E+04  0.18139057447E+04  0.50400001928E-02 0. -1.
    10030    2    1    2    0    0  0.00000000000E+00  0.00000000000E+00 -0.48078130590E+03  0.31470301835E+04  0.31100881518E+04 0.  0.
        3    1    3    3  502    0 -0.14447355313E+04  0.54336153970E+03 -0.43147105063E+03  0.16027070212E+04  0.10100000352E+00 0. -1.
       -3    1    3    3    0  502  0.14447355313E+04 -0.54336153970E+03 -0.49310255268E+02  0.15443231623E+04  0.10100000352E+00 0.  1.
</event>
<event>
 5   0  0.1268836E-06  0.3072388E+04  0.7818609E-02  0.8223357E-01
        1   -1    0    0  501    0  0.00000000000E+00  0.00000000000E+00  0.16662598922E+04  0.16662598922E+04  0.50400001928E-02 0. -1.
       -1   -1    0    0    0  501  0.00000000000E+00  0.00000000000E+00 -0.14162810017E+04  0.14162810017E+04  0.50400001928E-02 0.  1.
    10030    2    1    2    0    0  0.00000000000E+00  0.00000000000E+00  0.24997889043E+03  0.30825408939E+04  0.30723881456E+04 0.  0.
        1    1    3    3  502    0 -0.65523679986E+03  0.13527376179E+04 -0.19332526121E+03  0.15154566914E+04  0.50400001928E-02 0.  1.
       -1    1    3    3    0  502  0.65523679986E+03 -0.13527376179E+04  0.44330415164E+03  0.15670842025E+04  0.50400001928E-02 0. -1.
</event>
<event>
 5   0  0.3497546E-06  0.3219816E+04  0.7818609E-02  0.8183603E-01
       -2   -1    0    0    0  501  0.00000000000E+00  0.00000000000E+00  0.20059817575E+04  0.20059817575E+04  0.25500000920E-02 0.  1.
        2   -1    0    0  501    0  0.00000000000E+00  0.00000000000E+00 -0.12920375877E+04  0.12920375877E+04  0.25500000920E-02 0. -1.
    10030    2    1    2    0    0  0.00000000000E+00  0.00000000000E+00  0.71394416977E+03  0.32980193452E+04  0.32198160388E+04 0.  0.
        4    1    3    3  502    0 -0.69941275899E+03 -0.44515853247E+03 -0.10565670172E+04  0.13430114673E+04  0.12699999809E+01 0. -1.
       -4    1    3    3    0  502  0.69941275899E+03  0.44515853247E+03  0.17705111870E+04  0.19550078779E+04  0.12699999809E+01 0.  1.
</event>
<event>
 5   0  0.3745943E-06  0.3186250E+04  0.7818609E-02  0.8192458E-01
       -2   -1    0    0    0  501  0.00000000000E+00  0.00000000000E+00  0.15353399892E+04  0.15353399892E+04  0.25500000920E-02 0. -1.
        2   -1    0    0  501    0  0.00000000000E+00  0.00000000000E+00 -0.16530850981E+04  0.16530850981E+04  0.25500000920E-02 0.  1.
    10030    2    1    2    0    0  0.00000000000E+00  0.00000000000E+00 -0.11774510888E+03  0.31884250873E+04  0.31862502454E+04 0.  0.
        5    1    3    3  502    0  0.42451840304E+03 -0.11805828890E+04  0.92364982509E+03  0.15579290490E+04  0.46999998093E+01 0. -1.
       -5    1    3    3    0  502 -0.42451840304E+03  0.11805828890E+04 -0.10413949340E+04  0.16304960383E+04  0.46999998093E+01 0.  1.
</event>
<event>
 5   0  0.1273754E-06  0.3200254E+04  0.7818609E-02  0.8188750E-01
       -1   -1    0    0    0  501  0.00000000000E+00  0.00000000000E+00  0.12471274724E+04  0.12471274725E+04  0.50400001928E-02 0. -1.
        1   -1    0    0  501    0  0.00000000000E+00  0.00000000000E+00 -0.20530433853E+04  0.20530433853E+04  0.50400001928E-02 0.  1.
    10030    2    1    2    0    0  0.00000000000E+00  0.00000000000E+00 -0.80591591284E+03  0.33001708578E+04  0.32002542449E+04 0.  0.
        2    1    3    3  502    0 -0.24444647270E+03  0.86367080032E+03  0.96306039456E+03  0.13164978743E+04  0.25500000920E-02 0. -1.
       -2    1    3    3    0  502  0.24444647270E+03 -0.86367080032E+03 -0.17689763074E+04  0.19836729835E+04  0.25500000920E-02 0.  1.
</event>
<event>
 5   0  0.1273754E-06  0.3227620E+04  0.7818609E-02  0.8181561E-01
       -1   -1    0    0    0  501  0.00000000000E+00  0.00000000000E+00  0.10919549327E+04  0.10919549327E+04  0.50400001928E-02 0. -1.
        1   -1    0    0  501    0  0.00000000000E+00  0.00000000000E+00 -0.23850649019E+04  0.23850649019E+04  0.50400001928E-02 0.  1.
    10030    2    1    2    0    0  0.00000000000E+00  0.00000000000E+00 -0.12931099692E+04  0.34770198346E+04  0.32276204141E+04 0.  0.
        2    1    3    3  502    0 -0.13652798781E+04  0.47032126725E+03  0.12967206158E+03  0.14498296740E+04  0.25500000920E-02 0.  1.
       -2    1    3    3    0  502  0.13652798781E+04 -0.47032126725E+03 -0.14227820308E+04  0.20271901606E+04  0.25500000920E-02 0. -1.
</event>
<event>
 5   0  0.1268836E-06  0.3147580E+04  0.7818609E-02  0.8202800E-01
       -1   -1    0    0    0  501  0.00000000000E+00  0.00000000000E+00  0.15696535050E+04  0.15696535050E+04  0.50400001928E-02 0.  1.
        1   -1    0    0  501    0  0.00000000000E+00  0.00000000000E+00 -0.15779378335E+04  0.15779378335E+04  0.50400001928E-02 0. -1.
    10030    2    1    2    0    0  0.00000000000E+00  0.00000000000E+00 -0.82843285013E+01  0.31475913386E+04  0.31475804366E+04 0.  0.
        1    1    3    3  502    0 -0.42285389854E+03 -0.15135154987E+04  0.81187299523E+02  0.15735710857E+04  0.50400001928E-02 0. -1.
       -1    1    3    3    0  502  0.42285389854E+03  0.15135154987E+04 -0.89471628025E+02  0.15740202529E+04  0.50400001928E-02 0.  1.
</event>
<event>
 5   0  0.1306843E-06  0.3296373E+04  0.7818609E-02  0.8163819E-01
       -1   -1    0    0    0  501  0.00000000000E+00  0.00000000000E+00  0.14743443630E+04  0.14743443630E+04  0.50400001928E-02 0.  1.
        1   -1    0    0  501    0  0.00000000000E+00  0.00000000000E+00 -0.18425264595E+04  0.18425264595E+04  0.50400001928E-02 0. -1.
    10030    2    1    2    0    0  0.00000000000E+00  0.00000000000E+00 -0.36818209652E+03  0.33168708224E+04  0.32963728546E+04 0.  0.
        5    1    3    3  502    0 -0.16064445068E+04  0.32200748242E+03 -0.36449237842E+03  0.16784604720E+04  0.46999998093E+01 0. -1.
       -5    1    3    3    0  502  0.16064445068E+04 -0.32200748242E+03 -0.36897180991E+01  0.16384103504E+04  0.46999998093E+01 0.  1.
</event>
<event>
 5   0  0.1240725E-06  0.3204386E+04  0.7818609E-02  0.8187660E-01
        1   -1    0    0  501    0  0.00000000000E+00  0.00000000000E+00  0.18272062572E+04  0.18272062572E+04  0.50400001928E-02 0.  1.
       -1   -1    0    0    0  501  0.00000000000E+00  0.00000000000E+00 -0.14048889677E+04  0.14048889677E+04  0.50400001928E-02 0. -1.
    10030    2    1    2    0    0  0.00000000000E+00  0.00000000000E+00  0.42231728946E+03  0.32320952249E+04  0.32043856899E+04 0.  0.
        3    1    3    3  502    0 -0.10652824127E+04 -0.10922913708E+04  0.70436023708E+03  0.16804911221E+04  0.10100000352E+00 0.  1.
       -3    1    3    3    0  502  0.10652824127E+04  0.10922913708E+04 -0.28204294762E+03  0.15516041029E+04  0.10100000352E+00 0. -1.
</event>
<event>
 5   0  0.3531437E-06  0.3189688E+04  0.7818609E-02  0.8191546E-01
       -2   -1    0    0    0  501  0.00000000000E+00  0.00000000000E+00  0.87270568792E+03  0.87270568792E+03  0.25500000920E-02 0. -1.
        2   -1    0    0  501    0  0.00000000000E+00  0.00000000000E+00 -0.29145296601E+04  0.29145296601E+04  0.25500000920E-02 0.  1.
    10030    2    1    2    0    0  0.00000000000E+00  0.00000000000E+00 -0.20418239722E+04  0.37872353480E+04  0.31896875157E+04 0.  0.
        1    1    3    3  502    0  0.14568225737E+04  0.42719436251E+03 -0.44081583951E+03  0.15808686343E+04  0.50400001928E-02 0. -1.
       -1    1    3    3    0  502 -0.14568225737E+04 -0.42719436251E+03 -0.16010081327E+04  0.22063667137E+04  0.50400001928E-02 0.  1.
</event>
<event>
 5   0  0.1306843E-06  0.3104890E+04  0.7818609E-02  0.8214397E-01
       -1   -1    0    0    0  501  0.00000000000E+00  0.00000000000E+00  0.16020431456E+04  0.16020431456E+04  0.50400001928E-02 0. -1.
        1   -1    0    0  501    0  0.00000000000E+00  0.00000000000E+00 -0.15043827514E+04  0.15043827514E+04  0.50400001928E-02 0.  1.
    10030    2    1    2    0    0  0.00000000000E+00  0.00000000000E+00  0.97660394216E+02  0.31064258970E+04  0.31048903847E+04 0.  0.
        5    1    3    3  502    0  0.12690578836E+04  0.74415083678E+03  0.54485316041E+03  0.15688070105E+04  0.46999998093E+01 0. -1.
       -5    1    3    3    0  502 -0.12690578836E+04 -0.74415083678E+03 -0.44719276619E+03  0.15376188865E+04  0.46999998093E+01 0.  1.
</event>
<event>
 5   0  0.1268836E-06  0.3178567E+04  0.7818609E-02  0.8194501E-01
       -1   -1    0    0    0  501  0.00000000000E+00  0.00000000000E+00  0.13066926166E+04  0.13066926166E+04  0.50400001928E-02 0.  1.
        1   -1    0    0  501    0  0.00000000000E+00  0.00000000000E+00 -0.19329890325E+04  0.19329890326E+04  0.50400001928E-02 0. -1.
    10030    2    1    2    0    0  0.00000000000E+00  0.00000000000E+00 -0.62629641594E+03  0.32396816492E+04  0.31785672853E+04 0.  0.
        1    1    3    3  502    0  0.38166804103E+03  0.14592049783E+04  0.19735414146E+03  0.15211503277E+04  0.50400001928E-02 0.  1.
       -1    1    3    3    0  502 -0.38166804103E+03 -0.14592049783E+04 -0.82365055740E+03  0.17185313215E+04  0.50400001928E-02 0. -1.
</event>
<event>
 5   0  0.1268836E-06  0.3241764E+04  0.7818609E-02  0.8177874E-01
       -1   -1    0    0    0  501  0.00000000000E+00  0.00000000000E+00  0.13680461990E+04  0.13680461990E+04  0.50400001928E-02 0.  1.
        1   -1    0    0  501    0  0.00000000000E+00  0.00000000000E+00 -0.19204451355E+04  0.19204451355E+04  0.50400001928E-02 0. -1.
    10030    2    1    2    0    0  0.00000000000E+00  0.00000000000E+00 -0.55239893653E+03  0.32884913345E+04  0.32417635126E+04 0.  0.
        1    1    3    3  502    0  0.15952279073E+04 -0.19775640908E+03 -0.64874796961E+02  0.16087474671E+04  0.50400001928E-02 0.  1.
       -1    1    3    3    0  502 -0.15952279073E+04  0.19775640908E+03 -0.48752413957E+03  0.16797438674E+04  0.50400001928E-02 0. -1.
</event>
<event>
 5   0  0.1273980E-06  0.3124525E+04  0.7818609E-02  0.8209039E-01
       -1   -1    0    0    0  501  0.00000000000E+00  0.00000000000E+00  0.91966549655E+03  0.91966549657E+03  0.50400001928E-02 0. -1.
        1   -1    0    0  501    0  0.00000000000E+00  0.00000000000E+00 -0.26538610472E+04  0.26538610472E+04  0.50400001928E-02 0.  1.
    10030    2    1    2    0    0  0.00000000000E+00  0.00000000000E+00 -0.17341955507E+04  0.35735265438E+04  0.31245252041E+04 0.  0.
        4    1    3    3  502    0  0.53947343977E+03  0.14468306585E+04 -0.11385007038E+04  0.19184723120E+04  0.12699999809E+01 0.  1.
       -4    1    3    3    0  502 -0.53947343977E+03 -0.14468306585E+04 -0.59569484690E+03  0.16550542318E+04  0.12699999809E+01 0. -1.
</event>
<event>
 5   0  0.1240725E-06  0.3259850E+04  0.7818609E-02  0.8173187E-01
       -1   -1    0    0    0  501  0.00000000000E+00  0.00000000000E+00  0.12397649209E+04  0.12397649209E+04  0.50400001928E-02 0. -1.
        1   -1    0    0  501    0  0.00000000000E+00  0.00000000000E+00 -0.21428707608E+04  0.21428707608E+04  0.50400001928E-02 0.  1.
    10030    2    1    2    0    0  0.00000000000E+00  0.00000000000E+00 -0.90310583987E+03  0.33826356817E+04  0.32598503028E+04 0.  0.
        3    1    3    3  502    0  0.11633672391E+04 -0.99848518728E+03 -0.10258051604E+04  0.18446333618E+04  0.10100000352E+00 0.  1.
       -3    1    3    3    0  502 -0.11633672391E+04  0.99848518728E+03  0.12269932056E+03  0.15380023198E+04  0.10100000352E+00 0. -1.
</event>
<event>
 5   0  0.3531437E-06  0.3170309E+04  0.7818609E-02  0.8196703E-01
        2   -1    0    0  501    0  0.00000000000E+00  0.00000000000E+00  0.32096237395E+04  0.32096237395E+04  0.25500000920E-02 0. -1.
       -2   -1    0    0    0  501  0.00000000000E+00  0.00000000000E+00 -0.78286880890E+03  0.78286880891E+03  0.25500000920E-02 0.  1.
    10030    2    1    2    0    0  0.00000000000E+00  0.00000000000E+00  0.24267549306E+04  0.39924925484E+04  0.31703087004E+04 0.  0.
        1    1    3    3  502    0 -0.41055719651E+03 -0.14514612613E+04  0.18269963983E+04  0.23692219913E+04  0.50400001928E-02 0. -1.
       -1    1    3    3    0  502  0.41055719651E+03  0.14514612613E+04  0.59975853229E+03  0.16232705571E+04  0.50400001928E-02 0.  1.
</event>
<event>
 5   0  0.3656086E-06  0.3198896E+04  0.7818609E-02  0.8189109E-01
        2   -1    0    0  501    0  0.00000000000E+00  0.00000000000E+00  0.26093752509E+04  0.26093752509E+04  0.25500000920E-02 0. -1.
       -2   -1    0    0    0  501  0.00000000000E+00  0.00000000000E+00 -0.98040092644E+03  0.98040092644E+03  0.25500000920E-02 0.  1.
    10030    2    1    2    0    0  0.00000000000E+00  0.00000000000E+00  0.16289743245E+04  0.35897761773E+04  0.31988960054E+04 0.  0.
        3    1    3    3  502    0  0.13153446314E+04  0.35127145837E+02  0.18349224534E+04  0.22579428327E+04  0.10100000352E+00 0. -1.
       -3    1    3    3    0  502 -0.13153446314E+04 -0.35127145837E+02 -0.20594812893E+03  0.13318333446E+04  0.10100000352E+00 0.  1.
</event>
<event>
 5   0  0.1240725E-06  0.3201297E+04  0.7818609E-02  0.8188475E-01
       -1   -1    0    0    0  501  0.00000000000E+00  0.00000000000E+00  0.19890337020E+04  0.19890337020E+04  0.50400001928E-02 0.  1.
        1   -1    0    0  501    0  0.00000000000E+00  0.00000000000E+00 -0.12881007514E+04  0.12881007514E+04  0.50400001928E-02 0. -1.
    10030    2    1    2    0    0  0.00000000000E+00  0.00000000000E+00  0.70093295058E+03  0.32771344534E+04  0.32012971159E+04 0.  0.
        3    1    3    3  502    0 -0.13057219810E+04  0.72392613809E+03  0.94128423291E+03  0.17649348323E+04  0.10100000352E+00 0.  1.
       -3    1    3    3    0  502  0.13057219810E+04 -0.72392613809E+03 -0.24035128233E+03  0.15121996211E+04  0.10100000352E+00 0. -1.
</event>
<event>
 5   0  0.3745943E-06  0.2450823E+04  0.7818609E-02  0.8420717E-01
       -2   -1    0    0    0  501  0.00000000000E+00  0.00000000000E+00  0.75661456428E+03  0.75661456428E+03  0.25500000920E-02 0.  1.
        2   -1    0    0  501    0  0.00000000000E+00  0.00000000000E+00 -0.19846748822E+04  0.19846748822E+04  0.25500000920E-02 0. -1.
    10030    2    1    2    0    0  0.00000000000E+00  0.00000000000E+00 -0.12280603179E+04  0.27412894465E+04  0.24508234708E+04 0.  0.
        5    1    3    3  502    0  0.87213522481E+03  0.31598189689E+03  0.28158577887E+03  0.96942098718E+03  0.46999998093E+01 0.  1.
       -5    1    3    3    0  502 -0.87213522481E+03 -0.31598189689E+03 -0.15096460968E+04  0.17718684593E+04  0.46999998093E+01 0. -1.
</event>
<event>
 5   0  0.1273980E-06  0.2960836E+04  0.7818609E-02  0.8255004E-01
        1   -1    0    0  501    0  0.00000000000E+00  0.00000000000E+00  0.18120860682E+04  0.18120860682E+04  0.50400001928E-02 0.  1.
       -1   -1    0    0    0  501  0.00000000000E+00  0.00000000000E+00 -0.12094556553E+04  0.12094556553E+04  0.50400001928E-02 0. -1.
    10030    2    1    2    0    0  0.00000000000E+00  0.00000000000E+00  0.60263041285E+03  0.30215417235E+04  0.29608361948E+04 0.  0.
        4    1    3    3  502    0  0.66644051388E+03 -0.11924600959E+04  0.88356738019E+03  0.16268979584E+04  0.12699999809E+01 0. -1.
       -4    1    3    3    0  502 -0.66644051388E+03  0.11924600959E+04 -0.28093696733E+03  0.13946437651E+04  0.12699999809E+01 0.  1.
</event>
<event>
 5   0  0.1273754E-06  0.3230714E+04  0.7818609E-02  0.8180752E-01
        1   -1    0    0  501    0  0.00000000000E+00  0.00000000000E+00  0.22484471197E+04  0.22484471197E+04  0.50400001928E-02 0. -1.
       -1   -1    0    0    0  501  0.00000000000E+00  0.00000000000E+00 -0.11605245273E+04  0.11605245273E+04  0.50400001928E-02 0.  1.
    10030    2    1    2    0    0  0.00000000000E+00  0.00000000000E+00  0.10879225924E+04  0.34089716471E+04  0.32307138721E+04 0.  0.
        2    1    3    3  502    0  0.81351971289E+02  0.10551923271E+04 -0.74375508856E+03  0.12935302943E+04  0.25500000920E-02 0.  1.
       -2    1    3    3    0  502 -0.81351971289E+02 -0.10551923271E+04  0.18316776810E+04  0.21154413528E+04  0.25500000920E-02 0. -1.
</event>
<event>
 5   0  0.1268836E-06  0.3211477E+04  0.7818609E-02  0.8185793E-01
        1   -1    0    0  501    0  0.00000000000E+00  0.00000000000E+00  0.12196943677E+04  0.12196943677E+04  0.50400001928E-02 0.  1.
       -1   -1    0    0    0  501  0.00000000000E+00  0.00000000000E+00 -0.21139692694E+04  0.21139692694E+04  0.50400001928E-02 0. -1.
    10030    2    1    2    0    0  0.00000000000E+00  0.00000000000E+00 -0.89427490173E+03  0.33336636371E+04  0.32114771750E+04 0.  0.
        1    1    3    3  502    0  0.15843549292E+04 -0.61649601466E+02 -0.18367962366E+03  0.15961577050E+04  0.50400001928E-02 0. -1.
       -1    1    3    3    0  502 -0.15843549292E+04  0.61649601466E+02 -0.71059527808E+03  0.17375059322E+04  0.50400001928E-02 0.  1.
</event>
<event>
 5   0  0.1306843E-06  0.3211411E+04  0.7818609E-02  0.8185810E-01
       -1   -1    0    0    0  501  0.00000000000E+00  0.00000000000E+00  0.13548982913E+04  0.13548982913E+04  0.50400001928E-02 0.  1.
        1   -1    0    0  501    0  0.00000000000E+00  0.00000000000E+00 -0.19029397027E+04  0.19029397027E+04  0.50400001928E-02 0. -1.
    10030    2    1    2    0    0  0.00000000000E+00  0.00000000000E+00 -0.54804141144E+03  0.32578379941E+04  0.32114107503E+04 0.  0.
        5    1    3    3  502    0  0.10845753384E+04  0.77646088655E+03  0.63281104234E+03  0.14763695602E+04  0.46999998093E+01 0.  1.
       -5    1    3    3    0  502 -0.10845753384E+04 -0.77646088655E+03 -0.11808524538E+04  0.17814684338E+04  0.46999998093E+01 0. -1.
</event>
<event>
 5   0  0.3745943E-06  0.3197178E+04  0.7818609E-02  0.8189563E-01
        2   -1    0    0  501    0  0.00000000000E+00  0.00000000000E+00  0.16699199575E+04  0.16699199575E+04  0.25500000920E-02 0.  1.
       -2   -1    0    0    0  501  0.00000000000E+00  0.00000000000E+00 -0.15303046604E+04  0.15303046604E+04  0.25500000920E-02 0. -1.
    10030    2    1    2    0    0  0.00000000000E+00  0.00000000000E+00  0.13961529714E+03  0.32002246179E+04  0.31971776888E+04 0.  0.
        5    1    3    3  502    0 -0.12128331142E+04  0.63954683260E+03  0.89246673690E+03  0.16360022251E+04  0.46999998093E+01 0.  1.
       -5    1    3    3    0  502  0.12128331142E+04 -0.63954683260E+03 -0.75285143976E+03  0.15642223928E+04  0.46999998093E+01 0. -1.
</event>
<event>
 5   0  0.3497546E-06  0.3230124E+04  0.7818609E-02  0.8180907E-01
        2   -1    0    0  501    0  0.00000000000E+00  0.00000000000E+00  0.15722994969E+04  0.15722994969E+04  0.25500000920E-02 0.  1.
       -2   -1    0    0    0  501  0.00000000000E+00  0.00000000000E+00 -0.16589873526E+04  0.16589873526E+04  0.25500000920E-02 0. -1.
    10030    2    1    2    0    0  0.00000000000E+00  0.00000000000E+00 -0.86687855720E+02  0.32312868495E+04  0.32301238242E+04 0.  0.
        4    1    3    3  502    0  0.75930091893E+03 -0.38356429003E+03  0.13300174238E+04  0.15787993573E+04  0.12699999809E+01 0.  1.
       -4    1    3    3    0  502 -0.75930091893E+03  0.38356429003E+03 -0.14167052795E+04  0.16524874922E+04  0.12699999809E+01 0. -1.
</event>
<event>
 5   0  0.1306843E-06  0.3095942E+04  0.7818609E-02  0.8216853E-01
        1   -1    0    0  501    0  0.00000000000E+00  0.00000000000E+00  0.24695348282E+04  0.24695348282E+04  0.50400001928E-02 0.  1.
       -1   -1    0    0    0  501  0.00000000000E+00  0.00000000000E+00 -0.97030964131E+03  0.97030964132E+03  0.50400001928E-02 0. -1.
    10030    2    1    2    0    0  0.00000000000E+00  0.00000000000E+00  0.14992251869E+04  0.34398444695E+04  0.30959415068E+04 0.  0.
        5    1    3    3  502    0 -0.51778841398E+03 -0.26645089512E+03 -0.84396330614E+03  0.10253765519E+04  0.46999998093E+01 0. -1.
       -5    1    3    3    0  502  0.51778841398E+03  0.26645089512E+03  0.23431884930E+04  0.24144679176E+04  0.46999998093E+01 0.  1.
</event>
<event>
 5   0  0.1185575E-06  0.3074383E+04  0.7818609E-02  0.8222804E-01
       -3   -1    0    0    0  501  0.00000000000E+00  0.00000000000E+00  0.23575379579E+04  0.23575379601E+04  0.10100000352E+00 0. -1.
        3   -1    0    0  501    0  0.00000000000E+00  0.00000000000E+00 -0.10022988548E+04  0.10022988599E+04  0.10100000352E+00 0.  1.
    10030    2    1    2    0    0  0.00000000000E+00  0.00000000000E+00  0.13552391031E+04  0.33598368200E+04  0.30743829349E+04 0.  0.
        1    1    3    3  502    0  0.64006092759E+03 -0.15035364248E+03 -0.84087986983E+03  0.10674095579E+04  0.50400001928E-02 0.  1.
       -1    1    3    3    0  502 -0.64006092759E+03  0.15035364248E+03  0.21961189729E+04  0.22924272621E+04  0.50400001928E-02 0. -1.
</event>
<event>
 5   0  0.3531437E-06  0.3205228E+04  0.7818609E-02  0.8187438E-01
       -2   -1    0    0    0  501  0.00000000000E+00  0.00000000000E+00  0.16535761437E+04  0.16535761437E+04  0.25500000920E-02 0.  1.
        2   -1    0    0  501    0  0.00000000000E+00  0.00000000000E+00 -0.15532223933E+04  0.15532223933E+04  0.25500000920E-02 0. -1.
    10030    2    1    2    0    0  0.00000000000E+00  0.00000000000E+00  0.10035375037E+03  0.32067985369E+04  0.32052279141E+04 0.  0.
        1    1    3    3  502    0 -0.20941822986E+03 -0.15597424611E+04 -0.25282290288E+03  0.15939171748E+04  0.50400001928E-02 0. -1.
       -1    1    3    3    0  502  0.20941822986E+03  0.15597424611E+04  0.35317665325E+03  0.16128813621E+04  0.50400001928E-02 0.  1.
</event>
<event>
 5   0  0.3497546E-06  0.3261288E+04  0.7818609E-02  0.8172816E-01
        2   -1    0    0  501    0  0.00000000000E+00  0.00000000000E+00  0.19543745062E+04  0.19543745062E+04  0.25500000920E-02 0.  1.
       -2   -1    0    0    0  501  0.00000000000E+00  0.00000000000E+00 -0.13605373890E+04  0.13605373890E+04  0.25500000920E-02 0. -1.
    10030    2    1    2    0    0  0.00000000000E+00  0.00000000000E+00  0.59383711719E+03  0.33149118953E+04  0.32612878364E+04 0.  0.
        4    1    3    3  502    0 -0.14279378257E+04 -0.74778286698E+03  0.54757488031E+03  0.17023588085E+04  0.12699999809E+01 0. -1.
       -4    1    3    3    0  502  0.14279378257E+04  0.74778286698E+03  0.46262236884E+02  0.16125530868E+04  0.12699999809E+01 0.  1.
</event>
<event>
 5   0  0.3497546E-06  0.3336455E+04  0.7818609E-02  0.8153681E-01
       -2   -1    0    0    0  501  0.00000000000E+00  0.00000000000E+00  0.12617422263E+04  0.12617422263E+04  0.25500000920E-02 0. -1.
        2   -1    0    0  501    0  0.00000000000E+00  0.00000000000E+00 -0.22056663193E+04  0.22056663193E+04  0.25500000920E-02 0.  1.
    10030    2    1    2    0    0  0.00000000000E+00  0.00000000000E+00 -0.94392409305E+03  0.34674085456E+04  0.33364546046E+04 0.  0.
        4    1    3    3  502    0 -0.15217903939E+04  0.29412586093E+03 -0.11131247855E+04  0.19082464270E+04  0.12699999809E+01 0. -1.
       -4    1    3    3    0  502  0.15217903939E+04 -0.29412586093E+03  0.16920069248E+03  0.15591621187E+04  0.12699999809E+01 0.  1.
</event>
<event>
 5   0  0.1268836E-06  0.3231321E+04  0.7818609E-02  0.8180594E-01
       -1   -1    0    0    0  501  0.00000000000E+00  0.00000000000E+00  0.92353158561E+03  0.92353158563E+03  0.50400001928E-02 0. -1.
        1   -1    0    0  501    0  0.00000000000E+00  0.00000000000E+00 -0.28264970591E+04  0.28264970591E+04  0.50400001928E-02 0.  1.
    10030    2    1    2    0    0  0.00000000000E+00  0.00000000000E+00 -0.19029654735E+04  0.37500286447E+04  0.32313212844E+04 0.  0.
        1    1    3    3  502    0 -0.10260923368E+03 -0.26175746276E+03  0.89492421883E+03  0.93804849641E+03  0.50400001928E-02 0. -1.
       -1    1    3    3    0  502  0.10260923368E+03  0.26175746276E+03 -0.27978896923E+04  0.28119801483E+04  0.50400001928E-02 0.  1.
</event>
<event>
 5   0  0.1240725E-06  0.3176146E+04  0.7818609E-02  0.8195146E-01
        1   -1    0    0  501    0  0.00000000000E+00  0.00000000000E+00  0.17592587181E+04  0.17592587181E+04  0.50400001928E-02 0. -1.
       -1   -1    0    0    0  501  0.00000000000E+00  0.00000000000E+00 -0.14335444263E+04  0.14335444263E+04  0.50400001928E-02 0.  1.
    10030    2    1    2    0    0  0.00000000000E+00  0.00000000000E+00  0.32571429182E+03  0.31928031444E+04  0.31761457962E+04 0.  0.
        3    1    3    3  502    0  0.99268925369E+03 -0.12388361618E+04  0.20584271501E+03  0.16007867515E+04  0.10100000352E+00 0. -1.
       -3    1    3    3    0  502 -0.99268925369E+03  0.12388361618E+04  0.11987157681E+03  0.15920163929E+04  0.10100000352E+00 0.  1.
</event>
<event>
 5   0  0.1240725E-06  0.3184179E+04  0.7818609E-02  0.8193008E-01
       -1   -1    0    0    0  501  0.00000000000E+00  0.00000000000E+00  0.15182182598E+04  0.15182182599E+04  0.50400001928E-02 0.  1.
        1   -1    0    0  501    0  0.00000000000E+00  0.00000000000E+00 -0.16695553801E+04  0.16695553801E+04  0.50400001928E-02 0. -1.
    10030    2    1    2    0    0  0.00000000000E+00  0.00000000000E+00 -0.15133712024E+03  0.31877736400E+04  0.31841793065E+04 0.  0.
        3    1    3    3  502    0  0.72360418950E+03 -0.12816327574E+04 -0.68344849794E+03  0.16227407086E+04  0.10100000352E+00 0. -1.
       -3    1    3    3    0  502 -0.72360418950E+03  0.12816327574E+04  0.53211137770E+03  0.15650329314E+04  0.10100000352E+00 0.  1.
</event>
<event>
 5   0  0.3497546E-06  0.3182542E+04  0.7818609E-02  0.8193443E-01
       -2   -1    0    0    0  501  0.00000000000E+00  0.00000000000E+00  0.12688048640E+04  0.12688048640E+04  0.25500000920E-02 0. -1.
        2   -1    0    0  501    0  0.00000000000E+00  0.00000000000E+00 -0.19956912198E+04  0.19956912198E+04  0.25500000920E-02 0.  1.
    10030    2    1    2    0    0  0.00000000000E+00  0.00000000000E+00 -0.72688635589E+03  0.32644960838E+04  0.31825415797E+04 0.  0.
        4    1    3    3  502    0  0.74012395386E+02 -0.15894363917E+04 -0.34411011923E+03  0.16279432622E+04  0.12699999809E+01 0.  1.
       -4    1    3    3    0  502 -0.74012395386E+02  0.15894363917E+04 -0.38277623666E+03  0.16365528216E+04  0.12699999809E+01 0. -1.
</event>
<event>
 5   0  0.1273980E-06  0.3212021E+04  0.7818609E-02  0.8185650E-01
       -1   -1    0    0    0  501  0.00000000000E+00  0.00000000000E+00  0.14844562771E+04  0.14844562771E+04  0.50400001928E-02 0. -1.
        1   -1    0    0  501    0  0.00000000000E+00  0.00000000000E+00 -0.17375178236E+04  0.17375178236E+04  0.50400001928E-02 0.  1.
    10030    2    1    2    0    0  0.00000000000E+00  0.00000000000E+00 -0.25306154649E+03  0.32219741007E+04  0.32120206972E+04 0.  0.
        4    1    3    3  502    0 -0.18634326092E+03  0.15139627355E+04  0.37748085857E+03  0.15714007722E+04  0.12699999809E+01 0. -1.
       -4    1    3    3    0  502  0.18634326092E+03 -0.15139627355E+04 -0.63054240506E+03  0.16505733285E+04  0.12699999809E+01 0.  1.
</event>
<event>
 5   0  0.3531437E-06  0.2733042E+04  0.7818609E-02  0.8324363E-01
        2   -1    0    0  501    0  0.00000000000E+00  0.00000000000E+00  0.26712140184E+04  0.26712140184E+04  0.25500000920E-02 0. -1.
       -2   -1    0    0    0  501  0.00000000000E+00  0.00000000000E+00 -0.69907548072E+03  0.69907548072E+03  0.25500000920E-02 0.  1.
    10030    2    1    2    0    0  0.00000000000E+00  0.00000000000E+00  0.19721385377E+04  0.33702894991E+04  0.27330424249E+04 0.  0.
        1    1    3    3  502    0 -0.10205271741E+04  0.84674909291E+03  0.57908688012E+03  0.14469973580E+04  0.50400001928E-02 0.  1.
       -1    1    3    3    0  502  0.10205271741E+04 -0.84674909291E+03  0.13930516576E+04  0.19232921411E+04  0.50400001928E-02 0. -1.
</event>
<event>
 5   0  0.1306843E-06  0.3197848E+04  0.7818609E-02  0.8189386E-01
        1   -1    0    0  501    0  0.00000000000E+00  0.00000000000E+00  0.94866550821E+03  0.94866550823E+03  0.50400001928E-02 0.  1.
       -1   -1    0    0    0  501  0.00000000000E+00  0.00000000000E+00 -0.26948992714E+04  0.26948992714E+04  0.50400001928E-02 0. -1.
    10030    2    1    2    0    0  0.00000000000E+00  0.00000000000E+00 -0.17462337632E+04  0.36435647796E+04  0.31978480182E+04 0.  0.
        5    1    3    3  502    0  0.10956036565E+02 -0.27418667840E+03  0.92162850790E+03  0.96162340130E+03  0.46999998093E+01 0.  1.
       -5    1    3    3    0  502 -0.10956036565E+02  0.27418667840E+03 -0.26678622711E+04  0.26819413783E+04  0.46999998093E+01 0. -1.
</event>
<event>
 5   0  0.3656086E-06  0.3143350E+04  0.7818609E-02  0.8203941E-01
        2   -1    0    0  501    0  0.00000000000E+00  0.00000000000E+00  0.16800832730E+04  0.16800832730E+04  0.25500000920E-02 0. -1.
       -2   -1    0    0    0  501  0.00000000000E+00  0.00000000000E+00 -0.14702615905E+04  0.14702615905E+04  0.25500000920E-02 0.  1.
    10030    2    1    2    0    0  0.00000000000E+00  0.00000000000E+00  0.20982168255E+03  0.31503448635E+04  0.31433497452E+04 0.  0.
        3    1    3    3  502    0 -0.81216992109E+03  0.13455456583E+04  0.97909895858E+02  0.15747061494E+04  0.10100000352E+00 0. -1.
       -3    1    3    3    0  502  0.81216992109E+03 -0.13455456583E+04  0.11191178670E+03  0.15756387141E+04  0.10100000352E+00 0.  1.
</event>
<event>
 5   0  0.3531437E-06  0.3263552E+04  0.7818609E-02  0.8172232E-01
        2   -1    0    0  501    0  0.00000000000E+00  0.00000000000E+00  0.17651716057E+04  0.17651716057E+04  0.25500000920E-02 0. -1.
       -2   -1    0    0    0  501  0.00000000000E+00  0.00000000000E+00 -0.15084610519E+04  0.15084610519E+04  0.25500000920E-02 0.  1.
    10030    2    1    2    0    0  0.00000000000E+00  0.00000000000E+00  0.25671055373E+03  0.32736326576E+04  0.32635518179E+04 0.  0.
        1    1    3    3  502    0 -0.13338094233E+04 -0.62309568853E+02  0.10692091325E+04  0.17105958696E+04  0.50400001928E-02 0. -1.
       -1    1    3    3    0  502  0.13338094233E+04  0.62309568853E+02 -0.81249857875E+03  0.15630367880E+04  0.50400001928E-02 0.  1.
</event>
<event>
 5   0  0.1306843E-06  0.3238445E+04  0.7818609E-02  0.8178737E-01
        1   -1    0    0  501    0  0.00000000000E+00  0.00000000000E+00  0.16448250054E+04  0.16448250054E+04  0.50400001928E-02 0.  1.
       -1   -1    0    0    0  501  0.00000000000E+00  0.00000000000E+00 -0.15940186695E+04  0.15940186695E+04  0.50400001928E-02 0. -1.
    10030    2    1    2    0    0  0.00000000000E+00  0.00000000000E+00  0.50806335915E+02  0.32388436750E+04  0.32384451620E+04 0.  0.
        5    1    3    3  502    0 -0.93184947878E+03  0.43051578664E+03 -0.12270178298E+04  0.15997756525E+04  0.46999998093E+01 0. -1.
       -5    1    3    3    0  502  0.93184947878E+03 -0.43051578664E+03  0.12778241657E+04  0.16390680224E+04  0.46999998093E+01 0.  1.
</event>
<event>
 5   0  0.1273754E-06  0.3221952E+04  0.7818609E-02  0.8183044E-01
        1   -1    0    0  501    0  0.00000000000E+00  0.00000000000E+00  0.22907477035E+04  0.22907477035E+04  0.50400001928E-02 0. -1.
       -1   -1    0    0    0  501  0.00000000000E+00  0.00000000000E+00 -0.11329241492E+04  0.11329241492E+04  0.50400001928E-02 0.  1.
    10030    2    1    2    0    0  0.00000000000E+00  0.00000000000E+00  0.11578235543E+04  0.34236718527E+04  0.32219518265E+04 0.  0.
        2    1    3    3  502    0 -0.18706916216E+03  0.73077738438E+03 -0.93365874200E+03  0.12003120859E+04  0.25500000920E-02 0.  1.
       -2    1    3    3    0  502  0.18706916216E+03 -0.73077738438E+03  0.20914822963E+04  0.22233597668E+04  0.25500000920E-02 0. -1.
</event>
<event>
 5   0  0.3758062E-06  0.3182435E+04  0.7818609E-02  0.8193471E-01
       -2   -1    0    0    0  501  0.00000000000E+00  0.00000000000E+00  0.27160592289E+04  0.27160592289E+04  0.25500000920E-02 0. -1.
        2   -1    0    0  501    0  0.00000000000E+00  0.00000000000E+00 -0.93222322210E+03  0.93222322210E+03  0.25500000920E-02 0.  1.
    10030    2    1    2    0    0  0.00000000000E+00  0.00000000000E+00  0.17838360068E+04  0.36482824510E+04  0.31824352221E+04 0.  0.
        2    1    3    3  502    0 -0.34601631365E+03 -0.23289534333E+03 -0.86844134338E+03  0.96340951685E+03  0.25500000920E-02 0.  1.
       -2    1    3    3    0  502  0.34601631365E+03  0.23289534333E+03  0.26522773502E+04  0.26848729341E+04  0.25500000920E-02 0. -1.
</event>
<event>
 5   0  0.3758062E-06  0.3234705E+04  0.7818609E-02  0.8179711E-01
        2   -1    0    0  501    0  0.00000000000E+00  0.00000000000E+00  0.24335541226E+04  0.24335541226E+04  0.25500000920E-02 0.  1.
       -2   -1    0    0    0  501  0.00000000000E+00  0.00000000000E+00 -0.10749004095E+04  0.10749004095E+04  0.25500000920E-02 0. -1.
    10030    2    1    2    0    0  0.00000000000E+00  0.00000000000E+00  0.13586537132E+04  0.35084545321E+04  0.32347045138E+04 0.  0.
        2    1    3    3  502    0  0.44551029664E+03  0.85622400614E+03 -0.72828155589E+03  0.12091290244E+04  0.25500000920E-02 0. -1.
       -2    1    3    3    0  502 -0.44551029664E+03 -0.85622400614E+03  0.20869352690E+04  0.22993255077E+04  0.25500000920E-02 0.  1.
</event>
<event>
 5   0  0.1240725E-06  0.3299104E+04  0.7818609E-02  0.8163123E-01
        1   -1    0    0  501    0  0.00000000000E+00  0.00000000000E+00  0.17246631886E+04  0.17246631886E+04  0.50400001928E-02 0.  1.
       -1   -1    0    0    0  501  0.00000000000E+00  0.00000000000E+00 -0.15777120000E+04  0.15777120000E+04  0.50400001928E-02 0. -1.
    10030    2    1    2    0    0  0.00000000000E+00  0.00000000000E+00  0.14695118864E+03  0.33023751886E+04  0.32991040048E+04 0.  0.
        3    1    3    3  502    0 -0.36070467264E+03  0.63150003574E+03  0.15555251674E+04  0.17171367775E+04  0.10100000352E+00 0.  1.
       -3    1    3    3    0  502  0.36070467264E+03 -0.63150003574E+03 -0.14085739788E+04  0.15852384111E+04  0.10100000352E+00 0. -1.
</event>
<event>
 5   0  0.1273754E-06  0.3040686E+04  0.7818609E-02  0.8232207E-01
        1   -1    0    0  501    0  0.00000000000E+00  0.00000000000E+00  0.17579424787E+04  0.17579424787E+04  0.50400001928E-02 0.  1.
       -1   -1    0    0    0  501  0.00000000000E+00  0.00000000000E+00 -0.13148567699E+04  0.13148567699E+04  0.50400001928E-02 0. -1.
    10030    2    1    2    0    0  0.00000000000E+00  0.00000000000E+00  0.44308570876E+03  0.30727992486E+04  0.30406858234E+04 0.  0.
        2    1    3    3  502    0 -0.13897746272E+04  0.58870967454E+03  0.36883769569E+02  0.15097725020E+04  0.25500000920E-02 0. -1.
       -2    1    3    3    0  502  0.13897746272E+04 -0.58870967454E+03  0.40620193919E+03  0.15630267466E+04  0.25500000920E-02 0.  1.
</event>
<event>
 5   0  0.3531437E-06  0.3107816E+04  0.7818609E-02  0.8213596E-01
        2   -1    0    0  501    0  0.00000000000E+00  0.00000000000E+00  0.24328266212E+04  0.24328266212E+04  0.25500000920E-02 0. -1.
       -2   -1    0    0    0  501  0.00000000000E+00  0.00000000000E+00 -0.99252071266E+03  0.99252071266E+03  0.25500000920E-02 0.  1.
    10030    2    1    2    0    0  0.00000000000E+00  0.00000000000E+00  0.14403059085E+04  0.34253473339E+04  0.31078164758E+04 0.  0.
        1    1    3    3  502    0  0.67835379323E+02 -0.19081347734E+03 -0.97791392740E+03  0.99866264136E+03  0.50400001928E-02 0.  1.
       -1    1    3    3    0  502 -0.67835379323E+02  0.19081347734E+03  0.24182198359E+04  0.24266846925E+04  0.50400001928E-02 0. -1.
</event>
<event>
 5   0  0.1273980E-06  0.3304458E+04  0.7818609E-02  0.8161762E-01
        1   -1    0    0  501    0  0.00000000000E+00  0.00000000000E+00  0.25132038681E+04  0.25132038681E+04  0.50400001928E-02 0. -1.
       -1   -1    0    0    0  501  0.00000000000E+00  0.00000000000E+00 -0.10862074369E+04  0.10862074369E+04  0.50400001928E-02 0.  1.
    10030    2    1    2    0    0  0.00000000000E+00  0.00000000000E+00  0.14269964312E+04  0.35994113050E+04  0.33044580384E+04 0.  0.
        4    1    3    3  502    0  0.67380075786E+03  0.12008221796E+04  0.17081760224E+04  0.21940483825E+04  0.12699999809E+01 0. -1.
       -4    1    3    3    0  502 -0.67380075786E+03 -0.12008221796E+04 -0.28117959119E+03  0.14053629225E+04  0.12699999809E+01 0.  1.
</event>
<event>
 5   0  0.3531437E-06  0.3197779E+04  0.7818609E-02  0.8189404E-01
       -2   -1    0    0    0  501  0.00000000000E+00  0.00000000000E+00  0.11288186389E+04  0.11288186389E+04  0.25500000920E-02 0. -1.
        2   -1    0    0  501    0  0.00000000000E+00  0.00000000000E+00 -0.22647108253E+04  0.22647108253E+04  0.25500000920E-02 0.  1.
    10030    2    1    2    0    0  0.00000000000E+00  0.00000000000E+00 -0.11358921865E+04  0.33935294642E+04  0.31977790989E+04 0.  0.
        1    1    3    3  502    0  0.35061719614E+03  0.95937743066E+03 -0.18733306220E+04  0.21337068899E+04  0.50400001928E-02 0.  1.
       -1    1    3    3    0  502 -0.35061719614E+03 -0.95937743066E+03  0.73743843548E+03  0.12598225744E+04  0.50400001928E-02 0. -1.
</event>
<event>
 5   0  0.1268836E-06  0.3221188E+04  0.7818609E-02  0.8183244E-01
        1   -1    0    0  501    0  0.00000000000E+00  0.00000000000E+00  0.21148285619E+04  0.21148285619E+04  0.50400001928E-02 0.  1.
       -1   -1    0    0    0  501  0.00000000000E+00  0.00000000000E+00 -0.12265828043E+04  0.12265828043E+04  0.50400001928E-02 0. -1.
    10030    2    1    2    0    0  0.00000000000E+00  0.00000000000E+00  0.88824575759E+03  0.33414113662E+04  0.32211875748E+04 0.  0.
        1    1    3    3  502    0 -0.14708842280E+04  0.55581798978E+00  0.11247454899E+04  0.18516352606E+04  0.50400001928E-02 0.  1.
       -1    1    3    3    0  502  0.14708842280E+04 -0.55581798978E+00 -0.23649973235E+03  0.14897761056E+04  0.50400001928E-02 0. -1.
</event>
<event>
 5   0  0.3497546E-06  0.3059931E+04  0.7818609E-02  0.8226821E-01
       -2   -1    0    0    0  501  0.00000000000E+00  0.00000000000E+00  0.25432581346E+04  0.25432581346E+04  0.25500000920E-02 0.  1.
        2   -1    0    0  501    0  0.00000000000E+00  0.00000000000E+00 -0.92039219652E+03  0.92039219652E+03  0.25500000920E-02 0. -1.
    10030    2    1    2    0    0  0.00000000000E+00  0.00000000000E+00  0.16228659381E+04  0.34636503311E+04  0.30599313331E+04 0.  0.
        4    1    3    3  502    0 -0.49032778851E+03  0.11697595782E+04  0.17799073589E+04  0.21855961727E+04  0.12699999809E+01 0. -1.
       -4    1    3    3    0  502  0.49032778851E+03 -0.11697595782E+04 -0.15704142089E+03  0.12780541584E+04  0.12699999809E+01 0.  1.
</event>
<event>
 5   0  0.1185575E-06  0.3146677E+04  0.7818609E-02  0.8203043E-01
        3   -1    0    0  501    0  0.00000000000E+00  0.00000000000E+00  0.13390504664E+04  0.13390504703E+04  0.10100000352E+00 0.  1.
       -3   -1    0    0    0  501  0.00000000000E+00  0.00000000000E+00 -0.18486188196E+04  0.18486188224E+04  0.10100000352E+00 0. -1.
    10030    2    1    2    0    0  0.00000000000E+00  0.00000000000E+00 -0.50956835317E+03  0.31876692926E+04  0.31466769158E+04 0.  0.
        1    1    3    3  502    0 -0.69883798129E+01 -0.15724188442E+04 -0.20075986263E+03  0.15851985307E+04  0.50400001928E-02 0. -1.
       -1    1    3    3    0  502  0.69883798129E+01  0.15724188442E+04 -0.30880849054E+03  0.16024707620E+04  0.50400001928E-02 0.  1.
</event>
<event>
 5   0  0.3656086E-06  0.3070237E+04  0.7818609E-02  0.8223954E-01
       -2   -1    0    0    0  501  0.00000000000E+00  0.00000000000E+00  0.16142308805E+04  0.16142308805E+04  0.25500000920E-02 0. -1.
        2   -1    0    0  501    0  0.00000000000E+00  0.00000000000E+00 -0.14598838203E+04  0.14598838203E+04  0.25500000920E-02 0.  1.
    10030    2    1    2    0    0  0.00000000000E+00  0.00000000000E+00  0.15434706021E+03  0.30741147008E+04  0.30702374792E+04 0.  0.
        3    1    3    3  502    0 -0.10257770353E+04  0.11216402667E+04  0.29260592881E+03  0.15478739141E+04  0.10100000352E+00 0. -1.
       -3    1    3    3    0  502  0.10257770353E+04 -0.11216402667E+04 -0.13825886860E+03  0.15262407867E+04  0.10100000352E+00 0.  1.
</event>
<event>
 5   0  0.3758062E-06  0.3198879E+04  0.7818609E-02  0.8189113E-01
        2   -1    0    0  501    0  0.00000000000E+00  0.00000000000E+00  0.14228558777E+04  0.14228558777E+04  0.25500000920E-02 0.  1.
       -2   -1    0    0    0  501  0.00000000000E+00  0.00000000000E+00 -0.17979382489E+04  0.17979382489E+04  0.25500000920E-02 0. -1.
    10030    2    1    2    0    0  0.00000000000E+00  0.00000000000E+00 -0.37508237116E+03  0.32207941266E+04  0.31988791820E+04 0.  0.
        2    1    3    3  502    0 -0.13437547846E+04 -0.85879951973E+03 -0.31082787445E+03  0.16247545981E+04  0.25500000920E-02 0.  1.
       -2    1    3    3    0  502  0.13437547846E+04  0.85879951973E+03 -0.64254496713E+02  0.15960395286E+04  0.25500000920E-02 0. -1.
</event>
<event>
 5   0  0.3531437E-06  0.2399462E+04  0.7818609E-02  0.8439705E-01
        2   -1    0    0  501    0  0.00000000000E+00  0.00000000000E+00  0.22319851354E+04  0.22319851354E+04  0.25500000920E-02 0.  1.
       -2   -1    0    0    0  501  0.00000000000E+00  0.00000000000E+00 -0.64487613153E+03  0.64487613154E+03  0.25500000920E-02 0. -1.
    10030    2    1    2    0    0  0.00000000000E+00  0.00000000000E+00  0.15871090039E+04  0.28768612670E+04  0.23994615561E+04 0.  0.
        1    1    3    3  502    0 -0.19718843175E+03  0.10653637434E+04  0.14113055155E+04  0.17792319808E+04  0.50400001928E-02 0.  1.
       -1    1    3    3    0  502  0.19718843175E+03 -0.10653637434E+04  0.17580348837E+03  0.10976292862E+04  0.50400001928E-02 0. -1.
</event>
<event>
 5   0  0.1273980E-06  0.3156318E+04  0.7818609E-02  0.8200450E-01
        1   -1    0    0  501    0  0.00000000000E+00  0.00000000000E+00  0.16569755856E+04  0.16569755856E+04  0.50400001928E-02 0.  1.
       -1   -1    0    0    0  501  0.00000000000E+00  0.00000000000E+00 -0.15030913002E+04  0.15030913002E+04  0.50400001928E-02 0. -1.
    10030    2    1    2    0    0  0.00000000000E+00  0.00000000000E+00  0.15388428547E+03  0.31600668858E+04  0.31563178467E+04 0.  0.
        4    1    3    3  502    0  0.11253908482E+03 -0.89695130310E+03  0.13720772457E+04  0.16431020257E+04  0.12699999809E+01 0.  1.
       -4    1    3    3    0  502 -0.11253908482E+03  0.89695130310E+03 -0.12181929602E+04  0.15169648602E+04  0.12699999809E+01 0. -1.
</event>
<event>
 5   0  0.3758062E-06  0.3232430E+04  0.7818609E-02  0.8180305E-01
       -2   -1    0    0    0  501  0.00000000000E+00  0.00000000000E+00  0.22612072801E+04  0.22612072801E+04  0.25500000920E-02 0. -1.
        2   -1    0    0  501    0  0.00000000000E+00  0.00000000000E+00 -0.11552018278E+04  0.11552018278E+04  0.25500000920E-02 0.  1.
    10030    2    1    2    0    0  0.00000000000E+00  0.00000000000E+00  0.11060054523E+04  0.34164091079E+04  0.32324299114E+04 0.  0.
        2    1    3    3  502    0  0.14313920643E+03  0.96804488886E+03  0.19125078197E+04  0.21483216472E+04  0.25500000920E-02 0. -1.
       -2    1    3    3    0  502 -0.14313920643E+03 -0.96804488886E+03 -0.80650236743E+03  0.12680874607E+04  0.25500000920E-02 0.  1.
</event>
<event>
 5   0  0.1240725E-06  0.3140942E+04  0.7818609E-02  0.8204591E-01
        1   -1    0    0  501    0  0.00000000000E+00  0.00000000000E+00  0.79367208919E+03  0.79367208921E+03  0.50400001928E-02 0. -1.
       -1   -1    0    0    0  501  0.00000000000E+00  0.00000000000E+00 -0.31075535693E+04  0.31075535693E+04  0.50400001928E-02 0.  1.
    10030    2    1    2    0    0  0.00000000000E+00  0.00000000000E+00 -0.23138814801E+04  0.39012256585E+04  0.31409416000E+04 0.  0.
        3    1    3    3  502    0 -0.21871263122E+03  0.88540341240E+03 -0.27449297888E+04  0.28924754058E+04  0.10100000352E+00 0.  1.
       -3    1    3    3    0  502  0.21871263122E+03 -0.88540341240E+03  0.43104830865E+03  0.10087502527E+04  0.10100000352E+00 0. -1.
</event>
<event>
 5   0  0.1273980E-06  0.3069606E+04  0.7818609E-02  0.8224129E-01
        1   -1    0    0  501    0  0.00000000000E+00  0.00000000000E+00  0.25921454738E+04  0.25921454738E+04  0.50400001928E-02 0.  1.
       -1   -1    0    0    0  501  0.00000000000E+00  0.00000000000E+00 -0.90875326906E+03  0.90875326907E+03  0.50400001928E-02 0. -1.
    10030    2    1    2    0    0  0.00000000000E+00  0.00000000000E+00  0.16833922047E+04  0.35008987428E+04  0.30696062765E+04 0.  0.
        4    1    3    3  502    0 -0.50210382944E+03 -0.37666438341E+03 -0.75567545959E+03  0.98236007981E+03  0.12699999809E+01 0. -1.
       -4    1    3    3    0  502  0.50210382944E+03  0.37666438341E+03  0.24390676643E+04  0.25185386630E+04  0.12699999809E+01 0.  1.
</event>
<event>
 5   0  0.1273754E-06  0.3248513E+04  0.7818609E-02  0.8176121E-01
        1   -1    0    0  501    0  0.00000000000E+00  0.00000000000E+00  0.18104735811E+04  0.18104735812E+04  0.50400001928E-02 0.  1.
       -1   -1    0    0    0  501  0.00000000000E+00  0.00000000000E+00 -0.14571926616E+04  0.14571926616E+04  0.50400001928E-02 0. -1.
    10030    2    1    2    0    0  0.00000000000E+00  0.00000000000E+00  0.35328091952E+03  0.32676662428E+04  0.32485127776E+04 0.  0.
        2    1    3    3  502    0 -0.14421439518E+04  0.54243385574E+03  0.69367021007E+03  0.16897313472E+04  0.25500000920E-02 0. -1.
       -2    1    3    3    0  502  0.14421439518E+04 -0.54243385574E+03 -0.34038929055E+03  0.15779348956E+04  0.25500000920E-02 0.  1.
</event>
<event>
 5   0  0.1306843E-06  0.3180744E+04  0.7818609E-02  0.8193921E-01
        1   -1    0    0  501    0  0.00000000000E+00  0.00000000000E+00  0.21574036414E+04  0.21574036414E+04  0.50400001928E-02 0.  1.
       -1   -1    0    0    0  501  0.00000000000E+00  0.00000000000E+00 -0.11723739411E+04  0.11723739411E+04  0.50400001928E-02 0. -1.
    10030    2    1    2    0    0  0.00000000000E+00  0.00000000000E+00  0.98502970029E+03  0.33297775825E+04  0.31807444472E+04 0.  0.
        5    1    3    3  502    0  0.44367125005E+03 -0.89143571878E+03  0.17906822938E+04  0.20489184918E+04  0.46999998093E+01 0.  1.
       -5    1    3    3    0  502 -0.44367125005E+03  0.89143571878E+03 -0.80565259350E+03  0.12808590907E+04  0.46999998093E+01 0. -1.
</event>
<event>
 5   0  0.3531437E-06  0.3250327E+04  0.7818609E-02  0.8175651E-01
        2   -1    0    0  501    0  0.00000000000E+00  0.00000000000E+00  0.16339576623E+04  0.16339576623E+04  0.25500000920E-02 0. -1.
       -2   -1    0    0    0  501  0.00000000000E+00  0.00000000000E+00 -0.16164165234E+04  0.16164165234E+04  0.25500000920E-02 0.  1.
    10030    2    1    2    0    0  0.00000000000E+00  0.00000000000E+00  0.17541138914E+02  0.32503741857E+04  0.32503268537E+04 0.  0.
        1    1    3    3  502    0  0.10827836445E+04 -0.18464775883E+03 -0.11890118530E+04  0.16187230777E+04  0.50400001928E-02 0.  1.
       -1    1    3    3    0  502 -0.10827836445E+04  0.18464775883E+03  0.12065529920E+04  0.16316511080E+04  0.50400001928E-02 0. -1.
</event>
<event>
 5   0  0.3497546E-06  0.3235546E+04  0.7818609E-02  0.8179492E-01
        2   -1    0    0  501    0  0.00000000000E+00  0.00000000000E+00  0.16266331408E+04  0.16266331408E+04  0.25500000920E-02 0.  1.
       -2   -1    0    0    0  501  0.00000000000E+00  0.00000000000E+00 -0.16089614806E+04  0.16089614806E+04  0.25500000920E-02 0. -1.
    10030    2    1    2    0    0  0.00000000000E+00  0.00000000000E+00  0.17671660258E+02  0.32355946214E+04  0.32355463629E+04 0.  0.
        4    1    3    3  502    0 -0.11528440569E+04  0.94415608506E+03 -0.62102141968E+03  0.16143572557E+04  0.12699999809E+01 0.  1.
       -4    1    3    3    0  502  0.11528440569E+04 -0.94415608506E+03  0.63869307994E+03  0.16212373656E+04  0.12699999809E+01 0. -1.
</event>
<event>
 5   0  0.3656086E-06  0.3201998E+04  0.7818609E-02  0.8188290E-01
       -2   -1    0    0    0  501  0.00000000000E+00  0.00000000000E+00  0.12814562521E+04  0.12814562521E+04  0.25500000920E-02 0.  1.
        2   -1    0    0  501    0  0.00000000000E+00  0.00000000000E+00 -0.20002231717E+04  0.20002231717E+04  0.25500000920E-02 0. -1.
    10030    2    1    2    0    0  0.00000000000E+00  0.00000000000E+00 -0.71876691964E+03  0.32816794238E+04  0.32019984316E+04 0.  0.
        3    1    3    3  502    0 -0.52079291695E+03  0.75922791250E+03  0.98299893380E+03  0.13468256010E+04  0.10100000352E+00 0.  1.
       -3    1    3    3    0  502  0.52079291695E+03 -0.75922791250E+03 -0.17017658534E+04  0.19348538228E+04  0.10100000352E+00 0. -1.
</event>
<event>
 5   0  0.1273754E-06  0.3158706E+04  0.7818609E-02  0.8199809E-01
       -1   -1    0    0    0  501  0.00000000000E+00  0.00000000000E+00  0.14952644844E+04  0.14952644844E+04  0.50400001928E-02 0.  1.
        1   -1    0    0  501    0  0.00000000000E+00  0.00000000000E+00 -0.16681708040E+04  0.16681708040E+04  0.50400001928E-02 0. -1.
    10030    2    1    2    0    0  0.00000000000E+00  0.00000000000E+00 -0.17290631955E+03  0.31634352884E+04  0.31587064169E+04 0.  0.
        2    1    3    3  502    0 -0.24742759860E+03 -0.12301231717E+04 -0.10470205089E+04  0.16342201138E+04  0.25500000920E-02 0. -1.
       -2    1    3    3    0  502  0.24742759860E+03  0.12301231717E+04  0.87411418937E+03  0.15292151746E+04  0.25500000920E-02 0.  1.
</event>
<event>
 5   0  0.1273754E-06  0.3096327E+04  0.7818609E-02  0.8216747E-01
        1   -1    0    0  501    0  0.00000000000E+00  0.00000000000E+00  0.21373650308E+04  0.21373650308E+04  0.50400001928E-02 0. -1.
       -1   -1    0    0    0  501  0.00000000000E+00  0.00000000000E+00 -0.11213855006E+04  0.11213855007E+04  0.50400001928E-02 0.  1.
    10030    2    1    2    0    0  0.00000000000E+00  0.00000000000E+00  0.10159795302E+04  0.32587505315E+04  0.30963269564E+04 0.  0.
        2    1    3    3  502    0 -0.10875919636E+04 -0.10722945253E+04  0.77453020763E+03  0.17124744877E+04  0.25500000920E-02 0. -1.
       -2    1    3    3    0  502  0.10875919636E+04  0.10722945253E+04  0.24144932253E+03  0.15462760438E+04  0.25500000920E-02 0.  1.
</event>
<event>
 5   0  0.1185575E-06  0.3194108E+04  0.7818609E-02  0.8190375E-01
        3   -1    0    0  501    0  0.00000000000E+00  0.00000000000E+00  0.10146250958E+04  0.10146251008E+04  0.10100000352E+00 0.  1.
       -3   -1    0    0    0  501  0.00000000000E+00  0.00000000000E+00 -0.25138165257E+04  0.25138165277E+04  0.10100000352E+00 0. -1.
    10030    2    1    2    0    0  0.00000000000E+00  0.00000000000E+00 -0.14991914299E+04  0.35284416286E+04  0.31941079166E+04 0.  0.
        5    1    3    3  502    0  0.11819675745E+04  0.10725773623E+04 -0.81099909008E+03  0.17903103528E+04  0.46999998093E+01 0.  1.
       -5    1    3    3    0  502 -0.11819675745E+04 -0.10725773623E+04 -0.68819233981E+03  0.17381312758E+04  0.46999998093E+01 0. -1.
</event>
<event>
 5   0  0.1185575E-06  0.3218291E+04  0.7818609E-02  0.8184003E-01
        3   -1    0    0  501    0  0.00000000000E+00  0.00000000000E+00  0.24270099470E+04  0.24270099491E+04  0.10100000352E+00 0.  1.
       -3   -1    0    0    0  501  0.00000000000E+00  0.00000000000E+00 -0.10668884867E+04  0.10668884914E+04  0.10100000352E+00 0. -1.
    10030    2    1    2    0    0  0.00000000000E+00  0.00000000000E+00  0.13601214604E+04  0.34938984406E+04  0.32182908392E+04 0.  0.
        1    1    3    3  502    0  0.13899044676E+04 -0.32566588816E+03  0.14862565313E+04  0.20607889695E+04  0.50400001928E-02 0.  1.
       -1    1    3    3    0  502 -0.13899044676E+04  0.32566588816E+03 -0.12613507097E+03  0.14331094711E+04  0.50400001928E-02 0. -1.
</event>
<event>
 5   0  0.1273980E-06  0.3206948E+04  0.7818609E-02  0.8186985E-01
        1   -1    0    0  501    0  0.00000000000E+00  0.00000000000E+00  0.21080476707E+04  0.21080476707E+04  0.50400001928E-02 0. -1.
       -1   -1    0    0    0  501  0.00000000000E+00  0.00000000000E+00 -0.12196730628E+04  0.12196730628E+04  0.50400001928E-02 0.  1.
    10030    2    1    2    0    0  0.00000000000E+00  0.00000000000E+00  0.88837460789E+03  0.33277207334E+04  0.32069480563E+04 0.  0.
        4    1    3    3  502    0  0.12062377443E+04  0.91328362209E+03 -0.10687826276E+03  0.15167468629E+04  0.12699999809E+01 0.  1.
       -4    1    3    3    0  502 -0.12062377443E+04 -0.91328362209E+03  0.99525287065E+03  0.18109738705E+04  0.12699999809E+01 0. -1.
</event>
<event>
 5   0  0.1268836E-06  0.2602575E+04  0.7818609E-02  0.8367327E-01
        1   -1    0    0  501    0  0.00000000000E+00  0.00000000000E+00  0.10506632806E+04  0.10506632806E+04  0.50400001928E-02 0. -1.
       -1   -1    0    0    0  501  0.00000000000E+00  0.00000000000E+00 -0.16116950529E+04  0.16116950529E+04  0.50400001928E-02 0.  1.
    10030    2    1    2    0    0  0.00000000000E+00  0.00000000000E+00 -0.56103177237E+03  0.26623583335E+04  0.26025747341E+04 0.  0.
        1    1    3    3  502    0  0.55978652165E+03 -0.13661322266E+03  0.91304384797E+03  0.10796634618E+04  0.50400001928E-02 0. -1.
       -1    1    3    3    0  502 -0.55978652165E+03  0.13661322266E+03 -0.14740756203E+04  0.15826948717E+04  0.50400001928E-02 0.  1.
</event>
<event>
 5   0  0.3497546E-06  0.3189633E+04  0.7818609E-02  0.8191561E-01
       -2   -1    0    0    0  501  0.00000000000E+00  0.00000000000E+00  0.17153837056E+04  0.17153837056E+04  0.25500000920E-02 0.  1.
        2   -1    0    0  501    0  0.00000000000E+00  0.00000000000E+00 -0.14827231789E+04  0.14827231789E+04  0.25500000920E-02 0. -1.
    10030    2    1    2    0    0  0.00000000000E+00  0.00000000000E+00  0.23266052675E+03  0.31981068845E+04  0.31896326942E+04 0.  0.
        4    1    3    3  502    0 -0.35788439934E+03 -0.14766480932E+04 -0.36958781166E+03  0.15637031681E+04  0.12699999809E+01 0. -1.
       -4    1    3    3    0  502  0.35788439934E+03  0.14766480932E+04  0.60224833841E+03  0.16344037165E+04  0.12699999809E+01 0.  1.
</event>
<event>
 5   0  0.3745943E-06  0.2464445E+04  0.7818609E-02  0.8415763E-01
        2   -1    0    0  501    0  0.00000000000E+00  0.00000000000E+00  0.10514157382E+04  0.10514157382E+04  0.25500000920E-02 0.  1.
       -2   -1    0    0    0  501  0.00000000000E+00  0.00000000000E+00 -0.14441222140E+04  0.14441222140E+04  0.25500000920E-02 0. -1.
    10030    2    1    2    0    0  0.00000000000E+00  0.00000000000E+00 -0.39270647578E+03  0.24955379522E+04  0.24644454335E+04 0.  0.
        5    1    3    3  502    0  0.33136736102E+02  0.64313816157E+03  0.86743683473E+03  0.10803672942E+04  0.46999998093E+01 0.  1.
       -5    1    3    3    0  502 -0.33136736102E+02 -0.64313816157E+03 -0.12601433105E+04  0.14151706580E+04  0.46999998093E+01 0. -1.
</event>
<event>
 5   0  0.1306843E-06  0.3166132E+04  0.7818609E-02  0.8197819E-01
        1   -1    0    0  501    0  0.00000000000E+00  0.00000000000E+00  0.19494575399E+04  0.19494575399E+04  0.50400001928E-02 0.  1.
       -1   -1    0    0    0  501  0.00000000000E+00  0.00000000000E+00 -0.12855364522E+04  0.12855364522E+04  0.50400001928E-02 0. -1.
    10030    2    1    2    0    0  0.00000000000E+00  0.00000000000E+00  0.66392108770E+03  0.32349939921E+04  0.31661324859E+04 0.  0.
        5    1    3    3  502    0 -0.19690020847E+03 -0.11523732042E+04  0.14225759505E+04  0.18413250986E+04  0.46999998093E+01 0.  1.
       -5    1    3    3    0  502  0.19690020847E+03  0.11523732042E+04 -0.75865486276E+03  0.13936688935E+04  0.46999998093E+01 0. -1.
</event>
<event>
 5   0  0.3531437E-06  0.3350679E+04  0.7818609E-02  0.8150119E-01
        2   -1    0    0  501    0  0.00000000000E+00  0.00000000000E+00  0.26055060377E+04  0.26055060377E+04  0.25500000920E-02 0. -1.
       -2   -1    0    0    0  501  0.00000000000E+00  0.00000000000E+00 -0.10772426070E+04  0.10772426070E+04  0.25500000920E-02 0.  1.
    10030    2    1    2    0    0  0.00000000000E+00  0.00000000000E+00  0.15282634307E+04  0.36827486447E+04  0.33506788068E+04 0.  0.
        1    1    3    3  502    0 -0.18057315426E+03 -0.16238321925E+04  0.35683281806E+03  0.16723538243E+04  0.50400001928E-02 0.  1.
       -1    1    3    3    0  502  0.18057315426E+03  0.16238321925E+04  0.11714306126E+04  0.20103948204E+04  0.50400001928E-02 0. -1.
</event>
<event>
 5   0  0.3758062E-06  0.3087416E+04  0.7818609E-02  0.8219200E-01
       -2   -1    0    0    0  501  0.00000000000E+00  0.00000000000E+00  0.10644008794E+04  0.10644008794E+04  0.25500000920E-02 0. -1.
        2   -1    0    0  501    0  0.00000000000E+00  0.00000000000E+00 -0.22388507079E+04  0.22388507079E+04  0.25500000920E-02 0.  1.
    10030    2    1    2    0    0  0.00000000000E+00  0.00000000000E+00 -0.11744498285E+04  0.33032515873E+04  0.30874161769E+04 0.  0.
        2    1    3    3  502    0  0.48053849569E+03  0.80922599870E+03  0.72194687981E+03  0.11861581935E+04  0.25500000920E-02 0. -1.
       -2    1    3    3    0  502 -0.48053849569E+03 -0.80922599870E+03 -0.18963967083E+04  0.21170933938E+04  0.25500000920E-02 0.  1.
</event>
<event>
 5   0  0.3758062E-06  0.3115734E+04  0.7818609E-02  0.8211433E-01
        2   -1    0    0  501    0  0.00000000000E+00  0.00000000000E+00  0.97507043178E+03  0.97507043178E+03  0.25500000920E-02 0.  1.
       -2   -1    0    0    0  501  0.00000000000E+00  0.00000000000E+00 -0.24889989394E+04  0.24889989394E+04  0.25500000920E-02 0. -1.
    10030    2    1    2    0    0  0.00000000000E+00  0.00000000000E+00 -0.15139285077E+04  0.34640693712E+04  0.31157337952E+04 0.  0.
        2    1    3    3  502    0 -0.15131791820E+04 -0.18576295203E+03 -0.11133129846E+04  0.18877724739E+04  0.25500000920E-02 0. -1.
       -2    1    3    3    0  502  0.15131791820E+04  0.18576295203E+03 -0.40061552304E+03  0.15762968974E+04  0.25500000920E-02 0.  1.
</event>
<event>
 5   0  0.1273980E-06  0.3213717E+04  0.7818609E-02  0.8185204E-01
        1   -1    0    0  501    0  0.00000000000E+00  0.00000000000E+00  0.16900871024E+04  0.16900871024E+04  0.50400001928E-02 0.  1.
       -1   -1    0    0    0  501  0.00000000000E+00  0.00000000000E+00 -0.15277282202E+04  0.15277282203E+04  0.50400001928E-02 0. -1.
    10030    2    1    2    0    0  0.00000000000E+00  0.00000000000E+00  0.16235888215E+03  0.32178153227E+04  0.32137167025E+04 0.  0.
        4    1    3    3  502    0  0.61864793368E+03 -0.11410758948E+04 -0.86724170373E+03  0.15610538905E+04  0.12699999809E+01 0. -1.
       -4    1    3    3    0  502 -0.61864793368E+03  0.11410758948E+04  0.10296005859E+04  0.16567614321E+04  0.12699999809E+01 0.  1.
</event>
<event>
 5   0  0.1268836E-06  0.3140929E+04  0.7818609E-02  0.8204594E-01
        1   -1    0    0  501    0  0.00000000000E+00  0.00000000000E+00  0.20452274815E+04  0.20452274815E+04  0.50400001928E-02 0.  1.
       -1   -1    0    0    0  501  0.00000000000E+00  0.00000000000E+00 -0.12059092230E+04  0.12059092230E+04  0.50400001928E-02 0. -1.
    10030    2    1    2    0    0  0.00000000000E+00  0.00000000000E+00  0.83931825846E+03  0.32511367045E+04  0.31409289601E+04 0.  0.
        1    1    3    3  502    0  0.90879521927E+03 -0.65968986525E+03  0.15560228170E+04  0.19189336820E+04  0.50400001928E-02 0.  1.
       -1    1    3    3    0  502 -0.90879521927E+03  0.65968986525E+03 -0.71670455856E+03  0.13322030225E+04  0.50400001928E-02 0. -1.
</event>
<event>
 5   0  0.3745943E-06  0.3236668E+04  0.7818609E-02  0.8179200E-01
        2   -1    0    0  501    0  0.00000000000E+00  0.00000000000E+00  0.81209302984E+03  0.81209302984E+03  0.25500000920E-02 0. -1.
       -2   -1    0    0    0  501  0.00000000000E+00  0.00000000000E+00 -0.32250062720E+04  0.32250062720E+04  0.25500000920E-02 0.  1.
    10030    2    1    2    0    0  0.00000000000E+00  0.00000000000E+00 -0.24129132422E+04  0.40370993019E+04  0.32366681107E+04 0.  0.
        5    1    3    3  502    0 -0.93658520555E+03 -0.11351271800E+04 -0.20462130283E+04  0.25204593648E+04  0.46999998093E+01 0.  1.
       -5    1    3    3    0  502  0.93658520555E+03  0.11351271800E+04 -0.36670021388E+03  0.15166399371E+04  0.46999998093E+01 0. -1.
</event>
<event>
 5   0  0.1306843E-06  0.3186070E+04  0.7818609E-02  0.8192506E-01
       -1   -1    0    0    0  501  0.00000000000E+00  0.00000000000E+00  0.12801427316E+04  0.12801427316E+04  0.50400001928E-02 0.  1.
        1   -1    0    0  501    0  0.00000000000E+00  0.00000000000E+00 -0.19824040486E+04  0.19824040486E+04  0.50400001928E-02 0. -1.
    10030    2    1    2    0    0  0.00000000000E+00  0.00000000000E+00 -0.70226131699E+03  0.32625467801E+04  0.31860697631E+04 0.  0.
        5    1    3    3  502    0 -0.79351296105E+03  0.57431062339E+03 -0.16375671119E+04  0.19081780964E+04  0.46999998093E+01 0. -1.
       -5    1    3    3    0  502  0.79351296105E+03 -0.57431062339E+03  0.93530579493E+03  0.13543686838E+04  0.46999998093E+01 0.  1.
</event>
<event>
 5   0  0.3758062E-06  0.3195538E+04  0.7818609E-02  0.8189997E-01
        2   -1    0    0  501    0  0.00000000000E+00  0.00000000000E+00  0.11704109614E+04  0.11704109614E+04  0.25500000920E-02 0.  1.
       -2   -1    0    0    0  501  0.00000000000E+00  0.00000000000E+00 -0.21811704182E+04  0.21811704182E+04  0.25500000920E-02 0. -1.
    10030    2    1    2    0    0  0.00000000000E+00  0.00000000000E+00 -0.10107594568E+04  0.33515813796E+04  0.31955379930E+04 0.  0.
        2    1    3    3  502    0 -0.29290603175E+03 -0.38389447342E+03  0.10920486685E+04  0.11940432172E+04  0.25500000920E-02 0.  1.
       -2    1    3    3    0  502  0.29290603175E+03  0.38389447342E+03 -0.21028081253E+04  0.21575381624E+04  0.25500000920E-02 0. -1.
</event>
<event>
 5   0  0.3497546E-06  0.2796053E+04  0.7818609E-02  0.8304495E-01
       -2   -1    0    0    0  501  0.00000000000E+00  0.00000000000E+00  0.93153641318E+03  0.93153641319E+03  0.25500000920E-02 0. -1.
        2   -1    0    0  501    0  0.00000000000E+00  0.00000000000E+00 -0.20981234161E+04  0.20981234161E+04  0.25500000920E-02 0.  1.
    10030    2    1    2    0    0  0.00000000000E+00  0.00000000000E+00 -0.11665870029E+04  0.30296598293E+04  0.27960531908E+04 0.  0.
        4    1    3    3  502    0  0.11746977653E+04  0.75143426309E+03 -0.69115127609E+03  0.15563611377E+04  0.12699999809E+01 0. -1.
       -4    1    3    3    0  502 -0.11746977653E+04 -0.75143426309E+03 -0.47543572682E+03  0.14732986916E+04  0.12699999809E+01 0.  1.
</event>
<event>
 5   0  0.1273980E-06  0.3133168E+04  0.7818609E-02  0.8206694E-01
        1   -1    0    0  501    0  0.00000000000E+00  0.00000000000E+00  0.23853757128E+04  0.23853757128E+04  0.50400001928E-02 0. -1.
       -1   -1    0    0    0  501  0.00000000000E+00  0.00000000000E+00 -0.10288466502E+04  0.10288466502E+04  0.50400001928E-02 0.  1.
    10030    2    1    2    0    0  0.00000000000E+00  0.00000000000E+00  0.13565290626E+04  0.34142223630E+04  0.31331682442E+04 0.  0.
        4    1    3    3  502    0  0.12119067138E+04 -0.86671794754E+03  0.15083674035E+03  0.14975550804E+04  0.12699999809E+01 0. -1.
       -4    1    3    3    0  502 -0.12119067138E+04  0.86671794754E+03  0.12056923222E+04  0.19166672826E+04  0.12699999809E+01 0.  1.
</event>
<event>
 5   0  0.3745943E-06  0.3184769E+04  0.7818609E-02  0.8192851E-01
       -2   -1    0    0    0  501  0.00000000000E+00  0.00000000000E+00  0.24732012867E+04  0.24732012868E+04  0.25500000920E-02 0. -1.
        2   -1    0    0  501    0  0.00000000000E+00  0.00000000000E+00 -0.10252659214E+04  0.10252659214E+04  0.25500000920E-02 0.  1.
    10030    2    1    2    0    0  0.00000000000E+00  0.00000000000E+00  0.14479353654E+04  0.34984672081E+04  0.31847693769E+04 0.  0.
        5    1    3    3  502    0  0.76587715479E+02 -0.23559146872E+03  0.24518963548E+04  0.24643836639E+04  0.46999998093E+01 0. -1.
       -5    1    3    3    0  502 -0.76587715479E+02  0.23559146872E+03 -0.10039609894E+04  0.10340835443E+04  0.46999998093E+01 0.  1.
</event>
<event>
 5   0  0.3656086E-06  0.3181147E+04  0.7818609E-02  0.8193814E-01
       -2   -1    0    0    0  501  0.00000000000E+00  0.00000000000E+00  0.16068670385E+04  0.16068670385E+04  0.25500000920E-02 0. -1.
        2   -1    0    0  501    0  0.00000000000E+00  0.00000000000E+00 -0.15744448165E+04  0.15744448165E+04  0.25500000920E-02 0.  1.
    10030    2    1    2    0    0  0.00000000000E+00  0.00000000000E+00  0.32422221977E+02  0.31813118551E+04  0.31811466358E+04 0.  0.
        3    1    3    3  502    0  0.14251342859E+04 -0.69844134529E+03 -0.89129177206E+02  0.15895823559E+04  0.10100000352E+00 0. -1.
       -3    1    3    3    0  502 -0.14251342859E+04  0.69844134529E+03  0.12155139918E+03  0.15917294992E+04  0.10100000352E+00 0.  1.
</event>
<event>
 5   0  0.3497546E-06  0.3185775E+04  0.7818609E-02  0.8192584E-01
       -2   -1    0    0    0  501  0.00000000000E+00  0.00000000000E+00  0.14216919700E+04  0.14216919700E+04  0.25500000920E-02 0. -1.
        2   -1    0    0  501    0  0.00000000000E+00  0.00000000000E+00 -0.17846979914E+04  0.17846979914E+04  0.25500000920E-02 0.  1.
    10030    2    1    2    0    0  0.00000000000E+00  0.00000000000E+00 -0.36300602143E+03  0.32063899614E+04  0.31857751353E+04 0.  0.
        4    1    3    3  502    0  0.10865842646E+04  0.93703163203E+03 -0.87778562053E+03  0.16820234398E+04  0.12699999809E+01 0.  1.
       -4    1    3    3    0  502 -0.10865842646E+04 -0.93703163203E+03  0.51477959909E+03  0.15243665216E+04  0.12699999809E+01 0. -1.
</event>
<event>
 5   0  0.1273754E-06  0.3109376E+04  0.7818609E-02  0.8213170E-01
        1   -1    0    0  501    0  0.00000000000E+00  0.00000000000E+00  0.13420796544E+04  0.13420796544E+04  0.50400001928E-02 0. -1.
       -1   -1    0    0    0  501  0.00000000000E+00  0.00000000000E+00 -0.18009767615E+04  0.18009767615E+04  0.50400001928E-02 0.  1.
    10030    2    1    2    0    0  0.00000000000E+00  0.00000000000E+00 -0.45889710712E+03  0.31430564159E+04  0.31093756735E+04 0.  0.
        2    1    3    3  502    0 -0.94405604611E+03  0.10027338893E+04 -0.95860617097E+03  0.16779877419E+04  0.25500000920E-02 0.  1.
       -2    1    3    3    0  502  0.94405604611E+03 -0.10027338893E+04  0.49970906385E+03  0.14650686740E+04  0.25500000920E-02 0. -1.
</event>
<event>
 5   0  0.3656086E-06  0.3294370E+04  0.7818609E-02  0.8164329E-01
        2   -1    0    0  501    0  0.00000000000E+00  0.00000000000E+00  0.17856603450E+04  0.17856603450E+04  0.25500000920E-02 0. -1.
       -2   -1    0    0    0  501  0.00000000000E+00  0.00000000000E+00 -0.15194480033E+04  0.15194480033E+04  0.25500000920E-02 0.  1.
    10030    2    1    2    0    0  0.00000000000E+00  0.00000000000E+00  0.26621234174E+03  0.33051083483E+04  0.32943697703E+04 0.  0.
        3    1    3    3  502    0  0.60468924625E+03 -0.14403516631E+04 -0.39104880088E+03  0.16103357330E+04  0.10100000352E+00 0. -1.
       -3    1    3    3    0  502 -0.60468924625E+03  0.14403516631E+04  0.65726114262E+03  0.16947726154E+04  0.10100000352E+00 0.  1.
</event>
<event>
 5   0  0.1306843E-06  0.3188167E+04  0.7818609E-02  0.8191949E-01
       -1   -1    0    0    0  501  0.00000000000E+00  0.00000000000E+00  0.14899251040E+04  0.14899251040E+04  0.50400001928E-02 0.  1.
        1   -1    0    0  501    0  0.00000000000E+00  0.00000000000E+00 -0.17055235390E+04  0.17055235390E+04  0.50400001928E-02 0. -1.
    10030    2    1    2    0    0  0.00000000000E+00  0.00000000000E+00 -0.21559843502E+03  0.31954486430E+04  0.31881670824E+04 0.  0.
        5    1    3    3  502    0 -0.93762432891E+03 -0.76537739343E+02 -0.13976272070E+04  0.16847496275E+04  0.46999998093E+01 0. -1.
       -5    1    3    3    0  502  0.93762432891E+03  0.76537739343E+02  0.11820287720E+04  0.15106990155E+04  0.46999998093E+01 0.  1.
</event>
<event>
 5   0  0.3497546E-06  0.3201852E+04  0.7818609E-02  0.8188328E-01
        2   -1    0    0  501    0  0.00000000000E+00  0.00000000000E+00  0.18219546961E+04  0.18219546961E+04  0.25500000920E-02 0. -1.
       -2   -1    0    0    0  501  0.00000000000E+00  0.00000000000E+00 -0.14067110272E+04  0.14067110272E+04  0.25500000920E-02 0.  1.
    10030    2    1    2    0    0  0.00000000000E+00  0.00000000000E+00  0.41524366883E+03  0.32286657233E+04  0.32018518155E+04 0.  0.
        4    1    3    3  502    0  0.86547806914E+03 -0.82687669611E+03  0.12796262736E+04  0.17522050028E+04  0.12699999809E+01 0. -1.
       -4    1    3    3    0  502 -0.86547806914E+03  0.82687669611E+03 -0.86438260482E+03  0.14764607205E+04  0.12699999809E+01 0.  1.
</event>
<event>
 5   0  0.1268836E-06  0.3202324E+04  0.7818609E-02  0.8188204E-01
        1   -1    0    0  501    0  0.00000000000E+00  0.00000000000E+00  0.14949539024E+04  0.14949539024E+04  0.50400001928E-02 0. -1.
       -1   -1    0    0    0  501  0.00000000000E+00  0.00000000000E+00 -0.17149158517E+04  0.17149158517E+04  0.50400001928E-02 0.  1.
    10030    2    1    2    0    0  0.00000000000E+00  0.00000000000E+00 -0.21996194929E+03  0.32098697540E+04  0.32023242463E+04 0.  0.
        1    1    3    3  502    0 -0.64566014711E+03 -0.95954832213E+03  0.99992668448E+03  0.15288765099E+04  0.50400001928E-02 0. -1.
       -1    1    3    3    0  502  0.64566014711E+03  0.95954832213E+03 -0.12198886338E+04  0.16809932442E+04  0.50400001928E-02 0.  1.
</event>
<event>
 5   0  0.3745943E-06  0.3166565E+04  0.7818609E-02  0.8197703E-01
        2   -1    0    0  501    0  0.00000000000E+00  0.00000000000E+00  0.21890968996E+04  0.21890968996E+04  0.25500000920E-02 0. -1.
       -2   -1    0    0    0  501  0.00000000000E+00  0.00000000000E+00 -0.11451222979E+04  0.11451222979E+04  0.25500000920E-02 0.  1.
    10030    2    1    2    0    0  0.00000000000E+00  0.00000000000E+00  0.10439746018E+04  0.33342191975E+04  0.31665651245E+04 0.  0.
        5    1    3    3  502    0 -0.22050107817E+01 -0.14939049281E+04  0.10741611684E+04  0.18400002995E+04  0.46999998093E+01 0.  1.
       -5    1    3    3    0  502  0.22050107817E+01  0.14939049281E+04 -0.30186566678E+02  0.14942188980E+04  0.46999998093E+01 0. -1.
</event>
<event>
 5   0  0.1306843E-06  0.3166601E+04  0.7818609E-02  0.8197694E-01
       -1   -1    0    0    0  501  0.00000000000E+00  0.00000000000E+00  0.28530946706E+04  0.28530946706E+04  0.50400001928E-02 0.  1.
        1   -1    0    0  501    0  0.00000000000E+00  0.00000000000E+00 -0.87863894415E+03  0.87863894416E+03  0.50400001928E-02 0. -1.
    10030    2    1    2    0    0  0.00000000000E+00  0.00000000000E+00  0.19744557264E+04  0.37317336148E+04  0.31666007572E+04 0.  0.
        5    1    3    3  502    0 -0.99349319057E+03  0.10734069752E+04  0.17017196560E+04  0.22439035478E+04  0.46999998093E+01 0.  1.
       -5    1    3    3    0  502  0.99349319057E+03 -0.10734069752E+04  0.27273607043E+03  0.14878300670E+04  0.46999998093E+01 0. -1.
</event>
<event>
 5   0  0.1306843E-06  0.3207374E+04  0.7818609E-02  0.8186872E-01
        1   -1    0    0  501    0  0.00000000000E+00  0.00000000000E+00  0.20044575871E+04  0.20044575871E+04  0.50400001928E-02 0.  1.
       -1   -1    0    0    0  501  0.00000000000E+00  0.00000000000E+00 -0.12830465681E+04  0.12830465681E+04  0.50400001928E-02 0. -1.
    10030    2    1    2    0    0  0.00000000000E+00  0.00000000000E+00  0.72141101906E+03  0.32875041552E+04  0.32073742707E+04 0.  0.
        5    1    3    3  502    0  0.26725225979E+03 -0.13276958264E+04  0.12409925039E+04  0.18369225521E+04  0.46999998093E+01 0.  1.
       -5    1    3    3    0  502 -0.26725225979E+03  0.13276958264E+04 -0.51958148484E+03  0.14505816031E+04  0.46999998093E+01 0. -1.
</event>
<event>
 5   0  0.3745943E-06  0.2990670E+04  0.7818609E-02  0.8246400E-01
       -2   -1    0    0    0  501  0.00000000000E+00  0.00000000000E+00  0.15020111421E+04  0.15020111421E+04  0.25500000920E-02 0. -1.
        2   -1    0    0  501    0  0.00000000000E+00  0.00000000000E+00 -0.14886881509E+04  0.14886881509E+04  0.25500000920E-02 0.  1.
    10030    2    1    2    0    0  0.00000000000E+00  0.00000000000E+00  0.13322991198E+02  0.29906992931E+04  0.29906696173E+04 0.  0.
        5    1    3    3  502    0  0.14503656033E+03 -0.11306275864E+04  0.97447777232E+03  0.14996610823E+04  0.46999998093E+01 0. -1.
       -5    1    3    3    0  502 -0.14503656033E+03  0.11306275864E+04 -0.96115478112E+03  0.14910382108E+04  0.46999998093E+01 0.  1.
</event>
<event>
 5   0  0.1273980E-06  0.2465368E+04  0.7818609E-02  0.8415428E-01
       -1   -1    0    0    0  501  0.00000000000E+00  0.00000000000E+00  0.11707115687E+04  0.11707115687E+04  0.50400001928E-02 0. -1.
        1   -1    0    0  501    0  0.00000000000E+00  0.00000000000E+00 -0.12979368882E+04  0.12979368882E+04  0.50400001928E-02 0.  1.
    10030    2    1    2    0    0  0.00000000000E+00  0.00000000000E+00 -0.12722531947E+03  0.24686484569E+04  0.24653679080E+04 0.  0.
        4    1    3    3  502    0 -0.78467205746E+03  0.81723326645E+03 -0.54998284941E+03  0.12593900099E+04  0.12699999809E+01 0.  1.
       -4    1    3    3    0  502  0.78467205746E+03 -0.81723326645E+03  0.42275752994E+03  0.12092584470E+04  0.12699999809E+01 0. -1.
</event>
<event>
 5   0  0.1273980E-06  0.3209908E+04  0.7818609E-02  0.8186205E-01
       -1   -1    0    0    0  501  0.00000000000E+00  0.00000000000E+00  0.18307017502E+04  0.18307017502E+04  0.50400001928E-02 0.  1.
        1   -1    0    0  501    0  0.00000000000E+00  0.00000000000E+00 -0.14070436562E+04  0.14070436563E+04  0.50400001928E-02 0. -1.
    10030    2    1    2    0    0  0.00000000000E+00  0.00000000000E+00  0.42365809399E+03  0.32377454065E+04  0.32099079639E+04 0.  0.
        4    1    3    3  502    0  0.15972516908E+04 -0.43910064000E+02  0.36391668143E+03  0.16387733283E+04  0.12699999809E+01 0.  1.
       -4    1    3    3    0  502 -0.15972516908E+04  0.43910064000E+02  0.59741412560E+02  0.15989720782E+04  0.12699999809E+01 0. -1.
</event>
<event>
 5   0  0.1306843E-06  0.2975786E+04  0.7818609E-02  0.8250679E-01
        1   -1    0    0  501    0  0.00000000000E+00  0.00000000000E+00  0.14794019063E+04  0.14794019063E+04  0.50400001928E-02 0.  1.
       -1   -1    0    0    0  501  0.00000000000E+00  0.00000000000E+00 -0.14964332351E+04  0.14964332351E+04  0.50400001928E-02 0. -1.
    10030    2    1    2    0    0  0.00000000000E+00  0.00000000000E+00 -0.17031328888E+02  0.29758351414E+04  0.29757864041E+04 0.  0.
        5    1    3    3  502    0 -0.10088198632E+04  0.10720477471E+03 -0.10969239120E+04  0.14941467595E+04  0.46999998093E+01 0. -1.
       -5    1    3    3    0  502  0.10088198632E+04 -0.10720477471E+03  0.10798925831E+04  0.14816883819E+04  0.46999998093E+01 0.  1.
</event>
<event>
 5   0  0.1273980E-06  0.3298227E+04  0.7818609E-02  0.8163347E-01
       -1   -1    0    0    0  501  0.00000000000E+00  0.00000000000E+00  0.21469814925E+04  0.21469814925E+04  0.50400001928E-02 0. -1.
        1   -1    0    0  501    0  0.00000000000E+00  0.00000000000E+00 -0.12666975022E+04  0.12666975022E+04  0.50400001928E-02 0.  1.
    10030    2    1    2    0    0  0.00000000000E+00  0.00000000000E+00  0.88028399027E+03  0.34136789947E+04  0.32982274596E+04 0.  0.
        4    1    3    3  502    0  0.90711580587E+03  0.13079515693E+04  0.88648935074E+03  0.18219389053E+04  0.12699999809E+01 0.  1.
       -4    1    3    3    0  502 -0.90711580587E+03 -0.13079515693E+04 -0.62053604617E+01  0.15917400894E+04  0.12699999809E+01 0. -1.
</event>
<event>
 5   0  0.1273980E-06  0.3090241E+04  0.7818609E-02  0.8218421E-01
       -1   -1    0    0    0  501  0.00000000000E+00  0.00000000000E+00  0.82190685786E+03  0.82190685788E+03  0.50400001928E-02 0.  1.
        1   -1    0    0  501    0  0.00000000000E+00  0.00000000000E+00 -0.29047047534E+04  0.29047047534E+04  0.50400001928E-02 0. -1.
    10030    2    1    2    0    0  0.00000000000E+00  0.00000000000E+00 -0.20827978956E+04  0.37266116113E+04  0.30902406100E+04 0.  0.
        4    1    3    3  502    0 -0.20005104098E+03 -0.14745923583E+04 -0.53988298644E+03  0.15830092527E+04  0.12699999809E+01 0. -1.
       -4    1    3    3    0  502  0.20005104098E+03  0.14745923583E+04 -0.15429149091E+04  0.21436023586E+04  0.12699999809E+01 0.  1.
</event>
<event>
 5   0  0.1273980E-06  0.3194599E+04  0.7818609E-02  0.8190245E-01
        1   -1    0    0  501    0  0.00000000000E+00  0.00000000000E+00  0.25750230001E+04  0.25750230001E+04  0.50400001928E-02 0.  1.
       -1   -1    0    0    0  501  0.00000000000E+00  0.00000000000E+00 -0.99081247408E+03  0.99081247410E+03  0.50400001928E-02 0. -1.
    10030    2    1    2    0    0  0.00000000000E+00  0.00000000000E+00  0.15842105260E+04  0.35658354742E+04  0.31945985097E+04 0.  0.
        4    1    3    3  502    0 -0.35437979298E+03  0.46748931368E+03 -0.86621729493E+03  0.10461669613E+04  0.12699999809E+01 0. -1.
       -4    1    3    3    0  502  0.35437979298E+03 -0.46748931368E+03  0.24504278210E+04  0.25196685129E+04  0.12699999809E+01 0.  1.
</event>
<event>
 5   0  0.1268836E-06  0.3149280E+04  0.7818609E-02  0.8202342E-01
       -1   -1    0    0    0  501  0.00000000000E+00  0.00000000000E+00  0.17976824874E+04  0.17976824874E+04  0.50400001928E-02 0. -1.
        1   -1    0    0  501    0  0.00000000000E+00  0.00000000000E+00 -0.13792706771E+04  0.13792706771E+04  0.50400001928E-02 0.  1.
    10030    2    1    2    0    0  0.00000000000E+00  0.00000000000E+00  0.41841181027E+03  0.31769531646E+04  0.31492797537E+04 0.  0.
        1    1    3    3  502    0 -0.52995586438E+03 -0.60872004690E+03  0.15731583859E+04  0.17681121630E+04  0.50400001928E-02 0. -1.
       -1    1    3    3    0  502  0.52995586438E+03  0.60872004690E+03 -0.11547465757E+04  0.14088410016E+04  0.50400001928E-02 0.  1.
</event>
<event>
 5   0  0.3758062E-06  0.3174850E+04  0.7818609E-02  0.8195491E-01
        2   -1    0    0  501    0  0.00000000000E+00  0.00000000000E+00  0.13515353708E+04  0.13515353708E+04  0.25500000920E-02 0. -1.
       -2   -1    0    0    0  501  0.00000000000E+00  0.00000000000E+00 -0.18644852807E+04  0.18644852807E+04  0.25500000920E-02 0.  1.
    10030    2    1    2    0    0  0.00000000000E+00  0.00000000000E+00 -0.51294990984E+03  0.32160206515E+04  0.31748497950E+04 0.  0.
        2    1    3    3  502    0  0.15011446861E+04  0.51133707432E+03 -0.18472684410E+03  0.15965666222E+04  0.25500000920E-02 0.  1.
       -2    1    3    3    0  502 -0.15011446861E+04 -0.51133707432E+03 -0.32822306574E+03  0.16194540293E+04  0.25500000920E-02 0. -1.
</event>
<event>
 5   0  0.1268836E-06  0.2786347E+04  0.7818609E-02  0.8307520E-01
        1   -1    0    0  501    0  0.00000000000E+00  0.00000000000E+00  0.15711923417E+04  0.15711923417E+04  0.50400001928E-02 0. -1.
       -1   -1    0    0    0  501  0.00000000000E+00  0.00000000000E+00 -0.12353248520E+04  0.12353248520E+04  0.50400001928E-02 0.  1.
    10030    2    1    2    0    0  0.00000000000E+00  0.00000000000E+00  0.33586748972E+03  0.28065171937E+04  0.27863473918E+04 0.  0.
        1    1    3    3  502    0  0.69532044664E+03  0.10217925268E+04  0.81555183497E+03  0.14807617252E+04  0.50400001928E-02 0. -1.
       -1    1    3    3    0  502 -0.69532044664E+03 -0.10217925268E+04 -0.47968434525E+03  0.13257554685E+04  0.50400001928E-02 0.  1.
</event>
<event>
 5   0  0.1268836E-06  0.3219701E+04  0.7818609E-02  0.8183633E-01
        1   -1    0    0  501    0  0.00000000000E+00  0.00000000000E+00  0.20015798837E+04  0.20015798837E+04  0.50400001928E-02 0.  1.
       -1   -1    0    0    0  501  0.00000000000E+00  0.00000000000E+00 -0.12947867471E+04  0.12947867471E+04  0.50400001928E-02 0. -1.
    10030    2    1    2    0    0  0.00000000000E+00  0.00000000000E+00  0.70679313661E+03  0.32963666308E+04  0.32197012946E+04 0.  0.
        1    1    3    3  502    0  0.15115810221E+04 -0.37170733265E+03 -0.66959437875E+02  0.15580523399E+04  0.50400001928E-02 0. -1.
       -1    1    3    3    0  502 -0.15115810221E+04  0.37170733265E+03  0.77375257448E+03  0.17383142909E+04  0.50400001928E-02 0.  1.
</event>
<event>
 5   0  0.3745943E-06  0.3258750E+04  0.7818609E-02  0.8173471E-01
        2   -1    0    0  501    0  0.00000000000E+00  0.00000000000E+00  0.24539327801E+04  0.24539327801E+04  0.25500000920E-02 0. -1.
       -2   -1    0    0    0  501  0.00000000000E+00  0.00000000000E+00 -0.10818808520E+04  0.10818808520E+04  0.25500000920E-02 0.  1.
    10030    2    1    2    0    0  0.00000000000E+00  0.00000000000E+00  0.13720519281E+04  0.35358136321E+04  0.32587499976E+04 0.  0.
        5    1    3    3  502    0 -0.53528298579E+03  0.14946135343E+04  0.10838654750E+04  0.19222861258E+04  0.46999998093E+01 0. -1.
       -5    1    3    3    0  502  0.53528298579E+03 -0.14946135343E+04  0.28818645319E+03  0.16135275063E+04  0.46999998093E+01 0.  1.
</event>
<event>
 5   0  0.1185575E-06  0.3267819E+04  0.7818609E-02  0.8171133E-01
        4   -1    0    0  501    0  0.00000000000E+00  0.00000000000E+00  0.13274924767E+04  0.13274930842E+04  0.12699999809E+01 0. -1.
       -4   -1    0    0    0  501  0.00000000000E+00  0.00000000000E+00 -0.20110531137E+04  0.20110535147E+04  0.12699999809E+01 0.  1.
    10030    2    1    2    0    0  0.00000000000E+00  0.00000000000E+00 -0.68356063704E+03  0.33385465989E+04  0.32678185765E+04 0.  0.
        1    1    3    3  502    0  0.53066632649E+03 -0.45171974901E+03  0.11680426540E+04  0.13601401116E+04  0.50400001928E-02 0. -1.
       -1    1    3    3    0  502 -0.53066632649E+03  0.45171974901E+03 -0.18516032910E+04  0.19784064873E+04  0.50400001928E-02 0.  1.
</event>
<event>
 5   0  0.1240725E-06  0.3175532E+04  0.7818609E-02  0.8195309E-01
       -1   -1    0    0    0  501  0.00000000000E+00  0.00000000000E+00  0.11102384634E+04  0.11102384634E+04  0.50400001928E-02 0. -1.
        1   -1    0    0  501    0  0.00000000000E+00  0.00000000000E+00 -0.22706835881E+04  0.22706835881E+04  0.50400001928E-02 0.  1.
    10030    2    1    2    0    0  0.00000000000E+00  0.00000000000E+00 -0.11604451247E+04  0.33809220514E+04  0.31755316138E+04 0.  0.
        3    1    3    3  502    0 -0.40486939821E+03 -0.89647661489E+03 -0.19071948801E+04  0.21459221494E+04  0.10100000352E+00 0.  1.
       -3    1    3    3    0  502  0.40486939821E+03  0.89647661489E+03  0.74674975536E+03  0.12349999020E+04  0.10100000352E+00 0. -1.
</event>
<event>
 5   0  0.1273980E-06  0.3204527E+04  0.7818609E-02  0.8187623E-01
        1   -1    0    0  501    0  0.00000000000E+00  0.00000000000E+00  0.13307428852E+04  0.13307428852E+04  0.50400001928E-02 0.  1.
       -1   -1    0    0    0  501  0.00000000000E+00  0.00000000000E+00 -0.19291848647E+04  0.19291848648E+04  0.50400001928E-02 0. -1.
    10030    2    1    2    0    0  0.00000000000E+00  0.00000000000E+00 -0.59844197952E+03  0.32599277500E+04  0.32045274429E+04 0.  0.
        4    1    3    3  502    0 -0.12797997408E+04 -0.72636059345E+03  0.34558268927E+03  0.15115938927E+04  0.12699999809E+01 0.  1.
       -4    1    3    3    0  502  0.12797997408E+04  0.72636059345E+03 -0.94402466880E+03  0.17483338573E+04  0.12699999809E+01 0. -1.
</event>
<event>
 5   0  0.1273980E-06  0.3200834E+04  0.7818609E-02  0.8188597E-01
        1   -1    0    0  501    0  0.00000000000E+00  0.00000000000E+00  0.15641811016E+04  0.15641811016E+04  0.50400001928E-02 0.  1.
       -1   -1    0    0    0  501  0.00000000000E+00  0.00000000000E+00 -0.16374919895E+04  0.16374919895E+04  0.50400001928E-02 0. -1.
    10030    2    1    2    0    0  0.00000000000E+00  0.00000000000E+00 -0.73310887964E+02  0.32016730911E+04  0.32008336564E+04 0.  0.
        4    1    3    3  502    0  0.65696963461E+03  0.13089967085E+04  0.60868887025E+03  0.15860596576E+04  0.12699999809E+01 0.  1.
       -4    1    3    3    0  502 -0.65696963461E+03 -0.13089967085E+04 -0.68199975821E+03  0.16156134336E+04  0.12699999809E+01 0. -1.
</event>
<event>
 5   0  0.3497546E-06  0.3194592E+04  0.7818609E-02  0.8190247E-01
        2   -1    0    0  501    0  0.00000000000E+00  0.00000000000E+00  0.22417383519E+04  0.22417383519E+04  0.25500000920E-02 0. -1.
       -2   -1    0    0    0  501  0.00000000000E+00  0.00000000000E+00 -0.11381145314E+04  0.11381145314E+04  0.25500000920E-02 0.  1.
    10030    2    1    2    0    0  0.00000000000E+00  0.00000000000E+00  0.11036238205E+04  0.33798528834E+04  0.31945923020E+04 0.  0.
        4    1    3    3  502    0 -0.27046586214E+03 -0.14241485574E+04  0.12615364341E+04  0.19216728867E+04  0.12699999809E+01 0. -1.
       -4    1    3    3    0  502  0.27046586214E+03  0.14241485574E+04 -0.15791261362E+03  0.14581799966E+04  0.12699999809E+01 0.  1.
</event>
<event>
 5   0  0.1185575E-06  0.3387489E+04  0.7818609E-02  0.8140984E-01
        3   -1    0    0  501    0  0.00000000000E+00  0.00000000000E+00  0.10536348785E+04  0.10536348833E+04  0.10100000352E+00 0. -1.
       -3   -1    0    0    0  501  0.00000000000E+00  0.00000000000E+00 -0.27227374853E+04  0.27227374872E+04  0.10100000352E+00 0.  1.
    10030    2    1    2    0    0  0.00000000000E+00  0.00000000000E+00 -0.16691026068E+04  0.37763723705E+04  0.33874894492E+04 0.  0.
        3    1    3    3  502    0  0.59346573886E+03 -0.97106479172E+03 -0.22329931650E+04  0.25062774982E+04  0.10100000352E+00 0.  1.
       -3    1    3    3    0  502 -0.59346573886E+03  0.97106479172E+03  0.56389055817E+03  0.12700948723E+04  0.10100000352E+00 0. -1.
</event>
<event>
 5   0  0.1240725E-06  0.3157867E+04  0.7818609E-02  0.8200034E-01
        1   -1    0    0  501    0  0.00000000000E+00  0.00000000000E+00  0.15787565589E+04  0.15787565589E+04  0.50400001928E-02 0.  1.
       -1   -1    0    0    0  501  0.00000000000E+00  0.00000000000E+00 -0.15791099708E+04  0.15791099708E+04  0.50400001928E-02 0. -1.
    10030    2    1    2    0    0  0.00000000000E+00  0.00000000000E+00 -0.35341187405E+00  0.31578665297E+04  0.31578665100E+04 0.  0.
        3    1    3    3  502    0  0.11312485795E+04  0.11003410171E+04  0.50385245660E+02  0.15789276062E+04  0.10100000352E+00 0.  1.
       -3    1    3    3    0  502 -0.11312485795E+04 -0.11003410171E+04 -0.50738657534E+02  0.15789389235E+04  0.10100000352E+00 0. -1.
</event>
<event>
 5   0  0.3758062E-06  0.3181743E+04  0.7818609E-02  0.8193656E-01
        2   -1    0    0  501    0  0.00000000000E+00  0.00000000000E+00  0.15946434365E+04  0.15946434365E+04  0.25500000920E-02 0.  1.
       -2   -1    0    0    0  501  0.00000000000E+00  0.00000000000E+00 -0.15871084408E+04  0.15871084408E+04  0.25500000920E-02 0. -1.
    10030    2    1    2    0    0  0.00000000000E+00  0.00000000000E+00  0.75349956814E+01  0.31817518774E+04  0.31817429552E+04 0.  0.
        2    1    3    3  502    0  0.26269573091E+03 -0.13650830014E+03 -0.15593198950E+04  0.15871742494E+04  0.25500000920E-02 0. -1.
       -2    1    3    3    0  502 -0.26269573091E+03  0.13650830014E+03  0.15668548907E+04  0.15945776279E+04  0.25500000920E-02 0.  1.
</event>
<event>
 5   0  0.3745943E-06  0.3215174E+04  0.7818609E-02  0.8184821E-01
        2   -1    0    0  501    0  0.00000000000E+00  0.00000000000E+00  0.19025091885E+04  0.19025091885E+04  0.25500000920E-02 0. -1.
       -2   -1    0    0    0  501  0.00000000000E+00  0.00000000000E+00 -0.13583825336E+04  0.13583825336E+04  0.25500000920E-02 0.  1.
    10030    2    1    2    0    0  0.00000000000E+00  0.00000000000E+00  0.54412665486E+03  0.32608917221E+04  0.32151735578E+04 0.  0.
        5    1    3    3  502    0 -0.77179418651E+02 -0.70487395497E+03 -0.11911954061E+04  0.13862801090E+04  0.46999998093E+01 0.  1.
       -5    1    3    3    0  502  0.77179418651E+02  0.70487395497E+03  0.17353220609E+04  0.18746116132E+04  0.46999998093E+01 0. -1.
</event>
<event>
 5   0  0.3656086E-06  0.3181651E+04  0.7818609E-02  0.8193680E-01
       -2   -1    0    0    0  501  0.00000000000E+00  0.00000000000E+00  0.12959853083E+04  0.12959853083E+04  0.25500000920E-02 0. -1.
        2   -1    0    0  501    0  0.00000000000E+00  0.00000000000E+00 -0.19527427730E+04  0.19527427730E+04  0.25500000920E-02 0.  1.
    10030    2    1    2    0    0  0.00000000000E+00  0.00000000000E+00 -0.65675746469E+03  0.32487280814E+04  0.31816511090E+04 0.  0.
        3    1    3    3  502    0  0.28802119205E+03  0.13545028037E+04  0.47113069849E+03  0.14627365441E+04  0.10100000352E+00 0. -1.
       -3    1    3    3    0  502 -0.28802119205E+03 -0.13545028037E+04 -0.11278881632E+04  0.17859915373E+04  0.10100000352E+00 0.  1.
</event>
<event>
 5   0  0.1273754E-06  0.3182324E+04  0.7818609E-02  0.8193501E-01
        1   -1    0    0  501    0  0.00000000000E+00  0.00000000000E+00  0.15160942362E+04  0.15160942362E+04  0.50400001928E-02 0. -1.
       -1   -1    0    0    0  501  0.00000000000E+00  0.00000000000E+00 -0.16699463902E+04  0.16699463902E+04  0.50400001928E-02 0.  1.
    10030    2    1    2    0    0  0.00000000000E+00  0.00000000000E+00 -0.15385215396E+03  0.31860406264E+04  0.31823237403E+04 0.  0.
        2    1    3    3  502    0 -0.38377177798E+03 -0.64405248086E+03  0.13281773252E+04  0.15251686408E+04  0.25500000920E-02 0. -1.
       -2    1    3    3    0  502  0.38377177798E+03  0.64405248086E+03 -0.14820294791E+04  0.16608719857E+04  0.25500000920E-02 0.  1.
</event>
<event>
 5   0  0.3656086E-06  0.3247459E+04  0.7818609E-02  0.8176395E-01
       -2   -1    0    0    0  501  0.00000000000E+00  0.00000000000E+00  0.19030119388E+04  0.19030119389E+04  0.25500000920E-02 0. -1.
        2   -1    0    0  501    0  0.00000000000E+00  0.00000000000E+00 -0.13854337077E+04  0.13854337077E+04  0.25500000920E-02 0.  1.
    10030    2    1    2    0    0  0.00000000000E+00  0.00000000000E+00  0.51757823118E+03  0.32884456465E+04  0.32474586286E+04 0.  0.
        3    1    3    3  502    0 -0.73075965254E+03 -0.12417323356E+04  0.10169632156E+04  0.17635540976E+04  0.10100000352E+00 0. -1.
       -3    1    3    3    0  502  0.73075965254E+03  0.12417323356E+04 -0.49938498441E+03  0.15248915489E+04  0.10100000352E+00 0.  1.
</event>
<event>
 5   0  0.1306843E-06  0.3200813E+04  0.7818609E-02  0.8188603E-01
       -1   -1    0    0    0  501  0.00000000000E+00  0.00000000000E+00  0.11405741009E+04  0.11405741009E+04  0.50400001928E-02 0. -1.
        1   -1    0    0  501    0  0.00000000000E+00  0.00000000000E+00 -0.22456239891E+04  0.22456239891E+04  0.50400001928E-02 0.  1.
    10030    2    1    2    0    0  0.00000000000E+00  0.00000000000E+00 -0.11050498881E+04  0.33861980900E+04  0.32008127483E+04 0.  0.
        5    1    3    3  502    0 -0.49148967348E+03 -0.14971523546E+04 -0.84846080581E+03  0.17896745796E+04  0.46999998093E+01 0.  1.
       -5    1    3    3    0  502  0.49148967348E+03  0.14971523546E+04 -0.25658908233E+03  0.15965235104E+04  0.46999998093E+01 0. -1.
</event>
<event>
 5   0  0.1240725E-06  0.3175228E+04  0.7818609E-02  0.8195390E-01
       -1   -1    0    0    0  501  0.00000000000E+00  0.00000000000E+00  0.19547282082E+04  0.19547282082E+04  0.50400001928E-02 0.  1.
        1   -1    0    0  501    0  0.00000000000E+00  0.00000000000E+00 -0.12894471895E+04  0.12894471895E+04  0.50400001928E-02 0. -1.
    10030    2    1    2    0    0  0.00000000000E+00  0.00000000000E+00  0.66528101868E+03  0.32441753978E+04  0.31752283662E+04 0.  0.
        3    1    3    3  502    0 -0.88754748111E+03 -0.37443614963E+03  0.16220160278E+04  0.18864991296E+04  0.10100000352E+00 0.  1.
       -3    1    3    3    0  502  0.88754748111E+03  0.37443614963E+03 -0.95673500909E+03  0.13576762682E+04  0.10100000352E+00 0. -1.
</event>
<event>
 5   0  0.1273980E-06  0.3248279E+04  0.7818609E-02  0.8176182E-01
       -1   -1    0    0    0  501  0.00000000000E+00  0.00000000000E+00  0.25597372865E+04  0.25597372865E+04  0.50400001928E-02 0. -1.
        1   -1    0    0  501    0  0.00000000000E+00  0.00000000000E+00 -0.10305074933E+04  0.10305074933E+04  0.50400001928E-02 0.  1.
    10030    2    1    2    0    0  0.00000000000E+00  0.00000000000E+00  0.15292297933E+04  0.35902447798E+04  0.32482785931E+04 0.  0.
        4    1    3    3  502    0  0.86919013230E+03  0.23545509886E+03 -0.72930644604E+03  0.11588011455E+04  0.12699999809E+01 0.  1.
       -4    1    3    3    0  502 -0.86919013230E+03 -0.23545509886E+03  0.22585362393E+04  0.24314436343E+04  0.12699999809E+01 0. -1.
</event>
<event>
 5   0  0.3497546E-06  0.2544424E+04  0.7818609E-02  0.8387328E-01
        2   -1    0    0  501    0  0.00000000000E+00  0.00000000000E+00  0.20664779190E+04  0.20664779190E+04  0.25500000920E-02 0.  1.
       -2   -1    0    0    0  501  0.00000000000E+00  0.00000000000E+00 -0.78322785055E+03  0.78322785056E+03  0.25500000920E-02 0. -1.
    10030    2    1    2    0    0  0.00000000000E+00  0.00000000000E+00  0.12832500685E+04  0.28497057696E+04  0.25444237530E+04 0.  0.
        4    1    3    3  502    0  0.83393395918E+03  0.46628063638E+03 -0.29919748642E+03  0.10011914047E+04  0.12699999809E+01 0. -1.
       -4    1    3    3    0  502 -0.83393395918E+03 -0.46628063638E+03  0.15824475549E+04  0.18485143648E+04  0.12699999809E+01 0.  1.
</event>
<event>
 5   0  0.1273980E-06  0.3262740E+04  0.7818609E-02  0.8172442E-01
       -1   -1    0    0    0  501  0.00000000000E+00  0.00000000000E+00  0.19941656273E+04  0.19941656273E+04  0.50400001928E-02 0. -1.
        1   -1    0    0  501    0  0.00000000000E+00  0.00000000000E+00 -0.13345769520E+04  0.13345769521E+04  0.50400001928E-02 0.  1.
    10030    2    1    2    0    0  0.00000000000E+00  0.00000000000E+00  0.65958867527E+03  0.33287425794E+04  0.32627396371E+04 0.  0.
        4    1    3    3  502    0 -0.34058986751E+03  0.41874651324E+03 -0.12408339333E+04  0.13531520843E+04  0.12699999809E+01 0.  1.
       -4    1    3    3    0  502  0.34058986751E+03 -0.41874651324E+03  0.19004226086E+04  0.19755904951E+04  0.12699999809E+01 0. -1.
</event>
<event>
 5   0  0.3745943E-06  0.3198360E+04  0.7818609E-02  0.8189250E-01
        2   -1    0    0  501    0  0.00000000000E+00  0.00000000000E+00  0.30496792030E+04  0.30496792030E+04  0.25500000920E-02 0.  1.
       -2   -1    0    0    0  501  0.00000000000E+00  0.00000000000E+00 -0.83857253687E+03  0.83857253688E+03  0.25500000920E-02 0. -1.
    10030    2    1    2    0    0  0.00000000000E+00  0.00000000000E+00  0.22111066661E+04  0.38882517398E+04  0.31983603461E+04 0.  0.
        5    1    3    3  502    0 -0.68556380491E+03 -0.85072275419E+03  0.25251826837E+04  0.27514172005E+04  0.46999998093E+01 0.  1.
       -5    1    3    3    0  502  0.68556380491E+03  0.85072275419E+03 -0.31407601758E+03  0.11368345394E+04  0.46999998093E+01 0. -1.
</event>
<event>
 5   0  0.1240725E-06  0.3340417E+04  0.7818609E-02  0.8152687E-01
        1   -1    0    0  501    0  0.00000000000E+00  0.00000000000E+00  0.22295620742E+04  0.22295620742E+04  0.50400001928E-02 0. -1.
       -1   -1    0    0    0  501  0.00000000000E+00  0.00000000000E+00 -0.12511857259E+04  0.12511857259E+04  0.50400001928E-02 0.  1.
    10030    2    1    2    0    0  0.00000000000E+00  0.00000000000E+00  0.97837634833E+03  0.34807478002E+04  0.33404168856E+04 0.  0.
        3    1    3    3  502    0 -0.15964450834E+04  0.47242780313E+03  0.62809752145E+03  0.17794188490E+04  0.10100000352E+00 0. -1.
       -3    1    3    3    0  502  0.15964450834E+04 -0.47242780313E+03  0.35027882688E+03  0.17013289512E+04  0.10100000352E+00 0.  1.
</event>
<event>
 5   0  0.3758062E-06  0.3004435E+04  0.7818609E-02  0.8242466E-01
        2   -1    0    0  501    0  0.00000000000E+00  0.00000000000E+00  0.12629330364E+04  0.12629330364E+04  0.25500000920E-02 0.  1.
       -2   -1    0    0    0  501  0.00000000000E+00  0.00000000000E+00 -0.17868380712E+04  0.17868380712E+04  0.25500000920E-02 0. -1.
    10030    2    1    2    0    0  0.00000000000E+00  0.00000000000E+00 -0.52390503487E+03  0.30497711076E+04  0.30044346096E+04 0.  0.
        2    1    3    3  502    0 -0.10170083354E+04 -0.50788760624E+03  0.73490555061E+03  0.13536402562E+04  0.25500000920E-02 0.  1.
       -2    1    3    3    0  502  0.10170083354E+04  0.50788760624E+03 -0.12588105855E+04  0.16961308514E+04  0.25500000920E-02 0. -1.
</event>
<event>
 5   0  0.3497546E-06  0.3337710E+04  0.7818609E-02  0.8153366E-01
        2   -1    0    0  501    0  0.00000000000E+00  0.00000000000E+00  0.94248073192E+03  0.94248073192E+03  0.25500000920E-02 0.  1.
       -2   -1    0    0    0  501  0.00000000000E+00  0.00000000000E+00 -0.29550495886E+04  0.29550495886E+04  0.25500000920E-02 0. -1.
    10030    2    1    2    0    0  0.00000000000E+00  0.00000000000E+00 -0.20125688567E+04  0.38975303205E+04  0.33377101726E+04 0.  0.
        4    1    3    3  502    0  0.12082527985E+04 -0.96667534478E+03 -0.17362201462E+04  0.23256822776E+04  0.12699999809E+01 0.  1.
       -4    1    3    3    0  502 -0.12082527985E+04  0.96667534478E+03 -0.27634871046E+03  0.15718480429E+04  0.12699999809E+01 0. -1.
</event>
<event>
 5   0  0.3758062E-06  0.2459304E+04  0.7818609E-02  0.8417629E-01
       -2   -1    0    0    0  501  0.00000000000E+00  0.00000000000E+00  0.17638270025E+04  0.17638270025E+04  0.25500000920E-02 0. -1.
        2   -1    0    0  501    0  0.00000000000E+00  0.00000000000E+00 -0.85725204109E+03  0.85725204109E+03  0.25500000920E-02 0.  1.
    10030    2    1    2    0    0  0.00000000000E+00  0.00000000000E+00  0.90657496145E+03  0.26210790436E+04  0.24593042090E+04 0.  0.
        2    1    3    3  502    0 -0.23889074591E+02  0.11570451927E+04  0.89622168671E+03  0.14637409530E+04  0.25500000920E-02 0. -1.
       -2    1    3    3    0  502  0.23889074591E+02 -0.11570451927E+04  0.10353274745E+02  0.11573380906E+04  0.25500000920E-02 0.  1.
</event>
<event>
 5   0  0.1273980E-06  0.3152392E+04  0.7818609E-02  0.8201505E-01
        1   -1    0    0  501    0  0.00000000000E+00  0.00000000000E+00  0.20074087911E+04  0.20074087912E+04  0.50400001928E-02 0. -1.
       -1   -1    0    0    0  501  0.00000000000E+00  0.00000000000E+00 -0.12376123982E+04  0.12376123982E+04  0.50400001928E-02 0.  1.
    10030    2    1    2    0    0  0.00000000000E+00  0.00000000000E+00  0.76979639298E+03  0.32450211893E+04  0.31523921128E+04 0.  0.
        4    1    3    3  502    0 -0.11102592399E+04 -0.93482095160E+02  0.15325470062E+04  0.18947602542E+04  0.12699999809E+01 0. -1.
       -4    1    3    3    0  502  0.11102592399E+04  0.93482095160E+02 -0.76275061321E+03  0.13502609351E+04  0.12699999809E+01 0.  1.
</event>
<event>
 5   0  0.3745943E-06  0.3186992E+04  0.7818609E-02  0.8192261E-01
       -2   -1    0    0    0  501  0.00000000000E+00  0.00000000000E+00  0.10223930639E+04  0.10223930640E+04  0.25500000920E-02 0. -1.
        2   -1    0    0  501    0  0.00000000000E+00  0.00000000000E+00 -0.24836131137E+04  0.24836131137E+04  0.25500000920E-02 0.  1.
    10030    2    1    2    0    0  0.00000000000E+00  0.00000000000E+00 -0.14612200498E+04  0.35060061777E+04  0.31869915726E+04 0.  0.
        5    1    3    3  502    0  0.68479279447E+03  0.12424266975E+04  0.67732540758E+02  0.14202728812E+04  0.46999998093E+01 0. -1.
       -5    1    3    3    0  502 -0.68479279447E+03 -0.12424266975E+04 -0.15289525906E+04  0.20857332965E+04  0.46999998093E+01 0.  1.
</event>
<event>
 5   0  0.1273754E-06  0.3235511E+04  0.7818609E-02  0.8179501E-01
        1   -1    0    0  501    0  0.00000000000E+00  0.00000000000E+00  0.22777873503E+04  0.22777873503E+04  0.50400001928E-02 0. -1.
       -1   -1    0    0    0  501  0.00000000000E+00  0.00000000000E+00 -0.11489804828E+04  0.11489804828E+04  0.50400001928E-02 0.  1.
    10030    2    1    2    0    0  0.00000000000E+00  0.00000000000E+00  0.11288068675E+04  0.34267678331E+04  0.32355112174E+04 0.  0.
        2    1    3    3  502    0 -0.41922655141E+03 -0.35818069659E+03 -0.10463828902E+04  0.11827770144E+04  0.25500000920E-02 0.  1.
       -2    1    3    3    0  502  0.41922655141E+03  0.35818069659E+03  0.21751897577E+04  0.22439908188E+04  0.25500000920E-02 0. -1.
</event>
<event>
 5   0  0.1268836E-06  0.3109822E+04  0.7818609E-02  0.8213047E-01
       -1   -1    0    0    0  501  0.00000000000E+00  0.00000000000E+00  0.15847443803E+04  0.15847443803E+04  0.50400001928E-02 0. -1.
        1   -1    0    0  501    0  0.00000000000E+00  0.00000000000E+00 -0.15256394616E+04  0.15256394616E+04  0.50400001928E-02 0.  1.
    10030    2    1    2    0    0  0.00000000000E+00  0.00000000000E+00  0.59104918753E+02  0.31103838419E+04  0.31098222220E+04 0.  0.
        1    1    3    3  502    0  0.12558335150E+04 -0.88173671907E+03  0.28093647413E+03  0.15599688335E+04  0.50400001928E-02 0.  1.
       -1    1    3    3    0  502 -0.12558335150E+04  0.88173671907E+03 -0.22183155538E+03  0.15504150083E+04  0.50400001928E-02 0. -1.
</event>
<event>
 5   0  0.1306843E-06  0.3155189E+04  0.7818609E-02  0.8200753E-01
        1   -1    0    0  501    0  0.00000000000E+00  0.00000000000E+00  0.26469699338E+04  0.26469699338E+04  0.50400001928E-02 0.  1.
       -1   -1    0    0    0  501  0.00000000000E+00  0.00000000000E+00 -0.94024634151E+03  0.94024634153E+03  0.50400001928E-02 0. -1.
    10030    2    1    2    0    0  0.00000000000E+00  0.00000000000E+00  0.17067235923E+04  0.35872162754E+04  0.31551886133E+04 0.  0.
        5    1    3    3  502    0  0.97844762481E+03  0.10431871684E+04  0.96487897005E+02  0.14335031312E+04  0.46999998093E+01 0. -1.
       -5    1    3    3    0  502 -0.97844762481E+03 -0.10431871684E+04  0.16102356953E+04  0.21537131442E+04  0.46999998093E+01 0.  1.
</event>
<event>
 5   0  0.1273980E-06  0.3250210E+04  0.7818609E-02  0.8175681E-01
        1   -1    0    0  501    0  0.00000000000E+00  0.00000000000E+00  0.14109456851E+04  0.14109456851E+04  0.50400001928E-02 0. -1.
       -1   -1    0    0    0  501  0.00000000000E+00  0.00000000000E+00 -0.18717708809E+04  0.18717708809E+04  0.50400001928E-02 0.  1.
    10030    2    1    2    0    0  0.00000000000E+00  0.00000000000E+00 -0.46082519583E+03  0.32827165660E+04  0.32502104842E+04 0.  0.
        4    1    3    3  502    0  0.87487225960E+02  0.11619159902E+04 -0.13745539368E+04  0.18019719534E+04  0.12699999809E+01 0.  1.
       -4    1    3    3    0  502 -0.87487225960E+02 -0.11619159902E+04  0.91372874093E+03  0.14807446126E+04  0.12699999809E+01 0. -1.
</event>
<event>
 5   0  0.3531437E-06  0.3205773E+04  0.7818609E-02  0.8187294E-01
       -2   -1    0    0    0  501  0.00000000000E+00  0.00000000000E+00  0.95200427479E+03  0.95200427479E+03  0.25500000920E-02 0.  1.
        2   -1    0    0  501    0  0.00000000000E+00  0.00000000000E+00 -0.26987747634E+04  0.26987747634E+04  0.25500000920E-02 0. -1.
    10030    2    1    2    0    0  0.00000000000E+00  0.00000000000E+00 -0.17467704886E+04  0.36507790382E+04  0.32057729872E+04 0.  0.
        1    1    3    3  502    0 -0.86376955462E+03 -0.11340314810E+04 -0.38766004887E+02  0.14260533113E+04  0.50400001928E-02 0.  1.
       -1    1    3    3    0  502  0.86376955462E+03  0.11340314810E+04 -0.17080044837E+04  0.22247257269E+04  0.50400001928E-02 0. -1.
</event>
<event>
 5   0  0.1268836E-06  0.2840458E+04  0.7818609E-02  0.8290817E-01
        1   -1    0    0  501    0  0.00000000000E+00  0.00000000000E+00  0.23251170102E+04  0.23251170102E+04  0.50400001928E-02 0. -1.
       -1   -1    0    0    0  501  0.00000000000E+00  0.00000000000E+00 -0.86750514614E+03  0.86750514616E+03  0.50400001928E-02 0.  1.
    10030    2    1    2    0    0  0.00000000000E+00  0.00000000000E+00  0.14576118640E+04  0.31926221563E+04  0.28404583938E+04 0.  0.
        1    1    3    3  502    0 -0.45824895302E+03  0.63061664065E+03 -0.60555518291E+03  0.98710006078E+03  0.50400001928E-02 0.  1.
       -1    1    3    3    0  502  0.45824895302E+03 -0.63061664065E+03  0.20631670470E+04  0.22055220956E+04  0.50400001928E-02 0. -1.
</event>
<event>
 5   0  0.3656086E-06  0.3227747E+04  0.7818609E-02  0.8181527E-01
       -2   -1    0    0    0  501  0.00000000000E+00  0.00000000000E+00  0.97603365503E+03  0.97603365504E+03  0.25500000920E-02 0. -1.
        2   -1    0    0  501    0  0.00000000000E+00  0.00000000000E+00 -0.26685432906E+04  0.26685432906E+04  0.25500000920E-02 0.  1.
    10030    2    1    2    0    0  0.00000000000E+00  0.00000000000E+00 -0.16925096355E+04  0.36445769456E+04  0.32277472401E+04 0.  0.
        3    1    3    3  502    0  0.11592552721E+04 -0.74661801881E+03  0.10065964642E+03  0.13825496832E+04  0.10100000352E+00 0. -1.
       -3    1    3    3    0  502 -0.11592552721E+04  0.74661801881E+03 -0.17931692819E+04  0.22620272624E+04  0.10100000352E+00 0.  1.
</event>
<event>
 5   0  0.3531437E-06  0.3193511E+04  0.7818609E-02  0.8190533E-01
       -2   -1    0    0    0  501  0.00000000000E+00  0.00000000000E+00  0.14845976267E+04  0.14845976267E+04  0.25500000920E-02 0.  1.
        2   -1    0    0  501    0  0.00000000000E+00  0.00000000000E+00 -0.17173861911E+04  0.17173861911E+04  0.25500000920E-02 0. -1.
    10030    2    1    2    0    0  0.00000000000E+00  0.00000000000E+00 -0.23278856440E+03  0.32019838178E+04  0.31935105846E+04 0.  0.
        1    1    3    3  502    0  0.26971127410E+03  0.12830843176E+04  0.79738428046E+03  0.15345589686E+04  0.50400001928E-02 0.  1.
       -1    1    3    3    0  502 -0.26971127410E+03 -0.12830843176E+04 -0.10301728449E+04  0.16674248492E+04  0.50400001928E-02 0. -1.
</event>
<event>
 5   0  0.3531437E-06  0.2393999E+04  0.7818609E-02  0.8441754E-01
       -2   -1    0    0    0  501  0.00000000000E+00  0.00000000000E+00  0.87144434916E+03  0.87144434916E+03  0.25500000920E-02 0.  1.
        2   -1    0    0  501    0  0.00000000000E+00  0.00000000000E+00 -0.16441758824E+04  0.16441758824E+04  0.25500000920E-02 0. -1.
    10030    2    1    2    0    0  0.00000000000E+00  0.00000000000E+00 -0.77273153325E+03  0.25156202316E+04  0.23939989823E+04 0.  0.
        1    1    3    3  502    0  0.65128698532E+03 -0.34730231124E+03 -0.13765843221E+04  0.15619788822E+04  0.50400001928E-02 0. -1.
       -1    1    3    3    0  502 -0.65128698532E+03  0.34730231124E+03  0.60385278882E+03  0.95364134938E+03  0.50400001928E-02 0.  1.
</event>
<event>
 5   0  0.3745943E-06  0.3207504E+04  0.7818609E-02  0.8186838E-01
       -2   -1    0    0    0  501  0.00000000000E+00  0.00000000000E+00  0.15152360221E+04  0.15152360221E+04  0.25500000920E-02 0.  1.
        2   -1    0    0  501    0  0.00000000000E+00  0.00000000000E+00 -0.16974388836E+04  0.16974388836E+04  0.25500000920E-02 0. -1.
    10030    2    1    2    0    0  0.00000000000E+00  0.00000000000E+00 -0.18220286147E+03  0.32126749057E+04  0.32075040400E+04 0.  0.
        5    1    3    3  502    0 -0.12599152024E+04  0.17320336098E+02  0.90262305198E+03  0.15499796048E+04  0.46999998093E+01 0.  1.
       -5    1    3    3    0  502  0.12599152024E+04 -0.17320336098E+02 -0.10848259135E+04  0.16626953009E+04  0.46999998093E+01 0. -1.
</event>
<event>
 5   0  0.1306843E-06  0.3226478E+04  0.7818609E-02  0.8181859E-01
        1   -1    0    0  501    0  0.00000000000E+00  0.00000000000E+00  0.25870693916E+04  0.25870693916E+04  0.50400001928E-02 0.  1.
       -1   -1    0    0    0  501  0.00000000000E+00  0.00000000000E+00 -0.10059801529E+04  0.10059801529E+04  0.50400001928E-02 0. -1.
    10030    2    1    2    0    0  0.00000000000E+00  0.00000000000E+00  0.15810892387E+04  0.35930495445E+04  0.32264782424E+04 0.  0.
        5    1    3    3  502    0  0.12503518710E+04 -0.76993877600E+02  0.19224988665E+04  0.22946310902E+04  0.46999998093E+01 0.  1.
       -5    1    3    3    0  502 -0.12503518710E+04  0.76993877600E+02 -0.34140962782E+03  0.12984184543E+04  0.46999998093E+01 0. -1.
</event>
<event>
 5   0  0.3656086E-06  0.3203323E+04  0.7818609E-02  0.8187940E-01
        2   -1    0    0  501    0  0.00000000000E+00  0.00000000000E+00  0.18448564528E+04  0.18448564528E+04  0.25500000920E-02 0.  1.
       -2   -1    0    0    0  501  0.00000000000E+00  0.00000000000E+00 -0.13905253931E+04  0.13905253931E+04  0.25500000920E-02 0. -1.
    10030    2    1    2    0    0  0.00000000000E+00  0.00000000000E+00  0.45433105970E+03  0.32353818458E+04  0.32033231146E+04 0.  0.
        3    1    3    3  502    0 -0.18952685088E+01  0.15123591187E+04  0.75978175111E+03  0.16924839779E+04  0.10100000352E+00 0.  1.
       -3    1    3    3    0  502  0.18952685088E+01 -0.15123591187E+04 -0.30545069141E+03  0.15428978680E+04  0.10100000352E+00 0. -1.
</event>
<event>
 5   0  0.1273754E-06  0.3212412E+04  0.7818609E-02  0.8185547E-01
        1   -1    0    0  501    0  0.00000000000E+00  0.00000000000E+00  0.13731556793E+04  0.13731556794E+04  0.50400001928E-02 0. -1.
       -1   -1    0    0    0  501  0.00000000000E+00  0.00000000000E+00 -0.18788098266E+04  0.18788098266E+04  0.50400001928E-02 0.  1.
    10030    2    1    2    0    0  0.00000000000E+00  0.00000000000E+00 -0.50565414729E+03  0.32519655060E+04  0.32124124168E+04 0.  0.
        2    1    3    3  502    0  0.81117006030E+03  0.11964093999E+04 -0.96181171189E+03  0.17362240892E+04  0.25500000920E-02 0.  1.
       -2    1    3    3    0  502 -0.81117006030E+03 -0.11964093999E+04  0.45615756460E+03  0.15157414168E+04  0.25500000920E-02 0. -1.
</event>
<event>
 5   0  0.1268836E-06  0.3144931E+04  0.7818609E-02  0.8203514E-01
       -1   -1    0    0    0  501  0.00000000000E+00  0.00000000000E+00  0.10799461868E+04  0.10799461868E+04  0.50400001928E-02 0.  1.
        1   -1    0    0  501    0  0.00000000000E+00  0.00000000000E+00 -0.22896023998E+04  0.22896023998E+04  0.50400001928E-02 0. -1.
    10030    2    1    2    0    0  0.00000000000E+00  0.00000000000E+00 -0.12096562130E+04  0.33695485866E+04  0.31449307662E+04 0.  0.
        1    1    3    3  502    0  0.39452741976E+02 -0.15870145470E+03  0.10708106646E+04  0.10832258075E+04  0.50400001928E-02 0.  1.
       -1    1    3    3    0  502 -0.39452741976E+02  0.15870145470E+03 -0.22804668776E+04  0.22863227791E+04  0.50400001928E-02 0. -1.
</event>
<event>
 5   0  0.1240725E-06  0.2895002E+04  0.7818609E-02  0.8274366E-01
        1   -1    0    0  501    0  0.00000000000E+00  0.00000000000E+00  0.12237794527E+04  0.12237794528E+04  0.50400001928E-02 0.  1.
       -1   -1    0    0    0  501  0.00000000000E+00  0.00000000000E+00 -0.17121210786E+04  0.17121210786E+04  0.50400001928E-02 0. -1.
    10030    2    1    2    0    0  0.00000000000E+00  0.00000000000E+00 -0.48834162582E+03  0.29359005313E+04  0.28950016211E+04 0.  0.
        3    1    3    3  502    0  0.96651739388E+03  0.10084800825E+04 -0.62909948741E+03  0.15319771946E+04  0.10100000352E+00 0. -1.
       -3    1    3    3    0  502 -0.96651739388E+03 -0.10084800825E+04  0.14075786160E+03  0.14039233367E+04  0.10100000352E+00 0.  1.
</event>
<event>
 5   0  0.1240725E-06  0.3242008E+04  0.7818609E-02  0.8177810E-01
        1   -1    0    0  501    0  0.00000000000E+00  0.00000000000E+00  0.21921922087E+04  0.21921922087E+04  0.50400001928E-02 0. -1.
       -1   -1    0    0    0  501  0.00000000000E+00  0.00000000000E+00 -0.11986421158E+04  0.11986421158E+04  0.50400001928E-02 0.  1.
    10030    2    1    2    0    0  0.00000000000E+00  0.00000000000E+00  0.99355009290E+03  0.33908343245E+04  0.32420079625E+04 0.  0.
        3    1    3    3  502    0  0.32078441113E+03 -0.15718467439E+04  0.25361813650E+03  0.16241696322E+04  0.10100000352E+00 0.  1.
       -3    1    3    3    0  502 -0.32078441113E+03  0.15718467439E+04  0.73993195640E+03  0.17666646923E+04  0.10100000352E+00 0. -1.
</event>
<event>
 5   0  0.3758062E-06  0.2786174E+04  0.7818609E-02  0.8307574E-01
       -2   -1    0    0    0  501  0.00000000000E+00  0.00000000000E+00  0.10920836995E+04  0.10920836995E+04  0.25500000920E-02 0.  1.
        2   -1    0    0  501    0  0.00000000000E+00  0.00000000000E+00 -0.17770533791E+04  0.17770533791E+04  0.25500000920E-02 0. -1.
    10030    2    1    2    0    0  0.00000000000E+00  0.00000000000E+00 -0.68496967966E+03  0.28691370786E+04  0.27861737408E+04 0.  0.
        2    1    3    3  502    0 -0.63733965155E+03  0.27451138568E+03 -0.15863992469E+04  0.17315371503E+04  0.25500000920E-02 0. -1.
       -2    1    3    3    0  502  0.63733965155E+03 -0.27451138568E+03  0.90142956722E+03  0.11375999283E+04  0.25500000920E-02 0.  1.
</event>
<event>
 5   0  0.1306843E-06  0.3207777E+04  0.7818609E-02  0.8186766E-01
       -1   -1    0    0    0  501  0.00000000000E+00  0.00000000000E+00  0.97851998089E+03  0.97851998090E+03  0.50400001928E-02 0. -1.
        1   -1    0    0  501    0  0.00000000000E+00  0.00000000000E+00 -0.26289270967E+04  0.26289270967E+04  0.50400001928E-02 0.  1.
    10030    2    1    2    0    0  0.00000000000E+00  0.00000000000E+00 -0.16504071158E+04  0.36074470776E+04  0.32077766085E+04 0.  0.
        5    1    3    3  502    0 -0.79277202081E+03 -0.79294140700E+03 -0.21149087257E+04  0.23937636809E+04  0.46999998093E+01 0.  1.
       -5    1    3    3    0  502  0.79277202081E+03  0.79294140700E+03  0.46450160988E+03  0.12136833967E+04  0.46999998093E+01 0. -1.
</event>
<event>
 5   0  0.3745943E-06  0.3230408E+04  0.7818609E-02  0.8180832E-01
       -2   -1    0    0    0  501  0.00000000000E+00  0.00000000000E+00  0.13954694948E+04  0.13954694948E+04  0.25500000920E-02 0. -1.
        2   -1    0    0  501    0  0.00000000000E+00  0.00000000000E+00 -0.18695385826E+04  0.18695385826E+04  0.25500000920E-02 0.  1.
    10030    2    1    2    0    0  0.00000000000E+00  0.00000000000E+00 -0.47406908776E+03  0.32650080774E+04  0.32304080618E+04 0.  0.
        5    1    3    3  502    0 -0.42275625741E+03 -0.11548702205E+04 -0.12953475646E+04  0.17861678204E+04  0.46999998093E+01 0.  1.
       -5    1    3    3    0  502  0.42275625741E+03  0.11548702205E+04  0.82127847685E+03  0.14788402571E+04  0.46999998093E+01 0. -1.
</event>
<event>
 5   0  0.1273754E-06  0.3086183E+04  0.7818609E-02  0.8219540E-01
       -1   -1    0    0    0  501  0.00000000000E+00  0.00000000000E+00  0.14090868166E+04  0.14090868166E+04  0.50400001928E-02 0. -1.
        1   -1    0    0  501    0  0.00000000000E+00  0.00000000000E+00 -0.16898398351E+04  0.16898398351E+04  0.50400001928E-02 0.  1.
    10030    2    1    2    0    0  0.00000000000E+00  0.00000000000E+00 -0.28075301844E+03  0.30989266517E+04  0.30861827774E+04 0.  0.
        2    1    3    3  502    0 -0.52613584835E+03  0.46089213689E+03 -0.15215163609E+04  0.16745902572E+04  0.25500000920E-02 0.  1.
       -2    1    3    3    0  502  0.52613584835E+03 -0.46089213689E+03  0.12407633425E+04  0.14243363946E+04  0.25500000920E-02 0. -1.
</event>
<event>
 5   0  0.1273754E-06  0.3165414E+04  0.7818609E-02  0.8198011E-01
       -1   -1    0    0    0  501  0.00000000000E+00  0.00000000000E+00  0.15682152262E+04  0.15682152262E+04  0.50400001928E-02 0.  1.
        1   -1    0    0  501    0  0.00000000000E+00  0.00000000000E+00 -0.15973328633E+04  0.15973328633E+04  0.50400001928E-02 0. -1.
    10030    2    1    2    0    0  0.00000000000E+00  0.00000000000E+00 -0.29117637110E+02  0.31655480895E+04  0.31654141704E+04 0.  0.
        2    1    3    3  502    0 -0.97698757784E+03  0.54239870916E+03 -0.11354365684E+04  0.15930842061E+04  0.25500000920E-02 0. -1.
       -2    1    3    3    0  502  0.97698757784E+03 -0.54239870916E+03  0.11063189312E+04  0.15724638834E+04  0.25500000920E-02 0.  1.
</event>
<event>
 5   0  0.1268836E-06  0.3181412E+04  0.7818609E-02  0.8193743E-01
        1   -1    0    0  501    0  0.00000000000E+00  0.00000000000E+00  0.17782925711E+04  0.17782925711E+04  0.50400001928E-02 0.  1.
       -1   -1    0    0    0  501  0.00000000000E+00  0.00000000000E+00 -0.14229077858E+04  0.14229077858E+04  0.50400001928E-02 0. -1.
    10030    2    1    2    0    0  0.00000000000E+00  0.00000000000E+00  0.35538478533E+03  0.32012003569E+04  0.31814124818E+04 0.  0.
        1    1    3    3  502    0 -0.13894015899E+04 -0.69649001596E+03  0.51863796149E+03  0.16384506265E+04  0.50400001928E-02 0. -1.
       -1    1    3    3    0  502  0.13894015899E+04  0.69649001596E+03 -0.16325317616E+03  0.15627497304E+04  0.50400001928E-02 0.  1.
</event>
<event>
 5   0  0.1273754E-06  0.3174679E+04  0.7818609E-02  0.8195536E-01
       -1   -1    0    0    0  501  0.00000000000E+00  0.00000000000E+00  0.16321189523E+04  0.16321189523E+04  0.50400001928E-02 0.  1.
        1   -1    0    0  501    0  0.00000000000E+00  0.00000000000E+00 -0.15437889706E+04  0.15437889706E+04  0.50400001928E-02 0. -1.
    10030    2    1    2    0    0  0.00000000000E+00  0.00000000000E+00  0.88329981742E+02  0.31759079229E+04  0.31746793458E+04 0.  0.
        2    1    3    3  502    0  0.70528866690E+03  0.73123179087E+03 -0.11759443234E+04  0.15540196547E+04  0.25500000920E-02 0. -1.
       -2    1    3    3    0  502 -0.70528866690E+03 -0.73123179087E+03  0.12642743051E+04  0.16218882681E+04  0.25500000920E-02 0.  1.
</event>
<event>
 5   0  0.3531437E-06  0.2628126E+04  0.7818609E-02  0.8358710E-01
        2   -1    0    0  501    0  0.00000000000E+00  0.00000000000E+00  0.20038733982E+04  0.20038733982E+04  0.25500000920E-02 0. -1.
       -2   -1    0    0    0  501  0.00000000000E+00  0.00000000000E+00 -0.86171175044E+03  0.86171175044E+03  0.25500000920E-02 0.  1.
    10030    2    1    2    0    0  0.00000000000E+00  0.00000000000E+00  0.11421616477E+04  0.28655851486E+04  0.26281257608E+04 0.  0.
        1    1    3    3  502    0 -0.11374753328E+04  0.52643690824E+03  0.10014255411E+04  0.16043188790E+04  0.50400001928E-02 0. -1.
       -1    1    3    3    0  502  0.11374753328E+04 -0.52643690824E+03  0.14073610667E+03  0.12612662696E+04  0.50400001928E-02 0.  1.
</event>
<event>
 5   0  0.3531437E-06  0.3185658E+04  0.7818609E-02  0.8192615E-01
       -2   -1    0    0    0  501  0.00000000000E+00  0.00000000000E+00  0.12461711150E+04  0.12461711150E+04  0.25500000920E-02 0. -1.
        2   -1    0    0  501    0  0.00000000000E+00  0.00000000000E+00 -0.20359191918E+04  0.20359191918E+04  0.25500000920E-02 0.  1.
    10030    2    1    2    0    0  0.00000000000E+00  0.00000000000E+00 -0.78974807681E+03  0.32820903068E+04  0.31856576647E+04 0.  0.
        1    1    3    3  502    0  0.62957286277E+03  0.12200240707E+04  0.43721431111E+03  0.14408251374E+04  0.50400001928E-02 0. -1.
       -1    1    3    3    0  502 -0.62957286277E+03 -0.12200240707E+04 -0.12269623879E+04  0.18412651694E+04  0.50400001928E-02 0.  1.
</event>
<event>
 5   0  0.1185575E-06  0.3127264E+04  0.7818609E-02  0.8208295E-01
       -3   -1    0    0    0  501  0.00000000000E+00  0.00000000000E+00  0.11111876092E+04  0.11111876137E+04  0.10100000352E+00 0.  1.
        3   -1    0    0  501    0  0.00000000000E+00  0.00000000000E+00 -0.22002992909E+04  0.22002992932E+04  0.10100000352E+00 0. -1.
    10030    2    1    2    0    0  0.00000000000E+00  0.00000000000E+00 -0.10891116818E+04  0.33114869070E+04  0.31272641845E+04 0.  0.
        5    1    3    3  502    0  0.86484706295E+03  0.12861510859E+04 -0.32554299829E+03  0.15837125344E+04  0.46999998093E+01 0. -1.
       -5    1    3    3    0  502 -0.86484706295E+03 -0.12861510859E+04 -0.76356868348E+03  0.17277743725E+04  0.46999998093E+01 0.  1.
</event>
<event>
 5   0  0.1273980E-06  0.3253163E+04  0.7818609E-02  0.8174916E-01
        1   -1    0    0  501    0  0.00000000000E+00  0.00000000000E+00  0.14904562484E+04  0.14904562484E+04  0.50400001928E-02 0. -1.
       -1   -1    0    0    0  501  0.00000000000E+00  0.00000000000E+00 -0.17751395064E+04  0.17751395064E+04  0.50400001928E-02 0.  1.
    10030    2    1    2    0    0  0.00000000000E+00  0.00000000000E+00 -0.28468325806E+03  0.32655957548E+04  0.32531632416E+04 0.  0.
        4    1    3    3  502    0 -0.15672097900E+04 -0.39137700494E+03 -0.33397344755E+03  0.16495036715E+04  0.12699999809E+01 0.  1.
       -4    1    3    3    0  502  0.15672097900E+04  0.39137700494E+03  0.49290189490E+02  0.16160920833E+04  0.12699999809E+01 0. -1.
</event>
<event>
 5   0  0.3745943E-06  0.3301206E+04  0.7818609E-02  0.8162589E-01
       -2   -1    0    0    0  501  0.00000000000E+00  0.00000000000E+00  0.23405067587E+04  0.23405067587E+04  0.25500000920E-02 0. -1.
        2   -1    0    0  501    0  0.00000000000E+00  0.00000000000E+00 -0.11640599246E+04  0.11640599246E+04  0.25500000920E-02 0.  1.
    10030    2    1    2    0    0  0.00000000000E+00  0.00000000000E+00  0.11764468341E+04  0.35045666833E+04  0.33012059136E+04 0.  0.
        5    1    3    3  502    0  0.14981284612E+04  0.68666358282E+03  0.48993335529E+03  0.17192883832E+04  0.46999998093E+01 0. -1.
       -5    1    3    3    0  502 -0.14981284612E+04 -0.68666358282E+03  0.68651347876E+03  0.17852783000E+04  0.46999998093E+01 0.  1.
</event>
<event>
 5   0  0.1306843E-06  0.3199578E+04  0.7818609E-02  0.8188929E-01
       -1   -1    0    0    0  501  0.00000000000E+00  0.00000000000E+00  0.21873138530E+04  0.21873138530E+04  0.50400001928E-02 0.  1.
        1   -1    0    0  501    0  0.00000000000E+00  0.00000000000E+00 -0.11700765921E+04  0.11700765921E+04  0.50400001928E-02 0. -1.
    10030    2    1    2    0    0  0.00000000000E+00  0.00000000000E+00  0.10172372609E+04  0.33573904452E+04  0.31995779341E+04 0.  0.
        5    1    3    3  502    0  0.11039425012E+04  0.11286275905E+04  0.77985057027E+03  0.17608742959E+04  0.46999998093E+01 0.  1.
       -5    1    3    3    0  502 -0.11039425012E+04 -0.11286275905E+04  0.23738669064E+03  0.15965161493E+04  0.46999998093E+01 0. -1.
</event>
<event>
 5   0  0.1273754E-06  0.3190204E+04  0.7818609E-02  0.8191409E-01
       -1   -1    0    0    0  501  0.00000000000E+00  0.00000000000E+00  0.13841408831E+04  0.13841408831E+04  0.50400001928E-02 0. -1.
        1   -1    0    0  501    0  0.00000000000E+00  0.00000000000E+00 -0.18382158429E+04  0.18382158429E+04  0.50400001928E-02 0.  1.
    10030    2    1    2    0    0  0.00000000000E+00  0.00000000000E+00 -0.45407495975E+03  0.32223567260E+04  0.31902035673E+04 0.  0.
        2    1    3    3  502    0  0.40181587861E+03 -0.60198666154E+03 -0.16628087759E+04  0.18134985432E+04  0.25500000920E-02 0.  1.
       -2    1    3    3    0  502 -0.40181587861E+03  0.60198666154E+03  0.12087338162E+04  0.14088581828E+04  0.25500000920E-02 0. -1.
</event>
<event>
 5   0  0.3745943E-06  0.2842136E+04  0.7818609E-02  0.8290305E-01
       -2   -1    0    0    0  501  0.00000000000E+00  0.00000000000E+00  0.87353085816E+03  0.87353085816E+03  0.25500000920E-02 0. -1.
        2   -1    0    0  501    0  0.00000000000E+00  0.00000000000E+00 -0.23118060417E+04  0.23118060417E+04  0.25500000920E-02 0.  1.
    10030    2    1    2    0    0  0.00000000000E+00  0.00000000000E+00 -0.14382751836E+04  0.31853368999E+04  0.28421357572E+04 0.  0.
        5    1    3    3  502    0 -0.26441522341E+03  0.65662946204E+03 -0.21001393652E+04  0.22162321864E+04  0.46999998093E+01 0.  1.
       -5    1    3    3    0  502  0.26441522341E+03 -0.65662946204E+03  0.66186418163E+03  0.96910471349E+03  0.46999998093E+01 0. -1.
</event>
<event>
 5   0  0.3531437E-06  0.3196310E+04  0.7818609E-02  0.8189792E-01
        2   -1    0    0  501    0  0.00000000000E+00  0.00000000000E+00  0.16985340081E+04  0.16985340081E+04  0.25500000920E-02 0.  1.
       -2   -1    0    0    0  501  0.00000000000E+00  0.00000000000E+00 -0.15037084588E+04  0.15037084588E+04  0.25500000920E-02 0. -1.
    10030    2    1    2    0    0  0.00000000000E+00  0.00000000000E+00  0.19482554930E+03  0.32022424669E+04  0.31963103451E+04 0.  0.
        1    1    3    3  502    0  0.74176769332E+03 -0.46219715096E+03  0.14378999142E+04  0.16826769388E+04  0.50400001928E-02 0.  1.
       -1    1    3    3    0  502 -0.74176769332E+03  0.46219715096E+03 -0.12430743649E+04  0.15195655280E+04  0.50400001928E-02 0. -1.
</event>
<event>
 5   0  0.1273754E-06  0.3248452E+04  0.7818609E-02  0.8176137E-01
       -1   -1    0    0    0  501  0.00000000000E+00  0.00000000000E+00  0.10994524160E+04  0.10994524160E+04  0.50400001928E-02 0.  1.
        1   -1    0    0  501    0  0.00000000000E+00  0.00000000000E+00 -0.23994770104E+04  0.23994770104E+04  0.50400001928E-02 0. -1.
    10030    2    1    2    0    0  0.00000000000E+00  0.00000000000E+00 -0.13000245943E+04  0.34989294264E+04  0.32484524292E+04 0.  0.
        2    1    3    3  502    0 -0.12632637343E+04 -0.52319921509E+03  0.29424723365E+03  0.13986257954E+04  0.25500000920E-02 0.  1.
       -2    1    3    3    0  502  0.12632637343E+04  0.52319921509E+03 -0.15942718280E+04  0.21003036310E+04  0.25500000920E-02 0. -1.
</event>
<event>
 5   0  0.1306843E-06  0.3222125E+04  0.7818609E-02  0.8182998E-01
       -1   -1    0    0    0  501  0.00000000000E+00  0.00000000000E+00  0.19421501347E+04  0.19421501347E+04  0.50400001928E-02 0. -1.
        1   -1    0    0  501    0  0.00000000000E+00  0.00000000000E+00 -0.13364170925E+04  0.13364170925E+04  0.50400001928E-02 0.  1.
    10030    2    1    2    0    0  0.00000000000E+00  0.00000000000E+00  0.60573304215E+03  0.32785672272E+04  0.32221251597E+04 0.  0.
        5    1    3    3  502    0 -0.62293484676E+03 -0.95429751186E+03  0.14615718229E+04  0.18533606902E+04  0.46999998093E+01 0. -1.
       -5    1    3    3    0  502  0.62293484676E+03  0.95429751186E+03 -0.85583878076E+03  0.14252065370E+04  0.46999998093E+01 0.  1.
</event>
<event>
 5   0  0.1240725E-06  0.3167388E+04  0.7818609E-02  0.8197483E-01
        1   -1    0    0  501    0  0.00000000000E+00  0.00000000000E+00  0.23060975131E+04  0.23060975131E+04  0.50400001928E-02 0. -1.
       -1   -1    0    0    0  501  0.00000000000E+00  0.00000000000E+00 -0.10875889985E+04  0.10875889985E+04  0.50400001928E-02 0.  1.
    10030    2    1    2    0    0  0.00000000000E+00  0.00000000000E+00  0.12185085146E+04  0.33936865117E+04  0.31673877469E+04 0.  0.
        3    1    3    3  502    0  0.67498450966E+02 -0.65568541630E+03  0.21521397709E+04  0.22508187420E+04  0.10100000352E+00 0. -1.
       -3    1    3    3    0  502 -0.67498450966E+02  0.65568541630E+03 -0.93363125625E+03  0.11428677696E+04  0.10100000352E+00 0.  1.
</event>
<event>
 5   0  0.1240725E-06  0.3173260E+04  0.7818609E-02  0.8195915E-01
       -1   -1    0    0    0  501  0.00000000000E+00  0.00000000000E+00  0.19547669814E+04  0.19547669814E+04  0.50400001928E-02 0. -1.
        1   -1    0    0  501    0  0.00000000000E+00  0.00000000000E+00 -0.12878233435E+04  0.12878233435E+04  0.50400001928E-02 0.  1.
    10030    2    1    2    0    0  0.00000000000E+00  0.00000000000E+00  0.66694363792E+03  0.32425903248E+04  0.31732598694E+04 0.  0.
        3    1    3    3  502    0  0.12823441991E+03  0.81045622801E+03  0.17211219881E+04  0.19067103272E+04  0.10100000352E+00 0. -1.
       -3    1    3    3    0  502 -0.12823441991E+03 -0.81045622801E+03 -0.10541783501E+04  0.13358799976E+04  0.10100000352E+00 0.  1.
</event>
<event>
 5   0  0.1306843E-06  0.3241982E+04  0.7818609E-02  0.8177817E-01
        1   -1    0    0  501    0  0.00000000000E+00  0.00000000000E+00  0.14466859215E+04  0.14466859215E+04  0.50400001928E-02 0. -1.
       -1   -1    0    0    0  501  0.00000000000E+00  0.00000000000E+00 -0.18162969587E+04  0.18162969588E+04  0.50400001928E-02 0.  1.
    10030    2    1    2    0    0  0.00000000000E+00  0.00000000000E+00 -0.36961103722E+03  0.32629828803E+04  0.32419816406E+04 0.  0.
        5    1    3    3  502    0 -0.15642380188E+04 -0.42345604467E+03 -0.22291301282E+03  0.16358080274E+04  0.46999998093E+01 0.  1.
       -5    1    3    3    0  502  0.15642380188E+04  0.42345604467E+03 -0.14669802440E+03  0.16271748528E+04  0.46999998093E+01 0. -1.
</event>
<event>
 5   0  0.1273980E-06  0.3246863E+04  0.7818609E-02  0.8176549E-01
       -1   -1    0    0    0  501  0.00000000000E+00  0.00000000000E+00  0.10416681607E+04  0.10416681607E+04  0.50400001928E-02 0.  1.
        1   -1    0    0  501    0  0.00000000000E+00  0.00000000000E+00 -0.25301056328E+04  0.25301056329E+04  0.50400001928E-02 0. -1.
    10030    2    1    2    0    0  0.00000000000E+00  0.00000000000E+00 -0.14884374721E+04  0.35717737936E+04  0.32468633978E+04 0.  0.
        4    1    3    3  502    0 -0.11206459453E+04 -0.96205069656E+03 -0.28832275052E+01  0.14769559246E+04  0.12699999809E+01 0.  1.
       -4    1    3    3    0  502  0.11206459453E+04  0.96205069656E+03 -0.14855542446E+04  0.20948178689E+04  0.12699999809E+01 0. -1.
</event>
<event>
 5   0  0.1306843E-06  0.2284658E+04  0.7818609E-02  0.8483995E-01
        1   -1    0    0  501    0  0.00000000000E+00  0.00000000000E+00  0.20081406823E+04  0.20081406823E+04  0.50400001928E-02 0.  1.
       -1   -1    0    0    0  501  0.00000000000E+00  0.00000000000E+00 -0.64981275277E+03  0.64981275279E+03  0.50400001928E-02 0. -1.
    10030    2    1    2    0    0  0.00000000000E+00  0.00000000000E+00  0.13583279295E+04  0.26579534351E+04  0.22846578954E+04 0.  0.
        5    1    3    3  502    0 -0.18422665028E+03  0.10532606601E+04  0.21149203637E+03  0.10899763522E+04  0.46999998093E+01 0. -1.
       -5    1    3    3    0  502  0.18422665028E+03 -0.10532606601E+04  0.11468358932E+04  0.15679770830E+04  0.46999998093E+01 0.  1.
</event>
<event>
 5   0  0.3497546E-06  0.3161556E+04  0.7818609E-02  0.8199045E-01
       -2   -1    0    0    0  501  0.00000000000E+00  0.00000000000E+00  0.11775282312E+04  0.11775282312E+04  0.25500000920E-02 0.  1.
        2   -1    0    0  501    0  0.00000000000E+00  0.00000000000E+00 -0.21221223883E+04  0.21221223883E+04  0.25500000920E-02 0. -1.
    10030    2    1    2    0    0  0.00000000000E+00  0.00000000000E+00 -0.94459415708E+03  0.32996506195E+04  0.31615559601E+04 0.  0.
        4    1    3    3  502    0 -0.84505021993E+03  0.31243196173E+02 -0.18662133318E+04  0.20488630565E+04  0.12699999809E+01 0. -1.
       -4    1    3    3    0  502  0.84505021993E+03 -0.31243196173E+02  0.92161917474E+03  0.12507875630E+04  0.12699999809E+01 0.  1.
</event>
<event>
 5   0  0.1306843E-06  0.3273545E+04  0.7818609E-02  0.8169660E-01
       -1   -1    0    0    0  501  0.00000000000E+00  0.00000000000E+00  0.19805762697E+04  0.19805762697E+04  0.50400001928E-02 0. -1.
        1   -1    0    0  501    0  0.00000000000E+00  0.00000000000E+00 -0.13526484927E+04  0.13526484927E+04  0.50400001928E-02 0.  1.
    10030    2    1    2    0    0  0.00000000000E+00  0.00000000000E+00  0.62792777700E+03  0.33332247624E+04  0.32735445657E+04 0.  0.
        5    1    3    3  502    0  0.12672596097E+04  0.54384024159E+03  0.12116789704E+04  0.18357279602E+04  0.46999998093E+01 0. -1.
       -5    1    3    3    0  502 -0.12672596097E+04 -0.54384024159E+03 -0.58375119338E+03  0.14974968022E+04  0.46999998093E+01 0.  1.
</event>
<event>
 5   0  0.3656086E-06  0.3200359E+04  0.7818609E-02  0.8188722E-01
       -2   -1    0    0    0  501  0.00000000000E+00  0.00000000000E+00  0.19802294010E+04  0.19802294010E+04  0.25500000920E-02 0. -1.
        2   -1    0    0  501    0  0.00000000000E+00  0.00000000000E+00 -0.12930694349E+04  0.12930694349E+04  0.25500000920E-02 0.  1.
    10030    2    1    2    0    0  0.00000000000E+00  0.00000000000E+00  0.68715996610E+03  0.32732988359E+04  0.32003588002E+04 0.  0.
        3    1    3    3  502    0  0.15218926744E+04 -0.48200893790E+03  0.23114655222E+03  0.16130463935E+04  0.10100000352E+00 0. -1.
       -3    1    3    3    0  502 -0.15218926744E+04  0.48200893790E+03  0.45601341388E+03  0.16602524424E+04  0.10100000352E+00 0.  1.
</event>
<event>
 5   0  0.3656086E-06  0.3152904E+04  0.7818609E-02  0.8201367E-01
        2   -1    0    0  501    0  0.00000000000E+00  0.00000000000E+00  0.24939147875E+04  0.24939147875E+04  0.25500000920E-02 0. -1.
       -2   -1    0    0    0  501  0.00000000000E+00  0.00000000000E+00 -0.99650622963E+03  0.99650622963E+03  0.25500000920E-02 0.  1.
    10030    2    1    2    0    0  0.00000000000E+00  0.00000000000E+00  0.14974085579E+04  0.34904210172E+04  0.31529044527E+04 0.  0.
        3    1    3    3  502    0 -0.96864417784E+03 -0.16411751650E+03  0.21135644409E+04  0.23307425337E+04  0.10100000352E+00 0. -1.
       -3    1    3    3    0  502  0.96864417784E+03  0.16411751650E+03 -0.61615588302E+03  0.11596784834E+04  0.10100000352E+00 0.  1.
</event>
<event>
 5   0  0.1273754E-06  0.3161958E+04  0.7818609E-02  0.8198937E-01
        1   -1    0    0  501    0  0.00000000000E+00  0.00000000000E+00  0.14387892910E+04  0.14387892910E+04  0.50400001928E-02 0. -1.
       -1   -1    0    0    0  501  0.00000000000E+00  0.00000000000E+00 -0.17372207773E+04  0.17372207773E+04  0.50400001928E-02 0.  1.
    10030    2    1    2    0    0  0.00000000000E+00  0.00000000000E+00 -0.29843148636E+03  0.31760100683E+04  0.31619580329E+04 0.  0.
        2    1    3    3  502    0  0.50542591681E+03 -0.13055641875E+04  0.58858344766E+03  0.15186782674E+04  0.25500000920E-02 0. -1.
       -2    1    3    3    0  502 -0.50542591681E+03  0.13055641875E+04 -0.88701493402E+03  0.16573318009E+04  0.25500000920E-02 0.  1.
</event>
<event>
 5   0  0.3745943E-06  0.3200774E+04  0.7818609E-02  0.8188613E-01
        2   -1    0    0  501    0  0.00000000000E+00  0.00000000000E+00  0.13346517865E+04  0.13346517865E+04  0.25500000920E-02 0. -1.
       -2   -1    0    0    0  501  0.00000000000E+00  0.00000000000E+00 -0.19190309359E+04  0.19190309359E+04  0.25500000920E-02 0.  1.
    10030    2    1    2    0    0  0.00000000000E+00  0.00000000000E+00 -0.58437914945E+03  0.32536827224E+04  0.32007736983E+04 0.  0.
        5    1    3    3  502    0  0.15392878934E+04 -0.11325845659E+03 -0.72224460974E+03  0.17040815893E+04  0.46999998093E+01 0. -1.
       -5    1    3    3    0  502 -0.15392878934E+04  0.11325845659E+03  0.13786546029E+03  0.15496011331E+04  0.46999998093E+01 0.  1.
</event>
<event>
 5   0  0.1306843E-06  0.3151350E+04  0.7818609E-02  0.8201785E-01
        1   -1    0    0  501    0  0.00000000000E+00  0.00000000000E+00  0.17054500630E+04  0.17054500630E+04  0.50400001928E-02 0. -1.
       -1   -1    0    0    0  501  0.00000000000E+00  0.00000000000E+00 -0.14557753966E+04  0.14557753966E+04  0.50400001928E-02 0.  1.
    10030    2    1    2    0    0  0.00000000000E+00  0.00000000000E+00  0.24967466643E+03  0.31612254596E+04  0.31513503403E+04 0.  0.
        5    1    3    3  502    0 -0.16359735359E+03 -0.85911484595E+03  0.14396266724E+04  0.16844552409E+04  0.46999998093E+01 0. -1.
       -5    1    3    3    0  502  0.16359735359E+03  0.85911484595E+03 -0.11899520059E+04  0.14767702188E+04  0.46999998093E+01 0.  1.
</event>
<event>
 5   0  0.1273754E-06  0.3224254E+04  0.7818609E-02  0.8182441E-01
        1   -1    0    0  501    0  0.00000000000E+00  0.00000000000E+00  0.25526167277E+04  0.25526167277E+04  0.50400001928E-02 0. -1.
       -1   -1    0    0    0  501  0.00000000000E+00  0.00000000000E+00 -0.10181525058E+04  0.10181525058E+04  0.50400001928E-02 0.  1.
    10030    2    1    2    0    0  0.00000000000E+00  0.00000000000E+00  0.15344642219E+04  0.35707692336E+04  0.32242537852E+04 0.  0.
        2    1    3    3  502    0  0.12640817103E+04 -0.17179715007E+03  0.18588284710E+04  0.22544755744E+04  0.25500000920E-02 0.  1.
       -2    1    3    3    0  502 -0.12640817103E+04  0.17179715007E+03 -0.32436424908E+03  0.13162936592E+04  0.25500000920E-02 0. -1.
</event>
<event>
 5   0  0.3745943E-06  0.3198579E+04  0.7818609E-02  0.8189193E-01
       -2   -1    0    0    0  501  0.00000000000E+00  0.00000000000E+00  0.11207076195E+04  0.11207076195E+04  0.25500000920E-02 0.  1.
        2   -1    0    0  501    0  0.00000000000E+00  0.00000000000E+00 -0.22822429996E+04  0.22822429996E+04  0.25500000920E-02 0. -1.
    10030    2    1    2    0    0  0.00000000000E+00  0.00000000000E+00 -0.11615353800E+04  0.34029506191E+04  0.31985791341E+04 0.  0.
        5    1    3    3  502    0  0.43043740912E+03 -0.15353722845E+04 -0.45020475992E+03  0.16569100250E+04  0.46999998093E+01 0. -1.
       -5    1    3    3    0  502 -0.43043740912E+03  0.15353722845E+04 -0.71133062012E+03  0.17460405941E+04  0.46999998093E+01 0.  1.
</event>
<event>
 5   0  0.3531437E-06  0.3144805E+04  0.7818609E-02  0.8203548E-01
        2   -1    0    0  501    0  0.00000000000E+00  0.00000000000E+00  0.11511910757E+04  0.11511910757E+04  0.25500000920E-02 0.  1.
       -2   -1    0    0    0  501  0.00000000000E+00  0.00000000000E+00 -0.21477320618E+04  0.21477320619E+04  0.25500000920E-02 0. -1.
    10030    2    1    2    0    0  0.00000000000E+00  0.00000000000E+00 -0.99654098615E+03  0.32989231375E+04  0.31448052293E+04 0.  0.
        1    1    3    3  502    0 -0.93397466399E+03  0.17834453880E+03 -0.18119753237E+04  0.20463064339E+04  0.50400001928E-02 0. -1.
       -1    1    3    3    0  502  0.93397466399E+03 -0.17834453880E+03  0.81543433755E+03  0.12526167037E+04  0.50400001928E-02 0.  1.
</event>
<event>
 5   0  0.1273754E-06  0.3218865E+04  0.7818609E-02  0.8183853E-01
       -1   -1    0    0    0  501  0.00000000000E+00  0.00000000000E+00  0.12706478494E+04  0.12706478494E+04  0.50400001928E-02 0.  1.
        1   -1    0    0  501    0  0.00000000000E+00  0.00000000000E+00 -0.20385447534E+04  0.20385447534E+04  0.50400001928E-02 0. -1.
    10030    2    1    2    0    0  0.00000000000E+00  0.00000000000E+00 -0.76789690401E+03  0.33091926028E+04  0.32188647109E+04 0.  0.
        2    1    3    3  502    0  0.10012537442E+04 -0.12559860443E+04 -0.27980164294E+03  0.16304290734E+04  0.25500000920E-02 0.  1.
       -2    1    3    3    0  502 -0.10012537442E+04  0.12559860443E+04 -0.48809526107E+03  0.16787635294E+04  0.25500000920E-02 0. -1.
</event>
<event>
 5   0  0.3531437E-06  0.3167244E+04  0.7818609E-02  0.8197522E-01
       -2   -1    0    0    0  501  0.00000000000E+00  0.00000000000E+00  0.15203295743E+04  0.15203295743E+04  0.25500000920E-02 0.  1.
        2   -1    0    0  501    0  0.00000000000E+00  0.00000000000E+00 -0.16495491446E+04  0.16495491446E+04  0.25500000920E-02 0. -1.
    10030    2    1    2    0    0  0.00000000000E+00  0.00000000000E+00 -0.12921957032E+03  0.31698787190E+04  0.31672438169E+04 0.  0.
        1    1    3    3  502    0  0.55993470399E+03 -0.10223750487E+04 -0.11374534010E+04  0.16286736482E+04  0.50400001928E-02 0. -1.
       -1    1    3    3    0  502 -0.55993470399E+03  0.10223750487E+04  0.10082338306E+04  0.15412050708E+04  0.50400001928E-02 0.  1.
</event>
<event>
 5   0  0.1273980E-06  0.3191142E+04  0.7818609E-02  0.8191161E-01
       -1   -1    0    0    0  501  0.00000000000E+00  0.00000000000E+00  0.17902951070E+04  0.17902951070E+04  0.50400001928E-02 0. -1.
        1   -1    0    0  501    0  0.00000000000E+00  0.00000000000E+00 -0.14220259452E+04  0.14220259452E+04  0.50400001928E-02 0.  1.
    10030    2    1    2    0    0  0.00000000000E+00  0.00000000000E+00  0.36826916185E+03  0.32123210522E+04  0.31911415460E+04 0.  0.
        4    1    3    3  502    0  0.11889249076E+04 -0.10640944501E+04  0.18639539286E+03  0.16064197117E+04  0.12699999809E+01 0. -1.
       -4    1    3    3    0  502 -0.11889249076E+04  0.10640944501E+04  0.18187376899E+03  0.16059013405E+04  0.12699999809E+01 0.  1.
</event>
<event>
 5   0  0.3656086E-06  0.3171003E+04  0.7818609E-02  0.8196517E-01
        2   -1    0    0  501    0  0.00000000000E+00  0.00000000000E+00  0.11719121340E+04  0.11719121340E+04  0.25500000920E-02 0. -1.
       -2   -1    0    0    0  501  0.00000000000E+00  0.00000000000E+00 -0.21450546508E+04  0.21450546508E+04  0.25500000920E-02 0.  1.
    10030    2    1    2    0    0  0.00000000000E+00  0.00000000000E+00 -0.97314251673E+03  0.33169667848E+04  0.31710033576E+04 0.  0.
        3    1    3    3  502    0  0.39714401615E+03 -0.14792542221E+04 -0.91518753255E+03  0.17842322307E+04  0.10100000352E+00 0.  1.
       -3    1    3    3    0  502 -0.39714401615E+03  0.14792542221E+04 -0.57954984179E+02  0.15327345541E+04  0.10100000352E+00 0. -1.
</event>
<event>
 5   0  0.1273980E-06  0.3211237E+04  0.7818609E-02  0.8185856E-01
        1   -1    0    0  501    0  0.00000000000E+00  0.00000000000E+00  0.14315730711E+04  0.14315730711E+04  0.50400001928E-02 0. -1.
       -1   -1    0    0    0  501  0.00000000000E+00  0.00000000000E+00 -0.18008238970E+04  0.18008238970E+04  0.50400001928E-02 0.  1.
    10030    2    1    2    0    0  0.00000000000E+00  0.00000000000E+00 -0.36925082581E+03  0.32323969681E+04  0.32112371428E+04 0.  0.
        4    1    3    3  502    0 -0.14549684529E+04  0.14463071389E+03  0.48319037484E+03  0.15399109694E+04  0.12699999809E+01 0. -1.
       -4    1    3    3    0  502  0.14549684529E+04 -0.14463071389E+03 -0.85244120065E+03  0.16924859987E+04  0.12699999809E+01 0.  1.
</event>
<event>
 5   0  0.3656086E-06  0.3172544E+04  0.7818609E-02  0.8196106E-01
        2   -1    0    0  501    0  0.00000000000E+00  0.00000000000E+00  0.10814260817E+04  0.10814260817E+04  0.25500000920E-02 0.  1.
       -2   -1    0    0    0  501  0.00000000000E+00  0.00000000000E+00 -0.23267966749E+04  0.23267966749E+04  0.25500000920E-02 0. -1.
    10030    2    1    2    0    0  0.00000000000E+00  0.00000000000E+00 -0.12453705932E+04  0.34082227566E+04  0.31725438443E+04 0.  0.
        3    1    3    3  502    0  0.11801604067E+04  0.10073006658E+04 -0.97707854814E+03  0.18336072961E+04  0.10100000352E+00 0. -1.
       -3    1    3    3    0  502 -0.11801604067E+04 -0.10073006658E+04 -0.26829204508E+03  0.15746154605E+04  0.10100000352E+00 0.  1.
</event>
<event>
 5   0  0.3497546E-06  0.3189140E+04  0.7818609E-02  0.8191691E-01
       -2   -1    0    0    0  501  0.00000000000E+00  0.00000000000E+00  0.16501152094E+04  0.16501152094E+04  0.25500000920E-02 0. -1.
        2   -1    0    0  501    0  0.00000000000E+00  0.00000000000E+00 -0.15408945738E+04  0.15408945738E+04  0.25500000920E-02 0.  1.
    10030    2    1    2    0    0  0.00000000000E+00  0.00000000000E+00  0.10922063559E+03  0.31910097832E+04  0.31891400549E+04 0.  0.
        4    1    3    3  502    0  0.11592043232E+04  0.42148485893E+03  0.10657708566E+04  0.16301144993E+04  0.12699999809E+01 0. -1.
       -4    1    3    3    0  502 -0.11592043232E+04 -0.42148485893E+03 -0.95655022096E+03  0.15608952839E+04  0.12699999809E+01 0.  1.
</event>
<event>
 5   0  0.3758062E-06  0.3055001E+04  0.7818609E-02  0.8228197E-01
        2   -1    0    0  501    0  0.00000000000E+00  0.00000000000E+00  0.15106563662E+04  0.15106563662E+04  0.25500000920E-02 0.  1.
       -2   -1    0    0    0  501  0.00000000000E+00  0.00000000000E+00 -0.15445322441E+04  0.15445322441E+04  0.25500000920E-02 0. -1.
    10030    2    1    2    0    0  0.00000000000E+00  0.00000000000E+00 -0.33875877946E+02  0.30551886103E+04  0.30550007970E+04 0.  0.
        2    1    3    3  502    0  0.92305107214E+03 -0.21975782895E+02 -0.12338739774E+04  0.15410876707E+04  0.25500000920E-02 0. -1.
       -2    1    3    3    0  502 -0.92305107214E+03  0.21975782895E+02  0.11999980994E+04  0.15141009396E+04  0.25500000920E-02 0.  1.
</event>
<event>
 5   0  0.3758062E-06  0.3191643E+04  0.7818609E-02  0.8191028E-01
       -2   -1    0    0    0  501  0.00000000000E+00  0.00000000000E+00  0.11958573933E+04  0.11958573934E+04  0.25500000920E-02 0. -1.
        2   -1    0    0  501    0  0.00000000000E+00  0.00000000000E+00 -0.21295568592E+04  0.21295568593E+04  0.25500000920E-02 0.  1.
    10030    2    1    2    0    0  0.00000000000E+00  0.00000000000E+00 -0.93369946590E+03  0.33254142526E+04  0.31916430344E+04 0.  0.
        2    1    3    3  502    0  0.32786457646E+03 -0.13160267371E+04 -0.13430636978E+04  0.19087277568E+04  0.25500000920E-02 0.  1.
       -2    1    3    3    0  502 -0.32786457646E+03  0.13160267371E+04  0.40936423185E+03  0.14166864958E+04  0.25500000920E-02 0. -1.
</event>
<event>
 5   0  0.1273980E-06  0.3209097E+04  0.7818609E-02  0.8186419E-01
       -1   -1    0    0    0  501  0.00000000000E+00  0.00000000000E+00  0.14960853518E+04  0.14960853518E+04  0.50400001928E-02 0.  1.
        1   -1    0    0  501    0  0.00000000000E+00  0.00000000000E+00 -0.17208754717E+04  0.17208754717E+04  0.50400001928E-02 0. -1.
    10030    2    1    2    0    0  0.00000000000E+00  0.00000000000E+00 -0.22479011988E+03  0.32169608236E+04  0.32090974342E+04 0.  0.
        4    1    3    3  502    0 -0.29757377241E+02  0.51793799775E+01  0.14957998319E+04  0.14961053030E+04  0.12699999809E+01 0.  1.
       -4    1    3    3    0  502  0.29757377241E+02 -0.51793799775E+01 -0.17205899518E+04  0.17208555206E+04  0.12699999809E+01 0. -1.
</event>
<event>
 5   0  0.3758062E-06  0.3088993E+04  0.7818609E-02  0.8218765E-01
        2   -1    0    0  501    0  0.00000000000E+00  0.00000000000E+00  0.23337448070E+04  0.23337448070E+04  0.25500000920E-02 0.  1.
       -2   -1    0    0    0  501  0.00000000000E+00  0.00000000000E+00 -0.10221638295E+04  0.10221638295E+04  0.25500000920E-02 0. -1.
    10030    2    1    2    0    0  0.00000000000E+00  0.00000000000E+00  0.13115809775E+04  0.33559086364E+04  0.30889930585E+04 0.  0.
        2    1    3    3  502    0 -0.86884593488E+03 -0.63959499201E+03  0.18565027825E+04  0.21472255572E+04  0.25500000920E-02 0.  1.
       -2    1    3    3    0  502  0.86884593488E+03  0.63959499201E+03 -0.54492180499E+03  0.12086830792E+04  0.25500000920E-02 0. -1.
</event>
<event>
 5   0  0.3745943E-06  0.3147852E+04  0.7818609E-02  0.8202727E-01
       -2   -1    0    0    0  501  0.00000000000E+00  0.00000000000E+00  0.13158894001E+04  0.13158894002E+04  0.25500000920E-02 0.  1.
        2   -1    0    0  501    0  0.00000000000E+00  0.00000000000E+00 -0.18825617605E+04  0.18825617605E+04  0.25500000920E-02 0. -1.
    10030    2    1    2    0    0  0.00000000000E+00  0.00000000000E+00 -0.56667236039E+03  0.31984511607E+04  0.31478520078E+04 0.  0.
        5    1    3    3  502    0 -0.99429853769E+02  0.15706883204E+04 -0.30012079251E+03  0.16021993246E+04  0.46999998093E+01 0. -1.
       -5    1    3    3    0  502  0.99429853769E+02 -0.15706883204E+04 -0.26655156788E+03  0.15962518361E+04  0.46999998093E+01 0.  1.
</event>
<event>
 5   0  0.3745943E-06  0.3144371E+04  0.7818609E-02  0.8203665E-01
       -2   -1    0    0    0  501  0.00000000000E+00  0.00000000000E+00  0.11725246664E+04  0.11725246664E+04  0.25500000920E-02 0. -1.
        2   -1    0    0  501    0  0.00000000000E+00  0.00000000000E+00 -0.21080728241E+04  0.21080728241E+04  0.25500000920E-02 0.  1.
    10030    2    1    2    0    0  0.00000000000E+00  0.00000000000E+00 -0.93554815770E+03  0.32805974906E+04  0.31443710881E+04 0.  0.
        5    1    3    3  502    0  0.19263735470E+03 -0.99458872990E+03  0.78657263513E+03  0.12825889803E+04  0.46999998093E+01 0. -1.
       -5    1    3    3    0  502 -0.19263735470E+03  0.99458872990E+03 -0.17221207928E+04  0.19980085103E+04  0.46999998093E+01 0.  1.
</event>
<event>
 5   0  0.3656086E-06  0.3147997E+04  0.7818609E-02  0.8202688E-01
        2   -1    0    0  501    0  0.00000000000E+00  0.00000000000E+00  0.17368549474E+04  0.17368549474E+04  0.25500000920E-02 0. -1.
       -2   -1    0    0    0  501  0.00000000000E+00  0.00000000000E+00 -0.14264127580E+04  0.14264127580E+04  0.25500000920E-02 0.  1.
    10030    2    1    2    0    0  0.00000000000E+00  0.00000000000E+00  0.31044218940E+03  0.31632677053E+04  0.31479974941E+04 0.  0.
        3    1    3    3  502    0 -0.11920213447E+04  0.81156967670E+03  0.78908349242E+03  0.16438409274E+04  0.10100000352E+00 0. -1.
       -3    1    3    3    0  502  0.11920213447E+04 -0.81156967670E+03 -0.47864130302E+03  0.15194267779E+04  0.10100000352E+00 0.  1.
</event>
<event>
 5   0  0.1306843E-06  0.2823614E+04  0.7818609E-02  0.8295974E-01
        1   -1    0    0  501    0  0.00000000000E+00  0.00000000000E+00  0.21550200926E+04  0.21550200926E+04  0.50400001928E-02 0. -1.
       -1   -1    0    0    0  501  0.00000000000E+00  0.00000000000E+00 -0.92490986223E+03  0.92490986224E+03  0.50400001928E-02 0.  1.
    10030    2    1    2    0    0  0.00000000000E+00  0.00000000000E+00  0.12301102304E+04  0.30799299549E+04  0.28236142350E+04 0.  0.
        5    1    3    3  502    0 -0.10924775280E+04  0.83207583359E+03  0.25772006552E+03  0.13972469589E+04  0.46999998093E+01 0.  1.
       -5    1    3    3    0  502  0.10924775280E+04 -0.83207583359E+03  0.97239016488E+03  0.16826829959E+04  0.46999998093E+01 0. -1.
</event>
<event>
 5   0  0.1268836E-06  0.3193997E+04  0.7818609E-02  0.8190404E-01
        1   -1    0    0  501    0  0.00000000000E+00  0.00000000000E+00  0.17885128317E+04  0.17885128317E+04  0.50400001928E-02 0. -1.
       -1   -1    0    0    0  501  0.00000000000E+00  0.00000000000E+00 -0.14259915524E+04  0.14259915524E+04  0.50400001928E-02 0.  1.
    10030    2    1    2    0    0  0.00000000000E+00  0.00000000000E+00  0.36252127929E+03  0.32145043840E+04  0.31939969876E+04 0.  0.
        1    1    3    3  502    0  0.17438992388E+03 -0.15827051180E+04  0.30467281326E+03  0.16211702129E+04  0.50400001928E-02 0.  1.
       -1    1    3    3    0  502 -0.17438992388E+03  0.15827051180E+04  0.57848466039E+02  0.15933341712E+04  0.50400001928E-02 0. -1.
</event>
<event>
 5   0  0.3656086E-06  0.3244964E+04  0.7818609E-02  0.8177042E-01
        2   -1    0    0  501    0  0.00000000000E+00  0.00000000000E+00  0.12324937410E+04  0.12324937410E+04  0.25500000920E-02 0. -1.
       -2   -1    0    0    0  501  0.00000000000E+00  0.00000000000E+00 -0.21358715457E+04  0.21358715457E+04  0.25500000920E-02 0.  1.
    10030    2    1    2    0    0  0.00000000000E+00  0.00000000000E+00 -0.90337780472E+03  0.33683652867E+04  0.32449642904E+04 0.  0.
        3    1    3    3  502    0  0.56078373260E+03  0.99700744856E+03 -0.16460740820E+04  0.20045104492E+04  0.10100000352E+00 0.  1.
       -3    1    3    3    0  502 -0.56078373260E+03 -0.99700744856E+03  0.74269627727E+03  0.13638548375E+04  0.10100000352E+00 0. -1.
</event>
<event>
 5   0  0.1273754E-06  0.2566046E+04  0.7818609E-02  0.8379827E-01
       -1   -1    0    0    0  501  0.00000000000E+00  0.00000000000E+00  0.13932805142E+04  0.13932805143E+04  0.50400001928E-02 0.  1.
        1   -1    0    0  501    0  0.00000000000E+00  0.00000000000E+00 -0.11814903277E+04  0.11814903277E+04  0.50400001928E-02 0. -1.
    10030    2    1    2    0    0  0.00000000000E+00  0.00000000000E+00  0.21179018659E+03  0.25747708419E+04  0.25660455579E+04 0.  0.
        2    1    3    3  502    0  0.35654535104E+03 -0.12289067284E+04  0.11708367851E+02  0.12796380037E+04  0.25500000920E-02 0.  1.
       -2    1    3    3    0  502 -0.35654535104E+03  0.12289067284E+04  0.20008181874E+03  0.12951328383E+04  0.25500000920E-02 0. -1.
</event>
<event>
 5   0  0.3497546E-06  0.3201257E+04  0.7818609E-02  0.8188485E-01
       -2   -1    0    0    0  501  0.00000000000E+00  0.00000000000E+00  0.19506999753E+04  0.19506999753E+04  0.25500000920E-02 0. -1.
        2   -1    0    0  501    0  0.00000000000E+00  0.00000000000E+00 -0.13133807473E+04  0.13133807473E+04  0.25500000920E-02 0.  1.
    10030    2    1    2    0    0  0.00000000000E+00  0.00000000000E+00  0.63731922800E+03  0.32640807226E+04  0.32012571227E+04 0.  0.
        4    1    3    3  502    0 -0.12052910360E+04 -0.27961770387E+03  0.13540168630E+04  0.18341962327E+04  0.12699999809E+01 0. -1.
       -4    1    3    3    0  502  0.12052910360E+04  0.27961770387E+03 -0.71669763501E+03  0.14298844900E+04  0.12699999809E+01 0.  1.
</event>
<event>
 5   0  0.1273980E-06  0.3177898E+04  0.7818609E-02  0.8194679E-01
        1   -1    0    0  501    0  0.00000000000E+00  0.00000000000E+00  0.78086309497E+03  0.78086309498E+03  0.50400001928E-02 0. -1.
       -1   -1    0    0    0  501  0.00000000000E+00  0.00000000000E+00 -0.32332922420E+04  0.32332922420E+04  0.50400001928E-02 0.  1.
    10030    2    1    2    0    0  0.00000000000E+00  0.00000000000E+00 -0.24524291471E+04  0.40141553370E+04  0.31778977876E+04 0.  0.
        4    1    3    3  502    0  0.15279948592E+04 -0.75157012086E+02 -0.17685452474E+04  0.23384120191E+04  0.12699999809E+01 0.  1.
       -4    1    3    3    0  502 -0.15279948592E+04  0.75157012086E+02 -0.68388389971E+03  0.16757433179E+04  0.12699999809E+01 0. -1.
</event>
<event>
 5   0  0.3497546E-06  0.3250000E+04  0.7818609E-02  0.8175736E-01
        2   -1    0    0  501    0  0.00000000000E+00  0.00000000000E+00  0.20268617722E+04  0.20268617722E+04  0.25500000920E-02 0.  1.
       -2   -1    0    0    0  501  0.00000000000E+00  0.00000000000E+00 -0.13028145594E+04  0.13028145594E+04  0.25500000920E-02 0. -1.
    10030    2    1    2    0    0  0.00000000000E+00  0.00000000000E+00  0.72404721282E+03  0.33296763316E+04  0.32500000164E+04 0.  0.
        4    1    3    3  502    0  0.86079041587E+03 -0.75700541572E+03  0.15420443630E+04  0.19214369024E+04  0.12699999809E+01 0.  1.
       -4    1    3    3    0  502 -0.86079041587E+03  0.75700541572E+03 -0.81799715014E+03  0.14082394292E+04  0.12699999809E+01 0. -1.
</event>
<event>
 5   0  0.3531437E-06  0.3332918E+04  0.7818609E-02  0.8154570E-01
        2   -1    0    0  501    0  0.00000000000E+00  0.00000000000E+00  0.17413686903E+04  0.17413686903E+04  0.25500000920E-02 0. -1.
       -2   -1    0    0    0  501  0.00000000000E+00  0.00000000000E+00 -0.15947716658E+04  0.15947716658E+04  0.25500000920E-02 0.  1.
    10030    2    1    2    0    0  0.00000000000E+00  0.00000000000E+00  0.14659702451E+03  0.33361403560E+04  0.33329179089E+04 0.  0.
        1    1    3    3  502    0 -0.13830759689E+04  0.83613497309E+03  0.47997277902E+03  0.16859403007E+04  0.50400001928E-02 0. -1.
       -1    1    3    3    0  502  0.13830759689E+04 -0.83613497309E+03 -0.33337575451E+03  0.16502000553E+04  0.50400001928E-02 0.  1.
</event>
<event>
 5   0  0.3758062E-06  0.2792954E+04  0.7818609E-02  0.8305459E-01
        2   -1    0    0  501    0  0.00000000000E+00  0.00000000000E+00  0.78618813109E+03  0.78618813110E+03  0.25500000920E-02 0.  1.
       -2   -1    0    0    0  501  0.00000000000E+00  0.00000000000E+00 -0.24805098040E+04  0.24805098040E+04  0.25500000920E-02 0. -1.
    10030    2    1    2    0    0  0.00000000000E+00  0.00000000000E+00 -0.16943216729E+04  0.32666979351E+04  0.27929535384E+04 0.  0.
        2    1    3    3  502    0 -0.12071939690E+04 -0.31806090776E+03 -0.11517285567E+03  0.12536924689E+04  0.25500000920E-02 0. -1.
       -2    1    3    3    0  502  0.12071939690E+04  0.31806090776E+03 -0.15791488172E+04  0.20130054662E+04  0.25500000920E-02 0.  1.
</event>
<event>
 5   0  0.1240725E-06  0.3179441E+04  0.7818609E-02  0.8194268E-01
        1   -1    0    0  501    0  0.00000000000E+00  0.00000000000E+00  0.20959238672E+04  0.20959238672E+04  0.50400001928E-02 0.  1.
       -1   -1    0    0    0  501  0.00000000000E+00  0.00000000000E+00 -0.12057740500E+04  0.12057740500E+04  0.50400001928E-02 0. -1.
    10030    2    1    2    0    0  0.00000000000E+00  0.00000000000E+00  0.89014981713E+03  0.33016979172E+04  0.31794405860E+04 0.  0.
        3    1    3    3  502    0  0.20743265249E+03 -0.22536535553E+03  0.20649917739E+04  0.20875844619E+04  0.10100000352E+00 0.  1.
       -3    1    3    3    0  502 -0.20743265249E+03  0.22536535553E+03 -0.11748419568E+04  0.12141134554E+04  0.10100000352E+00 0. -1.
</event>
<event>
 5   0  0.1268836E-06  0.3396292E+04  0.7818609E-02  0.8138817E-01
       -1   -1    0    0    0  501  0.00000000000E+00  0.00000000000E+00  0.14374223626E+04  0.14374223626E+04  0.50400001928E-02 0.  1.
        1   -1    0    0  501    0  0.00000000000E+00  0.00000000000E+00 -0.20061604850E+04  0.20061604850E+04  0.50400001928E-02 0. -1.
    10030    2    1    2    0    0  0.00000000000E+00  0.00000000000E+00 -0.56873812235E+03  0.34435828476E+04  0.33962920629E+04 0.  0.
        1    1    3    3  502    0 -0.37960997450E+03  0.13531051897E+03 -0.19569714056E+04  0.19980364741E+04  0.50400001928E-02 0. -1.
       -1    1    3    3    0  502  0.37960997450E+03 -0.13531051897E+03  0.13882332833E+04  0.14455463735E+04  0.50400001928E-02 0.  1.
</event>
<event>
 5   0  0.1273754E-06  0.3214586E+04  0.7818609E-02  0.8184976E-01
       -1   -1    0    0    0  501  0.00000000000E+00  0.00000000000E+00  0.21664692724E+04  0.21664692724E+04  0.50400001928E-02 0.  1.
        1   -1    0    0  501    0  0.00000000000E+00  0.00000000000E+00 -0.11924431405E+04  0.11924431405E+04  0.50400001928E-02 0. -1.
    10030    2    1    2    0    0  0.00000000000E+00  0.00000000000E+00  0.97402613188E+03  0.33589124130E+04  0.32145863952E+04 0.  0.
        2    1    3    3  502    0  0.16807846182E+03 -0.64827901349E+03  0.20137346336E+04  0.21221788858E+04  0.25500000920E-02 0.  1.
       -2    1    3    3    0  502 -0.16807846182E+03  0.64827901349E+03 -0.10397085017E+04  0.12367335272E+04  0.25500000920E-02 0. -1.
</event>
<event>
 5   0  0.3758062E-06  0.3054049E+04  0.7818609E-02  0.8228463E-01
       -2   -1    0    0    0  501  0.00000000000E+00  0.00000000000E+00  0.12827854149E+04  0.12827854149E+04  0.25500000920E-02 0.  1.
        2   -1    0    0  501    0  0.00000000000E+00  0.00000000000E+00 -0.18177663926E+04  0.18177663926E+04  0.25500000920E-02 0. -1.
    10030    2    1    2    0    0  0.00000000000E+00  0.00000000000E+00 -0.53498097761E+03  0.31005518075E+04  0.30540492571E+04 0.  0.
        2    1    3    3  502    0 -0.10867728087E+04 -0.10704997498E+04 -0.19745189459E+03  0.15381911789E+04  0.25500000920E-02 0.  1.
       -2    1    3    3    0  502  0.10867728087E+04  0.10704997498E+04 -0.33752908301E+03  0.15623606286E+04  0.25500000920E-02 0. -1.
</event>
<event>
 5   0  0.3745943E-06  0.3151997E+04  0.7818609E-02  0.8201611E-01
        2   -1    0    0  501    0  0.00000000000E+00  0.00000000000E+00  0.18026348041E+04  0.18026348041E+04  0.25500000920E-02 0. -1.
       -2   -1    0    0    0  501  0.00000000000E+00  0.00000000000E+00 -0.13778558832E+04  0.13778558832E+04  0.25500000920E-02 0.  1.
    10030    2    1    2    0    0  0.00000000000E+00  0.00000000000E+00  0.42477892092E+03  0.31804906873E+04  0.31519968084E+04 0.  0.
        5    1    3    3  502    0  0.11357201831E+04  0.98660748980E+03 -0.26142351643E+03  0.15269639872E+04  0.46999998093E+01 0. -1.
       -5    1    3    3    0  502 -0.11357201831E+04 -0.98660748980E+03  0.68620243735E+03  0.16535267002E+04  0.46999998093E+01 0.  1.
</event>
<event>
 5   0  0.1268836E-06  0.3176702E+04  0.7818609E-02  0.8194997E-01
        1   -1    0    0  501    0  0.00000000000E+00  0.00000000000E+00  0.11222952773E+04  0.11222952774E+04  0.50400001928E-02 0. -1.
       -1   -1    0    0    0  501  0.00000000000E+00  0.00000000000E+00 -0.22479463756E+04  0.22479463756E+04  0.50400001928E-02 0.  1.
    10030    2    1    2    0    0  0.00000000000E+00  0.00000000000E+00 -0.11256510982E+04  0.33702416530E+04  0.31767024419E+04 0.  0.
        1    1    3    3  502    0 -0.16511763982E+03 -0.13462362480E+04 -0.14397705014E+04  0.19780179390E+04  0.50400001928E-02 0.  1.
       -1    1    3    3    0  502  0.16511763982E+03  0.13462362480E+04  0.31411940312E+03  0.13922237140E+04  0.50400001928E-02 0. -1.
</event>
<event>
 5   0  0.3531437E-06  0.3268816E+04  0.7818609E-02  0.8170876E-01
        2   -1    0    0  501    0  0.00000000000E+00  0.00000000000E+00  0.13837414862E+04  0.13837414862E+04  0.25500000920E-02 0. -1.
       -2   -1    0    0    0  501  0.00000000000E+00  0.00000000000E+00 -0.19304829073E+04  0.19304829073E+04  0.25500000920E-02 0.  1.
    10030    2    1    2    0    0  0.00000000000E+00  0.00000000000E+00 -0.54674142112E+03  0.33142243935E+04  0.32688158634E+04 0.  0.
        1    1    3    3  502    0 -0.23962865809E+03 -0.27371259098E+03 -0.18889133504E+04  0.19236252550E+04  0.50400001928E-02 0.  1.
       -1    1    3    3    0  502  0.23962865809E+03  0.27371259098E+03  0.13421719293E+04  0.13905991385E+04  0.50400001928E-02 0. -1.
</event>
<event>
 5   0  0.1268836E-06  0.2525711E+04  0.7818609E-02  0.8393883E-01
       -1   -1    0    0    0  501  0.00000000000E+00  0.00000000000E+00  0.56670253323E+03  0.56670253325E+03  0.50400001928E-02 0.  1.
        1   -1    0    0  501    0  0.00000000000E+00  0.00000000000E+00 -0.28141825646E+04  0.28141825646E+04  0.50400001928E-02 0. -1.
    10030    2    1    2    0    0  0.00000000000E+00  0.00000000000E+00 -0.22474800313E+04  0.33808850978E+04  0.25257112965E+04 0.  0.
        1    1    3    3  502    0  0.11611192580E+04  0.81716841557E+02 -0.46806609673E+03  0.12545762011E+04  0.50400001928E-02 0.  1.
       -1    1    3    3    0  502 -0.11611192580E+04 -0.81716841557E+02 -0.17794139346E+04  0.21263088967E+04  0.50400001928E-02 0. -1.
</event>
<event>
 5   0  0.3745943E-06  0.3113205E+04  0.7818609E-02  0.8212123E-01
       -2   -1    0    0    0  501  0.00000000000E+00  0.00000000000E+00  0.11581296771E+04  0.11581296771E+04  0.25500000920E-02 0.  1.
        2   -1    0    0  501    0  0.00000000000E+00  0.00000000000E+00 -0.20921757251E+04  0.20921757251E+04  0.25500000920E-02 0. -1.
    10030    2    1    2    0    0  0.00000000000E+00  0.00000000000E+00 -0.93404604802E+03  0.32503054022E+04  0.31132046492E+04 0.  0.
        5    1    3    3  502    0  0.81143891196E+03 -0.56532801630E+03  0.78797888581E+03  0.12645005687E+04  0.46999998093E+01 0.  1.
       -5    1    3    3    0  502 -0.81143891196E+03  0.56532801630E+03 -0.17220249338E+04  0.19858048335E+04  0.46999998093E+01 0. -1.
</event>
<event>
 5   0  0.3531437E-06  0.3206530E+04  0.7818609E-02  0.8187095E-01
        2   -1    0    0  501    0  0.00000000000E+00  0.00000000000E+00  0.23184386383E+04  0.23184386383E+04  0.25500000920E-02 0.  1.
       -2   -1    0    0    0  501  0.00000000000E+00  0.00000000000E+00 -0.11087024992E+04  0.11087024992E+04  0.25500000920E-02 0. -1.
    10030    2    1    2    0    0  0.00000000000E+00  0.00000000000E+00  0.12097361391E+04  0.34271411376E+04  0.32065300327E+04 0.  0.
        1    1    3    3  502    0 -0.12351915577E+04  0.10124482732E+04  0.75491572730E+03  0.17665354357E+04  0.50400001928E-02 0.  1.
       -1    1    3    3    0  502  0.12351915577E+04 -0.10124482732E+04  0.45482041179E+03  0.16606057019E+04  0.50400001928E-02 0. -1.
</event>
<event>
 5   0  0.3745943E-06  0.3192366E+04  0.7818609E-02  0.8190836E-01
       -2   -1    0    0    0  501  0.00000000000E+00  0.00000000000E+00  0.12962467785E+04  0.12962467785E+04  0.25500000920E-02 0. -1.
        2   -1    0    0  501    0  0.00000000000E+00  0.00000000000E+00 -0.19655206636E+04  0.19655206636E+04  0.25500000920E-02 0.  1.
    10030    2    1    2    0    0  0.00000000000E+00  0.00000000000E+00 -0.66927388517E+03  0.32617674421E+04  0.31923657862E+04 0.  0.
        5    1    3    3  502    0 -0.11173670278E+04  0.94370477572E+03  0.31854975265E+03  0.14968579804E+04  0.46999998093E+01 0. -1.
       -5    1    3    3    0  502  0.11173670278E+04 -0.94370477572E+03 -0.98782363782E+03  0.17649094617E+04  0.46999998093E+01 0.  1.
</event>
<event>
 5   0  0.3745943E-06  0.3270703E+04  0.7818609E-02  0.8170390E-01
        2   -1    0    0  501    0  0.00000000000E+00  0.00000000000E+00  0.26368856533E+04  0.26368856533E+04  0.25500000920E-02 0. -1.
       -2   -1    0    0    0  501  0.00000000000E+00  0.00000000000E+00 -0.10142169239E+04  0.10142169239E+04  0.25500000920E-02 0.  1.
    10030    2    1    2    0    0  0.00000000000E+00  0.00000000000E+00  0.16226687294E+04  0.36511025771E+04  0.32707027110E+04 0.  0.
        5    1    3    3  502    0  0.19125194062E+03  0.36908560505E+03  0.25769151711E+04  0.26102328206E+04  0.46999998093E+01 0. -1.
       -5    1    3    3    0  502 -0.19125194062E+03 -0.36908560505E+03 -0.95424644170E+03  0.10408697566E+04  0.46999998093E+01 0.  1.
</event>
<event>
 5   0  0.1273754E-06  0.3134746E+04  0.7818609E-02  0.8206266E-01
       -1   -1    0    0    0  501  0.00000000000E+00  0.00000000000E+00  0.13462841254E+04  0.13462841254E+04  0.50400001928E-02 0. -1.
        1   -1    0    0  501    0  0.00000000000E+00  0.00000000000E+00 -0.18247697885E+04  0.18247697885E+04  0.50400001928E-02 0.  1.
    10030    2    1    2    0    0  0.00000000000E+00  0.00000000000E+00 -0.47848566307E+03  0.31710539140E+04  0.31347463048E+04 0.  0.
        2    1    3    3  502    0  0.93557243062E+03  0.69040455049E+03  0.82397992964E+03  0.14250954848E+04  0.25500000920E-02 0. -1.
       -2    1    3    3    0  502 -0.93557243062E+03 -0.69040455049E+03 -0.13024655927E+04  0.17459584292E+04  0.25500000920E-02 0.  1.
</event>
<event>
 5   0  0.3531437E-06  0.2884295E+04  0.7818609E-02  0.8277566E-01
       -2   -1    0    0    0  501  0.00000000000E+00  0.00000000000E+00  0.11256864883E+04  0.11256864883E+04  0.25500000920E-02 0. -1.
        2   -1    0    0  501    0  0.00000000000E+00  0.00000000000E+00 -0.18475743247E+04  0.18475743247E+04  0.25500000920E-02 0.  1.
    10030    2    1    2    0    0  0.00000000000E+00  0.00000000000E+00 -0.72188783643E+03  0.29732608131E+04  0.28842950290E+04 0.  0.
        1    1    3    3  502    0  0.21014543401E+03  0.38549290528E+02 -0.18311695546E+04  0.18435913563E+04  0.50400001928E-02 0.  1.
       -1    1    3    3    0  502 -0.21014543401E+03 -0.38549290528E+02  0.11092817182E+04  0.11296694568E+04  0.50400001928E-02 0. -1.
</event>
<event>
 5   0  0.1273754E-06  0.3201205E+04  0.7818609E-02  0.8188499E-01
        1   -1    0    0  501    0  0.00000000000E+00  0.00000000000E+00  0.25442338749E+04  0.25442338749E+04  0.50400001928E-02 0. -1.
       -1   -1    0    0    0  501  0.00000000000E+00  0.00000000000E+00 -0.10069548036E+04  0.10069548036E+04  0.50400001928E-02 0.  1.
    10030    2    1    2    0    0  0.00000000000E+00  0.00000000000E+00  0.15372790713E+04  0.35511886785E+04  0.32012050993E+04 0.  0.
        2    1    3    3  502    0 -0.13525075600E+04 -0.70399089924E+03  0.22853356571E+03  0.15417871048E+04  0.25500000920E-02 0. -1.
       -2    1    3    3    0  502  0.13525075600E+04  0.70399089924E+03  0.13087455055E+04  0.20094015737E+04  0.25500000920E-02 0.  1.
</event>
<event>
 5   0  0.3497546E-06  0.3245080E+04  0.7818609E-02  0.8177012E-01
        2   -1    0    0  501    0  0.00000000000E+00  0.00000000000E+00  0.17922467911E+04  0.17922467911E+04  0.25500000920E-02 0.  1.
       -2   -1    0    0    0  501  0.00000000000E+00  0.00000000000E+00 -0.14689027371E+04  0.14689027371E+04  0.25500000920E-02 0. -1.
    10030    2    1    2    0    0  0.00000000000E+00  0.00000000000E+00  0.32334405398E+03  0.32611495282E+04  0.32450801019E+04 0.  0.
        4    1    3    3  502    0 -0.14765860511E+04 -0.58971568989E+03 -0.16329226583E+03  0.15983544470E+04  0.12699999809E+01 0.  1.
       -4    1    3    3    0  502  0.14765860511E+04  0.58971568989E+03  0.48663631981E+03  0.16627950812E+04  0.12699999809E+01 0. -1.
</event>
<event>
 5   0  0.1240725E-06  0.3182449E+04  0.7818609E-02  0.8193468E-01
        1   -1    0    0  501    0  0.00000000000E+00  0.00000000000E+00  0.17293020982E+04  0.17293020982E+04  0.50400001928E-02 0. -1.
       -1   -1    0    0    0  501  0.00000000000E+00  0.00000000000E+00 -0.14641716990E+04  0.14641716990E+04  0.50400001928E-02 0.  1.
    10030    2    1    2    0    0  0.00000000000E+00  0.00000000000E+00  0.26513039919E+03  0.31934737971E+04  0.31824488628E+04 0.  0.
        3    1    3    3  502    0  0.64560963211E+03 -0.73212095454E+03 -0.11284434219E+04  0.14920447231E+04  0.10100000352E+00 0.  1.
       -3    1    3    3    0  502 -0.64560963211E+03  0.73212095454E+03  0.13935738210E+04  0.17014290741E+04  0.10100000352E+00 0. -1.
</event>
<event>
 5   0  0.3656086E-06  0.3100398E+04  0.7818609E-02  0.8215629E-01
        2   -1    0    0  501    0  0.00000000000E+00  0.00000000000E+00  0.29805720959E+04  0.29805720959E+04  0.25500000920E-02 0.  1.
       -2   -1    0    0    0  501  0.00000000000E+00  0.00000000000E+00 -0.80626047128E+03  0.80626047128E+03  0.25500000920E-02 0. -1.
    10030    2    1    2    0    0  0.00000000000E+00  0.00000000000E+00  0.21743116246E+04  0.37868325672E+04  0.31003983375E+04 0.  0.
        3    1    3    3  502    0  0.10537581819E+04  0.99958386146E+02 -0.29616990558E+03  0.10991426695E+04  0.10100000352E+00 0. -1.
       -3    1    3    3    0  502 -0.10537581819E+04 -0.99958386146E+02  0.24704815302E+04  0.26876898977E+04  0.10100000352E+00 0.  1.
</event>
<event>
 5   0  0.1273980E-06  0.3201501E+04  0.7818609E-02  0.8188421E-01
        1   -1    0    0  501    0  0.00000000000E+00  0.00000000000E+00  0.30744969662E+04  0.30744969662E+04  0.50400001928E-02 0.  1.
       -1   -1    0    0    0  501  0.00000000000E+00  0.00000000000E+00 -0.83343771656E+03  0.83343771658E+03  0.50400001928E-02 0. -1.
    10030    2    1    2    0    0  0.00000000000E+00  0.00000000000E+00  0.22410592497E+04  0.39079346828E+04  0.32015007301E+04 0.  0.
        4    1    3    3  502    0 -0.15595670643E+04  0.30039948002E+03  0.13643888215E+04  0.20938117740E+04  0.12699999809E+01 0.  1.
       -4    1    3    3    0  502  0.15595670643E+04 -0.30039948002E+03  0.87667042814E+03  0.18141229088E+04  0.12699999809E+01 0. -1.
</event>
<event>
 5   0  0.3531437E-06  0.2862505E+04  0.7818609E-02  0.8284121E-01
        2   -1    0    0  501    0  0.00000000000E+00  0.00000000000E+00  0.19323583537E+04  0.19323583537E+04  0.25500000920E-02 0.  1.
       -2   -1    0    0    0  501  0.00000000000E+00  0.00000000000E+00 -0.10600953765E+04  0.10600953765E+04  0.25500000920E-02 0. -1.
    10030    2    1    2    0    0  0.00000000000E+00  0.00000000000E+00  0.87226297719E+03  0.29924537301E+04  0.28625053058E+04 0.  0.
        1    1    3    3  502    0 -0.20306598680E+03 -0.14031345808E+03  0.19099408870E+04  0.19258239414E+04  0.50400001928E-02 0.  1.
       -1    1    3    3    0  502  0.20306598680E+03  0.14031345808E+03 -0.10376779098E+04  0.10666297887E+04  0.50400001928E-02 0. -1.
</event>
<event>
 5   0  0.1306843E-06  0.3204636E+04  0.7818609E-02  0.8187594E-01
       -1   -1    0    0    0  501  0.00000000000E+00  0.00000000000E+00  0.17649829458E+04  0.17649829458E+04  0.50400001928E-02 0. -1.
        1   -1    0    0  501    0  0.00000000000E+00  0.00000000000E+00 -0.14546441848E+04  0.14546441848E+04  0.50400001928E-02 0.  1.
    10030    2    1    2    0    0  0.00000000000E+00  0.00000000000E+00  0.31033876095E+03  0.32196271306E+04  0.32046355040E+04 0.  0.
        5    1    3    3  502    0 -0.60758233538E+03 -0.44006688915E+03  0.15776264522E+04  0.17469237173E+04  0.46999998093E+01 0. -1.
       -5    1    3    3    0  502  0.60758233538E+03  0.44006688915E+03 -0.12672876913E+04  0.14727034133E+04  0.46999998093E+01 0.  1.
</event>
<event>
 5   0  0.1273980E-06  0.3285643E+04  0.7818609E-02  0.8166558E-01
        1   -1    0    0  501    0  0.00000000000E+00  0.00000000000E+00  0.19728587406E+04  0.19728587406E+04  0.50400001928E-02 0. -1.
       -1   -1    0    0    0  501  0.00000000000E+00  0.00000000000E+00 -0.13679954972E+04  0.13679954972E+04  0.50400001928E-02 0.  1.
    10030    2    1    2    0    0  0.00000000000E+00  0.00000000000E+00  0.60486324341E+03  0.33408542378E+04  0.32856426304E+04 0.  0.
        4    1    3    3  502    0 -0.10328847428E+03 -0.17465074023E+03  0.19600680102E+04  0.19705429728E+04  0.12699999809E+01 0. -1.
       -4    1    3    3    0  502  0.10328847428E+03  0.17465074023E+03 -0.13552047668E+04  0.13703112650E+04  0.12699999809E+01 0.  1.
</event>
<event>
 5   0  0.3656086E-06  0.3206564E+04  0.7818609E-02  0.8187086E-01
        2   -1    0    0  501    0  0.00000000000E+00  0.00000000000E+00  0.13782069868E+04  0.13782069868E+04  0.25500000920E-02 0.  1.
       -2   -1    0    0    0  501  0.00000000000E+00  0.00000000000E+00 -0.18651137688E+04  0.18651137688E+04  0.25500000920E-02 0. -1.
    10030    2    1    2    0    0  0.00000000000E+00  0.00000000000E+00 -0.48690678200E+03  0.32433207557E+04  0.32065637854E+04 0.  0.
        3    1    3    3  502    0 -0.24097528985E+03 -0.15707875510E+04 -0.45818438999E+03  0.16538970845E+04  0.10100000352E+00 0. -1.
       -3    1    3    3    0  502  0.24097528985E+03  0.15707875510E+04 -0.28722392010E+02  0.15894236712E+04  0.10100000352E+00 0.  1.
</event>
<event>
 5   0  0.1306843E-06  0.3101841E+04  0.7818609E-02  0.8215233E-01
        1   -1    0    0  501    0  0.00000000000E+00  0.00000000000E+00  0.14875410878E+04  0.14875410878E+04  0.50400001928E-02 0.  1.
       -1   -1    0    0    0  501  0.00000000000E+00  0.00000000000E+00 -0.16170005802E+04  0.16170005802E+04  0.50400001928E-02 0. -1.
    10030    2    1    2    0    0  0.00000000000E+00  0.00000000000E+00 -0.12945949244E+03  0.31045416680E+04  0.31018412609E+04 0.  0.
        5    1    3    3  502    0  0.10129114216E+04 -0.11546340317E+04  0.15031403975E+03  0.15433035008E+04  0.46999998093E+01 0.  1.
       -5    1    3    3    0  502 -0.10129114216E+04  0.11546340317E+04 -0.27977353219E+03  0.15612381671E+04  0.46999998093E+01 0. -1.
</event>
<event>
 5   0  0.1240725E-06  0.3221370E+04  0.7818609E-02  0.8183196E-01
       -1   -1    0    0    0  501  0.00000000000E+00  0.00000000000E+00  0.11479797228E+04  0.11479797228E+04  0.50400001928E-02 0.  1.
        1   -1    0    0  501    0  0.00000000000E+00  0.00000000000E+00 -0.22598882501E+04  0.22598882501E+04  0.50400001928E-02 0. -1.
    10030    2    1    2    0    0  0.00000000000E+00  0.00000000000E+00 -0.11119085273E+04  0.34078679729E+04  0.32213698247E+04 0.  0.
        3    1    3    3  502    0  0.69336364206E+03  0.23356591385E+03  0.96204065059E+03  0.12086473430E+04  0.10100000352E+00 0.  1.
       -3    1    3    3    0  502 -0.69336364206E+03 -0.23356591385E+03 -0.20739491779E+04  0.21992206298E+04  0.10100000352E+00 0. -1.
</event>
<event>
 5   0  0.1273754E-06  0.3206237E+04  0.7818609E-02  0.8187172E-01
       -1   -1    0    0    0  501  0.00000000000E+00  0.00000000000E+00  0.14967509699E+04  0.14967509699E+04  0.50400001928E-02 0.  1.
        1   -1    0    0  501    0  0.00000000000E+00  0.00000000000E+00 -0.17170449828E+04  0.17170449828E+04  0.50400001928E-02 0. -1.
    10030    2    1    2    0    0  0.00000000000E+00  0.00000000000E+00 -0.22029401286E+03  0.32137959528E+04  0.32062368867E+04 0.  0.
        2    1    3    3  502    0 -0.69661670685E+03  0.30338827272E+03 -0.15250945059E+04  0.17038874764E+04  0.25500000920E-02 0. -1.
       -2    1    3    3    0  502  0.69661670685E+03 -0.30338827272E+03  0.13048004930E+04  0.15099084763E+04  0.25500000920E-02 0.  1.
</event>
<event>
 5   0  0.3758062E-06  0.3222219E+04  0.7818609E-02  0.8182974E-01
       -2   -1    0    0    0  501  0.00000000000E+00  0.00000000000E+00  0.11502858543E+04  0.11502858543E+04  0.25500000920E-02 0. -1.
        2   -1    0    0  501    0  0.00000000000E+00  0.00000000000E+00 -0.22565471903E+04  0.22565471903E+04  0.25500000920E-02 0.  1.
    10030    2    1    2    0    0  0.00000000000E+00  0.00000000000E+00 -0.11062613360E+04  0.34068330446E+04  0.32222193051E+04 0.  0.
        2    1    3    3  502    0 -0.37484687303E+03  0.82762805683E+03  0.85358532555E+03  0.12466299718E+04  0.25500000920E-02 0. -1.
       -2    1    3    3    0  502  0.37484687303E+03 -0.82762805683E+03 -0.19598466616E+04  0.21602030727E+04  0.25500000920E-02 0.  1.
</event>
<event>
 5   0  0.1273754E-06  0.2723663E+04  0.7818609E-02  0.8327368E-01
        1   -1    0    0  501    0  0.00000000000E+00  0.00000000000E+00  0.12099341365E+04  0.12099341365E+04  0.50400001928E-02 0.  1.
       -1   -1    0    0    0  501  0.00000000000E+00  0.00000000000E+00 -0.15327984981E+04  0.15327984981E+04  0.50400001928E-02 0. -1.
    10030    2    1    2    0    0  0.00000000000E+00  0.00000000000E+00 -0.32286436163E+03  0.27427326346E+04  0.27236631416E+04 0.  0.
        2    1    3    3  502    0  0.21040679136E+03  0.92751702829E+02 -0.15131084380E+04  0.15304806569E+04  0.25500000920E-02 0. -1.
       -2    1    3    3    0  502 -0.21040679136E+03 -0.92751702829E+02  0.11902440763E+04  0.12122519777E+04  0.25500000920E-02 0.  1.
</event>
<event>
 5   0  0.1273754E-06  0.3100541E+04  0.7818609E-02  0.8215589E-01
        1   -1    0    0  501    0  0.00000000000E+00  0.00000000000E+00  0.15177528339E+04  0.15177528340E+04  0.50400001928E-02 0. -1.
       -1   -1    0    0    0  501  0.00000000000E+00  0.00000000000E+00 -0.15834848454E+04  0.15834848454E+04  0.50400001928E-02 0.  1.
    10030    2    1    2    0    0  0.00000000000E+00  0.00000000000E+00 -0.65732011444E+02  0.31012376794E+04  0.31005409926E+04 0.  0.
        2    1    3    3  502    0 -0.13993763811E+04  0.25694954443E+03  0.58295186951E+03  0.15375663259E+04  0.25500000920E-02 0. -1.
       -2    1    3    3    0  502  0.13993763811E+04 -0.25694954443E+03 -0.64868388095E+03  0.15636713535E+04  0.25500000920E-02 0.  1.
</event>
<event>
 5   0  0.1240725E-06  0.3177553E+04  0.7818609E-02  0.8194771E-01
        1   -1    0    0  501    0  0.00000000000E+00  0.00000000000E+00  0.27339090816E+04  0.27339090816E+04  0.50400001928E-02 0.  1.
       -1   -1    0    0    0  501  0.00000000000E+00  0.00000000000E+00 -0.92329738437E+03  0.92329738438E+03  0.50400001928E-02 0. -1.
    10030    2    1    2    0    0  0.00000000000E+00  0.00000000000E+00  0.18106116973E+04  0.36572064660E+04  0.31775532123E+04 0.  0.
        3    1    3    3  502    0 -0.75196341477E+03 -0.29414555434E+03  0.24801495788E+04  0.26082776937E+04  0.10100000352E+00 0.  1.
       -3    1    3    3    0  502  0.75196341477E+03  0.29414555434E+03 -0.66953788153E+03  0.10489287723E+04  0.10100000352E+00 0. -1.
</event>
<event>
 5   0  0.3531437E-06  0.3179588E+04  0.7818609E-02  0.8194229E-01
       -2   -1    0    0    0  501  0.00000000000E+00  0.00000000000E+00  0.17597367916E+04  0.17597367916E+04  0.25500000920E-02 0.  1.
        2   -1    0    0  501    0  0.00000000000E+00  0.00000000000E+00 -0.14362629537E+04  0.14362629537E+04  0.25500000920E-02 0. -1.
    10030    2    1    2    0    0  0.00000000000E+00  0.00000000000E+00  0.32347383790E+03  0.31959997453E+04  0.31795878740E+04 0.  0.
        1    1    3    3  502    0 -0.21416418339E+03 -0.12225065895E+04  0.11603720110E+04  0.16990738250E+04  0.50400001928E-02 0.  1.
       -1    1    3    3    0  502  0.21416418339E+03  0.12225065895E+04 -0.83689817311E+03  0.14969259203E+04  0.50400001928E-02 0. -1.
</event>
<event>
 5   0  0.3497546E-06  0.2571158E+04  0.7818609E-02  0.8378065E-01
       -2   -1    0    0    0  501  0.00000000000E+00  0.00000000000E+00  0.11472007771E+04  0.11472007771E+04  0.25500000920E-02 0.  1.
        2   -1    0    0  501    0  0.00000000000E+00  0.00000000000E+00 -0.14406485019E+04  0.14406485019E+04  0.25500000920E-02 0. -1.
    10030    2    1    2    0    0  0.00000000000E+00  0.00000000000E+00 -0.29344772478E+03  0.25878492790E+04  0.25711577788E+04 0.  0.
        4    1    3    3  502    0 -0.11290059249E+04 -0.39817565799E+03 -0.61828782190E+03  0.13473973715E+04  0.12699999809E+01 0. -1.
       -4    1    3    3    0  502  0.11290059249E+04  0.39817565799E+03  0.32484009712E+03  0.12404519075E+04  0.12699999809E+01 0.  1.
</event>
<event>
 5   0  0.1268836E-06  0.3180764E+04  0.7818609E-02  0.8193916E-01
       -1   -1    0    0    0  501  0.00000000000E+00  0.00000000000E+00  0.10293746910E+04  0.10293746910E+04  0.50400001928E-02 0.  1.
        1   -1    0    0  501    0  0.00000000000E+00  0.00000000000E+00 -0.24571368019E+04  0.24571368019E+04  0.50400001928E-02 0. -1.
    10030    2    1    2    0    0  0.00000000000E+00  0.00000000000E+00 -0.14277621109E+04  0.34865114929E+04  0.31807637046E+04 0.  0.
        1    1    3    3  502    0 -0.10236227358E+04  0.56511529414E+03 -0.18955391663E+04  0.22271568270E+04  0.50400001928E-02 0. -1.
       -1    1    3    3    0  502  0.10236227358E+04 -0.56511529414E+03  0.46777705543E+03  0.12593546659E+04  0.50400001928E-02 0.  1.
</event>
<event>
 5   0  0.3531437E-06  0.3172558E+04  0.7818609E-02  0.8196102E-01
        2   -1    0    0  501    0  0.00000000000E+00  0.00000000000E+00  0.21052347368E+04  0.21052347368E+04  0.25500000920E-02 0.  1.
       -2   -1    0    0    0  501  0.00000000000E+00  0.00000000000E+00 -0.11952498243E+04  0.11952498243E+04  0.25500000920E-02 0. -1.
    10030    2    1    2    0    0  0.00000000000E+00  0.00000000000E+00  0.90998491256E+03  0.33004845611E+04  0.31725582417E+04 0.  0.
        1    1    3    3  502    0 -0.69840169421E+03 -0.14242593541E+04  0.45639397700E+03  0.16506286974E+04  0.50400001928E-02 0. -1.
       -1    1    3    3    0  502  0.69840169421E+03  0.14242593541E+04  0.45359093556E+03  0.16498558637E+04  0.50400001928E-02 0.  1.
</event>
<event>
 5   0  0.3497546E-06  0.3196672E+04  0.7818609E-02  0.8189697E-01
       -2   -1    0    0    0  501  0.00000000000E+00  0.00000000000E+00  0.13630079567E+04  0.13630079567E+04  0.25500000920E-02 0.  1.
        2   -1    0    0  501    0  0.00000000000E+00  0.00000000000E+00 -0.18742941077E+04  0.18742941077E+04  0.25500000920E-02 0. -1.
    10030    2    1    2    0    0  0.00000000000E+00  0.00000000000E+00 -0.51128615103E+03  0.32373020644E+04  0.31966718831E+04 0.  0.
        4    1    3    3  502    0  0.12437523047E+04  0.62343198851E+03  0.54117959546E+03  0.14928041423E+04  0.12699999809E+01 0.  1.
       -4    1    3    3    0  502 -0.12437523047E+04 -0.62343198851E+03 -0.10524657465E+04  0.17444979221E+04  0.12699999809E+01 0. -1.
</event>
<event>
 5   0  0.3745943E-06  0.2792099E+04  0.7818609E-02  0.8305726E-01
       -2   -1    0    0    0  501  0.00000000000E+00  0.00000000000E+00  0.12619130968E+04  0.12619130968E+04  0.25500000920E-02 0.  1.
        2   -1    0    0  501    0  0.00000000000E+00  0.00000000000E+00 -0.15444437126E+04  0.15444437126E+04  0.25500000920E-02 0. -1.
    10030    2    1    2    0    0  0.00000000000E+00  0.00000000000E+00 -0.28253061576E+03  0.28063568094E+04  0.27920986717E+04 0.  0.
        5    1    3    3  502    0  0.65401468056E+03  0.10778446959E+04  0.46133551302E+03  0.13425114288E+04  0.46999998093E+01 0.  1.
       -5    1    3    3    0  502 -0.65401468056E+03 -0.10778446959E+04 -0.74386612878E+03  0.14638453806E+04  0.46999998093E+01 0. -1.
</event>
<event>
 5   0  0.3531437E-06  0.3181862E+04  0.7818609E-02  0.8193624E-01
       -2   -1    0    0    0  501  0.00000000000E+00  0.00000000000E+00  0.17293682813E+04  0.17293682813E+04  0.25500000920E-02 0. -1.
        2   -1    0    0  501    0  0.00000000000E+00  0.00000000000E+00 -0.14635757355E+04  0.14635757355E+04  0.25500000920E-02 0.  1.
    10030    2    1    2    0    0  0.00000000000E+00  0.00000000000E+00  0.26579254585E+03  0.31929440168E+04  0.31818620047E+04 0.  0.
        1    1    3    3  502    0  0.60403801577E+03 -0.66106126087E+03  0.14524657693E+04  0.17063178854E+04  0.50400001928E-02 0. -1.
       -1    1    3    3    0  502 -0.60403801577E+03  0.66106126087E+03 -0.11866732234E+04  0.14866261313E+04  0.50400001928E-02 0.  1.
</event>
<event>
 5   0  0.3745943E-06  0.3035046E+04  0.7818609E-02  0.8233794E-01
        2   -1    0    0  501    0  0.00000000000E+00  0.00000000000E+00  0.11020607504E+04  0.11020607504E+04  0.25500000920E-02 0. -1.
       -2   -1    0    0    0  501  0.00000000000E+00  0.00000000000E+00 -0.20896086415E+04  0.20896086415E+04  0.25500000920E-02 0.  1.
    10030    2    1    2    0    0  0.00000000000E+00  0.00000000000E+00 -0.98754789104E+03  0.31916693919E+04  0.30350457443E+04 0.  0.
        5    1    3    3  502    0  0.88477072641E+02  0.91516125476E+03  0.77579918804E+03  0.12030107168E+04  0.46999998093E+01 0. -1.
       -5    1    3    3    0  502 -0.88477072641E+02 -0.91516125476E+03 -0.17633470791E+04  0.19886586751E+04  0.46999998093E+01 0.  1.
</event>
<event>
 5   0  0.3531437E-06  0.3168721E+04  0.7818609E-02  0.8197127E-01
       -2   -1    0    0    0  501  0.00000000000E+00  0.00000000000E+00  0.10225921755E+04  0.10225921755E+04  0.25500000920E-02 0.  1.
        2   -1    0    0  501    0  0.00000000000E+00  0.00000000000E+00 -0.24547401506E+04  0.24547401506E+04  0.25500000920E-02 0. -1.
    10030    2    1    2    0    0  0.00000000000E+00  0.00000000000E+00 -0.14321479751E+04  0.34773323260E+04  0.31687209223E+04 0.  0.
        1    1    3    3  502    0  0.63040847418E+03  0.88038818900E+02 -0.23082519119E+04  0.23944086048E+04  0.50400001928E-02 0. -1.
       -1    1    3    3    0  502 -0.63040847418E+03 -0.88038818900E+02  0.87610393680E+03  0.10829237213E+04  0.50400001928E-02 0.  1.
</event>
<event>
 5   0  0.1273980E-06  0.3176643E+04  0.7818609E-02  0.8195013E-01
        1   -1    0    0  501    0  0.00000000000E+00  0.00000000000E+00  0.18141952886E+04  0.18141952886E+04  0.50400001928E-02 0.  1.
       -1   -1    0    0    0  501  0.00000000000E+00  0.00000000000E+00 -0.13905697830E+04  0.13905697830E+04  0.50400001928E-02 0. -1.
    10030    2    1    2    0    0  0.00000000000E+00  0.00000000000E+00  0.42362550557E+03  0.32047650717E+04  0.31766429758E+04 0.  0.
        4    1    3    3  502    0 -0.15092853236E+03 -0.82833699662E+03 -0.11468995589E+04  0.14227796080E+04  0.12699999809E+01 0. -1.
       -4    1    3    3    0  502  0.15092853236E+03  0.82833699662E+03  0.15705250644E+04  0.17819854637E+04  0.12699999809E+01 0.  1.
</event>
<event>
 5   0  0.1240725E-06  0.2950612E+04  0.7818609E-02  0.8257976E-01
        1   -1    0    0  501    0  0.00000000000E+00  0.00000000000E+00  0.18067012268E+04  0.18067012268E+04  0.50400001928E-02 0. -1.
       -1   -1    0    0    0  501  0.00000000000E+00  0.00000000000E+00 -0.12046967584E+04  0.12046967584E+04  0.50400001928E-02 0.  1.
    10030    2    1    2    0    0  0.00000000000E+00  0.00000000000E+00  0.60200446841E+03  0.30113979851E+04  0.29506115375E+04 0.  0.
        3    1    3    3  502    0  0.60349531761E+03 -0.12440991017E+04  0.82593066200E+03  0.16106367194E+04  0.10100000352E+00 0. -1.
       -3    1    3    3    0  502 -0.60349531761E+03  0.12440991017E+04 -0.22392619360E+03  0.14007612657E+04  0.10100000352E+00 0.  1.
</event>
<event>
 5   0  0.3531437E-06  0.3204097E+04  0.7818609E-02  0.8187736E-01
        2   -1    0    0  501    0  0.00000000000E+00  0.00000000000E+00  0.26308522120E+04  0.26308522120E+04  0.25500000920E-02 0.  1.
       -2   -1    0    0    0  501  0.00000000000E+00  0.00000000000E+00 -0.97556216863E+03  0.97556216864E+03  0.25500000920E-02 0. -1.
    10030    2    1    2    0    0  0.00000000000E+00  0.00000000000E+00  0.16552900434E+04  0.36064143807E+04  0.32040973077E+04 0.  0.
        1    1    3    3  502    0 -0.19958827194E+03 -0.35151004359E+03 -0.91721958454E+03  0.10023405386E+04  0.50400001928E-02 0. -1.
       -1    1    3    3    0  502  0.19958827194E+03  0.35151004359E+03  0.25725096279E+04  0.26040738421E+04  0.50400001928E-02 0.  1.
</event>
<event>
 5   0  0.1273754E-06  0.2828203E+04  0.7818609E-02  0.8294566E-01
       -1   -1    0    0    0  501  0.00000000000E+00  0.00000000000E+00  0.12610144595E+04  0.12610144596E+04  0.50400001928E-02 0. -1.
        1   -1    0    0  501    0  0.00000000000E+00  0.00000000000E+00 -0.15857729379E+04  0.15857729379E+04  0.50400001928E-02 0.  1.
    10030    2    1    2    0    0  0.00000000000E+00  0.00000000000E+00 -0.32475847835E+03  0.28467873975E+04  0.28282026832E+04 0.  0.
        2    1    3    3  502    0 -0.38034316308E+01  0.55120929021E+03 -0.14731794069E+04  0.15729283877E+04  0.25500000920E-02 0.  1.
       -2    1    3    3    0  502  0.38034316308E+01 -0.55120929021E+03  0.11484209286E+04  0.12738590098E+04  0.25500000920E-02 0. -1.
</event>
<event>
 5   0  0.3758062E-06  0.3194124E+04  0.7818609E-02  0.8190371E-01
        2   -1    0    0  501    0  0.00000000000E+00  0.00000000000E+00  0.23042492448E+04  0.23042492448E+04  0.25500000920E-02 0.  1.
       -2   -1    0    0    0  501  0.00000000000E+00  0.00000000000E+00 -0.11069142981E+04  0.11069142981E+04  0.25500000920E-02 0. -1.
    10030    2    1    2    0    0  0.00000000000E+00  0.00000000000E+00  0.11973349467E+04  0.34111635429E+04  0.31941236266E+04 0.  0.
        2    1    3    3  502    0  0.83591124363E+03  0.24380331798E+03  0.20284518983E+04  0.22074430387E+04  0.25500000920E-02 0.  1.
       -2    1    3    3    0  502 -0.83591124363E+03 -0.24380331798E+03 -0.83111695159E+03  0.12037205042E+04  0.25500000920E-02 0. -1.
</event>
<event>
 5   0  0.1273980E-06  0.3199467E+04  0.7818609E-02  0.8188958E-01
       -1   -1    0    0    0  501  0.00000000000E+00  0.00000000000E+00  0.22341986139E+04  0.22341986139E+04  0.50400001928E-02 0.  1.
        1   -1    0    0  501    0  0.00000000000E+00  0.00000000000E+00 -0.11454432409E+04  0.11454432409E+04  0.50400001928E-02 0. -1.
    10030    2    1    2    0    0  0.00000000000E+00  0.00000000000E+00  0.10887553730E+04  0.33796418548E+04  0.31994672689E+04 0.  0.
        4    1    3    3  502    0 -0.96475529149E+03 -0.12017947279E+04  0.91167614894E+02  0.15438188000E+04  0.12699999809E+01 0. -1.
       -4    1    3    3    0  502  0.96475529149E+03  0.12017947279E+04  0.99758775810E+03  0.18358230548E+04  0.12699999809E+01 0.  1.
</event>
<event>
 5   0  0.3745943E-06  0.3194060E+04  0.7818609E-02  0.8190388E-01
        2   -1    0    0  501    0  0.00000000000E+00  0.00000000000E+00  0.19638130132E+04  0.19638130132E+04  0.25500000920E-02 0. -1.
       -2   -1    0    0    0  501  0.00000000000E+00  0.00000000000E+00 -0.12987515143E+04  0.12987515143E+04  0.25500000920E-02 0.  1.
    10030    2    1    2    0    0  0.00000000000E+00  0.00000000000E+00  0.66506149889E+03  0.32625645275E+04  0.31940601902E+04 0.  0.
        5    1    3    3  502    0  0.61610821690E+03 -0.53574708379E+03 -0.10694476953E+04  0.13454942347E+04  0.46999998093E+01 0.  1.
       -5    1    3    3    0  502 -0.61610821690E+03  0.53574708379E+03  0.17345091942E+04  0.19170702927E+04  0.46999998093E+01 0. -1.
</event>
<event>
 5   0  0.1268836E-06  0.3104707E+04  0.7818609E-02  0.8214447E-01
       -1   -1    0    0    0  501  0.00000000000E+00  0.00000000000E+00  0.13686237337E+04  0.13686237337E+04  0.50400001928E-02 0.  1.
        1   -1    0    0  501    0  0.00000000000E+00  0.00000000000E+00 -0.17607473661E+04  0.17607473661E+04  0.50400001928E-02 0. -1.
    10030    2    1    2    0    0  0.00000000000E+00  0.00000000000E+00 -0.39212363241E+03  0.31293710998E+04  0.31047065139E+04 0.  0.
        1    1    3    3  502    0 -0.33859509452E+03 -0.15145657929E+04 -0.23161890371E+03  0.15691410056E+04  0.50400001928E-02 0.  1.
       -1    1    3    3    0  502  0.33859509452E+03  0.15145657929E+04 -0.16050472870E+03  0.15602300942E+04  0.50400001928E-02 0. -1.
</event>
<event>
 5   0  0.3531437E-06  0.3200045E+04  0.7818609E-02  0.8188805E-01
        2   -1    0    0  501    0  0.00000000000E+00  0.00000000000E+00  0.20559554912E+04  0.20559554912E+04  0.25500000920E-02 0.  1.
       -2   -1    0    0    0  501  0.00000000000E+00  0.00000000000E+00 -0.12451978176E+04  0.12451978176E+04  0.25500000920E-02 0. -1.
    10030    2    1    2    0    0  0.00000000000E+00  0.00000000000E+00  0.81075767362E+03  0.33011533089E+04  0.32000445565E+04 0.  0.
        1    1    3    3  502    0 -0.96000443867E+03 -0.80232898861E+03 -0.62349585983E+03  0.13978867678E+04  0.50400001928E-02 0. -1.
       -1    1    3    3    0  502  0.96000443867E+03  0.80232898861E+03  0.14342535335E+04  0.19032665411E+04  0.50400001928E-02 0.  1.
</event>
<event>
 5   0  0.1273754E-06  0.3217302E+04  0.7818609E-02  0.8184263E-01
       -1   -1    0    0    0  501  0.00000000000E+00  0.00000000000E+00  0.11994332380E+04  0.11994332381E+04  0.50400001928E-02 0. -1.
        1   -1    0    0  501    0  0.00000000000E+00  0.00000000000E+00 -0.21574843989E+04  0.21574843989E+04  0.50400001928E-02 0.  1.
    10030    2    1    2    0    0  0.00000000000E+00  0.00000000000E+00 -0.95805116087E+03  0.33569176370E+04  0.32173022852E+04 0.  0.
        2    1    3    3  502    0  0.12239172543E+04  0.18697291326E+03  0.59259061635E+03  0.13726237482E+04  0.25500000920E-02 0. -1.
       -2    1    3    3    0  502 -0.12239172543E+04 -0.18697291326E+03 -0.15506417772E+04  0.19842938887E+04  0.25500000920E-02 0.  1.
</event>
<event>
 5   0  0.1273754E-06  0.3199026E+04  0.7818609E-02  0.8189074E-01
        1   -1    0    0  501    0  0.00000000000E+00  0.00000000000E+00  0.17599647095E+04  0.17599647095E+04  0.50400001928E-02 0. -1.
       -1   -1    0    0    0  501  0.00000000000E+00  0.00000000000E+00 -0.14536896109E+04  0.14536896109E+04  0.50400001928E-02 0.  1.
    10030    2    1    2    0    0  0.00000000000E+00  0.00000000000E+00  0.30627509865E+03  0.32136543204E+04  0.31990263605E+04 0.  0.
        2    1    3    3  502    0  0.55799576258E+02 -0.79624632295E+03  0.15455928480E+04  0.17395341478E+04  0.25500000920E-02 0. -1.
       -2    1    3    3    0  502 -0.55799576258E+02  0.79624632295E+03 -0.12393177493E+04  0.14741201726E+04  0.25500000920E-02 0.  1.
</event>
<event>
 5   0  0.1240725E-06  0.3191377E+04  0.7818609E-02  0.8191098E-01
       -1   -1    0    0    0  501  0.00000000000E+00  0.00000000000E+00  0.15283373326E+04  0.15283373326E+04  0.50400001928E-02 0.  1.
        1   -1    0    0  501    0  0.00000000000E+00  0.00000000000E+00 -0.16660072809E+04  0.16660072809E+04  0.50400001928E-02 0. -1.
    10030    2    1    2    0    0  0.00000000000E+00  0.00000000000E+00 -0.13766994833E+03  0.31943446135E+04  0.31913765831E+04 0.  0.
        3    1    3    3  502    0  0.11261358384E+04 -0.89372132949E+03 -0.76179478726E+03  0.16270375071E+04  0.10100000352E+00 0. -1.
       -3    1    3    3    0  502 -0.11261358384E+04  0.89372132949E+03  0.62412483893E+03  0.15673071065E+04  0.10100000352E+00 0.  1.
</event>
<event>
 5   0  0.1306843E-06  0.3155604E+04  0.7818609E-02  0.8200641E-01
       -1   -1    0    0    0  501  0.00000000000E+00  0.00000000000E+00  0.23602105086E+04  0.23602105086E+04  0.50400001928E-02 0. -1.
        1   -1    0    0  501    0  0.00000000000E+00  0.00000000000E+00 -0.10547617720E+04  0.10547617720E+04  0.50400001928E-02 0.  1.
    10030    2    1    2    0    0  0.00000000000E+00  0.00000000000E+00  0.13054487366E+04  0.34149722806E+04  0.31556044228E+04 0.  0.
        5    1    3    3  502    0  0.81786561003E+03 -0.49683912848E+01  0.21128863230E+04  0.22656653647E+04  0.46999998093E+01 0. -1.
       -5    1    3    3    0  502 -0.81786561003E+03  0.49683912848E+01 -0.80743758639E+03  0.11493069159E+04  0.46999998093E+01 0.  1.
</event>
<event>
 5   0  0.1273980E-06  0.3264846E+04  0.7818609E-02  0.8171898E-01
       -1   -1    0    0    0  501  0.00000000000E+00  0.00000000000E+00  0.16499283186E+04  0.16499283186E+04  0.50400001928E-02 0.  1.
        1   -1    0    0  501    0  0.00000000000E+00  0.00000000000E+00 -0.16151035999E+04  0.16151035999E+04  0.50400001928E-02 0. -1.
    10030    2    1    2    0    0  0.00000000000E+00  0.00000000000E+00  0.34824718681E+02  0.32650319185E+04  0.32648461936E+04 0.  0.
        4    1    3    3  502    0  0.37316095376E+03  0.32579700136E+03 -0.15381216457E+04  0.16159246868E+04  0.12699999809E+01 0. -1.
       -4    1    3    3    0  502 -0.37316095376E+03 -0.32579700136E+03  0.15729463644E+04  0.16491072317E+04  0.12699999809E+01 0.  1.
</event>
<event>
 5   0  0.3497546E-06  0.3209989E+04  0.7818609E-02  0.8186184E-01
        2   -1    0    0  501    0  0.00000000000E+00  0.00000000000E+00  0.12762344146E+04  0.12762344146E+04  0.25500000920E-02 0.  1.
       -2   -1    0    0    0  501  0.00000000000E+00  0.00000000000E+00 -0.20184443489E+04  0.20184443489E+04  0.25500000920E-02 0. -1.
    10030    2    1    2    0    0  0.00000000000E+00  0.00000000000E+00 -0.74220993434E+03  0.32946787635E+04  0.32099894966E+04 0.  0.
        4    1    3    3  502    0 -0.35139404074E+03  0.49024826545E+03  0.11554773434E+04  0.13034380069E+04  0.12699999809E+01 0.  1.
       -4    1    3    3    0  502  0.35139404074E+03 -0.49024826545E+03 -0.18976872778E+04  0.19912407566E+04  0.12699999809E+01 0. -1.
</event>
<event>
 5   0  0.3531437E-06  0.3230523E+04  0.7818609E-02  0.8180802E-01
        2   -1    0    0  501    0  0.00000000000E+00  0.00000000000E+00  0.16817283616E+04  0.16817283616E+04  0.25500000920E-02 0.  1.
       -2   -1    0    0    0  501  0.00000000000E+00  0.00000000000E+00 -0.15514211608E+04  0.15514211608E+04  0.25500000920E-02 0. -1.
    10030    2    1    2    0    0  0.00000000000E+00  0.00000000000E+00  0.13030720080E+03  0.32331495224E+04  0.32305225378E+04 0.  0.
        1    1    3    3  502    0 -0.11301124534E+04 -0.74668490601E+03 -0.81554860914E+03  0.15810793909E+04  0.50400001928E-02 0. -1.
       -1    1    3    3    0  502  0.11301124534E+04  0.74668490601E+03  0.94585580994E+03  0.16520701315E+04  0.50400001928E-02 0.  1.
</event>
<event>
 5   0  0.3745943E-06  0.3277517E+04  0.7818609E-02  0.8168640E-01
        2   -1    0    0  501    0  0.00000000000E+00  0.00000000000E+00  0.15155823343E+04  0.15155823343E+04  0.25500000920E-02 0.  1.
       -2   -1    0    0    0  501  0.00000000000E+00  0.00000000000E+00 -0.17719457126E+04  0.17719457126E+04  0.25500000920E-02 0. -1.
    10030    2    1    2    0    0  0.00000000000E+00  0.00000000000E+00 -0.25636337828E+03  0.32875280468E+04  0.32775171208E+04 0.  0.
        5    1    3    3  502    0  0.45848174071E+03 -0.98195543351E+03  0.11048270358E+04  0.15476132750E+04  0.46999998093E+01 0.  1.
       -5    1    3    3    0  502 -0.45848174071E+03  0.98195543351E+03 -0.13611904141E+04  0.17399147718E+04  0.46999998093E+01 0. -1.
</event>
<event>
 5   0  0.3758062E-06  0.3129188E+04  0.7818609E-02  0.8207773E-01
       -2   -1    0    0    0  501  0.00000000000E+00  0.00000000000E+00  0.18147410809E+04  0.18147410809E+04  0.25500000920E-02 0.  1.
        2   -1    0    0  501    0  0.00000000000E+00  0.00000000000E+00 -0.13489273329E+04  0.13489273329E+04  0.25500000920E-02 0. -1.
    10030    2    1    2    0    0  0.00000000000E+00  0.00000000000E+00  0.46581374799E+03  0.31636684138E+04  0.31291876558E+04 0.  0.
        2    1    3    3  502    0 -0.32543993207E+03  0.75182500191E+03 -0.11147485100E+04  0.13834074683E+04  0.25500000920E-02 0. -1.
       -2    1    3    3    0  502  0.32543993207E+03 -0.75182500191E+03  0.15805622580E+04  0.17802609455E+04  0.25500000920E-02 0.  1.
</event>
<event>
 5   0  0.1273754E-06  0.3260902E+04  0.7818609E-02  0.8172916E-01
       -1   -1    0    0    0  501  0.00000000000E+00  0.00000000000E+00  0.26798254626E+04  0.26798254626E+04  0.50400001928E-02 0.  1.
        1   -1    0    0  501    0  0.00000000000E+00  0.00000000000E+00 -0.99199401785E+03  0.99199401786E+03  0.50400001928E-02 0. -1.
    10030    2    1    2    0    0  0.00000000000E+00  0.00000000000E+00  0.16878314447E+04  0.36718194804E+04  0.32609022235E+04 0.  0.
        2    1    3    3  502    0 -0.47200072190E+03  0.67524720734E+03 -0.74037641887E+03  0.11076555034E+04  0.25500000920E-02 0. -1.
       -2    1    3    3    0  502  0.47200072190E+03 -0.67524720734E+03  0.24282078636E+04  0.25641639771E+04  0.25500000920E-02 0.  1.
</event>
<event>
 5   0  0.1268836E-06  0.3182147E+04  0.7818609E-02  0.8193548E-01
       -1   -1    0    0    0  501  0.00000000000E+00  0.00000000000E+00  0.11785697394E+04  0.11785697394E+04  0.50400001928E-02 0. -1.
        1   -1    0    0  501    0  0.00000000000E+00  0.00000000000E+00 -0.21479553118E+04  0.21479553118E+04  0.50400001928E-02 0.  1.
    10030    2    1    2    0    0  0.00000000000E+00  0.00000000000E+00 -0.96938557247E+03  0.33265250512E+04  0.31821471569E+04 0.  0.
        1    1    3    3  502    0  0.62053162034E+03 -0.13275621008E+04  0.16312917184E+03  0.14744801626E+04  0.50400001928E-02 0.  1.
       -1    1    3    3    0  502 -0.62053162034E+03  0.13275621008E+04 -0.11325147443E+04  0.18520448886E+04  0.50400001928E-02 0. -1.
</event>
<event>
 5   0  0.3745943E-06  0.3311028E+04  0.7818609E-02  0.8160095E-01
        2   -1    0    0  501    0  0.00000000000E+00  0.00000000000E+00  0.23008899511E+04  0.23008899511E+04  0.25500000920E-02 0.  1.
       -2   -1    0    0    0  501  0.00000000000E+00  0.00000000000E+00 -0.11911593163E+04  0.11911593163E+04  0.25500000920E-02 0. -1.
    10030    2    1    2    0    0  0.00000000000E+00  0.00000000000E+00  0.11097306348E+04  0.34920492675E+04  0.33110279377E+04 0.  0.
        5    1    3    3  502    0 -0.12663766630E+04  0.76810357625E+03 -0.22517262391E+03  0.14981380968E+04  0.46999998093E+01 0. -1.
       -5    1    3    3    0  502  0.12663766630E+04 -0.76810357625E+03  0.13349032587E+04  0.19939111707E+04  0.46999998093E+01 0.  1.
</event>
<event>
 5   0  0.3531437E-06  0.3154426E+04  0.7818609E-02  0.8200958E-01
       -2   -1    0    0    0  501  0.00000000000E+00  0.00000000000E+00  0.15515231596E+04  0.15515231596E+04  0.25500000920E-02 0.  1.
        2   -1    0    0  501    0  0.00000000000E+00  0.00000000000E+00 -0.16033286480E+04  0.16033286480E+04  0.25500000920E-02 0. -1.
    10030    2    1    2    0    0  0.00000000000E+00  0.00000000000E+00 -0.51805488367E+02  0.31548518076E+04  0.31544264327E+04 0.  0.
        1    1    3    3  502    0 -0.10784623229E+04 -0.11080833041E+04 -0.33686578572E+03  0.15825321951E+04  0.50400001928E-02 0. -1.
       -1    1    3    3    0  502  0.10784623229E+04  0.11080833041E+04  0.28506029735E+03  0.15723196125E+04  0.50400001928E-02 0.  1.
</event>
<event>
 5   0  0.1306843E-06  0.3200159E+04  0.7818609E-02  0.8188775E-01
       -1   -1    0    0    0  501  0.00000000000E+00  0.00000000000E+00  0.12575534409E+04  0.12575534409E+04  0.50400001928E-02 0.  1.
        1   -1    0    0  501    0  0.00000000000E+00  0.00000000000E+00 -0.20359011481E+04  0.20359011481E+04  0.50400001928E-02 0. -1.
    10030    2    1    2    0    0  0.00000000000E+00  0.00000000000E+00 -0.77834770720E+03  0.32934545890E+04  0.32001590549E+04 0.  0.
        5    1    3    3  502    0 -0.96122158206E+03 -0.71561238890E+03 -0.14803601150E+04  0.19046091938E+04  0.46999998093E+01 0. -1.
       -5    1    3    3    0  502  0.96122158206E+03  0.71561238890E+03  0.70201240784E+03  0.13888453952E+04  0.46999998093E+01 0.  1.
</event>
<event>
 5   0  0.1240725E-06  0.3191489E+04  0.7818609E-02  0.8191069E-01
        1   -1    0    0  501    0  0.00000000000E+00  0.00000000000E+00  0.21435699192E+04  0.21435699192E+04  0.50400001928E-02 0. -1.
       -1   -1    0    0    0  501  0.00000000000E+00  0.00000000000E+00 -0.11879249418E+04  0.11879249418E+04  0.50400001928E-02 0.  1.
    10030    2    1    2    0    0  0.00000000000E+00  0.00000000000E+00  0.95564497743E+03  0.33314948610E+04  0.31914887883E+04 0.  0.
        3    1    3    3  502    0 -0.55080847728E+03 -0.11104528161E+04 -0.57120296681E+03  0.13648326911E+04  0.10100000352E+00 0.  1.
       -3    1    3    3    0  502  0.55080847728E+03  0.11104528161E+04  0.15268479442E+04  0.19666621699E+04  0.10100000352E+00 0. -1.
</event>
<event>
 5   0  0.3745943E-06  0.3226140E+04  0.7818609E-02  0.8181948E-01
        2   -1    0    0  501    0  0.00000000000E+00  0.00000000000E+00  0.11911724215E+04  0.11911724215E+04  0.25500000920E-02 0. -1.
       -2   -1    0    0    0  501  0.00000000000E+00  0.00000000000E+00 -0.21843981765E+04  0.21843981765E+04  0.25500000920E-02 0.  1.
    10030    2    1    2    0    0  0.00000000000E+00  0.00000000000E+00 -0.99322575508E+03  0.33755705980E+04  0.32261400251E+04 0.  0.
        5    1    3    3  502    0  0.12806137007E+04 -0.40146220370E+03 -0.14329537751E+04  0.19632936517E+04  0.46999998093E+01 0.  1.
       -5    1    3    3    0  502 -0.12806137007E+04  0.40146220370E+03  0.43972802001E+03  0.14122769463E+04  0.46999998093E+01 0. -1.
</event>
<event>
 5   0  0.1240725E-06  0.2959786E+04  0.7818609E-02  0.8255308E-01
        1   -1    0    0  501    0  0.00000000000E+00  0.00000000000E+00  0.19065368090E+04  0.19065368090E+04  0.50400001928E-02 0. -1.
       -1   -1    0    0    0  501  0.00000000000E+00  0.00000000000E+00 -0.11487232180E+04  0.11487232180E+04  0.50400001928E-02 0.  1.
    10030    2    1    2    0    0  0.00000000000E+00  0.00000000000E+00  0.75781359107E+03  0.30552600270E+04  0.29597858696E+04 0.  0.
        3    1    3    3  502    0  0.11572283798E+04  0.60596511355E+03 -0.33902179268E+03  0.13495580862E+04  0.10100000352E+00 0.  1.
       -3    1    3    3    0  502 -0.11572283798E+04 -0.60596511355E+03  0.10968353838E+04  0.17057019409E+04  0.10100000352E+00 0. -1.
</event>
<event>
 5   0  0.3656086E-06  0.2957232E+04  0.7818609E-02  0.8256050E-01
       -2   -1    0    0    0  501  0.00000000000E+00  0.00000000000E+00  0.10149629925E+04  0.10149629925E+04  0.25500000920E-02 0. -1.
        2   -1    0    0  501    0  0.00000000000E+00  0.00000000000E+00 -0.21540740071E+04  0.21540740071E+04  0.25500000920E-02 0.  1.
    10030    2    1    2    0    0  0.00000000000E+00  0.00000000000E+00 -0.11391110146E+04  0.31690369996E+04  0.29572320844E+04 0.  0.
        3    1    3    3  502    0  0.27850805036E+03  0.13155025583E+04  0.89463412158E+02  0.13476340109E+04  0.10100000352E+00 0. -1.
       -3    1    3    3    0  502 -0.27850805036E+03 -0.13155025583E+04 -0.12285744267E+04  0.18214029887E+04  0.10100000352E+00 0.  1.
</event>
<event>
 5   0  0.1273754E-06  0.3181324E+04  0.7818609E-02  0.8193767E-01
       -1   -1    0    0    0  501  0.00000000000E+00  0.00000000000E+00  0.12622914897E+04  0.12622914897E+04  0.50400001928E-02 0.  1.
        1   -1    0    0  501    0  0.00000000000E+00  0.00000000000E+00 -0.20044537154E+04  0.20044537154E+04  0.50400001928E-02 0. -1.
    10030    2    1    2    0    0  0.00000000000E+00  0.00000000000E+00 -0.74216222575E+03  0.32667452051E+04  0.31813235399E+04 0.  0.
        2    1    3    3  502    0  0.11264039704E+04  0.10067565266E+04  0.14014246107E+03  0.15172292238E+04  0.25500000920E-02 0.  1.
       -2    1    3    3    0  502 -0.11264039704E+04 -0.10067565266E+04 -0.88230468683E+03  0.17495159813E+04  0.25500000920E-02 0. -1.
</event>
<event>
 5   0  0.3531437E-06  0.2814046E+04  0.7818609E-02  0.8298921E-01
       -2   -1    0    0    0  501  0.00000000000E+00  0.00000000000E+00  0.20225198047E+04  0.20225198047E+04  0.25500000920E-02 0.  1.
        2   -1    0    0  501    0  0.00000000000E+00  0.00000000000E+00 -0.97883493381E+03  0.97883493381E+03  0.25500000920E-02 0. -1.
    10030    2    1    2    0    0  0.00000000000E+00  0.00000000000E+00  0.10436848709E+04  0.30013547386E+04  0.28140455143E+04 0.  0.
        1    1    3    3  502    0 -0.45451616961E+02  0.72737168110E+03 -0.76183852029E+03  0.10542928165E+04  0.50400001928E-02 0. -1.
       -1    1    3    3    0  502  0.45451616961E+02 -0.72737168110E+03  0.18055233912E+04  0.19470619220E+04  0.50400001928E-02 0.  1.
</event>
<event>
 5   0  0.1273754E-06  0.3177909E+04  0.7818609E-02  0.8194676E-01
        1   -1    0    0  501    0  0.00000000000E+00  0.00000000000E+00  0.23063619330E+04  0.23063619330E+04  0.50400001928E-02 0.  1.
       -1   -1    0    0    0  501  0.00000000000E+00  0.00000000000E+00 -0.10947006973E+04  0.10947006973E+04  0.50400001928E-02 0. -1.
    10030    2    1    2    0    0  0.00000000000E+00  0.00000000000E+00  0.12116612356E+04  0.34010626303E+04  0.31779087566E+04 0.  0.
        2    1    3    3  502    0  0.68185691256E+03  0.44774871147E+03  0.20651686881E+04  0.22204345224E+04  0.25500000920E-02 0.  1.
       -2    1    3    3    0  502 -0.68185691256E+03 -0.44774871147E+03 -0.85350745246E+03  0.11806281079E+04  0.25500000920E-02 0. -1.
</event>
<event>
 5   0  0.3497546E-06  0.3115597E+04  0.7818609E-02  0.8211471E-01
        2   -1    0    0  501    0  0.00000000000E+00  0.00000000000E+00  0.20205280274E+04  0.20205280274E+04  0.25500000920E-02 0.  1.
       -2   -1    0    0    0  501  0.00000000000E+00  0.00000000000E+00 -0.12010403783E+04  0.12010403783E+04  0.25500000920E-02 0. -1.
    10030    2    1    2    0    0  0.00000000000E+00  0.00000000000E+00  0.81948764909E+03  0.32215684056E+04  0.31155967302E+04 0.  0.
        4    1    3    3  502    0 -0.10631690486E+04 -0.11118828210E+04  0.66328232137E+03  0.16752781513E+04  0.12699999809E+01 0.  1.
       -4    1    3    3    0  502  0.10631690486E+04  0.11118828210E+04  0.15620532771E+03  0.15462902544E+04  0.12699999809E+01 0. -1.
</event>
<event>
 5   0  0.1273980E-06  0.3185003E+04  0.7818609E-02  0.8192789E-01
        1   -1    0    0  501    0  0.00000000000E+00  0.00000000000E+00  0.13218042385E+04  0.13218042385E+04  0.50400001928E-02 0. -1.
       -1   -1    0    0    0  501  0.00000000000E+00  0.00000000000E+00 -0.19186355981E+04  0.19186355981E+04  0.50400001928E-02 0.  1.
    10030    2    1    2    0    0  0.00000000000E+00  0.00000000000E+00 -0.59683135954E+03  0.32404398366E+04  0.31850027728E+04 0.  0.
        4    1    3    3  502    0 -0.34081318140E+03  0.37042303404E+03  0.12387398990E+04  0.13371032119E+04  0.12699999809E+01 0. -1.
       -4    1    3    3    0  502  0.34081318140E+03 -0.37042303404E+03 -0.18355712586E+04  0.19033366247E+04  0.12699999809E+01 0.  1.
</event>
<event>
 5   0  0.1273754E-06  0.3199175E+04  0.7818609E-02  0.8189035E-01
       -1   -1    0    0    0  501  0.00000000000E+00  0.00000000000E+00  0.13034461656E+04  0.13034461656E+04  0.50400001928E-02 0. -1.
        1   -1    0    0  501    0  0.00000000000E+00  0.00000000000E+00 -0.19630118757E+04  0.19630118757E+04  0.50400001928E-02 0.  1.
    10030    2    1    2    0    0  0.00000000000E+00  0.00000000000E+00 -0.65956571008E+03  0.32664580413E+04  0.31991750827E+04 0.  0.
        2    1    3    3  502    0 -0.14612524110E+04 -0.50894541488E+03  0.84202559158E+02  0.15496367687E+04  0.25500000920E-02 0.  1.
       -2    1    3    3    0  502  0.14612524110E+04  0.50894541488E+03 -0.74376826924E+03  0.17168212726E+04  0.25500000920E-02 0. -1.
</event>
<event>
 5   0  0.1306843E-06  0.3198834E+04  0.7818609E-02  0.8189125E-01
        1   -1    0    0  501    0  0.00000000000E+00  0.00000000000E+00  0.13361410260E+04  0.13361410261E+04  0.50400001928E-02 0. -1.
       -1   -1    0    0    0  501  0.00000000000E+00  0.00000000000E+00 -0.19145690559E+04  0.19145690559E+04  0.50400001928E-02 0.  1.
    10030    2    1    2    0    0  0.00000000000E+00  0.00000000000E+00 -0.57842802990E+03  0.32507100820E+04  0.31988337018E+04 0.  0.
        5    1    3    3  502    0 -0.75403917710E+03  0.10540807396E+04 -0.12416708836E+04  0.17948342428E+04  0.46999998093E+01 0.  1.
       -5    1    3    3    0  502  0.75403917710E+03 -0.10540807396E+04  0.66324285368E+03  0.14558758392E+04  0.46999998093E+01 0. -1.
</event>
<event>
 5   0  0.1273754E-06  0.3122270E+04  0.7818609E-02  0.8209653E-01
       -1   -1    0    0    0  501  0.00000000000E+00  0.00000000000E+00  0.94681579175E+03  0.94681579176E+03  0.50400001928E-02 0. -1.
        1   -1    0    0  501    0  0.00000000000E+00  0.00000000000E+00 -0.25740410364E+04  0.25740410364E+04  0.50400001928E-02 0.  1.
    10030    2    1    2    0    0  0.00000000000E+00  0.00000000000E+00 -0.16272252446E+04  0.35208568282E+04  0.31222701369E+04 0.  0.
        2    1    3    3  502    0  0.85926128876E+03  0.11172266081E+04 -0.56637005073E+02  0.14105789615E+04  0.25500000920E-02 0. -1.
       -2    1    3    3    0  502 -0.85926128876E+03 -0.11172266081E+04 -0.15705882396E+04  0.21102778667E+04  0.25500000920E-02 0.  1.
</event>
<event>
 5   0  0.1240725E-06  0.3184255E+04  0.7818609E-02  0.8192988E-01
       -1   -1    0    0    0  501  0.00000000000E+00  0.00000000000E+00  0.16803877450E+04  0.16803877450E+04  0.50400001928E-02 0.  1.
        1   -1    0    0  501    0  0.00000000000E+00  0.00000000000E+00 -0.15085033789E+04  0.15085033789E+04  0.50400001928E-02 0. -1.
    10030    2    1    2    0    0  0.00000000000E+00  0.00000000000E+00  0.17188436613E+03  0.31888911239E+04  0.31842553862E+04 0.  0.
        3    1    3    3  502    0 -0.65330450903E+03  0.86873069871E+03  0.12509804653E+04  0.16572422705E+04  0.10100000352E+00 0.  1.
       -3    1    3    3    0  502  0.65330450903E+03 -0.86873069871E+03 -0.10790960992E+04  0.15316488533E+04  0.10100000352E+00 0. -1.
</event>
<event>
 5   0  0.1306843E-06  0.3212588E+04  0.7818609E-02  0.8185501E-01
        1   -1    0    0  501    0  0.00000000000E+00  0.00000000000E+00  0.17057220457E+04  0.17057220457E+04  0.50400001928E-02 0.  1.
       -1   -1    0    0    0  501  0.00000000000E+00  0.00000000000E+00 -0.15126620262E+04  0.15126620262E+04  0.50400001928E-02 0. -1.
    10030    2    1    2    0    0  0.00000000000E+00  0.00000000000E+00  0.19306001946E+03  0.32183840719E+04  0.32125883433E+04 0.  0.
        5    1    3    3  502    0  0.45237705070E+03 -0.15213847089E+04 -0.15069941795E+03  0.15943615754E+04  0.46999998093E+01 0. -1.
       -5    1    3    3    0  502 -0.45237705070E+03  0.15213847089E+04  0.34375943741E+03  0.16240224965E+04  0.46999998093E+01 0.  1.
</event>
<event>
 5   0  0.1306843E-06  0.3168649E+04  0.7818609E-02  0.8197146E-01
        1   -1    0    0  501    0  0.00000000000E+00  0.00000000000E+00  0.16894328750E+04  0.16894328750E+04  0.50400001928E-02 0.  1.
       -1   -1    0    0    0  501  0.00000000000E+00  0.00000000000E+00 -0.14857557726E+04  0.14857557726E+04  0.50400001928E-02 0. -1.
    10030    2    1    2    0    0  0.00000000000E+00  0.00000000000E+00  0.20367710241E+03  0.31751886476E+04  0.31686493314E+04 0.  0.
        5    1    3    3  502    0 -0.13498951915E+04 -0.86436817455E+02 -0.72471172201E+03  0.15345740521E+04  0.46999998093E+01 0. -1.
       -5    1    3    3    0  502  0.13498951915E+04  0.86436817455E+02  0.92838882442E+03  0.16406145954E+04  0.46999998093E+01 0.  1.
</event>
<event>
 5   0  0.1306843E-06  0.2710642E+04  0.7818609E-02  0.8331560E-01
        1   -1    0    0  501    0  0.00000000000E+00  0.00000000000E+00  0.20991715666E+04  0.20991715666E+04  0.50400001928E-02 0.  1.
       -1   -1    0    0    0  501  0.00000000000E+00  0.00000000000E+00 -0.87505727910E+03  0.87505727912E+03  0.50400001928E-02 0. -1.
    10030    2    1    2    0    0  0.00000000000E+00  0.00000000000E+00  0.12241142875E+04  0.29742288457E+04  0.27106422556E+04 0.  0.
        5    1    3    3  502    0 -0.13101622694E+04  0.34598498965E+03  0.63986921959E+03  0.14985611410E+04  0.46999998093E+01 0.  1.
       -5    1    3    3    0  502  0.13101622694E+04 -0.34598498965E+03  0.58424506786E+03  0.14756677047E+04  0.46999998093E+01 0. -1.
</event>
<event>
 5   0  0.3497546E-06  0.3189478E+04  0.7818609E-02  0.8191602E-01
       -2   -1    0    0    0  501  0.00000000000E+00  0.00000000000E+00  0.19660742906E+04  0.19660742906E+04  0.25500000920E-02 0. -1.
        2   -1    0    0  501    0  0.00000000000E+00  0.00000000000E+00 -0.12935384203E+04  0.12935384203E+04  0.25500000920E-02 0.  1.
    10030    2    1    2    0    0  0.00000000000E+00  0.00000000000E+00  0.67253587033E+03  0.32596127109E+04  0.31894780966E+04 0.  0.
        4    1    3    3  502    0 -0.60968889147E+03  0.14411279007E+04  0.21898873934E+02  0.15649445179E+04  0.12699999809E+01 0. -1.
       -4    1    3    3    0  502  0.60968889147E+03 -0.14411279007E+04  0.65063699640E+03  0.16946681930E+04  0.12699999809E+01 0.  1.
</event>
<event>
 5   0  0.1273980E-06  0.3143515E+04  0.7818609E-02  0.8203896E-01
       -1   -1    0    0    0  501  0.00000000000E+00  0.00000000000E+00  0.14940316755E+04  0.14940316755E+04  0.50400001928E-02 0. -1.
        1   -1    0    0  501    0  0.00000000000E+00  0.00000000000E+00 -0.16535267375E+04  0.16535267375E+04  0.50400001928E-02 0.  1.
    10030    2    1    2    0    0  0.00000000000E+00  0.00000000000E+00 -0.15949506201E+03  0.31475584130E+04  0.31435147985E+04 0.  0.
        4    1    3    3  502    0 -0.61099817823E+03 -0.78875380951E+03 -0.12957925187E+04  0.16353994039E+04  0.12699999809E+01 0.  1.
       -4    1    3    3    0  502  0.61099817823E+03  0.78875380951E+03  0.11362974567E+04  0.15121590091E+04  0.12699999809E+01 0. -1.
</event>
<event>
 5   0  0.3656086E-06  0.3184185E+04  0.7818609E-02  0.8193006E-01
       -2   -1    0    0    0  501  0.00000000000E+00  0.00000000000E+00  0.18232955478E+04  0.18232955478E+04  0.25500000920E-02 0.  1.
        2   -1    0    0  501    0  0.00000000000E+00  0.00000000000E+00 -0.13902075429E+04  0.13902075429E+04  0.25500000920E-02 0. -1.
    10030    2    1    2    0    0  0.00000000000E+00  0.00000000000E+00  0.43308800488E+03  0.32135030906E+04  0.31841854364E+04 0.  0.
        3    1    3    3  502    0 -0.27263549661E+03  0.13369195603E+04  0.10445093504E+04  0.17183375157E+04  0.10100000352E+00 0.  1.
       -3    1    3    3    0  502  0.27263549661E+03 -0.13369195603E+04 -0.61142134548E+03  0.14951655750E+04  0.10100000352E+00 0. -1.
</event>
<event>
 5   0  0.3531437E-06  0.3210258E+04  0.7818609E-02  0.8186113E-01
       -2   -1    0    0    0  501  0.00000000000E+00  0.00000000000E+00  0.11109287194E+04  0.11109287194E+04  0.25500000920E-02 0.  1.
        2   -1    0    0  501    0  0.00000000000E+00  0.00000000000E+00 -0.23191755665E+04  0.23191755665E+04  0.25500000920E-02 0. -1.
    10030    2    1    2    0    0  0.00000000000E+00  0.00000000000E+00 -0.12082468471E+04  0.34301042859E+04  0.32102577729E+04 0.  0.
        1    1    3    3  502    0  0.10295334425E+03  0.13911303911E+04 -0.14526059075E+04  0.20139282705E+04  0.50400001928E-02 0.  1.
       -1    1    3    3    0  502 -0.10295334425E+03 -0.13911303911E+04  0.24435906041E+03  0.14161760154E+04  0.50400001928E-02 0. -1.
</event>
<event>
 5   0  0.1273980E-06  0.3140305E+04  0.7818609E-02  0.8204763E-01
        1   -1    0    0  501    0  0.00000000000E+00  0.00000000000E+00  0.17053125781E+04  0.17053125781E+04  0.50400001928E-02 0. -1.
       -1   -1    0    0    0  501  0.00000000000E+00  0.00000000000E+00 -0.14457049654E+04  0.14457049654E+04  0.50400001928E-02 0.  1.
    10030    2    1    2    0    0  0.00000000000E+00  0.00000000000E+00  0.25960761267E+03  0.31510175435E+04  0.31403049926E+04 0.  0.
        4    1    3    3  502    0 -0.25985038550E+03 -0.12026758427E+04 -0.84893422316E+03  0.14948720124E+04  0.12699999809E+01 0.  1.
       -4    1    3    3    0  502  0.25985038550E+03  0.12026758427E+04  0.11085418358E+04  0.16561455311E+04  0.12699999809E+01 0. -1.
</event>
<event>
 5   0  0.3531437E-06  0.2960882E+04  0.7818609E-02  0.8254990E-01
        2   -1    0    0  501    0  0.00000000000E+00  0.00000000000E+00  0.25376909475E+04  0.25376909475E+04  0.25500000920E-02 0. -1.
       -2   -1    0    0    0  501  0.00000000000E+00  0.00000000000E+00 -0.86366118439E+03  0.86366118440E+03  0.25500000920E-02 0.  1.
    10030    2    1    2    0    0  0.00000000000E+00  0.00000000000E+00  0.16740297631E+04  0.34013521319E+04  0.29608817398E+04 0.  0.
        1    1    3    3  502    0  0.14606482291E+04  0.23725448446E+03  0.88738038404E+03  0.17254642522E+04  0.50400001928E-02 0.  1.
       -1    1    3    3    0  502 -0.14606482291E+04 -0.23725448446E+03  0.78664937906E+03  0.16758878797E+04  0.50400001928E-02 0. -1.
</event>
<event>
 5   0  0.3531437E-06  0.3084151E+04  0.7818609E-02  0.8220101E-01
       -2   -1    0    0    0  501  0.00000000000E+00  0.00000000000E+00  0.14106558078E+04  0.14106558078E+04  0.25500000920E-02 0. -1.
        2   -1    0    0  501    0  0.00000000000E+00  0.00000000000E+00 -0.16857386401E+04  0.16857386401E+04  0.25500000920E-02 0.  1.
    10030    2    1    2    0    0  0.00000000000E+00  0.00000000000E+00 -0.27508283230E+03  0.30963944479E+04  0.30841511008E+04 0.  0.
        1    1    3    3  502    0  0.93057981210E+03  0.82658588054E+03  0.77644279098E+03  0.14669991180E+04  0.50400001928E-02 0. -1.
       -1    1    3    3    0  502 -0.93057981210E+03 -0.82658588054E+03 -0.10515256233E+04  0.16293953299E+04  0.50400001928E-02 0.  1.
</event>
<event>
 5   0  0.1273754E-06  0.3089191E+04  0.7818609E-02  0.8218711E-01
        1   -1    0    0  501    0  0.00000000000E+00  0.00000000000E+00  0.17801856934E+04  0.17801856934E+04  0.50400001928E-02 0. -1.
       -1   -1    0    0    0  501  0.00000000000E+00  0.00000000000E+00 -0.13401832157E+04  0.13401832157E+04  0.50400001928E-02 0.  1.
    10030    2    1    2    0    0  0.00000000000E+00  0.00000000000E+00  0.44000247770E+03  0.31203689091E+04  0.30891908242E+04 0.  0.
        2    1    3    3  502    0  0.97125665220E+03  0.72738758666E+02  0.14309100402E+04  0.17309344166E+04  0.25500000920E-02 0. -1.
       -2    1    3    3    0  502 -0.97125665220E+03 -0.72738758666E+02 -0.99090756247E+03  0.13894344925E+04  0.25500000920E-02 0.  1.
</event>
<event>
 5   0  0.3531437E-06  0.3158004E+04  0.7818609E-02  0.8199997E-01
       -2   -1    0    0    0  501  0.00000000000E+00  0.00000000000E+00  0.13356144577E+04  0.13356144577E+04  0.25500000920E-02 0.  1.
        2   -1    0    0  501    0  0.00000000000E+00  0.00000000000E+00 -0.18667422506E+04  0.18667422506E+04  0.25500000920E-02 0. -1.
    10030    2    1    2    0    0  0.00000000000E+00  0.00000000000E+00 -0.53112779290E+03  0.32023567083E+04  0.31580043944E+04 0.  0.
        1    1    3    3  502    0  0.25334135209E+03 -0.52214413169E+03  0.12235393830E+04  0.13542027015E+04  0.50400001928E-02 0.  1.
       -1    1    3    3    0  502 -0.25334135209E+03  0.52214413169E+03 -0.17546671759E+04  0.18481540069E+04  0.50400001928E-02 0. -1.
</event>
<event>
 5   0  0.1273980E-06  0.3246538E+04  0.7818609E-02  0.8176634E-01
        1   -1    0    0  501    0  0.00000000000E+00  0.00000000000E+00  0.19975205724E+04  0.19975205725E+04  0.50400001928E-02 0. -1.
       -1   -1    0    0    0  501  0.00000000000E+00  0.00000000000E+00 -0.13191363899E+04  0.13191363899E+04  0.50400001928E-02 0.  1.
    10030    2    1    2    0    0  0.00000000000E+00  0.00000000000E+00  0.67838418256E+03  0.33166569624E+04  0.32465378955E+04 0.  0.
        4    1    3    3  502    0  0.56058577783E+03  0.86135867879E+03  0.16228354058E+04  0.19208830144E+04  0.12699999809E+01 0. -1.
       -4    1    3    3    0  502 -0.56058577783E+03 -0.86135867879E+03 -0.94445122322E+03  0.13957739480E+04  0.12699999809E+01 0.  1.
</event>
<event>
 5   0  0.1273754E-06  0.3216663E+04  0.7818609E-02  0.8184430E-01
        1   -1    0    0  501    0  0.00000000000E+00  0.00000000000E+00  0.13095433519E+04  0.13095433519E+04  0.50400001928E-02 0.  1.
       -1   -1    0    0    0  501  0.00000000000E+00  0.00000000000E+00 -0.19752919815E+04  0.19752919815E+04  0.50400001928E-02 0. -1.
    10030    2    1    2    0    0  0.00000000000E+00  0.00000000000E+00 -0.66574862955E+03  0.32848353334E+04  0.32166631670E+04 0.  0.
        2    1    3    3  502    0 -0.33212111542E+03  0.73003153428E+03 -0.17565073460E+04  0.19309501633E+04  0.25500000920E-02 0. -1.
       -2    1    3    3    0  502  0.33212111542E+03 -0.73003153428E+03  0.10907587165E+04  0.13538851701E+04  0.25500000920E-02 0.  1.
</event>
<event>
 5   0  0.1268836E-06  0.3159135E+04  0.7818609E-02  0.8199694E-01
        1   -1    0    0  501    0  0.00000000000E+00  0.00000000000E+00  0.16365257238E+04  0.16365257238E+04  0.50400001928E-02 0. -1.
       -1   -1    0    0    0  501  0.00000000000E+00  0.00000000000E+00 -0.15245920871E+04  0.15245920871E+04  0.50400001928E-02 0.  1.
    10030    2    1    2    0    0  0.00000000000E+00  0.00000000000E+00  0.11193363665E+03  0.31611178109E+04  0.31591354317E+04 0.  0.
        1    1    3    3  502    0  0.70513937050E+03  0.79435873749E+02  0.14680584324E+04  0.16305603793E+04  0.50400001928E-02 0. -1.
       -1    1    3    3    0  502 -0.70513937050E+03 -0.79435873749E+02 -0.13561247957E+04  0.15305574316E+04  0.50400001928E-02 0.  1.
</event>
<event>
 5   0  0.3531437E-06  0.3342743E+04  0.7818609E-02  0.8152104E-01
        2   -1    0    0  501    0  0.00000000000E+00  0.00000000000E+00  0.25119138096E+04  0.25119138096E+04  0.25500000920E-02 0.  1.
       -2   -1    0    0    0  501  0.00000000000E+00  0.00000000000E+00 -0.11120936699E+04  0.11120936699E+04  0.25500000920E-02 0. -1.
    10030    2    1    2    0    0  0.00000000000E+00  0.00000000000E+00  0.13998201396E+04  0.36240074795E+04  0.33427434524E+04 0.  0.
        1    1    3    3  502    0 -0.94495337871E+03  0.13575553727E+04  0.96008141430E+03  0.19124983137E+04  0.50400001928E-02 0.  1.
       -1    1    3    3    0  502  0.94495337871E+03 -0.13575553727E+04  0.43973872534E+03  0.17115091658E+04  0.50400001928E-02 0. -1.
</event>
<event>
 5   0  0.1268836E-06  0.3208566E+04  0.7818609E-02  0.8186558E-01
       -1   -1    0    0    0  501  0.00000000000E+00  0.00000000000E+00  0.26585864133E+04  0.26585864133E+04  0.50400001928E-02 0.  1.
        1   -1    0    0  501    0  0.00000000000E+00  0.00000000000E+00 -0.96808007859E+03  0.96808007860E+03  0.50400001928E-02 0. -1.
    10030    2    1    2    0    0  0.00000000000E+00  0.00000000000E+00  0.16905063347E+04  0.36266664919E+04  0.32085663739E+04 0.  0.
        1    1    3    3  502    0 -0.51760311923E+03 -0.12538800914E+04 -0.12285782110E+03  0.13620654599E+04  0.50400001928E-02 0. -1.
       -1    1    3    3    0  502  0.51760311923E+03  0.12538800914E+04  0.18133641558E+04  0.22646010321E+04  0.50400001928E-02 0.  1.
</event>
<event>
 5   0  0.1273980E-06  0.3162091E+04  0.7818609E-02  0.8198901E-01
        1   -1    0    0  501    0  0.00000000000E+00  0.00000000000E+00  0.25807348445E+04  0.25807348445E+04  0.50400001928E-02 0. -1.
       -1   -1    0    0    0  501  0.00000000000E+00  0.00000000000E+00 -0.96860202253E+03  0.96860202254E+03  0.50400001928E-02 0.  1.
    10030    2    1    2    0    0  0.00000000000E+00  0.00000000000E+00  0.16121328220E+04  0.35493368670E+04  0.31620910740E+04 0.  0.
        4    1    3    3  502    0 -0.14582419578E+03 -0.14262542544E+04  0.15542022255E+04  0.21144767828E+04  0.12699999809E+01 0.  1.
       -4    1    3    3    0  502  0.14582419578E+03  0.14262542544E+04  0.57930596442E+02  0.14348600842E+04  0.12699999809E+01 0. -1.
</event>
<event>
 5   0  0.3758062E-06  0.2947849E+04  0.7818609E-02  0.8258782E-01
       -2   -1    0    0    0  501  0.00000000000E+00  0.00000000000E+00  0.12352326511E+04  0.12352326511E+04  0.25500000920E-02 0.  1.
        2   -1    0    0  501    0  0.00000000000E+00  0.00000000000E+00 -0.17587405082E+04  0.17587405082E+04  0.25500000920E-02 0. -1.
    10030    2    1    2    0    0  0.00000000000E+00  0.00000000000E+00 -0.52350785710E+03  0.29939731593E+04  0.29478491824E+04 0.  0.
        2    1    3    3  502    0  0.13757790757E+04  0.31127984910E+03 -0.69598354593E+03  0.15729133179E+04  0.25500000920E-02 0.  1.
       -2    1    3    3    0  502 -0.13757790757E+04 -0.31127984910E+03  0.17247568883E+03  0.14210598414E+04  0.25500000920E-02 0. -1.
</event>
<event>
 5   0  0.3758062E-06  0.3213177E+04  0.7818609E-02  0.8185346E-01
        2   -1    0    0  501    0  0.00000000000E+00  0.00000000000E+00  0.28454100677E+04  0.28454100677E+04  0.25500000920E-02 0.  1.
       -2   -1    0    0    0  501  0.00000000000E+00  0.00000000000E+00 -0.90711929327E+03  0.90711929328E+03  0.25500000920E-02 0. -1.
    10030    2    1    2    0    0  0.00000000000E+00  0.00000000000E+00  0.19382907744E+04  0.37525293610E+04  0.32131768515E+04 0.  0.
        2    1    3    3  502    0 -0.13349243601E+04 -0.98006106229E+02  0.20068291498E+04  0.24122585850E+04  0.25500000920E-02 0. -1.
       -2    1    3    3    0  502  0.13349243601E+04  0.98006106229E+02 -0.68538375402E+02  0.13402707760E+04  0.25500000920E-02 0.  1.
</event>
<event>
 5   0  0.3745943E-06  0.2945643E+04  0.7818609E-02  0.8259425E-01
       -2   -1    0    0    0  501  0.00000000000E+00  0.00000000000E+00  0.93443982918E+03  0.93443982918E+03  0.25500000920E-02 0. -1.
        2   -1    0    0  501    0  0.00000000000E+00  0.00000000000E+00 -0.23213944442E+04  0.23213944442E+04  0.25500000920E-02 0.  1.
    10030    2    1    2    0    0  0.00000000000E+00  0.00000000000E+00 -0.13869546150E+04  0.32558342734E+04  0.29456431745E+04 0.  0.
        5    1    3    3  502    0  0.76707711308E+03 -0.45434661733E+03  0.60229815474E+03  0.10759290419E+04  0.46999998093E+01 0.  1.
       -5    1    3    3    0  502 -0.76707711308E+03  0.45434661733E+03 -0.19892527698E+04  0.21799052315E+04  0.46999998093E+01 0. -1.
</event>
<event>
 5   0  0.3531437E-06  0.3210726E+04  0.7818609E-02  0.8185990E-01
        2   -1    0    0  501    0  0.00000000000E+00  0.00000000000E+00  0.16763852767E+04  0.16763852767E+04  0.25500000920E-02 0. -1.
       -2   -1    0    0    0  501  0.00000000000E+00  0.00000000000E+00 -0.15373500964E+04  0.15373500964E+04  0.25500000920E-02 0.  1.
    10030    2    1    2    0    0  0.00000000000E+00  0.00000000000E+00  0.13903518025E+03  0.32137353731E+04  0.32107264391E+04 0.  0.
        1    1    3    3  502    0  0.10838713663E+04  0.71317248965E+02 -0.11136764000E+04  0.15556794054E+04  0.50400001928E-02 0.  1.
       -1    1    3    3    0  502 -0.10838713663E+04 -0.71317248965E+02  0.12527115802E+04  0.16580559676E+04  0.50400001928E-02 0. -1.
</event>
<event>
 5   0  0.1240725E-06  0.3211062E+04  0.7818609E-02  0.8185902E-01
        1   -1    0    0  501    0  0.00000000000E+00  0.00000000000E+00  0.18438731323E+04  0.18438731323E+04  0.50400001928E-02 0.  1.
       -1   -1    0    0    0  501  0.00000000000E+00  0.00000000000E+00 -0.13979971332E+04  0.13979971332E+04  0.50400001928E-02 0. -1.
    10030    2    1    2    0    0  0.00000000000E+00  0.00000000000E+00  0.44587599911E+03  0.32418702655E+04  0.32110617265E+04 0.  0.
        3    1    3    3  502    0  0.28355414659E+03 -0.81128777584E+03  0.15920979873E+04  0.18092448205E+04  0.10100000352E+00 0.  1.
       -3    1    3    3    0  502 -0.28355414659E+03  0.81128777584E+03 -0.11462219882E+04  0.14326254450E+04  0.10100000352E+00 0. -1.
</event>
<event>
 5   0  0.3497546E-06  0.3295285E+04  0.7818609E-02  0.8164096E-01
       -2   -1    0    0    0  501  0.00000000000E+00  0.00000000000E+00  0.12590217043E+04  0.12590217043E+04  0.25500000920E-02 0. -1.
        2   -1    0    0  501    0  0.00000000000E+00  0.00000000000E+00 -0.21562181097E+04  0.21562181097E+04  0.25500000920E-02 0.  1.
    10030    2    1    2    0    0  0.00000000000E+00  0.00000000000E+00 -0.89719640542E+03  0.34152398140E+04  0.32952847521E+04 0.  0.
        4    1    3    3  502    0 -0.13782262785E+04  0.75096636966E+03 -0.96810925741E+03  0.18440974243E+04  0.12699999809E+01 0. -1.
       -4    1    3    3    0  502  0.13782262785E+04 -0.75096636966E+03  0.70912851998E+02  0.15711423897E+04  0.12699999809E+01 0.  1.
</event>
<event>
 5   0  0.3745943E-06  0.3123539E+04  0.7818609E-02  0.8209307E-01
       -2   -1    0    0    0  501  0.00000000000E+00  0.00000000000E+00  0.11448802910E+04  0.11448802910E+04  0.25500000920E-02 0. -1.
        2   -1    0    0  501    0  0.00000000000E+00  0.00000000000E+00 -0.21304614674E+04  0.21304614674E+04  0.25500000920E-02 0.  1.
    10030    2    1    2    0    0  0.00000000000E+00  0.00000000000E+00 -0.98558117639E+03  0.32753417584E+04  0.31235385989E+04 0.  0.
        5    1    3    3  502    0  0.86762168195E+03  0.58527075248E+03 -0.17083488338E+04  0.20034438012E+04  0.46999998093E+01 0.  1.
       -5    1    3    3    0  502 -0.86762168195E+03 -0.58527075248E+03  0.72276765744E+03  0.12718979571E+04  0.46999998093E+01 0. -1.
</event>
<event>
 5   0  0.3531437E-06  0.3177489E+04  0.7818609E-02  0.8194788E-01
        2   -1    0    0  501    0  0.00000000000E+00  0.00000000000E+00  0.18546968030E+04  0.18546968030E+04  0.25500000920E-02 0. -1.
       -2   -1    0    0    0  501  0.00000000000E+00  0.00000000000E+00 -0.13609280171E+04  0.13609280171E+04  0.25500000920E-02 0.  1.
    10030    2    1    2    0    0  0.00000000000E+00  0.00000000000E+00  0.49376878593E+03  0.32156248201E+04  0.31774888465E+04 0.  0.
        1    1    3    3  502    0 -0.59874692272E+03  0.26881230800E+03 -0.12173221895E+04  0.13829791204E+04  0.50400001928E-02 0.  1.
       -1    1    3    3    0  502  0.59874692272E+03 -0.26881230800E+03  0.17110909754E+04  0.18326456997E+04  0.50400001928E-02 0. -1.
</event>
<event>
 5   0  0.1268836E-06  0.2949375E+04  0.7818609E-02  0.8258337E-01
       -1   -1    0    0    0  501  0.00000000000E+00  0.00000000000E+00  0.13844174058E+04  0.13844174059E+04  0.50400001928E-02 0.  1.
        1   -1    0    0  501    0  0.00000000000E+00  0.00000000000E+00 -0.15708438754E+04  0.15708438754E+04  0.50400001928E-02 0. -1.
    10030    2    1    2    0    0  0.00000000000E+00  0.00000000000E+00 -0.18642646959E+03  0.29552612813E+04  0.29493752579E+04 0.  0.
        1    1    3    3  502    0  0.68115142443E+03  0.33686467822E+03  0.11731359032E+04  0.13977456570E+04  0.50400001928E-02 0.  1.
       -1    1    3    3    0  502 -0.68115142443E+03 -0.33686467822E+03 -0.13595623727E+04  0.15575156243E+04  0.50400001928E-02 0. -1.
</event>
<event>
 5   0  0.1273754E-06  0.3047042E+04  0.7818609E-02  0.8230424E-01
        1   -1    0    0  501    0  0.00000000000E+00  0.00000000000E+00  0.12289097441E+04  0.12289097441E+04  0.50400001928E-02 0.  1.
       -1   -1    0    0    0  501  0.00000000000E+00  0.00000000000E+00 -0.18887611044E+04  0.18887611044E+04  0.50400001928E-02 0. -1.
    10030    2    1    2    0    0  0.00000000000E+00  0.00000000000E+00 -0.65985136035E+03  0.31176708485E+04  0.30470424516E+04 0.  0.
        2    1    3    3  502    0  0.55802973378E+03 -0.13681992980E+04  0.49824708717E+02  0.14784617020E+04  0.25500000920E-02 0.  1.
       -2    1    3    3    0  502 -0.55802973378E+03  0.13681992980E+04 -0.70967606907E+03  0.16392091465E+04  0.25500000920E-02 0. -1.
</event>
<event>
 5   0  0.1273754E-06  0.3176843E+04  0.7818609E-02  0.8194960E-01
       -1   -1    0    0    0  501  0.00000000000E+00  0.00000000000E+00  0.25167057340E+04  0.25167057340E+04  0.50400001928E-02 0.  1.
        1   -1    0    0  501    0  0.00000000000E+00  0.00000000000E+00 -0.10025342098E+04  0.10025342098E+04  0.50400001928E-02 0. -1.
    10030    2    1    2    0    0  0.00000000000E+00  0.00000000000E+00  0.15141715242E+04  0.35192399438E+04  0.31768434612E+04 0.  0.
        2    1    3    3  502    0  0.10851467383E+04 -0.65022626594E+03  0.18212144156E+04  0.22174669306E+04  0.25500000920E-02 0.  1.
       -2    1    3    3    0  502 -0.10851467383E+04  0.65022626594E+03 -0.30704289139E+03  0.13017730132E+04  0.25500000920E-02 0. -1.
</event>
<event>
 5   0  0.3758062E-06  0.3221578E+04  0.7818609E-02  0.8183142E-01
        2   -1    0    0  501    0  0.00000000000E+00  0.00000000000E+00  0.17720468005E+04  0.17720468005E+04  0.25500000920E-02 0. -1.
       -2   -1    0    0    0  501  0.00000000000E+00  0.00000000000E+00 -0.14642060470E+04  0.14642060470E+04  0.25500000920E-02 0.  1.
    10030    2    1    2    0    0  0.00000000000E+00  0.00000000000E+00  0.30784075356E+03  0.32362528475E+04  0.32215782721E+04 0.  0.
        2    1    3    3  502    0  0.50384664090E+03 -0.12360825629E+04 -0.75178512148E+03  0.15319733708E+04  0.25500000920E-02 0.  1.
       -2    1    3    3    0  502 -0.50384664090E+03  0.12360825629E+04  0.10596258750E+04  0.17042794767E+04  0.25500000920E-02 0. -1.
</event>
<event>
 5   0  0.3497546E-06  0.2577979E+04  0.7818609E-02  0.8375720E-01
       -2   -1    0    0    0  501  0.00000000000E+00  0.00000000000E+00  0.10153830492E+04  0.10153830492E+04  0.25500000920E-02 0.  1.
        2   -1    0    0  501    0  0.00000000000E+00  0.00000000000E+00 -0.16363223095E+04  0.16363223095E+04  0.25500000920E-02 0. -1.
    10030    2    1    2    0    0  0.00000000000E+00  0.00000000000E+00 -0.62093926031E+03  0.26517053587E+04  0.25779790039E+04 0.  0.
        4    1    3    3  502    0  0.10301976195E+04 -0.77279610075E+03 -0.25440040057E+03  0.13127231716E+04  0.12699999809E+01 0.  1.
       -4    1    3    3    0  502 -0.10301976195E+04  0.77279610075E+03 -0.36653885974E+03  0.13389821871E+04  0.12699999809E+01 0. -1.
</event>
<event>
 5   0  0.3745943E-06  0.3180538E+04  0.7818609E-02  0.8193976E-01
       -2   -1    0    0    0  501  0.00000000000E+00  0.00000000000E+00  0.82792216889E+03  0.82792216889E+03  0.25500000920E-02 0. -1.
        2   -1    0    0  501    0  0.00000000000E+00  0.00000000000E+00 -0.30545813875E+04  0.30545813875E+04  0.25500000920E-02 0.  1.
    10030    2    1    2    0    0  0.00000000000E+00  0.00000000000E+00 -0.22266592187E+04  0.38825035564E+04  0.31805380975E+04 0.  0.
        5    1    3    3  502    0  0.43510715386E+03 -0.12046201584E+04 -0.22639745808E+04  0.26011595403E+04  0.46999998093E+01 0.  1.
       -5    1    3    3    0  502 -0.43510715386E+03  0.12046201584E+04  0.37315362185E+02  0.12813440161E+04  0.46999998093E+01 0. -1.
</event>
<event>
 5   0  0.1268836E-06  0.3179062E+04  0.7818609E-02  0.8194369E-01
        1   -1    0    0  501    0  0.00000000000E+00  0.00000000000E+00  0.20762130214E+04  0.20762130214E+04  0.50400001928E-02 0. -1.
       -1   -1    0    0    0  501  0.00000000000E+00  0.00000000000E+00 -0.12169313527E+04  0.12169313527E+04  0.50400001928E-02 0.  1.
    10030    2    1    2    0    0  0.00000000000E+00  0.00000000000E+00  0.85928166867E+03  0.32931443741E+04  0.31790619501E+04 0.  0.
        1    1    3    3  502    0  0.12595329503E+04  0.16722067139E+03  0.14190187702E+04  0.19047310246E+04  0.50400001928E-02 0. -1.
       -1    1    3    3    0  502 -0.12595329503E+04 -0.16722067139E+03 -0.55973710156E+03  0.13884133494E+04  0.50400001928E-02 0.  1.
</event>
<event>
 5   0  0.1273980E-06  0.3179712E+04  0.7818609E-02  0.8194196E-01
       -1   -1    0    0    0  501  0.00000000000E+00  0.00000000000E+00  0.15393738520E+04  0.15393738520E+04  0.50400001928E-02 0. -1.
        1   -1    0    0  501    0  0.00000000000E+00  0.00000000000E+00 -0.16419938593E+04  0.16419938593E+04  0.50400001928E-02 0.  1.
    10030    2    1    2    0    0  0.00000000000E+00  0.00000000000E+00 -0.10262000724E+03  0.31813677113E+04  0.31797121959E+04 0.  0.
        4    1    3    3  502    0 -0.20762914872E+02  0.81028455039E+03  0.13171186790E+04  0.15465430414E+04  0.12699999809E+01 0. -1.
       -4    1    3    3    0  502  0.20762914872E+02 -0.81028455039E+03 -0.14197386863E+04  0.16348246699E+04  0.12699999809E+01 0.  1.
</event>
<event>
 5   0  0.3758062E-06  0.3191759E+04  0.7818609E-02  0.8190997E-01
        2   -1    0    0  501    0  0.00000000000E+00  0.00000000000E+00  0.16556465188E+04  0.16556465188E+04  0.25500000920E-02 0. -1.
       -2   -1    0    0    0  501  0.00000000000E+00  0.00000000000E+00 -0.15382702688E+04  0.15382702688E+04  0.25500000920E-02 0.  1.
    10030    2    1    2    0    0  0.00000000000E+00  0.00000000000E+00  0.11737625004E+03  0.31939167876E+04  0.31917592738E+04 0.  0.
        2    1    3    3  502    0  0.12462576980E+04  0.12590282860E+03  0.10482053986E+04  0.16333230941E+04  0.25500000920E-02 0. -1.
       -2    1    3    3    0  502 -0.12462576980E+04 -0.12590282860E+03 -0.93082914855E+03  0.15605936934E+04  0.25500000920E-02 0.  1.
</event>
<event>
 5   0  0.3531437E-06  0.3043409E+04  0.7818609E-02  0.8231443E-01
       -2   -1    0    0    0  501  0.00000000000E+00  0.00000000000E+00  0.19831587380E+04  0.19831587380E+04  0.25500000920E-02 0.  1.
        2   -1    0    0  501    0  0.00000000000E+00  0.00000000000E+00 -0.11676243738E+04  0.11676243738E+04  0.25500000920E-02 0. -1.
    10030    2    1    2    0    0  0.00000000000E+00  0.00000000000E+00  0.81553436414E+03  0.31507831118E+04  0.30434089306E+04 0.  0.
        1    1    3    3  502    0  0.55454748714E+03 -0.33248655495E+03  0.18338696187E+04  0.19445174216E+04  0.50400001928E-02 0.  1.
       -1    1    3    3    0  502 -0.55454748714E+03  0.33248655495E+03 -0.10183352545E+04  0.12062656902E+04  0.50400001928E-02 0. -1.
</event>
<event>
 5   0  0.3531437E-06  0.3270603E+04  0.7818609E-02  0.8170416E-01
       -2   -1    0    0    0  501  0.00000000000E+00  0.00000000000E+00  0.14976294289E+04  0.14976294289E+04  0.25500000920E-02 0. -1.
        2   -1    0    0  501    0  0.00000000000E+00  0.00000000000E+00 -0.17856292312E+04  0.17856292312E+04  0.25500000920E-02 0.  1.
    10030    2    1    2    0    0  0.00000000000E+00  0.00000000000E+00 -0.28799980229E+03  0.32832586601E+04  0.32706029326E+04 0.  0.
        1    1    3    3  502    0 -0.85973873655E+03  0.70366319514E+03  0.10606093718E+04  0.15359638104E+04  0.50400001928E-02 0. -1.
       -1    1    3    3    0  502  0.85973873655E+03 -0.70366319514E+03 -0.13486091741E+04  0.17472948497E+04  0.50400001928E-02 0.  1.
</event>
<event>
 5   0  0.1273754E-06  0.3264360E+04  0.7818609E-02  0.8172024E-01
       -1   -1    0    0    0  501  0.00000000000E+00  0.00000000000E+00  0.14755844810E+04  0.14755844811E+04  0.50400001928E-02 0. -1.
        1   -1    0    0  501    0  0.00000000000E+00  0.00000000000E+00 -0.18053941659E+04  0.18053941659E+04  0.50400001928E-02 0.  1.
    10030    2    1    2    0    0  0.00000000000E+00  0.00000000000E+00 -0.32980968488E+03  0.32809786470E+04  0.32643600374E+04 0.  0.
        2    1    3    3  502    0 -0.33128240562E+03  0.11470365223E+04 -0.12834815445E+04  0.17529306007E+04  0.25500000920E-02 0.  1.
       -2    1    3    3    0  502  0.33128240562E+03 -0.11470365223E+04  0.95367185962E+03  0.15280480463E+04  0.25500000920E-02 0. -1.
</event>
<event>
 5   0  0.3745943E-06  0.3424498E+04  0.7818609E-02  0.8131920E-01
        2   -1    0    0  501    0  0.00000000000E+00  0.00000000000E+00  0.22471439120E+04  0.22471439120E+04  0.25500000920E-02 0. -1.
       -2   -1    0    0    0  501  0.00000000000E+00  0.00000000000E+00 -0.13046768299E+04  0.13046768299E+04  0.25500000920E-02 0.  1.
    10030    2    1    2    0    0  0.00000000000E+00  0.00000000000E+00  0.94246708205E+03  0.35518207419E+04  0.34244979752E+04 0.  0.
        5    1    3    3  502    0 -0.35634818539E+03 -0.16215152852E+04  0.90571002481E+03  0.18911976598E+04  0.46999998093E+01 0.  1.
       -5    1    3    3    0  502  0.35634818539E+03  0.16215152852E+04  0.36757057236E+02  0.16606230821E+04  0.46999998093E+01 0. -1.
</event>
<event>
 5   0  0.1273980E-06  0.3134726E+04  0.7818609E-02  0.8206272E-01
        1   -1    0    0  501    0  0.00000000000E+00  0.00000000000E+00  0.15267598937E+04  0.15267598938E+04  0.50400001928E-02 0.  1.
       -1   -1    0    0    0  501  0.00000000000E+00  0.00000000000E+00 -0.16090462928E+04  0.16090462928E+04  0.50400001928E-02 0. -1.
    10030    2    1    2    0    0  0.00000000000E+00  0.00000000000E+00 -0.82286399025E+02  0.31358061865E+04  0.31347263657E+04 0.  0.
        4    1    3    3  502    0  0.11216357957E+04  0.10944716956E+04 -0.14855195618E+02  0.15672132722E+04  0.12699999809E+01 0. -1.
       -4    1    3    3    0  502 -0.11216357957E+04 -0.10944716956E+04 -0.67431203407E+02  0.15685929143E+04  0.12699999809E+01 0.  1.
</event>
<event>
 5   0  0.1268836E-06  0.3164501E+04  0.7818609E-02  0.8198256E-01
       -1   -1    0    0    0  501  0.00000000000E+00  0.00000000000E+00  0.83196316013E+03  0.83196316014E+03  0.50400001928E-02 0.  1.
        1   -1    0    0  501    0  0.00000000000E+00  0.00000000000E+00 -0.30091684241E+04  0.30091684241E+04  0.50400001928E-02 0. -1.
    10030    2    1    2    0    0  0.00000000000E+00  0.00000000000E+00 -0.21772052640E+04  0.38411315842E+04  0.31645013961E+04 0.  0.
        1    1    3    3  502    0  0.13392720040E+04 -0.80913562867E+03 -0.80350423334E+03  0.17589681690E+04  0.50400001928E-02 0. -1.
       -1    1    3    3    0  502 -0.13392720040E+04  0.80913562867E+03 -0.13737010306E+04  0.20821634153E+04  0.50400001928E-02 0.  1.
</event>
<event>
 5   0  0.1268836E-06  0.3243940E+04  0.7818609E-02  0.8177308E-01
       -1   -1    0    0    0  501  0.00000000000E+00  0.00000000000E+00  0.85538855825E+03  0.85538855827E+03  0.50400001928E-02 0.  1.
        1   -1    0    0  501    0  0.00000000000E+00  0.00000000000E+00 -0.30755465246E+04  0.30755465246E+04  0.50400001928E-02 0. -1.
    10030    2    1    2    0    0  0.00000000000E+00  0.00000000000E+00 -0.22201579663E+04  0.39309350829E+04  0.32439403864E+04 0.  0.
        1    1    3    3  502    0 -0.60810502336E+03  0.13749124747E+04 -0.37237467285E+03  0.15488185592E+04  0.50400001928E-02 0.  1.
       -1    1    3    3    0  502  0.60810502336E+03 -0.13749124747E+04 -0.18477832935E+04  0.23821165236E+04  0.50400001928E-02 0. -1.
</event>
<event>
 5   0  0.1273754E-06  0.3260365E+04  0.7818609E-02  0.8173054E-01
        1   -1    0    0  501    0  0.00000000000E+00  0.00000000000E+00  0.12553778310E+04  0.12553778310E+04  0.50400001928E-02 0. -1.
       -1   -1    0    0    0  501  0.00000000000E+00  0.00000000000E+00 -0.21168886879E+04  0.21168886879E+04  0.50400001928E-02 0.  1.
    10030    2    1    2    0    0  0.00000000000E+00  0.00000000000E+00 -0.86151085684E+03  0.33722665189E+04  0.32603650897E+04 0.  0.
        2    1    3    3  502    0  0.12918518899E+04  0.35796444577E+03  0.52870011300E+03  0.14410217414E+04  0.25500000920E-02 0. -1.
       -2    1    3    3    0  502 -0.12918518899E+04 -0.35796444577E+03 -0.13902109698E+04  0.19312447775E+04  0.25500000920E-02 0.  1.
</event>
<event>
 5   0  0.1240725E-06  0.3208752E+04  0.7818609E-02  0.8186510E-01
       -1   -1    0    0    0  501  0.00000000000E+00  0.00000000000E+00  0.17655835494E+04  0.17655835495E+04  0.50400001928E-02 0.  1.
        1   -1    0    0  501    0  0.00000000000E+00  0.00000000000E+00 -0.14578876372E+04  0.14578876372E+04  0.50400001928E-02 0. -1.
    10030    2    1    2    0    0  0.00000000000E+00  0.00000000000E+00  0.30769591226E+03  0.32234711866E+04  0.32087520497E+04 0.  0.
        3    1    3    3  502    0 -0.84594628023E+02  0.19184018415E+03 -0.14440658353E+04  0.14592069950E+04  0.10100000352E+00 0. -1.
       -3    1    3    3    0  502  0.84594628023E+02 -0.19184018415E+03  0.17517617476E+04  0.17642641916E+04  0.10100000352E+00 0.  1.
</event>
<event>
 5   0  0.3656086E-06  0.3204795E+04  0.7818609E-02  0.8187552E-01
       -2   -1    0    0    0  501  0.00000000000E+00  0.00000000000E+00  0.24524761625E+04  0.24524761625E+04  0.25500000920E-02 0. -1.
        2   -1    0    0  501    0  0.00000000000E+00  0.00000000000E+00 -0.10469738943E+04  0.10469738943E+04  0.25500000920E-02 0.  1.
    10030    2    1    2    0    0  0.00000000000E+00  0.00000000000E+00  0.14055022683E+04  0.34994500568E+04  0.32047954809E+04 0.  0.
        3    1    3    3  502    0 -0.17592421103E+03 -0.29229055913E+03 -0.10068598764E+04  0.10630850953E+04  0.10100000352E+00 0.  1.
       -3    1    3    3    0  502  0.17592421103E+03  0.29229055913E+03  0.24123621446E+04  0.24363649616E+04  0.10100000352E+00 0. -1.
</event>
<event>
 5   0  0.1240725E-06  0.3230006E+04  0.7818609E-02  0.8180937E-01
        1   -1    0    0  501    0  0.00000000000E+00  0.00000000000E+00  0.20760814554E+04  0.20760814555E+04  0.50400001928E-02 0. -1.
       -1   -1    0    0    0  501  0.00000000000E+00  0.00000000000E+00 -0.12563258385E+04  0.12563258386E+04  0.50400001928E-02 0.  1.
    10030    2    1    2    0    0  0.00000000000E+00  0.00000000000E+00  0.81975561690E+03  0.33324072940E+04  0.32300060529E+04 0.  0.
        3    1    3    3  502    0 -0.49204486453E+03 -0.89971581020E+02  0.19941491372E+04  0.20559265128E+04  0.10100000352E+00 0. -1.
       -3    1    3    3    0  502  0.49204486453E+03  0.89971581020E+02 -0.11743935203E+04  0.12764807813E+04  0.10100000352E+00 0.  1.
</event>
<event>
 5   0  0.3497546E-06  0.3108651E+04  0.7818609E-02  0.8213368E-01
       -2   -1    0    0    0  501  0.00000000000E+00  0.00000000000E+00  0.17225525359E+04  0.17225525359E+04  0.25500000920E-02 0.  1.
        2   -1    0    0  501    0  0.00000000000E+00  0.00000000000E+00 -0.14025274875E+04  0.14025274875E+04  0.25500000920E-02 0. -1.
    10030    2    1    2    0    0  0.00000000000E+00  0.00000000000E+00  0.32002504833E+03  0.31250800234E+04  0.31086506914E+04 0.  0.
        4    1    3    3  502    0  0.61143345243E+03  0.27612125490E+03 -0.12494787840E+04  0.14182005002E+04  0.12699999809E+01 0. -1.
       -4    1    3    3    0  502 -0.61143345243E+03 -0.27612125490E+03  0.15695038323E+04  0.17068795232E+04  0.12699999809E+01 0.  1.
</event>
<event>
 5   0  0.3656086E-06  0.3128052E+04  0.7818609E-02  0.8208081E-01
        2   -1    0    0  501    0  0.00000000000E+00  0.00000000000E+00  0.92976827982E+03  0.92976827982E+03  0.25500000920E-02 0. -1.
       -2   -1    0    0    0  501  0.00000000000E+00  0.00000000000E+00 -0.26309539467E+04  0.26309539467E+04  0.25500000920E-02 0.  1.
    10030    2    1    2    0    0  0.00000000000E+00  0.00000000000E+00 -0.17011856668E+04  0.35607222265E+04  0.31280521257E+04 0.  0.
        3    1    3    3  502    0  0.15166796713E+04 -0.38166964494E+03 -0.83496125915E+03  0.17728929064E+04  0.10100000352E+00 0. -1.
       -3    1    3    3    0  502 -0.15166796713E+04  0.38166964494E+03 -0.86622440770E+03  0.17878293201E+04  0.10100000352E+00 0.  1.
</event>
<event>
 5   0  0.3758062E-06  0.3213248E+04  0.7818609E-02  0.8185327E-01
       -2   -1    0    0    0  501  0.00000000000E+00  0.00000000000E+00  0.15266524178E+04  0.15266524178E+04  0.25500000920E-02 0. -1.
        2   -1    0    0  501    0  0.00000000000E+00  0.00000000000E+00 -0.16907850293E+04  0.16907850293E+04  0.25500000920E-02 0.  1.
    10030    2    1    2    0    0  0.00000000000E+00  0.00000000000E+00 -0.16413261155E+03  0.32174374471E+04  0.32132482338E+04 0.  0.
        2    1    3    3  502    0 -0.13120122086E+04 -0.52749566424E+03 -0.84569636397E+03  0.16476741338E+04  0.25500000920E-02 0.  1.
       -2    1    3    3    0  502  0.13120122086E+04  0.52749566424E+03  0.68156375242E+03  0.15697633133E+04  0.25500000920E-02 0. -1.
</event>
<event>
 5   0  0.1306843E-06  0.3210201E+04  0.7818609E-02  0.8186128E-01
        1   -1    0    0  501    0  0.00000000000E+00  0.00000000000E+00  0.25649801445E+04  0.25649801445E+04  0.50400001928E-02 0. -1.
       -1   -1    0    0    0  501  0.00000000000E+00  0.00000000000E+00 -0.10044315474E+04  0.10044315474E+04  0.50400001928E-02 0.  1.
    10030    2    1    2    0    0  0.00000000000E+00  0.00000000000E+00  0.15605485971E+04  0.35694116919E+04  0.32102006016E+04 0.  0.
        5    1    3    3  502    0  0.43793262357E+03 -0.20542494135E+03  0.24819997077E+04  0.25287010555E+04  0.46999998093E+01 0. -1.
       -5    1    3    3    0  502 -0.43793262357E+03  0.20542494135E+03 -0.92145111062E+03  0.10407106363E+04  0.46999998093E+01 0.  1.
</event>
<event>
 5   0  0.1268836E-06  0.3198808E+04  0.7818609E-02  0.8189132E-01
       -1   -1    0    0    0  501  0.00000000000E+00  0.00000000000E+00  0.16154120426E+04  0.16154120426E+04  0.50400001928E-02 0.  1.
        1   -1    0    0  501    0  0.00000000000E+00  0.00000000000E+00 -0.15835541518E+04  0.15835541518E+04  0.50400001928E-02 0. -1.
    10030    2    1    2    0    0  0.00000000000E+00  0.00000000000E+00  0.31857890825E+02  0.31989661944E+04  0.31988075572E+04 0.  0.
        1    1    3    3  502    0 -0.10457656188E+04 -0.71454038332E+03  0.99265478883E+03  0.16092101226E+04  0.50400001928E-02 0.  1.
       -1    1    3    3    0  502  0.10457656188E+04  0.71454038332E+03 -0.96079689801E+03  0.15897560719E+04  0.50400001928E-02 0. -1.
</event>
<event>
 5   0  0.3497546E-06  0.3234508E+04  0.7818609E-02  0.8179763E-01
       -2   -1    0    0    0  501  0.00000000000E+00  0.00000000000E+00  0.14086109874E+04  0.14086109874E+04  0.25500000920E-02 0. -1.
        2   -1    0    0  501    0  0.00000000000E+00  0.00000000000E+00 -0.18568011336E+04  0.18568011336E+04  0.25500000920E-02 0.  1.
    10030    2    1    2    0    0  0.00000000000E+00  0.00000000000E+00 -0.44819014613E+03  0.32654121210E+04  0.32345079862E+04 0.  0.
        4    1    3    3  502    0 -0.77198421797E+02  0.14761751963E+04  0.43826506082E+03  0.15417946306E+04  0.12699999809E+01 0. -1.
       -4    1    3    3    0  502  0.77198421797E+02 -0.14761751963E+04 -0.88645520695E+03  0.17236174904E+04  0.12699999809E+01 0.  1.
</event>
<event>
 5   0  0.3497546E-06  0.2489372E+04  0.7818609E-02  0.8406782E-01
        2   -1    0    0  501    0  0.00000000000E+00  0.00000000000E+00  0.16213376120E+04  0.16213376120E+04  0.25500000920E-02 0.  1.
       -2   -1    0    0    0  501  0.00000000000E+00  0.00000000000E+00 -0.95553384113E+03  0.95553384114E+03  0.25500000920E-02 0. -1.
    10030    2    1    2    0    0  0.00000000000E+00  0.00000000000E+00  0.66580377089E+03  0.25768714532E+04  0.24893717731E+04 0.  0.
        4    1    3    3  502    0  0.32881474539E+02 -0.11359651509E+04 -0.19262714226E+03  0.11526512241E+04  0.12699999809E+01 0. -1.
       -4    1    3    3    0  502 -0.32881474539E+02  0.11359651509E+04  0.85843091315E+03  0.14242202291E+04  0.12699999809E+01 0.  1.
</event>
<event>
 5   0  0.3745943E-06  0.2757747E+04  0.7818609E-02  0.8316508E-01
        2   -1    0    0  501    0  0.00000000000E+00  0.00000000000E+00  0.12742915778E+04  0.12742915778E+04  0.25500000920E-02 0. -1.
       -2   -1    0    0    0  501  0.00000000000E+00  0.00000000000E+00 -0.14920380120E+04  0.14920380120E+04  0.25500000920E-02 0.  1.
    10030    2    1    2    0    0  0.00000000000E+00  0.00000000000E+00 -0.21774643412E+03  0.27663295898E+04  0.27577465239E+04 0.  0.
        5    1    3    3  502    0 -0.87189207751E+02  0.10610769491E+04  0.77008627349E+03  0.13139791507E+04  0.46999998093E+01 0. -1.
       -5    1    3    3    0  502  0.87189207751E+02 -0.10610769491E+04 -0.98783270761E+03  0.14523504391E+04  0.46999998093E+01 0.  1.
</event>
<event>
 5   0  0.3656086E-06  0.3212052E+04  0.7818609E-02  0.8185642E-01
       -2   -1    0    0    0  501  0.00000000000E+00  0.00000000000E+00  0.10248984346E+04  0.10248984346E+04  0.25500000920E-02 0. -1.
        2   -1    0    0  501    0  0.00000000000E+00  0.00000000000E+00 -0.25166585607E+04  0.25166585607E+04  0.25500000920E-02 0.  1.
    10030    2    1    2    0    0  0.00000000000E+00  0.00000000000E+00 -0.14917601261E+04  0.35415569953E+04  0.32120519418E+04 0.  0.
        3    1    3    3  502    0 -0.25118820849E+03  0.86257986503E+03 -0.22136756422E+04  0.23890373372E+04  0.10100000352E+00 0.  1.
       -3    1    3    3    0  502  0.25118820849E+03 -0.86257986503E+03  0.72191551607E+03  0.11525196580E+04  0.10100000352E+00 0. -1.
</event>
<event>
 5   0  0.3497546E-06  0.3199947E+04  0.7818609E-02  0.8188831E-01
       -2   -1    0    0    0  501  0.00000000000E+00  0.00000000000E+00  0.13594050923E+04  0.13594050923E+04  0.25500000920E-02 0. -1.
        2   -1    0    0  501    0  0.00000000000E+00  0.00000000000E+00 -0.18831146413E+04  0.18831146413E+04  0.25500000920E-02 0.  1.
    10030    2    1    2    0    0  0.00000000000E+00  0.00000000000E+00 -0.52370954903E+03  0.32425197336E+04  0.31999472700E+04 0.  0.
        4    1    3    3  502    0 -0.11649065557E+03 -0.12971569433E+04 -0.12035887908E+04  0.17733622864E+04  0.12699999809E+01 0. -1.
       -4    1    3    3    0  502  0.11649065557E+03  0.12971569433E+04  0.67987924175E+03  0.14691574472E+04  0.12699999809E+01 0.  1.
</event>
<event>
 5   0  0.1306843E-06  0.3258070E+04  0.7818609E-02  0.8173647E-01
       -1   -1    0    0    0  501  0.00000000000E+00  0.00000000000E+00  0.14112419740E+04  0.14112419740E+04  0.50400001928E-02 0. -1.
        1   -1    0    0  501    0  0.00000000000E+00  0.00000000000E+00 -0.18804389704E+04  0.18804389704E+04  0.50400001928E-02 0.  1.
    10030    2    1    2    0    0  0.00000000000E+00  0.00000000000E+00 -0.46919699640E+03  0.32916809444E+04  0.32580696154E+04 0.  0.
        5    1    3    3  502    0  0.96813447023E+03  0.12854748200E+04  0.20998453811E+02  0.16094076210E+04  0.46999998093E+01 0. -1.
       -5    1    3    3    0  502 -0.96813447023E+03 -0.12854748200E+04 -0.49019545021E+03  0.16822733235E+04  0.46999998093E+01 0.  1.
</event>
<event>
 5   0  0.1273754E-06  0.3118217E+04  0.7818609E-02  0.8210756E-01
       -1   -1    0    0    0  501  0.00000000000E+00  0.00000000000E+00  0.20930163827E+04  0.20930163827E+04  0.50400001928E-02 0. -1.
        1   -1    0    0  501    0  0.00000000000E+00  0.00000000000E+00 -0.11613949509E+04  0.11613949509E+04  0.50400001928E-02 0.  1.
    10030    2    1    2    0    0  0.00000000000E+00  0.00000000000E+00  0.93162143177E+03  0.32544113336E+04  0.31182165794E+04 0.  0.
        2    1    3    3  502    0  0.11043204337E+04  0.52305652634E+03  0.14764582607E+04  0.19165178699E+04  0.25500000920E-02 0. -1.
       -2    1    3    3    0  502 -0.11043204337E+04 -0.52305652634E+03 -0.54483682896E+03  0.13378934637E+04  0.25500000920E-02 0.  1.
</event>
<event>
 5   0  0.3497546E-06  0.3116969E+04  0.7818609E-02  0.8211096E-01
        2   -1    0    0  501    0  0.00000000000E+00  0.00000000000E+00  0.11004118470E+04  0.11004118470E+04  0.25500000920E-02 0.  1.
       -2   -1    0    0    0  501  0.00000000000E+00  0.00000000000E+00 -0.22072402225E+04  0.22072402225E+04  0.25500000920E-02 0. -1.
    10030    2    1    2    0    0  0.00000000000E+00  0.00000000000E+00 -0.11068283755E+04  0.33076520694E+04  0.31169685850E+04 0.  0.
        4    1    3    3  502    0  0.90093535604E+01  0.58510797580E+03  0.97940263463E+03  0.11409047486E+04  0.12699999809E+01 0.  1.
       -4    1    3    3    0  502 -0.90093535604E+01 -0.58510797580E+03 -0.20862310101E+04  0.21667473208E+04  0.12699999809E+01 0. -1.
</event>
<event>
 5   0  0.3656086E-06  0.3353605E+04  0.7818609E-02  0.8149388E-01
       -2   -1    0    0    0  501  0.00000000000E+00  0.00000000000E+00  0.13751924526E+04  0.13751924526E+04  0.25500000920E-02 0. -1.
        2   -1    0    0  501    0  0.00000000000E+00  0.00000000000E+00 -0.20445627693E+04  0.20445627693E+04  0.25500000920E-02 0.  1.
    10030    2    1    2    0    0  0.00000000000E+00  0.00000000000E+00 -0.66937031667E+03  0.34197552219E+04  0.33536053967E+04 0.  0.
        3    1    3    3  502    0 -0.16564635575E+04 -0.23036686898E+03 -0.45843317555E+03  0.17340995930E+04  0.10100000352E+00 0. -1.
       -3    1    3    3    0  502  0.16564635575E+04  0.23036686898E+03 -0.21093714112E+03  0.16856556290E+04  0.10100000352E+00 0.  1.
</event>
<event>
 5   0  0.1185575E-06  0.3161440E+04  0.7818609E-02  0.8199076E-01
        3   -1    0    0  501    0  0.00000000000E+00  0.00000000000E+00  0.15955949090E+04  0.15955949122E+04  0.10100000352E+00 0.  1.
       -3   -1    0    0    0  501  0.00000000000E+00  0.00000000000E+00 -0.15659839487E+04  0.15659839520E+04  0.10100000352E+00 0. -1.
    10030    2    1    2    0    0  0.00000000000E+00  0.00000000000E+00  0.29610960307E+02  0.31615788642E+04  0.31614401949E+04 0.  0.
        1    1    3    3  502    0  0.42635206341E+03 -0.17442104912E+03  0.15269820005E+04  0.15949522921E+04  0.50400001928E-02 0.  1.
       -1    1    3    3    0  502 -0.42635206341E+03  0.17442104912E+03 -0.14973710402E+04  0.15666265721E+04  0.50400001928E-02 0. -1.
</event>
<event>
 5   0  0.3758062E-06  0.3168299E+04  0.7818609E-02  0.8197240E-01
        2   -1    0    0  501    0  0.00000000000E+00  0.00000000000E+00  0.18643771902E+04  0.18643771902E+04  0.25500000920E-02 0.  1.
       -2   -1    0    0    0  501  0.00000000000E+00  0.00000000000E+00 -0.13460420841E+04  0.13460420841E+04  0.25500000920E-02 0. -1.
    10030    2    1    2    0    0  0.00000000000E+00  0.00000000000E+00  0.51833510608E+03  0.32104192743E+04  0.31682993285E+04 0.  0.
        2    1    3    3  502    0  0.96240806770E+02 -0.66421455957E+03 -0.11948608328E+04  0.13704509053E+04  0.25500000920E-02 0. -1.
       -2    1    3    3    0  502 -0.96240806770E+02  0.66421455957E+03  0.17131959389E+04  0.18399683690E+04  0.25500000920E-02 0.  1.
</event>
<event>
 5   0  0.3497546E-06  0.3201875E+04  0.7818609E-02  0.8188322E-01
       -2   -1    0    0    0  501  0.00000000000E+00  0.00000000000E+00  0.20304512818E+04  0.20304512818E+04  0.25500000920E-02 0.  1.
        2   -1    0    0  501    0  0.00000000000E+00  0.00000000000E+00 -0.12622815477E+04  0.12622815477E+04  0.25500000920E-02 0. -1.
    10030    2    1    2    0    0  0.00000000000E+00  0.00000000000E+00  0.76816973408E+03  0.32927328295E+04  0.32018751921E+04 0.  0.
        4    1    3    3  502    0  0.58903451899E+03  0.12582031768E+04  0.12022503341E+04  0.18372382473E+04  0.12699999809E+01 0. -1.
       -4    1    3    3    0  502 -0.58903451899E+03 -0.12582031768E+04 -0.43408059998E+03  0.14554945822E+04  0.12699999809E+01 0.  1.
</event>
<event>
 5   0  0.1268836E-06  0.2583445E+04  0.7818609E-02  0.8373846E-01
        1   -1    0    0  501    0  0.00000000000E+00  0.00000000000E+00  0.14306871572E+04  0.14306871572E+04  0.50400001928E-02 0. -1.
       -1   -1    0    0    0  501  0.00000000000E+00  0.00000000000E+00 -0.11662557920E+04  0.11662557920E+04  0.50400001928E-02 0.  1.
    10030    2    1    2    0    0  0.00000000000E+00  0.00000000000E+00  0.26443136523E+03  0.25969429492E+04  0.25834451290E+04 0.  0.
        1    1    3    3  502    0  0.18008774068E+03 -0.10663352293E+04  0.84233760576E+03  0.13707789967E+04  0.50400001928E-02 0. -1.
       -1    1    3    3    0  502 -0.18008774068E+03  0.10663352293E+04 -0.57790624053E+03  0.12261639525E+04  0.50400001928E-02 0.  1.
</event>
<event>
 5   0  0.3758062E-06  0.2988393E+04  0.7818609E-02  0.8247053E-01
        2   -1    0    0  501    0  0.00000000000E+00  0.00000000000E+00  0.10840276433E+04  0.10840276433E+04  0.25500000920E-02 0.  1.
       -2   -1    0    0    0  501  0.00000000000E+00  0.00000000000E+00 -0.20595628260E+04  0.20595628260E+04  0.25500000920E-02 0. -1.
    10030    2    1    2    0    0  0.00000000000E+00  0.00000000000E+00 -0.97553518276E+03  0.31435904693E+04  0.29883929035E+04 0.  0.
        2    1    3    3  502    0  0.75848344663E+03  0.12239438819E+04 -0.67932434206E+02  0.14415098267E+04  0.25500000920E-02 0. -1.
       -2    1    3    3    0  502 -0.75848344663E+03 -0.12239438819E+04 -0.90760274855E+03  0.17020806426E+04  0.25500000920E-02 0.  1.
</event>
<event>
 5   0  0.1306843E-06  0.3196230E+04  0.7818609E-02  0.8189814E-01
        1   -1    0    0  501    0  0.00000000000E+00  0.00000000000E+00  0.16552488246E+04  0.16552488246E+04  0.50400001928E-02 0. -1.
       -1   -1    0    0    0  501  0.00000000000E+00  0.00000000000E+00 -0.15429532014E+04  0.15429532014E+04  0.50400001928E-02 0.  1.
    10030    2    1    2    0    0  0.00000000000E+00  0.00000000000E+00  0.11229562323E+03  0.31982020260E+04  0.31962299498E+04 0.  0.
        5    1    3    3  502    0  0.14853701348E+04  0.35968579399E+03 -0.41131393078E+03  0.15826874446E+04  0.46999998093E+01 0. -1.
       -5    1    3    3    0  502 -0.14853701348E+04 -0.35968579399E+03  0.52360955401E+03  0.16155145814E+04  0.46999998093E+01 0.  1.
</event>
<event>
 5   0  0.1240725E-06  0.3428893E+04  0.7818609E-02  0.8130851E-01
       -1   -1    0    0    0  501  0.00000000000E+00  0.00000000000E+00  0.19748979713E+04  0.19748979713E+04  0.50400001928E-02 0. -1.
        1   -1    0    0  501    0  0.00000000000E+00  0.00000000000E+00 -0.14883432169E+04  0.14883432169E+04  0.50400001928E-02 0.  1.
    10030    2    1    2    0    0  0.00000000000E+00  0.00000000000E+00  0.48655475437E+03  0.34632411882E+04  0.34288925323E+04 0.  0.
        3    1    3    3  502    0  0.39418185762E+03  0.16379634845E+03  0.19203678598E+04  0.19672369729E+04  0.10100000352E+00 0. -1.
       -3    1    3    3    0  502 -0.39418185762E+03 -0.16379634845E+03 -0.14338131054E+04  0.14960042152E+04  0.10100000352E+00 0.  1.
</event>
<event>
 5   0  0.3745943E-06  0.3209343E+04  0.7818609E-02  0.8186354E-01
       -2   -1    0    0    0  501  0.00000000000E+00  0.00000000000E+00  0.10313174923E+04  0.10313174923E+04  0.25500000920E-02 0. -1.
        2   -1    0    0  501    0  0.00000000000E+00  0.00000000000E+00 -0.24967777689E+04  0.24967777689E+04  0.25500000920E-02 0.  1.
    10030    2    1    2    0    0  0.00000000000E+00  0.00000000000E+00 -0.14654602766E+04  0.35280952612E+04  0.32093429779E+04 0.  0.
        5    1    3    3  502    0  0.16043634668E+04 -0.19467138499E+02 -0.75937350441E+03  0.17751144504E+04  0.46999998093E+01 0. -1.
       -5    1    3    3    0  502 -0.16043634668E+04  0.19467138499E+02 -0.70608677223E+03  0.17529808108E+04  0.46999998093E+01 0.  1.
</event>
<event>
 5   0  0.1306843E-06  0.2991206E+04  0.7818609E-02  0.8246246E-01
       -1   -1    0    0    0  501  0.00000000000E+00  0.00000000000E+00  0.70844735726E+03  0.70844735727E+03  0.50400001928E-02 0. -1.
        1   -1    0    0  501    0  0.00000000000E+00  0.00000000000E+00 -0.31573675465E+04  0.31573675466E+04  0.50400001928E-02 0.  1.
    10030    2    1    2    0    0  0.00000000000E+00  0.00000000000E+00 -0.24489201893E+04  0.38658149038E+04  0.29912062412E+04 0.  0.
        5    1    3    3  502    0 -0.60152501939E+03  0.87827861328E+03  0.13323024287E+03  0.10728364550E+04  0.46999998093E+01 0. -1.
       -5    1    3    3    0  502  0.60152501939E+03 -0.87827861328E+03 -0.25821504322E+04  0.27929784489E+04  0.46999998093E+01 0.  1.
</event>
<event>
 5   0  0.3656086E-06  0.3202169E+04  0.7818609E-02  0.8188245E-01
       -2   -1    0    0    0  501  0.00000000000E+00  0.00000000000E+00  0.14121381069E+04  0.14121381069E+04  0.25500000920E-02 0.  1.
        2   -1    0    0  501    0  0.00000000000E+00  0.00000000000E+00 -0.18153122282E+04  0.18153122282E+04  0.25500000920E-02 0. -1.
    10030    2    1    2    0    0  0.00000000000E+00  0.00000000000E+00 -0.40317412128E+03  0.32274503351E+04  0.32021689983E+04 0.  0.
        3    1    3    3  502    0  0.85624778531E+03  0.11165725497E+04 -0.97154041582E+03  0.17099079853E+04  0.10100000352E+00 0.  1.
       -3    1    3    3    0  502 -0.85624778531E+03 -0.11165725497E+04  0.56836629454E+03  0.15175423498E+04  0.10100000352E+00 0. -1.
</event>
<event>
 5   0  0.1268836E-06  0.3212283E+04  0.7818609E-02  0.8185581E-01
       -1   -1    0    0    0  501  0.00000000000E+00  0.00000000000E+00  0.14203294045E+04  0.14203294045E+04  0.50400001928E-02 0.  1.
        1   -1    0    0  501    0  0.00000000000E+00  0.00000000000E+00 -0.18162623560E+04  0.18162623560E+04  0.50400001928E-02 0. -1.
    10030    2    1    2    0    0  0.00000000000E+00  0.00000000000E+00 -0.39593295148E+03  0.32365917606E+04  0.32122831946E+04 0.  0.
        1    1    3    3  502    0 -0.95400859149E+03  0.69218913652E+03  0.90135955354E+03  0.14838150957E+04  0.50400001928E-02 0.  1.
       -1    1    3    3    0  502  0.95400859149E+03 -0.69218913652E+03 -0.12972925050E+04  0.17527766649E+04  0.50400001928E-02 0. -1.
</event>
<event>
 5   0  0.1306843E-06  0.3167310E+04  0.7818609E-02  0.8197504E-01
        1   -1    0    0  501    0  0.00000000000E+00  0.00000000000E+00  0.20271124032E+04  0.20271124032E+04  0.50400001928E-02 0. -1.
       -1   -1    0    0    0  501  0.00000000000E+00  0.00000000000E+00 -0.12372099058E+04  0.12372099058E+04  0.50400001928E-02 0.  1.
    10030    2    1    2    0    0  0.00000000000E+00  0.00000000000E+00  0.78990249739E+03  0.32643223090E+04  0.31673102440E+04 0.  0.
        5    1    3    3  502    0  0.15105695657E+04  0.44039489143E+03  0.57981458474E+03  0.16768944856E+04  0.46999998093E+01 0. -1.
       -5    1    3    3    0  502 -0.15105695657E+04 -0.44039489143E+03  0.21008791264E+03  0.15874278233E+04  0.46999998093E+01 0.  1.
</event>
<event>
 5   0  0.3656086E-06  0.2517906E+04  0.7818609E-02  0.8396634E-01
        2   -1    0    0  501    0  0.00000000000E+00  0.00000000000E+00  0.20586160872E+04  0.20586160872E+04  0.25500000920E-02 0. -1.
       -2   -1    0    0    0  501  0.00000000000E+00  0.00000000000E+00 -0.76991643587E+03  0.76991643588E+03  0.25500000920E-02 0.  1.
    10030    2    1    2    0    0  0.00000000000E+00  0.00000000000E+00  0.12886996513E+04  0.28285325231E+04  0.25179057653E+04 0.  0.
        3    1    3    3  502    0 -0.10283851390E+04  0.43109188513E+03 -0.12167810532E+02  0.11151521301E+04  0.10100000352E+00 0.  1.
       -3    1    3    3    0  502  0.10283851390E+04 -0.43109188513E+03  0.13008674618E+04  0.17133803930E+04  0.10100000352E+00 0. -1.
</event>
<event>
 5   0  0.3745943E-06  0.3217524E+04  0.7818609E-02  0.8184204E-01
       -2   -1    0    0    0  501  0.00000000000E+00  0.00000000000E+00  0.12281712070E+04  0.12281712070E+04  0.25500000920E-02 0.  1.
        2   -1    0    0  501    0  0.00000000000E+00  0.00000000000E+00 -0.21072914852E+04  0.21072914852E+04  0.25500000920E-02 0. -1.
    10030    2    1    2    0    0  0.00000000000E+00  0.00000000000E+00 -0.87912027815E+03  0.33354626922E+04  0.32175237229E+04 0.  0.
        5    1    3    3  502    0 -0.82393134854E+02  0.40967214063E+03 -0.20500408558E+04  0.20922020676E+04  0.46999998093E+01 0. -1.
       -5    1    3    3    0  502  0.82393134854E+02 -0.40967214063E+03  0.11709205776E+04  0.12432606246E+04  0.46999998093E+01 0.  1.
</event>
<event>
 5   0  0.3745943E-06  0.3189231E+04  0.7818609E-02  0.8191667E-01
        2   -1    0    0  501    0  0.00000000000E+00  0.00000000000E+00  0.16141642045E+04  0.16141642045E+04  0.25500000920E-02 0.  1.
       -2   -1    0    0    0  501  0.00000000000E+00  0.00000000000E+00 -0.15753030730E+04  0.15753030730E+04  0.25500000920E-02 0. -1.
    10030    2    1    2    0    0  0.00000000000E+00  0.00000000000E+00  0.38861131441E+02  0.31894672775E+04  0.31892305226E+04 0.  0.
        5    1    3    3  502    0  0.11618743975E+04 -0.78709378953E+03 -0.73779602872E+03  0.15855074327E+04  0.46999998093E+01 0. -1.
       -5    1    3    3    0  502 -0.11618743975E+04  0.78709378953E+03  0.77665716016E+03  0.16039598448E+04  0.46999998093E+01 0.  1.
</event>
<event>
 5   0  0.1273980E-06  0.3217310E+04  0.7818609E-02  0.8184261E-01
        1   -1    0    0  501    0  0.00000000000E+00  0.00000000000E+00  0.22694256359E+04  0.22694256359E+04  0.50400001928E-02 0. -1.
       -1   -1    0    0    0  501  0.00000000000E+00  0.00000000000E+00 -0.11402757273E+04  0.11402757273E+04  0.50400001928E-02 0.  1.
    10030    2    1    2    0    0  0.00000000000E+00  0.00000000000E+00  0.11291499086E+04  0.34097013632E+04  0.32173100364E+04 0.  0.
        4    1    3    3  502    0  0.97452895070E+03  0.12378545764E+04  0.90926012287E+03  0.18189959351E+04  0.12699999809E+01 0.  1.
       -4    1    3    3    0  502 -0.97452895070E+03 -0.12378545764E+04  0.21988978571E+03  0.15907054281E+04  0.12699999809E+01 0. -1.
</event>
<event>
 5   0  0.1185575E-06  0.3183465E+04  0.7818609E-02  0.8193198E-01
       -3   -1    0    0    0  501  0.00000000000E+00  0.00000000000E+00  0.19655787032E+04  0.19655787058E+04  0.10100000352E+00 0.  1.
        3   -1    0    0  501    0  0.00000000000E+00  0.00000000000E+00 -0.12889907033E+04  0.12889907073E+04  0.10100000352E+00 0. -1.
    10030    2    1    2    0    0  0.00000000000E+00  0.00000000000E+00  0.67658799983E+03  0.32545694131E+04  0.31834652099E+04 0.  0.
        2    1    3    3  502    0 -0.78008738859E+03  0.16975309145E+03 -0.10695106650E+04  0.13346181133E+04  0.25500000920E-02 0. -1.
       -2    1    3    3    0  502  0.78008738859E+03 -0.16975309145E+03  0.17460986648E+04  0.19199512997E+04  0.25500000920E-02 0.  1.
</event>
<event>
 5   0  0.1273980E-06  0.3165693E+04  0.7818609E-02  0.8197937E-01
       -1   -1    0    0    0  501  0.00000000000E+00  0.00000000000E+00  0.15228429745E+04  0.15228429745E+04  0.50400001928E-02 0. -1.
        1   -1    0    0  501    0  0.00000000000E+00  0.00000000000E+00 -0.16452146915E+04  0.16452146915E+04  0.50400001928E-02 0.  1.
    10030    2    1    2    0    0  0.00000000000E+00  0.00000000000E+00 -0.12237171703E+03  0.31680576660E+04  0.31656933740E+04 0.  0.
        4    1    3    3  502    0  0.11011978562E+04  0.10810533515E+04  0.29133984951E+03  0.15704119167E+04  0.12699999809E+01 0.  1.
       -4    1    3    3    0  502 -0.11011978562E+04 -0.10810533515E+04 -0.41371156654E+03  0.15976457493E+04  0.12699999809E+01 0. -1.
</event>
<event>
 5   0  0.1240725E-06  0.3159787E+04  0.7818609E-02  0.8199519E-01
       -1   -1    0    0    0  501  0.00000000000E+00  0.00000000000E+00  0.23825844123E+04  0.23825844123E+04  0.50400001928E-02 0.  1.
        1   -1    0    0  501    0  0.00000000000E+00  0.00000000000E+00 -0.10476288624E+04  0.10476288624E+04  0.50400001928E-02 0. -1.
    10030    2    1    2    0    0  0.00000000000E+00  0.00000000000E+00  0.13349555499E+04  0.34302132747E+04  0.31597874595E+04 0.  0.
        3    1    3    3  502    0  0.33443769913E+03  0.15023147440E+04  0.10547527974E+04  0.18658246537E+04  0.10100000352E+00 0.  1.
       -3    1    3    3    0  502 -0.33443769913E+03 -0.15023147440E+04  0.28020275249E+03  0.15643886209E+04  0.10100000352E+00 0. -1.
</event>
<event>
 5   0  0.1268836E-06  0.3112854E+04  0.7818609E-02  0.8212219E-01
       -1   -1    0    0    0  501  0.00000000000E+00  0.00000000000E+00  0.12588768190E+04  0.12588768190E+04  0.50400001928E-02 0. -1.
        1   -1    0    0  501    0  0.00000000000E+00  0.00000000000E+00 -0.19243060099E+04  0.19243060099E+04  0.50400001928E-02 0.  1.
    10030    2    1    2    0    0  0.00000000000E+00  0.00000000000E+00 -0.66542919085E+03  0.31831828289E+04  0.31128535003E+04 0.  0.
        1    1    3    3  502    0  0.81495873481E+03  0.12062666258E+04  0.23038739532E+03  0.14738776285E+04  0.50400001928E-02 0. -1.
       -1    1    3    3    0  502 -0.81495873481E+03 -0.12062666258E+04 -0.89581658616E+03  0.17093052004E+04  0.50400001928E-02 0.  1.
</event>
<event>
 5   0  0.3656086E-06  0.3311735E+04  0.7818609E-02  0.8159916E-01
        2   -1    0    0  501    0  0.00000000000E+00  0.00000000000E+00  0.24405626194E+04  0.24405626194E+04  0.25500000920E-02 0. -1.
       -2   -1    0    0    0  501  0.00000000000E+00  0.00000000000E+00 -0.11234694724E+04  0.11234694724E+04  0.25500000920E-02 0.  1.
    10030    2    1    2    0    0  0.00000000000E+00  0.00000000000E+00  0.13170931470E+04  0.35640320918E+04  0.33117352542E+04 0.  0.
        3    1    3    3  502    0 -0.77133396398E+02 -0.36537291601E+02 -0.11211007098E+04  0.11243448520E+04  0.10100000352E+00 0.  1.
       -3    1    3    3    0  502  0.77133396398E+02  0.36537291601E+02  0.24381938568E+04  0.24396872398E+04  0.10100000352E+00 0. -1.
</event>
<event>
 5   0  0.3745943E-06  0.3157643E+04  0.7818609E-02  0.8200094E-01
       -2   -1    0    0    0  501  0.00000000000E+00  0.00000000000E+00  0.11778334186E+04  0.11778334186E+04  0.25500000920E-02 0. -1.
        2   -1    0    0  501    0  0.00000000000E+00  0.00000000000E+00 -0.21163239921E+04  0.21163239921E+04  0.25500000920E-02 0.  1.
    10030    2    1    2    0    0  0.00000000000E+00  0.00000000000E+00 -0.93849057351E+03  0.32941574107E+04  0.31576428693E+04 0.  0.
        5    1    3    3  502    0 -0.70820779330E+02 -0.10665160780E+04  0.74296409520E+03  0.13017257254E+04  0.46999998093E+01 0.  1.
       -5    1    3    3    0  502  0.70820779330E+02  0.10665160780E+04 -0.16814546687E+04  0.19924316853E+04  0.46999998093E+01 0. -1.
</event>
<event>
 5   0  0.3745943E-06  0.3267963E+04  0.7818609E-02  0.8171095E-01
        2   -1    0    0  501    0  0.00000000000E+00  0.00000000000E+00  0.20558781880E+04  0.20558781880E+04  0.25500000920E-02 0. -1.
       -2   -1    0    0    0  501  0.00000000000E+00  0.00000000000E+00 -0.12986645663E+04  0.12986645663E+04  0.25500000920E-02 0.  1.
    10030    2    1    2    0    0  0.00000000000E+00  0.00000000000E+00  0.75721362172E+03  0.33545427543E+04  0.32679633752E+04 0.  0.
        5    1    3    3  502    0  0.13286507980E+04  0.70116883060E+03 -0.28100875332E+03  0.15283777941E+04  0.46999998093E+01 0. -1.
       -5    1    3    3    0  502 -0.13286507980E+04 -0.70116883060E+03  0.10382223750E+04  0.18261649602E+04  0.46999998093E+01 0.  1.
</event>
<event>
 5   0  0.1268836E-06  0.3170667E+04  0.7818609E-02  0.8196607E-01
       -1   -1    0    0    0  501  0.00000000000E+00  0.00000000000E+00  0.12654628947E+04  0.12654628947E+04  0.50400001928E-02 0. -1.
        1   -1    0    0  501    0  0.00000000000E+00  0.00000000000E+00 -0.19860571493E+04  0.19860571493E+04  0.50400001928E-02 0.  1.
    10030    2    1    2    0    0  0.00000000000E+00  0.00000000000E+00 -0.72059425463E+03  0.32515200440E+04  0.31706665729E+04 0.  0.
        1    1    3    3  502    0 -0.11021695941E+04  0.11170869768E+04 -0.59102447947E+03  0.16768932773E+04  0.50400001928E-02 0.  1.
       -1    1    3    3    0  502  0.11021695941E+04 -0.11170869768E+04 -0.12956977516E+03  0.15746267668E+04  0.50400001928E-02 0. -1.
</event>
<event>
 5   0  0.3531437E-06  0.3135431E+04  0.7818609E-02  0.8206081E-01
       -2   -1    0    0    0  501  0.00000000000E+00  0.00000000000E+00  0.20198637327E+04  0.20198637327E+04  0.25500000920E-02 0. -1.
        2   -1    0    0  501    0  0.00000000000E+00  0.00000000000E+00 -0.12167808477E+04  0.12167808477E+04  0.25500000920E-02 0.  1.
    10030    2    1    2    0    0  0.00000000000E+00  0.00000000000E+00  0.80308288498E+03  0.32366445804E+04  0.31354307550E+04 0.  0.
        1    1    3    3  502    0  0.57064333312E+03 -0.14588346975E+04  0.46599922113E+03  0.16343156863E+04  0.50400001928E-02 0. -1.
       -1    1    3    3    0  502 -0.57064333312E+03  0.14588346975E+04  0.33708366385E+03  0.16023288941E+04  0.50400001928E-02 0.  1.
</event>
<event>
 5   0  0.3531437E-06  0.3056653E+04  0.7818609E-02  0.8227736E-01
        2   -1    0    0  501    0  0.00000000000E+00  0.00000000000E+00  0.15913077639E+04  0.15913077639E+04  0.25500000920E-02 0. -1.
       -2   -1    0    0    0  501  0.00000000000E+00  0.00000000000E+00 -0.14678375250E+04  0.14678375250E+04  0.25500000920E-02 0.  1.
    10030    2    1    2    0    0  0.00000000000E+00  0.00000000000E+00  0.12347023882E+03  0.30591452889E+04  0.30566525806E+04 0.  0.
        1    1    3    3  502    0  0.17987934886E+03 -0.13689149435E+04 -0.59415918885E+03  0.15031000780E+04  0.50400001928E-02 0. -1.
       -1    1    3    3    0  502 -0.17987934886E+03  0.13689149435E+04  0.71762942767E+03  0.15560452109E+04  0.50400001928E-02 0.  1.
</event>
<event>
 5   0  0.1240725E-06  0.3156806E+04  0.7818609E-02  0.8200319E-01
        1   -1    0    0  501    0  0.00000000000E+00  0.00000000000E+00  0.15771380530E+04  0.15771380530E+04  0.50400001928E-02 0. -1.
       -1   -1    0    0    0  501  0.00000000000E+00  0.00000000000E+00 -0.15796687807E+04  0.15796687807E+04  0.50400001928E-02 0.  1.
    10030    2    1    2    0    0  0.00000000000E+00  0.00000000000E+00 -0.25307277425E+01  0.31568068337E+04  0.31568058193E+04 0.  0.
        3    1    3    3  502    0 -0.30695138841E+03  0.14601338695E+04  0.51365776988E+03  0.15779906167E+04  0.10100000352E+00 0. -1.
       -3    1    3    3    0  502  0.30695138841E+03 -0.14601338695E+04 -0.51618849762E+03  0.15788162170E+04  0.10100000352E+00 0.  1.
</event>
<event>
 5   0  0.3497546E-06  0.3283066E+04  0.7818609E-02  0.8167218E-01
        2   -1    0    0  501    0  0.00000000000E+00  0.00000000000E+00  0.25382201136E+04  0.25382201136E+04  0.25500000920E-02 0. -1.
       -2   -1    0    0    0  501  0.00000000000E+00  0.00000000000E+00 -0.10616220668E+04  0.10616220668E+04  0.25500000920E-02 0.  1.
    10030    2    1    2    0    0  0.00000000000E+00  0.00000000000E+00  0.14765980468E+04  0.35998421804E+04  0.32830659347E+04 0.  0.
        4    1    3    3  502    0 -0.38531555800E+03 -0.13423482064E+04 -0.20764797562E+03  0.14119086660E+04  0.12699999809E+01 0.  1.
       -4    1    3    3    0  502  0.38531555800E+03  0.13423482064E+04  0.16842460224E+04  0.21879335144E+04  0.12699999809E+01 0. -1.
</event>
<event>
 5   0  0.1273754E-06  0.3227035E+04  0.7818609E-02  0.8181713E-01
        1   -1    0    0  501    0  0.00000000000E+00  0.00000000000E+00  0.30448989066E+04  0.30448989066E+04  0.50400001928E-02 0.  1.
       -1   -1    0    0    0  501  0.00000000000E+00  0.00000000000E+00 -0.85501664107E+03  0.85501664109E+03  0.50400001928E-02 0. -1.
    10030    2    1    2    0    0  0.00000000000E+00  0.00000000000E+00  0.21898822655E+04  0.38999155477E+04  0.32270353178E+04 0.  0.
        2    1    3    3  502    0  0.12336210354E+04  0.49016876351E+03  0.22034536396E+04  0.25724101963E+04  0.25500000920E-02 0.  1.
       -2    1    3    3    0  502 -0.12336210354E+04 -0.49016876351E+03 -0.13571374133E+02  0.13275053514E+04  0.25500000920E-02 0. -1.
</event>
<event>
 5   0  0.3758062E-06  0.3051298E+04  0.7818609E-02  0.8229232E-01
        2   -1    0    0  501    0  0.00000000000E+00  0.00000000000E+00  0.18362906147E+04  0.18362906147E+04  0.25500000920E-02 0.  1.
       -2   -1    0    0    0  501  0.00000000000E+00  0.00000000000E+00 -0.12675579938E+04  0.12675579938E+04  0.25500000920E-02 0. -1.
    10030    2    1    2    0    0  0.00000000000E+00  0.00000000000E+00  0.56873262088E+03  0.31038486086E+04  0.30512979846E+04 0.  0.
        2    1    3    3  502    0 -0.15198105039E+04 -0.96099455587E+02  0.19033085711E+03  0.15346937507E+04  0.25500000920E-02 0. -1.
       -2    1    3    3    0  502  0.15198105039E+04  0.96099455587E+02  0.37840176377E+03  0.15691548579E+04  0.25500000920E-02 0.  1.
</event>
<event>
 5   0  0.1268836E-06  0.3116218E+04  0.7818609E-02  0.8211301E-01
       -1   -1    0    0    0  501  0.00000000000E+00  0.00000000000E+00  0.14128948648E+04  0.14128948649E+04  0.50400001928E-02 0. -1.
        1   -1    0    0  501    0  0.00000000000E+00  0.00000000000E+00 -0.17182475676E+04  0.17182475676E+04  0.50400001928E-02 0.  1.
    10030    2    1    2    0    0  0.00000000000E+00  0.00000000000E+00 -0.30535270273E+03  0.31311424324E+04  0.31162176848E+04 0.  0.
        1    1    3    3  502    0 -0.12043096931E+04 -0.51861193532E+03 -0.99836226632E+03  0.16480435040E+04  0.50400001928E-02 0.  1.
       -1    1    3    3    0  502  0.12043096931E+04  0.51861193532E+03  0.69300956359E+03  0.14830989284E+04  0.50400001928E-02 0. -1.
</event>
<event>
 5   0  0.3758062E-06  0.3557299E+04  0.7818609E-02  0.8100343E-01
        2   -1    0    0  501    0  0.00000000000E+00  0.00000000000E+00  0.18044901676E+04  0.18044901676E+04  0.25500000920E-02 0. -1.
       -2   -1    0    0    0  501  0.00000000000E+00  0.00000000000E+00 -0.17531791250E+04  0.17531791250E+04  0.25500000920E-02 0.  1.
    10030    2    1    2    0    0  0.00000000000E+00  0.00000000000E+00  0.51311042522E+02  0.35576692926E+04  0.35572992526E+04 0.  0.
        2    1    3    3  502    0  0.99735466089E+03 -0.62608874186E+03  0.13587949567E+04  0.17980620586E+04  0.25500000920E-02 0. -1.
       -2    1    3    3    0  502 -0.99735466089E+03  0.62608874186E+03 -0.13074839141E+04  0.17596072340E+04  0.25500000920E-02 0.  1.
</event>
<event>
 5   0  0.3745943E-06  0.3234529E+04  0.7818609E-02  0.8179757E-01
        2   -1    0    0  501    0  0.00000000000E+00  0.00000000000E+00  0.25206094679E+04  0.25206094679E+04  0.25500000920E-02 0.  1.
       -2   -1    0    0    0  501  0.00000000000E+00  0.00000000000E+00 -0.10376633213E+04  0.10376633213E+04  0.25500000920E-02 0. -1.
    10030    2    1    2    0    0  0.00000000000E+00  0.00000000000E+00  0.14829461466E+04  0.35582727893E+04  0.32345287089E+04 0.  0.
        5    1    3    3  502    0  0.99980429158E+03  0.11630879757E+04  0.17715836650E+03  0.15439525373E+04  0.46999998093E+01 0.  1.
       -5    1    3    3    0  502 -0.99980429158E+03 -0.11630879757E+04  0.13057877801E+04  0.20143202519E+04  0.46999998093E+01 0. -1.
</event>
<event>
 5   0  0.3745943E-06  0.3191018E+04  0.7818609E-02  0.8191193E-01
       -2   -1    0    0    0  501  0.00000000000E+00  0.00000000000E+00  0.13456446999E+04  0.13456446999E+04  0.25500000920E-02 0. -1.
        2   -1    0    0  501    0  0.00000000000E+00  0.00000000000E+00 -0.18917691158E+04  0.18917691158E+04  0.25500000920E-02 0.  1.
    10030    2    1    2    0    0  0.00000000000E+00  0.00000000000E+00 -0.54612441594E+03  0.32374138158E+04  0.31910180722E+04 0.  0.
        5    1    3    3  502    0  0.91190458863E+03 -0.91686512120E+03 -0.12212172651E+04  0.17786526721E+04  0.46999998093E+01 0.  1.
       -5    1    3    3    0  502 -0.91190458863E+03  0.91686512120E+03  0.67509284920E+03  0.14587611437E+04  0.46999998093E+01 0. -1.
</event>
<event>
 5   0  0.3745943E-06  0.3137825E+04  0.7818609E-02  0.8205433E-01
       -2   -1    0    0    0  501  0.00000000000E+00  0.00000000000E+00  0.17939785859E+04  0.17939785859E+04  0.25500000920E-02 0.  1.
        2   -1    0    0  501    0  0.00000000000E+00  0.00000000000E+00 -0.13720821462E+04  0.13720821462E+04  0.25500000920E-02 0. -1.
    10030    2    1    2    0    0  0.00000000000E+00  0.00000000000E+00  0.42189643967E+03  0.31660607321E+04  0.31378247168E+04 0.  0.
        5    1    3    3  502    0 -0.21526056194E+03  0.92803334757E+03 -0.10468165478E+04  0.14154257234E+04  0.46999998093E+01 0. -1.
       -5    1    3    3    0  502  0.21526056194E+03 -0.92803334757E+03  0.14687129875E+04  0.17506350086E+04  0.46999998093E+01 0.  1.
</event>
<event>
 5   0  0.1268836E-06  0.2562455E+04  0.7818609E-02  0.8381067E-01
        1   -1    0    0  501    0  0.00000000000E+00  0.00000000000E+00  0.10035237166E+04  0.10035237166E+04  0.50400001928E-02 0. -1.
       -1   -1    0    0    0  501  0.00000000000E+00  0.00000000000E+00 -0.16357801614E+04  0.16357801614E+04  0.50400001928E-02 0.  1.
    10030    2    1    2    0    0  0.00000000000E+00  0.00000000000E+00 -0.63225644485E+03  0.26393038780E+04  0.25624552188E+04 0.  0.
        1    1    3    3  502    0 -0.34594744587E+03 -0.66086641402E+03 -0.13890597881E+04  0.15766772489E+04  0.50400001928E-02 0.  1.
       -1    1    3    3    0  502  0.34594744587E+03  0.66086641402E+03  0.75680334322E+03  0.10626266291E+04  0.50400001928E-02 0. -1.
</event>
<event>
 5   0  0.1240725E-06  0.3225147E+04  0.7818609E-02  0.8182207E-01
        1   -1    0    0  501    0  0.00000000000E+00  0.00000000000E+00  0.27744575158E+04  0.27744575158E+04  0.50400001928E-02 0.  1.
       -1   -1    0    0    0  501  0.00000000000E+00  0.00000000000E+00 -0.93726197180E+03  0.93726197182E+03  0.50400001928E-02 0. -1.
    10030    2    1    2    0    0  0.00000000000E+00  0.00000000000E+00  0.18371955440E+04  0.37117194877E+04  0.32251471421E+04 0.  0.
        3    1    3    3  502    0 -0.78917148590E+03 -0.48996727049E+01 -0.69982660231E+03  0.10547857244E+04  0.10100000352E+00 0. -1.
       -3    1    3    3    0  502  0.78917148590E+03  0.48996727049E+01  0.25370221463E+04  0.26569337632E+04  0.10100000352E+00 0.  1.
</event>
<event>
 5   0  0.1240725E-06  0.3222567E+04  0.7818609E-02  0.8182883E-01
       -1   -1    0    0    0  501  0.00000000000E+00  0.00000000000E+00  0.14642427313E+04  0.14642427313E+04  0.50400001928E-02 0. -1.
        1   -1    0    0  501    0  0.00000000000E+00  0.00000000000E+00 -0.17730897572E+04  0.17730897572E+04  0.50400001928E-02 0.  1.
    10030    2    1    2    0    0  0.00000000000E+00  0.00000000000E+00 -0.30884702590E+03  0.32373324885E+04  0.32225665479E+04 0.  0.
        3    1    3    3  502    0  0.81734925018E+03 -0.13404457376E+04  0.20970000384E+03  0.15839282414E+04  0.10100000352E+00 0. -1.
       -3    1    3    3    0  502 -0.81734925018E+03  0.13404457376E+04 -0.51854702974E+03  0.16534042471E+04  0.10100000352E+00 0.  1.
</event>
<event>
 5   0  0.3531437E-06  0.3180811E+04  0.7818609E-02  0.8193903E-01
       -2   -1    0    0    0  501  0.00000000000E+00  0.00000000000E+00  0.15768524619E+04  0.15768524619E+04  0.25500000920E-02 0. -1.
        2   -1    0    0  501    0  0.00000000000E+00  0.00000000000E+00 -0.16040749385E+04  0.16040749385E+04  0.25500000920E-02 0.  1.
    10030    2    1    2    0    0  0.00000000000E+00  0.00000000000E+00 -0.27222476558E+02  0.31809274004E+04  0.31808109129E+04 0.  0.
        1    1    3    3  502    0  0.39096697940E+02  0.74642889591E+02  0.15746186408E+04  0.15768715791E+04  0.50400001928E-02 0. -1.
       -1    1    3    3    0  502 -0.39096697940E+02 -0.74642889591E+02 -0.16018411174E+04  0.16040558214E+04  0.50400001928E-02 0.  1.
</event>
<event>
 5   0  0.1306843E-06  0.3216905E+04  0.7818609E-02  0.8184367E-01
       -1   -1    0    0    0  501  0.00000000000E+00  0.00000000000E+00  0.19152892432E+04  0.19152892432E+04  0.50400001928E-02 0. -1.
        1   -1    0    0  501    0  0.00000000000E+00  0.00000000000E+00 -0.13507725010E+04  0.13507725010E+04  0.50400001928E-02 0.  1.
    10030    2    1    2    0    0  0.00000000000E+00  0.00000000000E+00  0.56451674222E+03  0.32660617442E+04  0.32169053708E+04 0.  0.
        5    1    3    3  502    0  0.52946355591E+03 -0.47538636846E+03 -0.11822726363E+04  0.13798965660E+04  0.46999998093E+01 0.  1.
       -5    1    3    3    0  502 -0.52946355591E+03  0.47538636846E+03  0.17467893785E+04  0.18861651782E+04  0.46999998093E+01 0. -1.
</event>
<event>
 5   0  0.3531437E-06  0.3136637E+04  0.7818609E-02  0.8205755E-01
        2   -1    0    0  501    0  0.00000000000E+00  0.00000000000E+00  0.16130750737E+04  0.16130750737E+04  0.25500000920E-02 0.  1.
       -2   -1    0    0    0  501  0.00000000000E+00  0.00000000000E+00 -0.15248033612E+04  0.15248033612E+04  0.25500000920E-02 0. -1.
    10030    2    1    2    0    0  0.00000000000E+00  0.00000000000E+00  0.88271712547E+02  0.31378784349E+04  0.31366366026E+04 0.  0.
        1    1    3    3  502    0  0.42942893741E+03 -0.81411398431E+03  0.13144541303E+04  0.16046745628E+04  0.50400001928E-02 0.  1.
       -1    1    3    3    0  502 -0.42942893741E+03  0.81411398431E+03 -0.12261824178E+04  0.15332038721E+04  0.50400001928E-02 0. -1.
</event>
<event>
 5   0  0.3656086E-06  0.2390855E+04  0.7818609E-02  0.8442935E-01
        2   -1    0    0  501    0  0.00000000000E+00  0.00000000000E+00  0.13986627180E+04  0.13986627180E+04  0.25500000920E-02 0. -1.
       -2   -1    0    0    0  501  0.00000000000E+00  0.00000000000E+00 -0.10217237524E+04  0.10217237525E+04  0.25500000920E-02 0.  1.
    10030    2    1    2    0    0  0.00000000000E+00  0.00000000000E+00  0.37693896559E+03  0.24203864705E+04  0.23908550108E+04 0.  0.
        3    1    3    3  502    0 -0.43560457863E+03 -0.13728543778E+03 -0.92991508259E+03  0.10360215786E+04  0.10100000352E+00 0.  1.
       -3    1    3    3    0  502  0.43560457863E+03  0.13728543778E+03  0.13068540482E+04  0.13843648919E+04  0.10100000352E+00 0. -1.
</event>
<event>
 5   0  0.3758062E-06  0.3179415E+04  0.7818609E-02  0.8194275E-01
       -2   -1    0    0    0  501  0.00000000000E+00  0.00000000000E+00  0.25871282797E+04  0.25871282797E+04  0.25500000920E-02 0.  1.
        2   -1    0    0  501    0  0.00000000000E+00  0.00000000000E+00 -0.97682450288E+03  0.97682450289E+03  0.25500000920E-02 0. -1.
    10030    2    1    2    0    0  0.00000000000E+00  0.00000000000E+00  0.16103037768E+04  0.35639527826E+04  0.31794152266E+04 0.  0.
        2    1    3    3  502    0  0.10643950647E+04 -0.10746727073E+04  0.25679040456E+03  0.15342097618E+04  0.25500000920E-02 0. -1.
       -2    1    3    3    0  502 -0.10643950647E+04  0.10746727073E+04  0.13535133723E+04  0.20297430208E+04  0.25500000920E-02 0.  1.
</event>
<event>
 5   0  0.1273754E-06  0.3149273E+04  0.7818609E-02  0.8202344E-01
       -1   -1    0    0    0  501  0.00000000000E+00  0.00000000000E+00  0.14212227786E+04  0.14212227786E+04  0.50400001928E-02 0. -1.
        1   -1    0    0  501    0  0.00000000000E+00  0.00000000000E+00 -0.17446105129E+04  0.17446105129E+04  0.50400001928E-02 0.  1.
    10030    2    1    2    0    0  0.00000000000E+00  0.00000000000E+00 -0.32338773425E+03  0.31658332915E+04  0.31492730595E+04 0.  0.
        2    1    3    3  502    0 -0.93785554327E+02  0.10158828603E+04 -0.13674453007E+04  0.17060833410E+04  0.25500000920E-02 0.  1.
       -2    1    3    3    0  502  0.93785554327E+02 -0.10158828603E+04  0.10440575665E+04  0.14597499505E+04  0.25500000920E-02 0. -1.
</event>
<event>
 5   0  0.3745943E-06  0.2489915E+04  0.7818609E-02  0.8406587E-01
        2   -1    0    0  501    0  0.00000000000E+00  0.00000000000E+00  0.12398174282E+04  0.12398174282E+04  0.25500000920E-02 0.  1.
       -2   -1    0    0    0  501  0.00000000000E+00  0.00000000000E+00 -0.12501184288E+04  0.12501184288E+04  0.25500000920E-02 0. -1.
    10030    2    1    2    0    0  0.00000000000E+00  0.00000000000E+00 -0.10301000526E+02  0.24899358570E+04  0.24899145490E+04 0.  0.
        5    1    3    3  502    0  0.45664960257E+03  0.28981675549E+03 -0.11264869505E+04  0.12496069586E+04  0.46999998093E+01 0. -1.
       -5    1    3    3    0  502 -0.45664960257E+03 -0.28981675549E+03  0.11161859500E+04  0.12403288984E+04  0.46999998093E+01 0.  1.
</event>
<event>
 5   0  0.1185575E-06  0.3250775E+04  0.7818609E-02  0.8175535E-01
       -3   -1    0    0    0  501  0.00000000000E+00  0.00000000000E+00  0.11143653177E+04  0.11143653222E+04  0.10100000352E+00 0.  1.
        3   -1    0    0  501    0  0.00000000000E+00  0.00000000000E+00 -0.23707520144E+04  0.23707520166E+04  0.10100000352E+00 0. -1.
    10030    2    1    2    0    0  0.00000000000E+00  0.00000000000E+00 -0.12563866967E+04  0.34851173388E+04  0.32507745744E+04 0.  0.
        5    1    3    3  502    0 -0.86145257458E+03 -0.55238976185E+03 -0.19820106931E+04  0.22306105587E+04  0.46999998093E+01 0. -1.
       -5    1    3    3    0  502  0.86145257458E+03  0.55238976185E+03  0.72562399633E+03  0.12545067801E+04  0.46999998093E+01 0.  1.
</event>
<event>
 5   0  0.3745943E-06  0.3220114E+04  0.7818609E-02  0.8183525E-01
        2   -1    0    0  501    0  0.00000000000E+00  0.00000000000E+00  0.17107354254E+04  0.17107354254E+04  0.25500000920E-02 0.  1.
       -2   -1    0    0    0  501  0.00000000000E+00  0.00000000000E+00 -0.15153035419E+04  0.15153035419E+04  0.25500000920E-02 0. -1.
    10030    2    1    2    0    0  0.00000000000E+00  0.00000000000E+00  0.19543188352E+03  0.32260389673E+04  0.32201139417E+04 0.  0.
        5    1    3    3  502    0  0.11150567293E+04  0.54289576575E+03  0.11263349078E+04  0.16753327241E+04  0.46999998093E+01 0.  1.
       -5    1    3    3    0  502 -0.11150567293E+04 -0.54289576575E+03 -0.93090302431E+03  0.15507062432E+04  0.46999998093E+01 0. -1.
</event>
<event>
 5   0  0.3531437E-06  0.3189706E+04  0.7818609E-02  0.8191541E-01
       -2   -1    0    0    0  501  0.00000000000E+00  0.00000000000E+00  0.10508573329E+04  0.10508573329E+04  0.25500000920E-02 0.  1.
        2   -1    0    0  501    0  0.00000000000E+00  0.00000000000E+00 -0.24204581305E+04  0.24204581305E+04  0.25500000920E-02 0. -1.
    10030    2    1    2    0    0  0.00000000000E+00  0.00000000000E+00 -0.13696007976E+04  0.34713154634E+04  0.31897060526E+04 0.  0.
        1    1    3    3  502    0  0.75079927259E+03  0.10374561458E+04 -0.17192693075E+04  0.21438054375E+04  0.50400001928E-02 0. -1.
       -1    1    3    3    0  502 -0.75079927259E+03 -0.10374561458E+04  0.34966850986E+03  0.13275100259E+04  0.50400001928E-02 0.  1.
</event>
<event>
 5   0  0.3497546E-06  0.3190959E+04  0.7818609E-02  0.8191209E-01
        2   -1    0    0  501    0  0.00000000000E+00  0.00000000000E+00  0.25816444480E+04  0.25816444480E+04  0.25500000920E-02 0. -1.
       -2   -1    0    0    0  501  0.00000000000E+00  0.00000000000E+00 -0.98602043991E+03  0.98602043991E+03  0.25500000920E-02 0.  1.
    10030    2    1    2    0    0  0.00000000000E+00  0.00000000000E+00  0.15956240081E+04  0.35676648880E+04  0.31909585985E+04 0.  0.
        4    1    3    3  502    0  0.14677044208E+04 -0.51640766870E+03  0.40296399619E+03  0.16072382344E+04  0.12699999809E+01 0.  1.
       -4    1    3    3    0  502 -0.14677044208E+04  0.51640766870E+03  0.11926600119E+04  0.19604266536E+04  0.12699999809E+01 0. -1.
</event>
<event>
 5   0  0.1273754E-06  0.3169008E+04  0.7818609E-02  0.8197050E-01
       -1   -1    0    0    0  501  0.00000000000E+00  0.00000000000E+00  0.10765721290E+04  0.10765721290E+04  0.50400001928E-02 0.  1.
        1   -1    0    0  501    0  0.00000000000E+00  0.00000000000E+00 -0.23320808969E+04  0.23320808969E+04  0.50400001928E-02 0. -1.
    10030    2    1    2    0    0  0.00000000000E+00  0.00000000000E+00 -0.12555087679E+04  0.34086530259E+04  0.31690082336E+04 0.  0.
        2    1    3    3  502    0 -0.70263914253E+03  0.69647779881E+03  0.70352869821E+03  0.12139751719E+04  0.25500000920E-02 0.  1.
       -2    1    3    3    0  502  0.70263914253E+03 -0.69647779881E+03 -0.19590374661E+04  0.21946778539E+04  0.25500000920E-02 0. -1.
</event>
<event>
 5   0  0.1273754E-06  0.3163310E+04  0.7818609E-02  0.8198575E-01
       -1   -1    0    0    0  501  0.00000000000E+00  0.00000000000E+00  0.20517630279E+04  0.20517630279E+04  0.50400001928E-02 0.  1.
        1   -1    0    0  501    0  0.00000000000E+00  0.00000000000E+00 -0.12192596684E+04  0.12192596684E+04  0.50400001928E-02 0. -1.
    10030    2    1    2    0    0  0.00000000000E+00  0.00000000000E+00  0.83250335946E+03  0.32710226963E+04  0.31633096017E+04 0.  0.
        2    1    3    3  502    0  0.12023331225E+04  0.77286454852E+03  0.11165929391E+04  0.18137542114E+04  0.25500000920E-02 0.  1.
       -2    1    3    3    0  502 -0.12023331225E+04 -0.77286454852E+03 -0.28408957964E+03  0.14572684849E+04  0.25500000920E-02 0. -1.
</event>
<event>
 5   0  0.3745943E-06  0.3165338E+04  0.7818609E-02  0.8198032E-01
        2   -1    0    0  501    0  0.00000000000E+00  0.00000000000E+00  0.15601596441E+04  0.15601596441E+04  0.25500000920E-02 0.  1.
       -2   -1    0    0    0  501  0.00000000000E+00  0.00000000000E+00 -0.16055026540E+04  0.16055026540E+04  0.25500000920E-02 0. -1.
    10030    2    1    2    0    0  0.00000000000E+00  0.00000000000E+00 -0.45343009928E+02  0.31656622981E+04  0.31653375487E+04 0.  0.
        5    1    3    3  502    0  0.15528285591E+04 -0.28909287860E+03 -0.12251727684E+03  0.15842612788E+04  0.46999998093E+01 0.  1.
       -5    1    3    3    0  502 -0.15528285591E+04  0.28909287860E+03  0.77174266917E+02  0.15814010193E+04  0.46999998093E+01 0. -1.
</event>
<event>
 5   0  0.3656086E-06  0.3062098E+04  0.7818609E-02  0.8226217E-01
        2   -1    0    0  501    0  0.00000000000E+00  0.00000000000E+00  0.11869334163E+04  0.11869334163E+04  0.25500000920E-02 0.  1.
       -2   -1    0    0    0  501  0.00000000000E+00  0.00000000000E+00 -0.19749310840E+04  0.19749310840E+04  0.25500000920E-02 0. -1.
    10030    2    1    2    0    0  0.00000000000E+00  0.00000000000E+00 -0.78799766779E+03  0.31618645003E+04  0.30620984298E+04 0.  0.
        3    1    3    3  502    0  0.39613720358E+03  0.13216583747E+04  0.29125392501E+03  0.14101540350E+04  0.10100000352E+00 0.  1.
       -3    1    3    3    0  502 -0.39613720358E+03 -0.13216583747E+04 -0.10792515928E+04  0.17517104653E+04  0.10100000352E+00 0. -1.
</event>
<event>
 5   0  0.1273754E-06  0.3253081E+04  0.7818609E-02  0.8174938E-01
       -1   -1    0    0    0  501  0.00000000000E+00  0.00000000000E+00  0.15668155627E+04  0.15668155627E+04  0.50400001928E-02 0.  1.
        1   -1    0    0  501    0  0.00000000000E+00  0.00000000000E+00 -0.16885422426E+04  0.16885422426E+04  0.50400001928E-02 0. -1.
    10030    2    1    2    0    0  0.00000000000E+00  0.00000000000E+00 -0.12172667989E+03  0.32553578052E+04  0.32530811634E+04 0.  0.
        2    1    3    3  502    0  0.10049619553E+04 -0.11710827177E+04  0.45354991575E+03  0.16084435923E+04  0.25500000920E-02 0.  1.
       -2    1    3    3    0  502 -0.10049619553E+04  0.11710827177E+04 -0.57527659564E+03  0.16469142130E+04  0.25500000920E-02 0. -1.
</event>
<event>
 5   0  0.3497546E-06  0.3186940E+04  0.7818609E-02  0.8192275E-01
       -2   -1    0    0    0  501  0.00000000000E+00  0.00000000000E+00  0.10509374881E+04  0.10509374881E+04  0.25500000920E-02 0.  1.
        2   -1    0    0  501    0  0.00000000000E+00  0.00000000000E+00 -0.24160783560E+04  0.24160783560E+04  0.25500000920E-02 0. -1.
    10030    2    1    2    0    0  0.00000000000E+00  0.00000000000E+00 -0.13651408679E+04  0.34670158442E+04  0.31869404253E+04 0.  0.
        4    1    3    3  502    0  0.27048976331E+03  0.18785228172E+03  0.10135117529E+04  0.10656739079E+04  0.12699999809E+01 0.  1.
       -4    1    3    3    0  502 -0.27048976331E+03 -0.18785228172E+03 -0.23786526208E+04  0.24013419363E+04  0.12699999809E+01 0. -1.
</event>
<event>
 5   0  0.1273980E-06  0.3161917E+04  0.7818609E-02  0.8198948E-01
       -1   -1    0    0    0  501  0.00000000000E+00  0.00000000000E+00  0.15968831721E+04  0.15968831721E+04  0.50400001928E-02 0. -1.
        1   -1    0    0  501    0  0.00000000000E+00  0.00000000000E+00 -0.15651921628E+04  0.15651921628E+04  0.50400001928E-02 0.  1.
    10030    2    1    2    0    0  0.00000000000E+00  0.00000000000E+00  0.31691009353E+02  0.31620753349E+04  0.31619165238E+04 0.  0.
        4    1    3    3  502    0  0.51463526347E+02 -0.64352019234E+03  0.14590606286E+04  0.15955018845E+04  0.12699999809E+01 0. -1.
       -4    1    3    3    0  502 -0.51463526347E+02  0.64352019234E+03 -0.14273696193E+04  0.15665734504E+04  0.12699999809E+01 0.  1.
</event>
<event>
 5   0  0.1240725E-06  0.3060938E+04  0.7818609E-02  0.8226541E-01
        1   -1    0    0  501    0  0.00000000000E+00  0.00000000000E+00  0.21931329986E+04  0.21931329986E+04  0.50400001928E-02 0. -1.
       -1   -1    0    0    0  501  0.00000000000E+00  0.00000000000E+00 -0.10680318684E+04  0.10680318684E+04  0.50400001928E-02 0.  1.
    10030    2    1    2    0    0  0.00000000000E+00  0.00000000000E+00  0.11251011302E+04  0.32611648670E+04  0.30609383751E+04 0.  0.
        3    1    3    3  502    0 -0.13208603057E+04  0.59316280239E+03  0.10907870870E+04  0.18128239122E+04  0.10100000352E+00 0. -1.
       -3    1    3    3    0  502  0.13208603057E+04 -0.59316280239E+03  0.34314043176E+02  0.14483409547E+04  0.10100000352E+00 0.  1.
</event>
<event>
 5   0  0.3531437E-06  0.3215377E+04  0.7818609E-02  0.8184768E-01
        2   -1    0    0  501    0  0.00000000000E+00  0.00000000000E+00  0.12758749937E+04  0.12758749937E+04  0.25500000920E-02 0. -1.
       -2   -1    0    0    0  501  0.00000000000E+00  0.00000000000E+00 -0.20257961220E+04  0.20257961220E+04  0.25500000920E-02 0.  1.
    10030    2    1    2    0    0  0.00000000000E+00  0.00000000000E+00 -0.74992112828E+03  0.33016711157E+04  0.32153771875E+04 0.  0.
        1    1    3    3  502    0  0.10954330356E+04  0.11532702563E+04 -0.13489826361E+03  0.15963092937E+04  0.50400001928E-02 0.  1.
       -1    1    3    3    0  502 -0.10954330356E+04 -0.11532702563E+04 -0.61502286467E+03  0.17053618220E+04  0.50400001928E-02 0. -1.
</event>
<event>
 5   0  0.1273754E-06  0.3187446E+04  0.7818609E-02  0.8192140E-01
       -1   -1    0    0    0  501  0.00000000000E+00  0.00000000000E+00  0.15502454125E+04  0.15502454126E+04  0.50400001928E-02 0.  1.
        1   -1    0    0  501    0  0.00000000000E+00  0.00000000000E+00 -0.16384203697E+04  0.16384203697E+04  0.50400001928E-02 0. -1.
    10030    2    1    2    0    0  0.00000000000E+00  0.00000000000E+00 -0.88174957167E+02  0.31886657823E+04  0.31874464149E+04 0.  0.
        2    1    3    3  502    0 -0.98604850070E+03  0.77336629023E+03 -0.10291298942E+04  0.16215718929E+04  0.25500000920E-02 0. -1.
       -2    1    3    3    0  502  0.98604850070E+03 -0.77336629023E+03  0.94095493706E+03  0.15670938894E+04  0.25500000920E-02 0.  1.
</event>
<event>
 5   0  0.3531437E-06  0.3169828E+04  0.7818609E-02  0.8196831E-01
        2   -1    0    0  501    0  0.00000000000E+00  0.00000000000E+00  0.28629581641E+04  0.28629581641E+04  0.25500000920E-02 0.  1.
       -2   -1    0    0    0  501  0.00000000000E+00  0.00000000000E+00 -0.87739733495E+03  0.87739733496E+03  0.25500000920E-02 0. -1.
    10030    2    1    2    0    0  0.00000000000E+00  0.00000000000E+00  0.19855608292E+04  0.37403554991E+04  0.31698276693E+04 0.  0.
        1    1    3    3  502    0 -0.20102858753E+03  0.60481288042E+03  0.27050797184E+04  0.27791486819E+04  0.50400001928E-02 0.  1.
       -1    1    3    3    0  502  0.20102858753E+03 -0.60481288042E+03 -0.71951888924E+03  0.96120681714E+03  0.50400001928E-02 0. -1.
</event>
<event>
 5   0  0.3656086E-06  0.3225560E+04  0.7818609E-02  0.8182099E-01
        2   -1    0    0  501    0  0.00000000000E+00  0.00000000000E+00  0.13512337843E+04  0.13512337843E+04  0.25500000920E-02 0. -1.
       -2   -1    0    0    0  501  0.00000000000E+00  0.00000000000E+00 -0.19249510789E+04  0.19249510789E+04  0.25500000920E-02 0.  1.
    10030    2    1    2    0    0  0.00000000000E+00  0.00000000000E+00 -0.57371729451E+03  0.32761848632E+04  0.32255597536E+04 0.  0.
        3    1    3    3  502    0  0.14220011267E+04  0.59747882472E+03 -0.76541244509E+03  0.17218955751E+04  0.10100000352E+00 0.  1.
       -3    1    3    3    0  502 -0.14220011267E+04 -0.59747882472E+03  0.19169515057E+03  0.15542892881E+04  0.10100000352E+00 0. -1.
</event>
<event>
 5   0  0.1268836E-06  0.3311090E+04  0.7818609E-02  0.8160079E-01
        1   -1    0    0  501    0  0.00000000000E+00  0.00000000000E+00  0.13865015935E+04  0.13865015935E+04  0.50400001928E-02 0. -1.
       -1   -1    0    0    0  501  0.00000000000E+00  0.00000000000E+00 -0.19767943473E+04  0.19767943473E+04  0.50400001928E-02 0.  1.
    10030    2    1    2    0    0  0.00000000000E+00  0.00000000000E+00 -0.59029275382E+03  0.33632959408E+04  0.33110895563E+04 0.  0.
        1    1    3    3  502    0  0.82238666146E+03  0.31191638802E+03 -0.17198360438E+04  0.19316955432E+04  0.50400001928E-02 0.  1.
       -1    1    3    3    0  502 -0.82238666146E+03 -0.31191638802E+03  0.11295432900E+04  0.14316003975E+04  0.50400001928E-02 0. -1.
</event>
<event>
 5   0  0.1268836E-06  0.3255561E+04  0.7818609E-02  0.8174296E-01
       -1   -1    0    0    0  501  0.00000000000E+00  0.00000000000E+00  0.14945888499E+04  0.14945888499E+04  0.50400001928E-02 0. -1.
        1   -1    0    0  501    0  0.00000000000E+00  0.00000000000E+00 -0.17728413235E+04  0.17728413235E+04  0.50400001928E-02 0.  1.
    10030    2    1    2    0    0  0.00000000000E+00  0.00000000000E+00 -0.27825247366E+03  0.32674301734E+04  0.32555607042E+04 0.  0.
        1    1    3    3  502    0  0.46800277440E+03 -0.85413500468E+03 -0.14481420329E+04  0.17451901188E+04  0.50400001928E-02 0.  1.
       -1    1    3    3    0  502 -0.46800277440E+03  0.85413500468E+03  0.11698895593E+04  0.15222400546E+04  0.50400001928E-02 0. -1.
</event>
<event>
 5   0  0.3531437E-06  0.3217021E+04  0.7818609E-02  0.8184336E-01
        2   -1    0    0  501    0  0.00000000000E+00  0.00000000000E+00  0.13774843848E+04  0.13774843848E+04  0.25500000920E-02 0. -1.
       -2   -1    0    0    0  501  0.00000000000E+00  0.00000000000E+00 -0.18782831542E+04  0.18782831542E+04  0.25500000920E-02 0.  1.
    10030    2    1    2    0    0  0.00000000000E+00  0.00000000000E+00 -0.50079876938E+03  0.32557675390E+04  0.32170208051E+04 0.  0.
        1    1    3    3  502    0 -0.11793116682E+04  0.15829620915E+03  0.84498230826E+03  0.14593932992E+04  0.50400001928E-02 0. -1.
       -1    1    3    3    0  502  0.11793116682E+04 -0.15829620915E+03 -0.13457810776E+04  0.17963742398E+04  0.50400001928E-02 0.  1.
</event>
<event>
 5   0  0.1273754E-06  0.3167873E+04  0.7818609E-02  0.8197354E-01
       -1   -1    0    0    0  501  0.00000000000E+00  0.00000000000E+00  0.11903226588E+04  0.11903226589E+04  0.50400001928E-02 0.  1.
        1   -1    0    0  501    0  0.00000000000E+00  0.00000000000E+00 -0.21077104294E+04  0.21077104294E+04  0.50400001928E-02 0. -1.
    10030    2    1    2    0    0  0.00000000000E+00  0.00000000000E+00 -0.91738777053E+03  0.32980330882E+04  0.31678734081E+04 0.  0.
        2    1    3    3  502    0 -0.99838813762E+03  0.12293896220E+04 -0.43159027376E+03  0.16414773469E+04  0.25500000920E-02 0. -1.
       -2    1    3    3    0  502  0.99838813762E+03 -0.12293896220E+04 -0.48579749677E+03  0.16565557413E+04  0.25500000920E-02 0.  1.
</event>
<event>
 5   0  0.1268836E-06  0.3228933E+04  0.7818609E-02  0.8181218E-01
       -1   -1    0    0    0  501  0.00000000000E+00  0.00000000000E+00  0.18136401623E+04  0.18136401623E+04  0.50400001928E-02 0.  1.
        1   -1    0    0  501    0  0.00000000000E+00  0.00000000000E+00 -0.14371658471E+04  0.14371658471E+04  0.50400001928E-02 0. -1.
    10030    2    1    2    0    0  0.00000000000E+00  0.00000000000E+00  0.37647431523E+03  0.32508060094E+04  0.32289327650E+04 0.  0.
        1    1    3    3  502    0  0.54852213827E+03 -0.15833321238E+03  0.17086180378E+04  0.18014775995E+04  0.50400001928E-02 0.  1.
       -1    1    3    3    0  502 -0.54852213827E+03  0.15833321238E+03 -0.13321437226E+04  0.14493284100E+04  0.50400001928E-02 0. -1.
</event>
<event>
 5   0  0.3656086E-06  0.3223394E+04  0.7818609E-02  0.8182666E-01
       -2   -1    0    0    0  501  0.00000000000E+00  0.00000000000E+00  0.13122803852E+04  0.13122803852E+04  0.25500000920E-02 0. -1.
        2   -1    0    0  501    0  0.00000000000E+00  0.00000000000E+00 -0.19794295312E+04  0.19794295312E+04  0.25500000920E-02 0.  1.
    10030    2    1    2    0    0  0.00000000000E+00  0.00000000000E+00 -0.66714914606E+03  0.32917099164E+04  0.32233935830E+04 0.  0.
        3    1    3    3  502    0  0.85857739192E+03 -0.71703080015E+03  0.85130886904E+03  0.14057080447E+04  0.10100000352E+00 0. -1.
       -3    1    3    3    0  502 -0.85857739192E+03  0.71703080015E+03 -0.15184580151E+04  0.18860018717E+04  0.10100000352E+00 0.  1.
</event>
<event>
 5   0  0.1273980E-06  0.2431749E+04  0.7818609E-02  0.8427712E-01
        1   -1    0    0  501    0  0.00000000000E+00  0.00000000000E+00  0.14764921316E+04  0.14764921316E+04  0.50400001928E-02 0.  1.
       -1   -1    0    0    0  501  0.00000000000E+00  0.00000000000E+00 -0.10012588568E+04  0.10012588568E+04  0.50400001928E-02 0. -1.
    10030    2    1    2    0    0  0.00000000000E+00  0.00000000000E+00  0.47523327482E+03  0.24777509885E+04  0.24317490198E+04 0.  0.
        4    1    3    3  502    0 -0.97845737710E+02  0.56383650444E+03  0.13306939414E+04  0.14485280014E+04  0.12699999809E+01 0.  1.
       -4    1    3    3    0  502  0.97845737710E+02 -0.56383650444E+03 -0.85546066661E+03  0.10292229871E+04  0.12699999809E+01 0. -1.
</event>
<event>
 5   0  0.1268836E-06  0.3180122E+04  0.7818609E-02  0.8194087E-01
        1   -1    0    0  501    0  0.00000000000E+00  0.00000000000E+00  0.19247799707E+04  0.19247799707E+04  0.50400001928E-02 0. -1.
       -1   -1    0    0    0  501  0.00000000000E+00  0.00000000000E+00 -0.13135500186E+04  0.13135500186E+04  0.50400001928E-02 0.  1.
    10030    2    1    2    0    0  0.00000000000E+00  0.00000000000E+00  0.61122995212E+03  0.32383299893E+04  0.31801224922E+04 0.  0.
        1    1    3    3  502    0 -0.29278862304E+03 -0.13945969958E+04  0.10239837796E+04  0.17547560341E+04  0.50400001928E-02 0. -1.
       -1    1    3    3    0  502  0.29278862304E+03  0.13945969958E+04 -0.41275382747E+03  0.14835739552E+04  0.50400001928E-02 0.  1.
</event>
<event>
 5   0  0.1268836E-06  0.2415591E+04  0.7818609E-02  0.8433690E-01
        1   -1    0    0  501    0  0.00000000000E+00  0.00000000000E+00  0.17447254951E+04  0.17447254952E+04  0.50400001928E-02 0. -1.
       -1   -1    0    0    0  501  0.00000000000E+00  0.00000000000E+00 -0.83610278216E+03  0.83610278218E+03  0.50400001928E-02 0.  1.
    10030    2    1    2    0    0  0.00000000000E+00  0.00000000000E+00  0.90862271298E+03  0.25808282773E+04  0.24155908930E+04 0.  0.
        1    1    3    3  502    0  0.96290046175E+03  0.65285357754E+03  0.10749146446E+03  0.11683105357E+04  0.50400001928E-02 0. -1.
       -1    1    3    3    0  502 -0.96290046175E+03 -0.65285357754E+03  0.80113124852E+03  0.14125177416E+04  0.50400001928E-02 0.  1.
</event>
<event>
 5   0  0.3758062E-06  0.2384049E+04  0.7818609E-02  0.8445500E-01
       -2   -1    0    0    0  501  0.00000000000E+00  0.00000000000E+00  0.11235127184E+04  0.11235127184E+04  0.25500000920E-02 0. -1.
        2   -1    0    0  501    0  0.00000000000E+00  0.00000000000E+00 -0.12647138426E+04  0.12647138426E+04  0.25500000920E-02 0.  1.
    10030    2    1    2    0    0  0.00000000000E+00  0.00000000000E+00 -0.14120112422E+03  0.23882265609E+04  0.23840487304E+04 0.  0.
        2    1    3    3  502    0 -0.10613828711E+04  0.44133052236E+02  0.47112502527E+03  0.11620843837E+04  0.25500000920E-02 0. -1.
       -2    1    3    3    0  502  0.10613828711E+04 -0.44133052236E+02 -0.61232614949E+03  0.12261421772E+04  0.25500000920E-02 0.  1.
</event>
<event>
 5   0  0.3497546E-06  0.3176322E+04  0.7818609E-02  0.8195098E-01
        2   -1    0    0  501    0  0.00000000000E+00  0.00000000000E+00  0.18055695021E+04  0.18055695021E+04  0.25500000920E-02 0. -1.
       -2   -1    0    0    0  501  0.00000000000E+00  0.00000000000E+00 -0.13969309924E+04  0.13969309924E+04  0.25500000920E-02 0.  1.
    10030    2    1    2    0    0  0.00000000000E+00  0.00000000000E+00  0.40863850961E+03  0.32025004945E+04  0.31763223995E+04 0.  0.
        4    1    3    3  502    0 -0.48718595567E+02 -0.12145996166E+04 -0.82617504837E+03  0.14697593523E+04  0.12699999809E+01 0.  1.
       -4    1    3    3    0  502  0.48718595567E+02  0.12145996166E+04  0.12348135580E+04  0.17327411422E+04  0.12699999809E+01 0. -1.
</event>
<event>
 5   0  0.3656086E-06  0.3327097E+04  0.7818609E-02  0.8156034E-01
        2   -1    0    0  501    0  0.00000000000E+00  0.00000000000E+00  0.15559555174E+04  0.15559555174E+04  0.25500000920E-02 0.  1.
       -2   -1    0    0    0  501  0.00000000000E+00  0.00000000000E+00 -0.17785819502E+04  0.17785819502E+04  0.25500000920E-02 0. -1.
    10030    2    1    2    0    0  0.00000000000E+00  0.00000000000E+00 -0.22262643280E+03  0.33345374677E+04  0.33270974730E+04 0.  0.
        3    1    3    3  502    0 -0.41801443206E+02  0.11251734182E+04 -0.13386461803E+04  0.17492101612E+04  0.10100000352E+00 0. -1.
       -3    1    3    3    0  502  0.41801443206E+02 -0.11251734182E+04  0.11160197475E+04  0.15853273065E+04  0.10100000352E+00 0.  1.
</event>
<event>
 5   0  0.1240725E-06  0.3201539E+04  0.7818609E-02  0.8188411E-01
       -1   -1    0    0    0  501  0.00000000000E+00  0.00000000000E+00  0.84794917409E+03  0.84794917411E+03  0.50400001928E-02 0.  1.
        1   -1    0    0  501    0  0.00000000000E+00  0.00000000000E+00 -0.30219529861E+04  0.30219529861E+04  0.50400001928E-02 0. -1.
    10030    2    1    2    0    0  0.00000000000E+00  0.00000000000E+00 -0.21740038120E+04  0.38699021602E+04  0.32015387168E+04 0.  0.
        3    1    3    3  502    0  0.81910043881E+03 -0.82763553766E+03 -0.24147480347E+04  0.26808420679E+04  0.10100000352E+00 0. -1.
       -3    1    3    3    0  502 -0.81910043881E+03  0.82763553766E+03  0.24074422268E+03  0.11890600923E+04  0.10100000352E+00 0.  1.
</event>
<event>
 5   0  0.3656086E-06  0.3138810E+04  0.7818609E-02  0.8205167E-01
       -2   -1    0    0    0  501  0.00000000000E+00  0.00000000000E+00  0.20222076799E+04  0.20222076799E+04  0.25500000920E-02 0. -1.
        2   -1    0    0  501    0  0.00000000000E+00  0.00000000000E+00 -0.12179918162E+04  0.12179918162E+04  0.25500000920E-02 0.  1.
    10030    2    1    2    0    0  0.00000000000E+00  0.00000000000E+00  0.80421586375E+03  0.32401994961E+04  0.31388102235E+04 0.  0.
        3    1    3    3  502    0  0.42434800983E+03 -0.87338031572E+03 -0.87066954872E+03  0.13041970260E+04  0.10100000352E+00 0.  1.
       -3    1    3    3    0  502 -0.42434800983E+03  0.87338031572E+03  0.16748854125E+04  0.19360024701E+04  0.10100000352E+00 0. -1.
</event>
<event>
 5   0  0.3758062E-06  0.3175422E+04  0.7818609E-02  0.8195338E-01
        2   -1    0    0  501    0  0.00000000000E+00  0.00000000000E+00  0.21113128678E+04  0.21113128678E+04  0.25500000920E-02 0. -1.
       -2   -1    0    0    0  501  0.00000000000E+00  0.00000000000E+00 -0.11939614458E+04  0.11939614458E+04  0.25500000920E-02 0.  1.
    10030    2    1    2    0    0  0.00000000000E+00  0.00000000000E+00  0.91735142202E+03  0.33052743137E+04  0.31754219652E+04 0.  0.
        2    1    3    3  502    0 -0.98439211324E+03 -0.74196341675E+03 -0.58288767344E+03  0.13635598939E+04  0.25500000920E-02 0.  1.
       -2    1    3    3    0  502  0.98439211324E+03  0.74196341675E+03  0.15002390955E+04  0.19417144198E+04  0.25500000920E-02 0. -1.
</event>
<event>
 5   0  0.1240725E-06  0.3176150E+04  0.7818609E-02  0.8195145E-01
        1   -1    0    0  501    0  0.00000000000E+00  0.00000000000E+00  0.26154862983E+04  0.26154862983E+04  0.50400001928E-02 0.  1.
       -1   -1    0    0    0  501  0.00000000000E+00  0.00000000000E+00 -0.96424963816E+03  0.96424963817E+03  0.50400001928E-02 0. -1.
    10030    2    1    2    0    0  0.00000000000E+00  0.00000000000E+00  0.16512366601E+04  0.35797359365E+04  0.31761496922E+04 0.  0.
        3    1    3    3  502    0 -0.27153890351E+03  0.15515206700E+04  0.10539210368E+04  0.18951779145E+04  0.10100000352E+00 0. -1.
       -3    1    3    3    0  502  0.27153890351E+03 -0.15515206700E+04  0.59731562332E+03  0.16845580220E+04  0.10100000352E+00 0.  1.
</event>
<event>
 5   0  0.3745943E-06  0.3234318E+04  0.7818609E-02  0.8179812E-01
       -2   -1    0    0    0  501  0.00000000000E+00  0.00000000000E+00  0.10327763848E+04  0.10327763848E+04  0.25500000920E-02 0. -1.
        2   -1    0    0  501    0  0.00000000000E+00  0.00000000000E+00 -0.25322071888E+04  0.25322071888E+04  0.25500000920E-02 0.  1.
    10030    2    1    2    0    0  0.00000000000E+00  0.00000000000E+00 -0.14994308041E+04  0.35649835736E+04  0.32343183430E+04 0.  0.
        5    1    3    3  502    0  0.11368324647E+04  0.10837905285E+04 -0.32540199111E+03  0.16040257194E+04  0.46999998093E+01 0.  1.
       -5    1    3    3    0  502 -0.11368324647E+04 -0.10837905285E+04 -0.11740288129E+04  0.19609578543E+04  0.46999998093E+01 0. -1.
</event>
<event>
 5   0  0.1185575E-06  0.3034701E+04  0.7818609E-02  0.8233891E-01
        3   -1    0    0  501    0  0.00000000000E+00  0.00000000000E+00  0.10308084462E+04  0.10308084512E+04  0.10100000352E+00 0.  1.
       -3   -1    0    0    0  501  0.00000000000E+00  0.00000000000E+00 -0.22335399760E+04  0.22335399783E+04  0.10100000352E+00 0. -1.
    10030    2    1    2    0    0  0.00000000000E+00  0.00000000000E+00 -0.12027315298E+04  0.32643484294E+04  0.30347005678E+04 0.  0.
        4    1    3    3  502    0  0.14573890888E+04 -0.37000499861E+03 -0.82040113371E+03  0.17128766121E+04  0.12699999809E+01 0.  1.
       -4    1    3    3    0  502 -0.14573890888E+04  0.37000499861E+03 -0.38233039607E+03  0.15514718173E+04  0.12699999809E+01 0. -1.
</event>
<event>
 5   0  0.3745943E-06  0.3134051E+04  0.7818609E-02  0.8206455E-01
       -2   -1    0    0    0  501  0.00000000000E+00  0.00000000000E+00  0.96278582883E+03  0.96278582883E+03  0.25500000920E-02 0.  1.
        2   -1    0    0  501    0  0.00000000000E+00  0.00000000000E+00 -0.25504834045E+04  0.25504834045E+04  0.25500000920E-02 0. -1.
    10030    2    1    2    0    0  0.00000000000E+00  0.00000000000E+00 -0.15876975756E+04  0.35132692333E+04  0.31340512303E+04 0.  0.
        5    1    3    3  502    0  0.10603425213E+04  0.50372676769E+03  0.36976806957E+03  0.12307791980E+04  0.46999998093E+01 0.  1.
       -5    1    3    3    0  502 -0.10603425213E+04 -0.50372676769E+03 -0.19574656452E+04  0.22824900353E+04  0.46999998093E+01 0. -1.
</event>
<event>
 5   0  0.3531437E-06  0.3200502E+04  0.7818609E-02  0.8188685E-01
       -2   -1    0    0    0  501  0.00000000000E+00  0.00000000000E+00  0.12671625758E+04  0.12671625758E+04  0.25500000920E-02 0.  1.
        2   -1    0    0  501    0  0.00000000000E+00  0.00000000000E+00 -0.20208958306E+04  0.20208958306E+04  0.25500000920E-02 0. -1.
    10030    2    1    2    0    0  0.00000000000E+00  0.00000000000E+00 -0.75373325482E+03  0.32880584064E+04  0.32005021895E+04 0.  0.
        1    1    3    3  502    0 -0.10905022327E+04  0.11112616955E+04  0.29858900799E+01  0.15569542675E+04  0.50400001928E-02 0.  1.
       -1    1    3    3    0  502  0.10905022327E+04 -0.11112616955E+04 -0.75671914490E+03  0.17311041389E+04  0.50400001928E-02 0. -1.
</event>
<event>
 5   0  0.3497546E-06  0.3130520E+04  0.7818609E-02  0.8207412E-01
        2   -1    0    0  501    0  0.00000000000E+00  0.00000000000E+00  0.15553220734E+04  0.15553220734E+04  0.25500000920E-02 0. -1.
       -2   -1    0    0    0  501  0.00000000000E+00  0.00000000000E+00 -0.15752615721E+04  0.15752615721E+04  0.25500000920E-02 0.  1.
    10030    2    1    2    0    0  0.00000000000E+00  0.00000000000E+00 -0.19939498691E+02  0.31305836455E+04  0.31305201449E+04 0.  0.
        4    1    3    3  502    0  0.61385193430E+03  0.12655957149E+04  0.67669603450E+03  0.15609182704E+04  0.12699999809E+01 0.  1.
       -4    1    3    3    0  502 -0.61385193430E+03 -0.12655957149E+04 -0.69663553319E+03  0.15696653751E+04  0.12699999809E+01 0. -1.
</event>
<event>
 5   0  0.1240725E-06  0.3230970E+04  0.7818609E-02  0.8180686E-01
        1   -1    0    0  501    0  0.00000000000E+00  0.00000000000E+00  0.21932827272E+04  0.21932827272E+04  0.50400001928E-02 0.  1.
       -1   -1    0    0    0  501  0.00000000000E+00  0.00000000000E+00 -0.11899022407E+04  0.11899022407E+04  0.50400001928E-02 0. -1.
    10030    2    1    2    0    0  0.00000000000E+00  0.00000000000E+00  0.10033804865E+04  0.33831849679E+04  0.32309701525E+04 0.  0.
        3    1    3    3  502    0 -0.31432532446E+03 -0.16513355535E+03  0.21519196963E+04  0.21810153347E+04  0.10100000352E+00 0.  1.
       -3    1    3    3    0  502  0.31432532446E+03  0.16513355535E+03 -0.11485392097E+04  0.12021696333E+04  0.10100000352E+00 0. -1.
</event>
<event>
 5   0  0.1273980E-06  0.3241617E+04  0.7818609E-02  0.8177912E-01
       -1   -1    0    0    0  501  0.00000000000E+00  0.00000000000E+00  0.15078265151E+04  0.15078265151E+04  0.50400001928E-02 0. -1.
        1   -1    0    0  501    0  0.00000000000E+00  0.00000000000E+00 -0.17422560392E+04  0.17422560392E+04  0.50400001928E-02 0.  1.
    10030    2    1    2    0    0  0.00000000000E+00  0.00000000000E+00 -0.23442952409E+03  0.32500825542E+04  0.32416167891E+04 0.  0.
        4    1    3    3  502    0  0.10525190081E+04  0.11438367454E+04  0.34317884169E+03  0.15918329350E+04  0.12699999809E+01 0. -1.
       -4    1    3    3    0  502 -0.10525190081E+04 -0.11438367454E+04 -0.57760836578E+03  0.16582496193E+04  0.12699999809E+01 0.  1.
</event>
<event>
 5   0  0.3531437E-06  0.3206637E+04  0.7818609E-02  0.8187066E-01
        2   -1    0    0  501    0  0.00000000000E+00  0.00000000000E+00  0.16506263834E+04  0.16506263834E+04  0.25500000920E-02 0. -1.
       -2   -1    0    0    0  501  0.00000000000E+00  0.00000000000E+00 -0.15573667778E+04  0.15573667778E+04  0.25500000920E-02 0.  1.
    10030    2    1    2    0    0  0.00000000000E+00  0.00000000000E+00  0.93259605599E+02  0.32079931612E+04  0.32066372992E+04 0.  0.
        1    1    3    3  502    0 -0.64500127421E+03  0.58006092163E+03  0.13955817007E+04  0.16432119765E+04  0.50400001928E-02 0. -1.
       -1    1    3    3    0  502  0.64500127421E+03 -0.58006092163E+03 -0.13023220951E+04  0.15647811847E+04  0.50400001928E-02 0.  1.
</event>
<event>
 5   0  0.1268836E-06  0.3238689E+04  0.7818609E-02  0.8178674E-01
       -1   -1    0    0    0  501  0.00000000000E+00  0.00000000000E+00  0.10810681656E+04  0.10810681656E+04  0.50400001928E-02 0. -1.
        1   -1    0    0  501    0  0.00000000000E+00  0.00000000000E+00 -0.24256346435E+04  0.24256346435E+04  0.50400001928E-02 0.  1.
    10030    2    1    2    0    0  0.00000000000E+00  0.00000000000E+00 -0.13445664779E+04  0.35067028091E+04  0.32386888671E+04 0.  0.
        1    1    3    3  502    0  0.12784886155E+04  0.78373182806E+03 -0.13340112193E+04  0.20070761450E+04  0.50400001928E-02 0.  1.
       -1    1    3    3    0  502 -0.12784886155E+04 -0.78373182806E+03 -0.10555258596E+02  0.14996266642E+04  0.50400001928E-02 0. -1.
</event>
<event>
 5   0  0.3497546E-06  0.3178517E+04  0.7818609E-02  0.8194514E-01
        2   -1    0    0  501    0  0.00000000000E+00  0.00000000000E+00  0.22913540045E+04  0.22913540045E+04  0.25500000920E-02 0.  1.
       -2   -1    0    0    0  501  0.00000000000E+00  0.00000000000E+00 -0.11022924553E+04  0.11022924553E+04  0.25500000920E-02 0. -1.
    10030    2    1    2    0    0  0.00000000000E+00  0.00000000000E+00  0.11890615492E+04  0.33936464598E+04  0.31785167809E+04 0.  0.
        4    1    3    3  502    0 -0.88349487624E+03 -0.12530645459E+04  0.14787867058E+03  0.15403258313E+04  0.12699999809E+01 0. -1.
       -4    1    3    3    0  502  0.88349487624E+03  0.12530645459E+04  0.10411828786E+04  0.18533206285E+04  0.12699999809E+01 0.  1.
</event>
<event>
 5   0  0.3745943E-06  0.3212472E+04  0.7818609E-02  0.8185531E-01
       -2   -1    0    0    0  501  0.00000000000E+00  0.00000000000E+00  0.13744255634E+04  0.13744255634E+04  0.25500000920E-02 0.  1.
        2   -1    0    0  501    0  0.00000000000E+00  0.00000000000E+00 -0.18771433106E+04  0.18771433106E+04  0.25500000920E-02 0. -1.
    10030    2    1    2    0    0  0.00000000000E+00  0.00000000000E+00 -0.50271774719E+03  0.32515688739E+04  0.32124717911E+04 0.  0.
        5    1    3    3  502    0 -0.23041053879E+03 -0.15881530389E+04 -0.18231897631E+03  0.16151103338E+04  0.46999998093E+01 0.  1.
       -5    1    3    3    0  502  0.23041053879E+03  0.15881530389E+04 -0.32039877088E+03  0.16364585401E+04  0.46999998093E+01 0. -1.
</event>
<event>
 5   0  0.3745943E-06  0.3169276E+04  0.7818609E-02  0.8196979E-01
        2   -1    0    0  501    0  0.00000000000E+00  0.00000000000E+00  0.20749835652E+04  0.20749835652E+04  0.25500000920E-02 0.  1.
       -2   -1    0    0    0  501  0.00000000000E+00  0.00000000000E+00 -0.12101675093E+04  0.12101675093E+04  0.25500000920E-02 0. -1.
    10030    2    1    2    0    0  0.00000000000E+00  0.00000000000E+00  0.86481605597E+03  0.32851510745E+04  0.31692760643E+04 0.  0.
        5    1    3    3  502    0  0.17729271444E+03  0.15533387031E+04  0.70023801234E+03  0.17130817835E+04  0.46999998093E+01 0.  1.
       -5    1    3    3    0  502 -0.17729271444E+03 -0.15533387031E+04  0.16457804364E+03  0.15720692910E+04  0.46999998093E+01 0. -1.
</event>
<event>
 5   0  0.1273980E-06  0.3186637E+04  0.7818609E-02  0.8192355E-01
        1   -1    0    0  501    0  0.00000000000E+00  0.00000000000E+00  0.10506249916E+04  0.10506249916E+04  0.50400001928E-02 0.  1.
       -1   -1    0    0    0  501  0.00000000000E+00  0.00000000000E+00 -0.24163373829E+04  0.24163373829E+04  0.50400001928E-02 0. -1.
    10030    2    1    2    0    0  0.00000000000E+00  0.00000000000E+00 -0.13657123912E+04  0.34669623745E+04  0.31866373767E+04 0.  0.
        4    1    3    3  502    0 -0.15276480208E+04  0.39715614298E+03 -0.91927700135E+03  0.18266125193E+04  0.12699999809E+01 0. -1.
       -4    1    3    3    0  502  0.15276480208E+04 -0.39715614298E+03 -0.44643538990E+03  0.16403498553E+04  0.12699999809E+01 0.  1.
</event>
<event>
 5   0  0.1273980E-06  0.3266261E+04  0.7818609E-02  0.8171534E-01
        1   -1    0    0  501    0  0.00000000000E+00  0.00000000000E+00  0.23107316240E+04  0.23107316240E+04  0.50400001928E-02 0. -1.
       -1   -1    0    0    0  501  0.00000000000E+00  0.00000000000E+00 -0.11542300585E+04  0.11542300585E+04  0.50400001928E-02 0.  1.
    10030    2    1    2    0    0  0.00000000000E+00  0.00000000000E+00  0.11565015654E+04  0.34649616825E+04  0.32662614088E+04 0.  0.
        4    1    3    3  502    0  0.12274953375E+04 -0.12453813953E+03  0.17133233741E+04  0.21113344475E+04  0.12699999809E+01 0. -1.
       -4    1    3    3    0  502 -0.12274953375E+04  0.12453813953E+03 -0.55682180870E+03  0.13536272350E+04  0.12699999809E+01 0.  1.
</event>
<event>
 5   0  0.1268836E-06  0.3061510E+04  0.7818609E-02  0.8226381E-01
       -1   -1    0    0    0  501  0.00000000000E+00  0.00000000000E+00  0.14190187499E+04  0.14190187499E+04  0.50400001928E-02 0. -1.
        1   -1    0    0  501    0  0.00000000000E+00  0.00000000000E+00 -0.16512891302E+04  0.16512891303E+04  0.50400001928E-02 0.  1.
    10030    2    1    2    0    0  0.00000000000E+00  0.00000000000E+00 -0.23227038035E+03  0.30703078802E+04  0.30615095867E+04 0.  0.
        1    1    3    3  502    0  0.41927586028E+03 -0.51201519571E+03 -0.15004129755E+04  0.16398752711E+04  0.50400001928E-02 0.  1.
       -1    1    3    3    0  502 -0.41927586028E+03  0.51201519571E+03  0.12681425951E+04  0.14304326091E+04  0.50400001928E-02 0. -1.
</event>
<event>
 5   0  0.3745943E-06  0.3191154E+04  0.7818609E-02  0.8191157E-01
       -2   -1    0    0    0  501  0.00000000000E+00  0.00000000000E+00  0.11074673755E+04  0.11074673755E+04  0.25500000920E-02 0. -1.
        2   -1    0    0  501    0  0.00000000000E+00  0.00000000000E+00 -0.22988181384E+04  0.22988181384E+04  0.25500000920E-02 0.  1.
    10030    2    1    2    0    0  0.00000000000E+00  0.00000000000E+00 -0.11913507629E+04  0.34062855139E+04  0.31911540799E+04 0.  0.
        5    1    3    3  502    0  0.54441308843E+03 -0.97458837790E+03 -0.18125452026E+04  0.21287438358E+04  0.46999998093E+01 0.  1.
       -5    1    3    3    0  502 -0.54441308843E+03  0.97458837790E+03  0.62119443972E+03  0.12775416780E+04  0.46999998093E+01 0. -1.
</event>
<event>
 5   0  0.3497546E-06  0.3022210E+04  0.7818609E-02  0.8237417E-01
        2   -1    0    0  501    0  0.00000000000E+00  0.00000000000E+00  0.18291299750E+04  0.18291299750E+04  0.25500000920E-02 0. -1.
       -2   -1    0    0    0  501  0.00000000000E+00  0.00000000000E+00 -0.12483740933E+04  0.12483740933E+04  0.25500000920E-02 0.  1.
    10030    2    1    2    0    0  0.00000000000E+00  0.00000000000E+00  0.58075588166E+03  0.30775040683E+04  0.30222101013E+04 0.  0.
        4    1    3    3  502    0 -0.12088273550E+04  0.78631534603E+03 -0.16941558737E+03  0.14519843842E+04  0.12699999809E+01 0.  1.
       -4    1    3    3    0  502  0.12088273550E+04 -0.78631534603E+03  0.75017146903E+03  0.16255196841E+04  0.12699999809E+01 0. -1.
</event>
<event>
 5   0  0.3531437E-06  0.3191366E+04  0.7818609E-02  0.8191101E-01
        2   -1    0    0  501    0  0.00000000000E+00  0.00000000000E+00  0.17039102305E+04  0.17039102306E+04  0.25500000920E-02 0. -1.
       -2   -1    0    0    0  501  0.00000000000E+00  0.00000000000E+00 -0.14943302744E+04  0.14943302744E+04  0.25500000920E-02 0.  1.
    10030    2    1    2    0    0  0.00000000000E+00  0.00000000000E+00  0.20957995614E+03  0.31982405050E+04  0.31913662544E+04 0.  0.
        1    1    3    3  502    0 -0.27751087675E+03  0.79706601761E+03  0.14619145227E+04  0.16880523081E+04  0.50400001928E-02 0. -1.
       -1    1    3    3    0  502  0.27751087675E+03 -0.79706601761E+03 -0.12523345666E+04  0.15101881968E+04  0.50400001928E-02 0.  1.
</event>
<event>
 5   0  0.3531437E-06  0.3124996E+04  0.7818609E-02  0.8208911E-01
       -2   -1    0    0    0  501  0.00000000000E+00  0.00000000000E+00  0.16579525403E+04  0.16579525403E+04  0.25500000920E-02 0. -1.
        2   -1    0    0  501    0  0.00000000000E+00  0.00000000000E+00 -0.14725395542E+04  0.14725395542E+04  0.25500000920E-02 0.  1.
    10030    2    1    2    0    0  0.00000000000E+00  0.00000000000E+00  0.18541298602E+03  0.31304920945E+04  0.31249964445E+04 0.  0.
        1    1    3    3  502    0  0.10823841417E+04 -0.11020575358E+04  0.32831034766E+03  0.15792004074E+04  0.50400001928E-02 0. -1.
       -1    1    3    3    0  502 -0.10823841417E+04  0.11020575358E+04 -0.14289736164E+03  0.15512916871E+04  0.50400001928E-02 0.  1.
</event>
<event>
 5   0  0.1273754E-06  0.3064263E+04  0.7818609E-02  0.8225615E-01
        1   -1    0    0  501    0  0.00000000000E+00  0.00000000000E+00  0.13821148095E+04  0.13821148095E+04  0.50400001928E-02 0.  1.
       -1   -1    0    0    0  501  0.00000000000E+00  0.00000000000E+00 -0.16984308724E+04  0.16984308724E+04  0.50400001928E-02 0. -1.
    10030    2    1    2    0    0  0.00000000000E+00  0.00000000000E+00 -0.31631606294E+03  0.30805456819E+04  0.30642626921E+04 0.  0.
        2    1    3    3  502    0  0.94142287144E+03 -0.22853804862E+03 -0.13514447197E+04  0.16628016998E+04  0.25500000920E-02 0. -1.
       -2    1    3    3    0  502 -0.94142287144E+03  0.22853804862E+03  0.10351286568E+04  0.14177439820E+04  0.25500000920E-02 0.  1.
</event>
<event>
 5   0  0.1306843E-06  0.3195319E+04  0.7818609E-02  0.8190055E-01
        1   -1    0    0  501    0  0.00000000000E+00  0.00000000000E+00  0.13501014636E+04  0.13501014636E+04  0.50400001928E-02 0.  1.
       -1   -1    0    0    0  501  0.00000000000E+00  0.00000000000E+00 -0.18906102336E+04  0.18906102336E+04  0.50400001928E-02 0. -1.
    10030    2    1    2    0    0  0.00000000000E+00  0.00000000000E+00 -0.54050876998E+03  0.32407116972E+04  0.31953188532E+04 0.  0.
        5    1    3    3  502    0 -0.11610308510E+04  0.98881620542E+03  0.21268602807E+03  0.15398076379E+04  0.46999998093E+01 0. -1.
       -5    1    3    3    0  502  0.11610308510E+04 -0.98881620542E+03 -0.75319479805E+03  0.17009040593E+04  0.46999998093E+01 0.  1.
</event>
<event>
 5   0  0.3745943E-06  0.3194499E+04  0.7818609E-02  0.8190272E-01
       -2   -1    0    0    0  501  0.00000000000E+00  0.00000000000E+00  0.12490037494E+04  0.12490037494E+04  0.25500000920E-02 0.  1.
        2   -1    0    0  501    0  0.00000000000E+00  0.00000000000E+00 -0.20425923682E+04  0.20425923682E+04  0.25500000920E-02 0. -1.
    10030    2    1    2    0    0  0.00000000000E+00  0.00000000000E+00 -0.79358861880E+03  0.32915961176E+04  0.31944987252E+04 0.  0.
        5    1    3    3  502    0  0.30228220405E+03  0.53775991731E+03 -0.19148791385E+04  0.20118012985E+04  0.46999998093E+01 0. -1.
       -5    1    3    3    0  502 -0.30228220405E+03 -0.53775991731E+03  0.11212905197E+04  0.12797948191E+04  0.46999998093E+01 0.  1.
</event>
<event>
 5   0  0.1273980E-06  0.3199301E+04  0.7818609E-02  0.8189002E-01
        1   -1    0    0  501    0  0.00000000000E+00  0.00000000000E+00  0.16291361368E+04  0.16291361368E+04  0.50400001928E-02 0. -1.
       -1   -1    0    0    0  501  0.00000000000E+00  0.00000000000E+00 -0.15706984750E+04  0.15706984750E+04  0.50400001928E-02 0.  1.
    10030    2    1    2    0    0  0.00000000000E+00  0.00000000000E+00  0.58437661832E+02  0.31998346118E+04  0.31993009522E+04 0.  0.
        4    1    3    3  502    0  0.38749761814E+03 -0.20791360264E+03 -0.15090551311E+04  0.15718242497E+04  0.12699999809E+01 0.  1.
       -4    1    3    3    0  502 -0.38749761814E+03  0.20791360264E+03  0.15674927930E+04  0.16280103621E+04  0.12699999809E+01 0. -1.
</event>
<event>
 5   0  0.3758062E-06  0.3135122E+04  0.7818609E-02  0.8206164E-01
        2   -1    0    0  501    0  0.00000000000E+00  0.00000000000E+00  0.12592837647E+04  0.12592837647E+04  0.25500000920E-02 0.  1.
       -2   -1    0    0    0  501  0.00000000000E+00  0.00000000000E+00 -0.19513060090E+04  0.19513060090E+04  0.25500000920E-02 0. -1.
    10030    2    1    2    0    0  0.00000000000E+00  0.00000000000E+00 -0.69202224430E+03  0.32105897737E+04  0.31351223115E+04 0.  0.
        2    1    3    3  502    0 -0.71685118539E+02  0.43404054272E+03 -0.18867941788E+04  0.19374008935E+04  0.25500000920E-02 0. -1.
       -2    1    3    3    0  502  0.71685118539E+02 -0.43404054272E+03  0.11947719345E+04  0.12731888801E+04  0.25500000920E-02 0.  1.
</event>
<event>
 5   0  0.1268836E-06  0.3237615E+04  0.7818609E-02  0.8178953E-01
        1   -1    0    0  501    0  0.00000000000E+00  0.00000000000E+00  0.17580023183E+04  0.17580023183E+04  0.50400001928E-02 0.  1.
       -1   -1    0    0    0  501  0.00000000000E+00  0.00000000000E+00 -0.14906336784E+04  0.14906336784E+04  0.50400001928E-02 0. -1.
    10030    2    1    2    0    0  0.00000000000E+00  0.00000000000E+00  0.26736863992E+03  0.32486359967E+04  0.32376148395E+04 0.  0.
        1    1    3    3  502    0 -0.38043038425E+03 -0.15348240709E+04  0.48145505555E+03  0.16529401612E+04  0.50400001928E-02 0. -1.
       -1    1    3    3    0  502  0.38043038425E+03  0.15348240709E+04 -0.21408641563E+03  0.15956958355E+04  0.50400001928E-02 0.  1.
</event>
<event>
 5   0  0.3656086E-06  0.3209395E+04  0.7818609E-02  0.8186340E-01
       -2   -1    0    0    0  501  0.00000000000E+00  0.00000000000E+00  0.18344599563E+04  0.18344599563E+04  0.25500000920E-02 0.  1.
        2   -1    0    0  501    0  0.00000000000E+00  0.00000000000E+00 -0.14037123919E+04  0.14037123920E+04  0.25500000920E-02 0. -1.
    10030    2    1    2    0    0  0.00000000000E+00  0.00000000000E+00  0.43074756431E+03  0.32381723482E+04  0.32093950665E+04 0.  0.
        3    1    3    3  502    0 -0.13221516883E+04 -0.60374863513E+03 -0.47076552419E+03  0.15278146780E+04  0.10100000352E+00 0. -1.
       -3    1    3    3    0  502  0.13221516883E+04  0.60374863513E+03  0.90151308850E+03  0.17103576702E+04  0.10100000352E+00 0.  1.
</event>
<event>
 5   0  0.3745943E-06  0.3220500E+04  0.7818609E-02  0.8183424E-01
        2   -1    0    0  501    0  0.00000000000E+00  0.00000000000E+00  0.20071550827E+04  0.20071550827E+04  0.25500000920E-02 0.  1.
       -2   -1    0    0    0  501  0.00000000000E+00  0.00000000000E+00 -0.12918308888E+04  0.12918308888E+04  0.25500000920E-02 0. -1.
    10030    2    1    2    0    0  0.00000000000E+00  0.00000000000E+00  0.71532419388E+03  0.32989859714E+04  0.32204999204E+04 0.  0.
        5    1    3    3  502    0  0.21037488024E+02  0.14258741826E+04  0.11237675397E+04  0.18156088053E+04  0.46999998093E+01 0.  1.
       -5    1    3    3    0  502 -0.21037488024E+02 -0.14258741826E+04 -0.40844334582E+03  0.14833771662E+04  0.46999998093E+01 0. -1.
</event>
<event>
 5   0  0.1268836E-06  0.3145167E+04  0.7818609E-02  0.8203450E-01
       -1   -1    0    0    0  501  0.00000000000E+00  0.00000000000E+00  0.13065548815E+04  0.13065548815E+04  0.50400001928E-02 0. -1.
        1   -1    0    0  501    0  0.00000000000E+00  0.00000000000E+00 -0.18927785003E+04  0.18927785003E+04  0.50400001928E-02 0.  1.
    10030    2    1    2    0    0  0.00000000000E+00  0.00000000000E+00 -0.58622361885E+03  0.31993333818E+04  0.31451670793E+04 0.  0.
        1    1    3    3  502    0 -0.33915780151E+03  0.37866314994E+02 -0.18546577348E+04  0.18857935162E+04  0.50400001928E-02 0.  1.
       -1    1    3    3    0  502  0.33915780151E+03 -0.37866314994E+02  0.12684341160E+04  0.13135398657E+04  0.50400001928E-02 0. -1.
</event>
<event>
 5   0  0.1273980E-06  0.3175946E+04  0.7818609E-02  0.8195199E-01
        1   -1    0    0  501    0  0.00000000000E+00  0.00000000000E+00  0.11243970654E+04  0.11243970654E+04  0.50400001928E-02 0. -1.
       -1   -1    0    0    0  501  0.00000000000E+00  0.00000000000E+00 -0.22426763370E+04  0.22426763370E+04  0.50400001928E-02 0.  1.
    10030    2    1    2    0    0  0.00000000000E+00  0.00000000000E+00 -0.11182792716E+04  0.33670734025E+04  0.31759462792E+04 0.  0.
        4    1    3    3  502    0 -0.31908096153E+03 -0.14559085712E+04  0.21713641118E+02  0.14906225287E+04  0.12699999809E+01 0.  1.
       -4    1    3    3    0  502  0.31908096153E+03  0.14559085712E+04 -0.11399929127E+04  0.18764508738E+04  0.12699999809E+01 0. -1.
</event>
<event>
 5   0  0.1185575E-06  0.3182761E+04  0.7818609E-02  0.8193385E-01
        3   -1    0    0  501    0  0.00000000000E+00  0.00000000000E+00  0.12253461621E+04  0.12253461663E+04  0.10100000352E+00 0.  1.
       -3   -1    0    0    0  501  0.00000000000E+00  0.00000000000E+00 -0.20667568180E+04  0.20667568205E+04  0.10100000352E+00 0. -1.
    10030    2    1    2    0    0  0.00000000000E+00  0.00000000000E+00 -0.84141065591E+03  0.32921029868E+04  0.31827614085E+04 0.  0.
        2    1    3    3  502    0  0.82812544664E+03 -0.13589336757E+04 -0.42046117713E+03  0.16459890922E+04  0.25500000920E-02 0.  1.
       -2    1    3    3    0  502 -0.82812544664E+03  0.13589336757E+04 -0.42094947878E+03  0.16461138946E+04  0.25500000920E-02 0. -1.
</event>
<event>
 5   0  0.1306843E-06  0.3152960E+04  0.7818609E-02  0.8201352E-01
        1   -1    0    0  501    0  0.00000000000E+00  0.00000000000E+00  0.11678401783E+04  0.11678401783E+04  0.50400001928E-02 0.  1.
       -1   -1    0    0    0  501  0.00000000000E+00  0.00000000000E+00 -0.21281069088E+04  0.21281069088E+04  0.50400001928E-02 0. -1.
    10030    2    1    2    0    0  0.00000000000E+00  0.00000000000E+00 -0.96026673048E+03  0.32959470871E+04  0.31529597218E+04 0.  0.
        5    1    3    3  502    0 -0.11113156954E+04  0.60024535140E+03 -0.14662868540E+04  0.19352871324E+04  0.46999998093E+01 0. -1.
       -5    1    3    3    0  502  0.11113156954E+04 -0.60024535140E+03  0.50602012348E+03  0.13606599546E+04  0.46999998093E+01 0.  1.
</event>
<event>
 5   0  0.3745943E-06  0.3227558E+04  0.7818609E-02  0.8181577E-01
        2   -1    0    0  501    0  0.00000000000E+00  0.00000000000E+00  0.19653562328E+04  0.19653562328E+04  0.25500000920E-02 0.  1.
       -2   -1    0    0    0  501  0.00000000000E+00  0.00000000000E+00 -0.13250946674E+04  0.13250946674E+04  0.25500000920E-02 0. -1.
    10030    2    1    2    0    0  0.00000000000E+00  0.00000000000E+00  0.64026156544E+03  0.32904509002E+04  0.32275582496E+04 0.  0.
        5    1    3    3  502    0  0.10698471331E+04 -0.24907940732E+02 -0.91132562944E+03  0.14056065547E+04  0.46999998093E+01 0. -1.
       -5    1    3    3    0  502 -0.10698471331E+04  0.24907940732E+02  0.15515871949E+04  0.18848443456E+04  0.46999998093E+01 0.  1.
</event>
<event>
 5   0  0.3745943E-06  0.3220465E+04  0.7818609E-02  0.8183433E-01
        2   -1    0    0  501    0  0.00000000000E+00  0.00000000000E+00  0.17122969602E+04  0.17122969602E+04  0.25500000920E-02 0. -1.
       -2   -1    0    0    0  501  0.00000000000E+00  0.00000000000E+00 -0.15142516739E+04  0.15142516739E+04  0.25500000920E-02 0.  1.
    10030    2    1    2    0    0  0.00000000000E+00  0.00000000000E+00  0.19804528625E+03  0.32265486341E+04  0.32204648970E+04 0.  0.
        5    1    3    3  502    0  0.15620795043E+04 -0.36917163334E+03  0.22750832866E+03  0.16211607577E+04  0.46999998093E+01 0. -1.
       -5    1    3    3    0  502 -0.15620795043E+04  0.36917163334E+03 -0.29463042411E+02  0.16053878764E+04  0.46999998093E+01 0.  1.
</event>
<event>
 5   0  0.3656086E-06  0.3249253E+04  0.7818609E-02  0.8175929E-01
       -2   -1    0    0    0  501  0.00000000000E+00  0.00000000000E+00  0.25499994215E+04  0.25499994215E+04  0.25500000920E-02 0. -1.
        2   -1    0    0  501    0  0.00000000000E+00  0.00000000000E+00 -0.10350634922E+04  0.10350634922E+04  0.25500000920E-02 0.  1.
    10030    2    1    2    0    0  0.00000000000E+00  0.00000000000E+00  0.15149359293E+04  0.35850629137E+04  0.32492530257E+04 0.  0.
        3    1    3    3  502    0  0.14322825469E+04  0.50722256109E+03  0.12296669177E+03  0.15244109807E+04  0.10100000352E+00 0.  1.
       -3    1    3    3    0  502 -0.14322825469E+04 -0.50722256109E+03  0.13919692375E+04  0.20606519330E+04  0.10100000352E+00 0. -1.
</event>
<event>
 5   0  0.3745943E-06  0.3137074E+04  0.7818609E-02  0.8205636E-01
        2   -1    0    0  501    0  0.00000000000E+00  0.00000000000E+00  0.24541246453E+04  0.24541246453E+04  0.25500000920E-02 0. -1.
       -2   -1    0    0    0  501  0.00000000000E+00  0.00000000000E+00 -0.10025194689E+04  0.10025194689E+04  0.25500000920E-02 0.  1.
    10030    2    1    2    0    0  0.00000000000E+00  0.00000000000E+00  0.14516051764E+04  0.34566441142E+04  0.31370736274E+04 0.  0.
        5    1    3    3  502    0 -0.13902688542E+04  0.68012961565E+03  0.44517867785E+03  0.16104750623E+04  0.46999998093E+01 0.  1.
       -5    1    3    3    0  502  0.13902688542E+04 -0.68012961565E+03  0.10064264986E+04  0.18461690519E+04  0.46999998093E+01 0. -1.
</event>
<event>
 5   0  0.1273754E-06  0.3043203E+04  0.7818609E-02  0.8231500E-01
        1   -1    0    0  501    0  0.00000000000E+00  0.00000000000E+00  0.16164839584E+04  0.16164839584E+04  0.50400001928E-02 0. -1.
       -1   -1    0    0    0  501  0.00000000000E+00  0.00000000000E+00 -0.14322885553E+04  0.14322885554E+04  0.50400001928E-02 0.  1.
    10030    2    1    2    0    0  0.00000000000E+00  0.00000000000E+00  0.18419540306E+03  0.30487725138E+04  0.30432032292E+04 0.  0.
        2    1    3    3  502    0  0.68657561803E+03 -0.88302176226E+03 -0.94137048837E+03  0.14619479841E+04  0.25500000920E-02 0.  1.
       -2    1    3    3    0  502 -0.68657561803E+03  0.88302176226E+03  0.11255658914E+04  0.15868245296E+04  0.25500000920E-02 0. -1.
</event>
<event>
 5   0  0.3656086E-06  0.3172711E+04  0.7818609E-02  0.8196061E-01
       -2   -1    0    0    0  501  0.00000000000E+00  0.00000000000E+00  0.15484784280E+04  0.15484784280E+04  0.25500000920E-02 0. -1.
        2   -1    0    0  501    0  0.00000000000E+00  0.00000000000E+00 -0.16251594436E+04  0.16251594436E+04  0.25500000920E-02 0.  1.
    10030    2    1    2    0    0  0.00000000000E+00  0.00000000000E+00 -0.76681015599E+02  0.31736378717E+04  0.31727113582E+04 0.  0.
        3    1    3    3  502    0  0.15307982860E+04  0.35578981255E+03  0.17758022992E+03  0.15816018877E+04  0.10100000352E+00 0.  1.
       -3    1    3    3    0  502 -0.15307982860E+04 -0.35578981255E+03 -0.25426124552E+03  0.15920359840E+04  0.10100000352E+00 0. -1.
</event>
<event>
 5   0  0.3497546E-06  0.3259463E+04  0.7818609E-02  0.8173287E-01
       -2   -1    0    0    0  501  0.00000000000E+00  0.00000000000E+00  0.11365018929E+04  0.11365018929E+04  0.25500000920E-02 0.  1.
        2   -1    0    0  501    0  0.00000000000E+00  0.00000000000E+00 -0.23370168116E+04  0.23370168116E+04  0.25500000920E-02 0. -1.
    10030    2    1    2    0    0  0.00000000000E+00  0.00000000000E+00 -0.12005149186E+04  0.34735187045E+04  0.32594625509E+04 0.  0.
        4    1    3    3  502    0  0.36365793728E+03 -0.69481087193E+03  0.92220485110E+03  0.12105670751E+04  0.12699999809E+01 0.  1.
       -4    1    3    3    0  502 -0.36365793728E+03  0.69481087193E+03 -0.21227197697E+04  0.22629516294E+04  0.12699999809E+01 0. -1.
</event>
<event>
 5   0  0.3656086E-06  0.3206466E+04  0.7818609E-02  0.8187112E-01
        2   -1    0    0  501    0  0.00000000000E+00  0.00000000000E+00  0.17472792401E+04  0.17472792401E+04  0.25500000920E-02 0. -1.
       -2   -1    0    0    0  501  0.00000000000E+00  0.00000000000E+00 -0.14710619470E+04  0.14710619470E+04  0.25500000920E-02 0.  1.
    10030    2    1    2    0    0  0.00000000000E+00  0.00000000000E+00  0.27621729312E+03  0.32183411871E+04  0.32064659680E+04 0.  0.
        3    1    3    3  502    0  0.78901711765E+03  0.13405895846E+04  0.52765365725E+03  0.16426036767E+04  0.10100000352E+00 0. -1.
       -3    1    3    3    0  502 -0.78901711765E+03 -0.13405895846E+04 -0.25143636413E+03  0.15757375104E+04  0.10100000352E+00 0.  1.
</event>
<event>
 5   0  0.1273754E-06  0.3144188E+04  0.7818609E-02  0.8203714E-01
        1   -1    0    0  501    0  0.00000000000E+00  0.00000000000E+00  0.18183455940E+04  0.18183455940E+04  0.50400001928E-02 0.  1.
       -1   -1    0    0    0  501  0.00000000000E+00  0.00000000000E+00 -0.13591917202E+04  0.13591917202E+04  0.50400001928E-02 0. -1.
    10030    2    1    2    0    0  0.00000000000E+00  0.00000000000E+00  0.45915387376E+03  0.31775373142E+04  0.31441884650E+04 0.  0.
        2    1    3    3  502    0  0.11463462920E+04  0.72089460741E+03  0.10365963290E+04  0.17053828912E+04  0.25500000920E-02 0.  1.
       -2    1    3    3    0  502 -0.11463462920E+04 -0.72089460741E+03 -0.57744245528E+03  0.14721544231E+04  0.25500000920E-02 0. -1.
</event>
<event>
 5   0  0.3758062E-06  0.3206184E+04  0.7818609E-02  0.8187186E-01
        2   -1    0    0  501    0  0.00000000000E+00  0.00000000000E+00  0.21059335535E+04  0.21059335535E+04  0.25500000920E-02 0.  1.
       -2   -1    0    0    0  501  0.00000000000E+00  0.00000000000E+00 -0.12203155157E+04  0.12203155157E+04  0.25500000920E-02 0. -1.
    10030    2    1    2    0    0  0.00000000000E+00  0.00000000000E+00  0.88561803779E+03  0.33262490691E+04  0.32061836443E+04 0.  0.
        2    1    3    3  502    0  0.10763075834E+03 -0.15237637146E+02  0.21021055762E+04  0.21049143497E+04  0.25500000920E-02 0.  1.
       -2    1    3    3    0  502 -0.10763075834E+03  0.15237637146E+02 -0.12164875385E+04  0.12213347195E+04  0.25500000920E-02 0. -1.
</event>
<event>
 5   0  0.1273980E-06  0.2920685E+04  0.7818609E-02  0.8266750E-01
        1   -1    0    0  501    0  0.00000000000E+00  0.00000000000E+00  0.12129487632E+04  0.12129487632E+04  0.50400001928E-02 0.  1.
       -1   -1    0    0    0  501  0.00000000000E+00  0.00000000000E+00 -0.17581950551E+04  0.17581950551E+04  0.50400001928E-02 0. -1.
    10030    2    1    2    0    0  0.00000000000E+00  0.00000000000E+00 -0.54524629187E+03  0.29711438183E+04  0.29206852056E+04 0.  0.
        4    1    3    3  502    0  0.99423913763E+02 -0.70020927874E+03  0.10271123436E+04  0.12470523357E+04  0.12699999809E+01 0.  1.
       -4    1    3    3    0  502 -0.99423913763E+02  0.70020927874E+03 -0.15723586355E+04  0.17240914826E+04  0.12699999809E+01 0. -1.
</event>
<event>
 5   0  0.1273980E-06  0.3265554E+04  0.7818609E-02  0.8171716E-01
        1   -1    0    0  501    0  0.00000000000E+00  0.00000000000E+00  0.12206332887E+04  0.12206332887E+04  0.50400001928E-02 0. -1.
       -1   -1    0    0    0  501  0.00000000000E+00  0.00000000000E+00 -0.21840794381E+04  0.21840794381E+04  0.50400001928E-02 0.  1.
    10030    2    1    2    0    0  0.00000000000E+00  0.00000000000E+00 -0.96344614943E+03  0.34047127269E+04  0.32655535931E+04 0.  0.
        4    1    3    3  502    0 -0.10593046924E+04  0.29066004042E+03 -0.17412376738E+04  0.20587666065E+04  0.12699999809E+01 0.  1.
       -4    1    3    3    0  502  0.10593046924E+04 -0.29066004042E+03  0.77779152438E+03  0.13459461203E+04  0.12699999809E+01 0. -1.
</event>
<event>
 5   0  0.3497546E-06  0.3224554E+04  0.7818609E-02  0.8182362E-01
       -2   -1    0    0    0  501  0.00000000000E+00  0.00000000000E+00  0.18069244745E+04  0.18069244745E+04  0.25500000920E-02 0.  1.
        2   -1    0    0  501    0  0.00000000000E+00  0.00000000000E+00 -0.14385976021E+04  0.14385976021E+04  0.25500000920E-02 0. -1.
    10030    2    1    2    0    0  0.00000000000E+00  0.00000000000E+00  0.36832687243E+03  0.32455220765E+04  0.32245540567E+04 0.  0.
        4    1    3    3  502    0  0.86141392630E+03 -0.35224242102E+03  0.15092832497E+04  0.17731458531E+04  0.12699999809E+01 0.  1.
       -4    1    3    3    0  502 -0.86141392630E+03  0.35224242102E+03 -0.11409563773E+04  0.14723762234E+04  0.12699999809E+01 0. -1.
</event>
<event>
 5   0  0.1240725E-06  0.3372614E+04  0.7818609E-02  0.8144661E-01
       -1   -1    0    0    0  501  0.00000000000E+00  0.00000000000E+00  0.13784845497E+04  0.13784845497E+04  0.50400001928E-02 0. -1.
        1   -1    0    0  501    0  0.00000000000E+00  0.00000000000E+00 -0.20628679575E+04  0.20628679575E+04  0.50400001928E-02 0.  1.
    10030    2    1    2    0    0  0.00000000000E+00  0.00000000000E+00 -0.68438340777E+03  0.34413525072E+04  0.33726141834E+04 0.  0.
        3    1    3    3  502    0  0.71391133867E+03 -0.27966237688E+03 -0.18747185562E+04  0.20254505967E+04  0.10100000352E+00 0.  1.
       -3    1    3    3    0  502 -0.71391133867E+03  0.27966237688E+03  0.11903351484E+04  0.14159019105E+04  0.10100000352E+00 0. -1.
</event>
<event>
 5   0  0.1273754E-06  0.3151078E+04  0.7818609E-02  0.8201858E-01
       -1   -1    0    0    0  501  0.00000000000E+00  0.00000000000E+00  0.21768430962E+04  0.21768430962E+04  0.50400001928E-02 0. -1.
        1   -1    0    0  501    0  0.00000000000E+00  0.00000000000E+00 -0.11403318759E+04  0.11403318759E+04  0.50400001928E-02 0.  1.
    10030    2    1    2    0    0  0.00000000000E+00  0.00000000000E+00  0.10365112203E+04  0.33171749720E+04  0.31510782734E+04 0.  0.
        2    1    3    3  502    0  0.86033094455E+03  0.13162577775E+04  0.41500563416E+03  0.16263251666E+04  0.25500000920E-02 0.  1.
       -2    1    3    3    0  502 -0.86033094455E+03 -0.13162577775E+04  0.62150558615E+03  0.16908498055E+04  0.25500000920E-02 0. -1.
</event>
<event>
 5   0  0.3531437E-06  0.3205285E+04  0.7818609E-02  0.8187423E-01
       -2   -1    0    0    0  501  0.00000000000E+00  0.00000000000E+00  0.17686601512E+04  0.17686601512E+04  0.25500000920E-02 0.  1.
        2   -1    0    0  501    0  0.00000000000E+00  0.00000000000E+00 -0.14522078718E+04  0.14522078718E+04  0.25500000920E-02 0. -1.
    10030    2    1    2    0    0  0.00000000000E+00  0.00000000000E+00  0.31645227942E+03  0.32208680229E+04  0.32052845078E+04 0.  0.
        1    1    3    3  502    0  0.14653693240E+04  0.16406953567E+03 -0.47270876515E+03  0.15484442660E+04  0.50400001928E-02 0. -1.
       -1    1    3    3    0  502 -0.14653693240E+04 -0.16406953567E+03  0.78916104457E+03  0.16724237569E+04  0.50400001928E-02 0.  1.
</event>
<event>
 5   0  0.3656086E-06  0.3227521E+04  0.7818609E-02  0.8181587E-01
       -2   -1    0    0    0  501  0.00000000000E+00  0.00000000000E+00  0.95701677904E+03  0.95701677904E+03  0.25500000920E-02 0. -1.
        2   -1    0    0  501    0  0.00000000000E+00  0.00000000000E+00 -0.27211882513E+04  0.27211882513E+04  0.25500000920E-02 0.  1.
    10030    2    1    2    0    0  0.00000000000E+00  0.00000000000E+00 -0.17641714722E+04  0.36782050303E+04  0.32275209157E+04 0.  0.
        3    1    3    3  502    0 -0.85376170687E+03 -0.82336582394E+03  0.36496268549E+03  0.12409827171E+04  0.10100000352E+00 0. -1.
       -3    1    3    3    0  502  0.85376170687E+03  0.82336582394E+03 -0.21291341577E+04  0.24372223132E+04  0.10100000352E+00 0.  1.
</event>
<event>
 5   0  0.3497546E-06  0.3155459E+04  0.7818609E-02  0.8200680E-01
       -2   -1    0    0    0  501  0.00000000000E+00  0.00000000000E+00  0.18279718728E+04  0.18279718728E+04  0.25500000920E-02 0.  1.
        2   -1    0    0  501    0  0.00000000000E+00  0.00000000000E+00 -0.13617443149E+04  0.13617443149E+04  0.25500000920E-02 0. -1.
    10030    2    1    2    0    0  0.00000000000E+00  0.00000000000E+00  0.46622755789E+03  0.31897161877E+04  0.31554589559E+04 0.  0.
        4    1    3    3  502    0 -0.11661768894E+04  0.11203052334E+03 -0.83510344616E+03  0.14387212218E+04  0.12699999809E+01 0. -1.
       -4    1    3    3    0  502  0.11661768894E+04 -0.11203052334E+03  0.13013310040E+04  0.17509949658E+04  0.12699999809E+01 0.  1.
</event>
<event>
 5   0  0.1268836E-06  0.3071354E+04  0.7818609E-02  0.8223644E-01
        1   -1    0    0  501    0  0.00000000000E+00  0.00000000000E+00  0.17949290713E+04  0.17949290713E+04  0.50400001928E-02 0. -1.
       -1   -1    0    0    0  501  0.00000000000E+00  0.00000000000E+00 -0.13138702688E+04  0.13138702688E+04  0.50400001928E-02 0.  1.
    10030    2    1    2    0    0  0.00000000000E+00  0.00000000000E+00  0.48105880249E+03  0.31087993400E+04  0.30713540605E+04 0.  0.
        1    1    3    3  502    0  0.23922870879E+03  0.23582055091E+03 -0.12762264694E+04  0.13196953090E+04  0.50400001928E-02 0.  1.
       -1    1    3    3    0  502 -0.23922870879E+03 -0.23582055091E+03  0.17572852719E+04  0.17891040311E+04  0.50400001928E-02 0. -1.
</event>
<event>
 5   0  0.3497546E-06  0.3214161E+04  0.7818609E-02  0.8185087E-01
        2   -1    0    0  501    0  0.00000000000E+00  0.00000000000E+00  0.21279871138E+04  0.21279871138E+04  0.25500000920E-02 0.  1.
       -2   -1    0    0    0  501  0.00000000000E+00  0.00000000000E+00 -0.12136855489E+04  0.12136855489E+04  0.25500000920E-02 0. -1.
    10030    2    1    2    0    0  0.00000000000E+00  0.00000000000E+00  0.91430156487E+03  0.33416726626E+04  0.32141606731E+04 0.  0.
        4    1    3    3  502    0 -0.13049683600E+03 -0.22732497816E+03  0.21056126997E+04  0.21218653407E+04  0.12699999809E+01 0.  1.
       -4    1    3    3    0  502  0.13049683600E+03  0.22732497816E+03 -0.11913111348E+04  0.12198073220E+04  0.12699999809E+01 0. -1.
</event>
<event>
 5   0  0.1240725E-06  0.2335439E+04  0.7818609E-02  0.8464078E-01
       -1   -1    0    0    0  501  0.00000000000E+00  0.00000000000E+00  0.10058445283E+04  0.10058445283E+04  0.50400001928E-02 0. -1.
        1   -1    0    0  501    0  0.00000000000E+00  0.00000000000E+00 -0.13556460641E+04  0.13556460641E+04  0.50400001928E-02 0.  1.
    10030    2    1    2    0    0  0.00000000000E+00  0.00000000000E+00 -0.34980153585E+03  0.23614905924E+04  0.23354392956E+04 0.  0.
        3    1    3    3  502    0  0.10224383522E+04 -0.54258445054E+03 -0.33086494490E+03  0.12038478691E+04  0.10100000352E+00 0.  1.
       -3    1    3    3    0  502 -0.10224383522E+04  0.54258445054E+03 -0.18936590950E+02  0.11576427233E+04  0.10100000352E+00 0. -1.
</event>
<event>
 5   0  0.3656086E-06  0.3162826E+04  0.7818609E-02  0.8198704E-01
        2   -1    0    0  501    0  0.00000000000E+00  0.00000000000E+00  0.22785334043E+04  0.22785334043E+04  0.25500000920E-02 0.  1.
       -2   -1    0    0    0  501  0.00000000000E+00  0.00000000000E+00 -0.10975772871E+04  0.10975772871E+04  0.25500000920E-02 0. -1.
    10030    2    1    2    0    0  0.00000000000E+00  0.00000000000E+00  0.11809561172E+04  0.33761106915E+04  0.31628256434E+04 0.  0.
        3    1    3    3  502    0  0.69300280037E+03 -0.13617124092E+04  0.10258462150E+04  0.18403461722E+04  0.10100000352E+00 0.  1.
       -3    1    3    3    0  502 -0.69300280037E+03  0.13617124092E+04  0.15510990219E+03  0.15357645192E+04  0.10100000352E+00 0. -1.
</event>
<event>
 5   0  0.3656086E-06  0.2985453E+04  0.7818609E-02  0.8247897E-01
       -2   -1    0    0    0  501  0.00000000000E+00  0.00000000000E+00  0.11308691604E+04  0.11308691604E+04  0.25500000920E-02 0.  1.
        2   -1    0    0  501    0  0.00000000000E+00  0.00000000000E+00 -0.19703710104E+04  0.19703710104E+04  0.25500000920E-02 0. -1.
    10030    2    1    2    0    0  0.00000000000E+00  0.00000000000E+00 -0.83950185002E+03  0.31012401709E+04  0.29854526024E+04 0.  0.
        3    1    3    3  502    0  0.71961147212E+03 -0.14654103285E-01 -0.17782925137E+04  0.19183756007E+04  0.10100000352E+00 0. -1.
       -3    1    3    3    0  502 -0.71961147212E+03  0.14654103285E-01  0.93879066365E+03  0.11828645702E+04  0.10100000352E+00 0.  1.
</event>
<event>
 5   0  0.1268836E-06  0.2910204E+04  0.7818609E-02  0.8269848E-01
       -1   -1    0    0    0  501  0.00000000000E+00  0.00000000000E+00  0.16551673628E+04  0.16551673628E+04  0.50400001928E-02 0. -1.
        1   -1    0    0  501    0  0.00000000000E+00  0.00000000000E+00 -0.12792194093E+04  0.12792194093E+04  0.50400001928E-02 0.  1.
    10030    2    1    2    0    0  0.00000000000E+00  0.00000000000E+00  0.37594795351E+03  0.29343867721E+04  0.29102042651E+04 0.  0.
        1    1    3    3  502    0  0.92552665887E+03  0.25391153827E+03  0.12907952633E+04  0.16084847147E+04  0.50400001928E-02 0. -1.
       -1    1    3    3    0  502 -0.92552665887E+03 -0.25391153827E+03 -0.91484730983E+03  0.13259020574E+04  0.50400001928E-02 0.  1.
</event>
<event>
 5   0  0.1268836E-06  0.3192045E+04  0.7818609E-02  0.8190921E-01
       -1   -1    0    0    0  501  0.00000000000E+00  0.00000000000E+00  0.12694350051E+04  0.12694350051E+04  0.50400001928E-02 0.  1.
        1   -1    0    0  501    0  0.00000000000E+00  0.00000000000E+00 -0.20066315058E+04  0.20066315058E+04  0.50400001928E-02 0. -1.
    10030    2    1    2    0    0  0.00000000000E+00  0.00000000000E+00 -0.73719650072E+03  0.32760665108E+04  0.31920452852E+04 0.  0.
        1    1    3    3  502    0 -0.14886038465E+04 -0.52631533503E+03 -0.60784145734E+03  0.16918689314E+04  0.50400001928E-02 0. -1.
       -1    1    3    3    0  502  0.14886038465E+04  0.52631533503E+03 -0.12935504338E+03  0.15841975795E+04  0.50400001928E-02 0.  1.
</event>
<event>
 5   0  0.3531437E-06  0.3207158E+04  0.7818609E-02  0.8186929E-01
       -2   -1    0    0    0  501  0.00000000000E+00  0.00000000000E+00  0.13548011818E+04  0.13548011818E+04  0.25500000920E-02 0.  1.
        2   -1    0    0  501    0  0.00000000000E+00  0.00000000000E+00 -0.18980389739E+04  0.18980389739E+04  0.25500000920E-02 0. -1.
    10030    2    1    2    0    0  0.00000000000E+00  0.00000000000E+00 -0.54323779205E+03  0.32528401557E+04  0.32071578975E+04 0.  0.
        1    1    3    3  502    0  0.79402516944E+03  0.53845955404E+02  0.11403637559E+04  0.13906131210E+04  0.50400001928E-02 0.  1.
       -1    1    3    3    0  502 -0.79402516944E+03 -0.53845955404E+02 -0.16836015479E+04  0.18622270347E+04  0.50400001928E-02 0. -1.
</event>
<event>
 5   0  0.1273980E-06  0.3253629E+04  0.7818609E-02  0.8174796E-01
        1   -1    0    0  501    0  0.00000000000E+00  0.00000000000E+00  0.10765435708E+04  0.10765435708E+04  0.50400001928E-02 0. -1.
       -1   -1    0    0    0  501  0.00000000000E+00  0.00000000000E+00 -0.24583548795E+04  0.24583548795E+04  0.50400001928E-02 0.  1.
    10030    2    1    2    0    0  0.00000000000E+00  0.00000000000E+00 -0.13818113087E+04  0.35348984503E+04  0.32536294443E+04 0.  0.
        4    1    3    3  502    0 -0.16089503812E+04  0.16254096559E+03 -0.49843680116E+03  0.16922120884E+04  0.12699999809E+01 0. -1.
       -4    1    3    3    0  502  0.16089503812E+04 -0.16254096559E+03 -0.88337450754E+03  0.18426863618E+04  0.12699999809E+01 0.  1.
</event>
<event>
 5   0  0.3745943E-06  0.3195483E+04  0.7818609E-02  0.8190011E-01
       -2   -1    0    0    0  501  0.00000000000E+00  0.00000000000E+00  0.84289998195E+03  0.84289998195E+03  0.25500000920E-02 0.  1.
        2   -1    0    0  501    0  0.00000000000E+00  0.00000000000E+00 -0.30285649175E+04  0.30285649175E+04  0.25500000920E-02 0. -1.
    10030    2    1    2    0    0  0.00000000000E+00  0.00000000000E+00 -0.21856649356E+04  0.38714648995E+04  0.31954826329E+04 0.  0.
        5    1    3    3  502    0  0.42030597444E+03 -0.15381672368E+04 -0.97083504810E+03  0.18668578792E+04  0.46999998093E+01 0.  1.
       -5    1    3    3    0  502 -0.42030597444E+03  0.15381672368E+04 -0.12148298875E+04  0.20046070203E+04  0.46999998093E+01 0. -1.
</event>
<event>
 5   0  0.1273754E-06  0.3561470E+04  0.7818609E-02  0.8099375E-01
       -1   -1    0    0    0  501  0.00000000000E+00  0.00000000000E+00  0.16037495626E+04  0.16037495626E+04  0.50400001928E-02 0. -1.
        1   -1    0    0  501    0  0.00000000000E+00  0.00000000000E+00 -0.19772523382E+04  0.19772523382E+04  0.50400001928E-02 0.  1.
    10030    2    1    2    0    0  0.00000000000E+00  0.00000000000E+00 -0.37350277561E+03  0.35810019009E+04  0.35614702428E+04 0.  0.
        2    1    3    3  502    0  0.49409827474E+03  0.15771070608E+04  0.47992160050E+03  0.17209661614E+04  0.25500000920E-02 0.  1.
       -2    1    3    3    0  502 -0.49409827474E+03 -0.15771070608E+04 -0.85342437611E+03  0.18600357394E+04  0.25500000920E-02 0. -1.
</event>
<event>
 5   0  0.1306843E-06  0.3193812E+04  0.7818609E-02  0.8190453E-01
        1   -1    0    0  501    0  0.00000000000E+00  0.00000000000E+00  0.18225724665E+04  0.18225724665E+04  0.50400001928E-02 0. -1.
       -1   -1    0    0    0  501  0.00000000000E+00  0.00000000000E+00 -0.13991814101E+04  0.13991814101E+04  0.50400001928E-02 0.  1.
    10030    2    1    2    0    0  0.00000000000E+00  0.00000000000E+00  0.42339105638E+03  0.32217538766E+04  0.31938124639E+04 0.  0.
        5    1    3    3  502    0  0.80619570814E+03  0.13707351909E+04  0.35864406317E+03  0.16301883748E+04  0.46999998093E+01 0.  1.
       -5    1    3    3    0  502 -0.80619570814E+03 -0.13707351909E+04  0.64746993208E+02  0.15915655018E+04  0.46999998093E+01 0. -1.
</event>
<event>
 5   0  0.1268836E-06  0.3196261E+04  0.7818609E-02  0.8189805E-01
        1   -1    0    0  501    0  0.00000000000E+00  0.00000000000E+00  0.23672531793E+04  0.23672531793E+04  0.50400001928E-02 0.  1.
       -1   -1    0    0    0  501  0.00000000000E+00  0.00000000000E+00 -0.10788961572E+04  0.10788961572E+04  0.50400001928E-02 0. -1.
    10030    2    1    2    0    0  0.00000000000E+00  0.00000000000E+00  0.12883570220E+04  0.34461493365E+04  0.31962605390E+04 0.  0.
        1    1    3    3  502    0  0.16710339749E+03  0.15608748784E+04  0.96721299769E+03  0.18438424321E+04  0.50400001928E-02 0.  1.
       -1    1    3    3    0  502 -0.16710339749E+03 -0.15608748784E+04  0.32114402434E+03  0.16023069044E+04  0.50400001928E-02 0. -1.
</event>
<event>
 5   0  0.3745943E-06  0.3132351E+04  0.7818609E-02  0.8206915E-01
       -2   -1    0    0    0  501  0.00000000000E+00  0.00000000000E+00  0.81705981232E+03  0.81705981233E+03  0.25500000920E-02 0. -1.
        2   -1    0    0  501    0  0.00000000000E+00  0.00000000000E+00 -0.30021121909E+04  0.30021121909E+04  0.25500000920E-02 0.  1.
    10030    2    1    2    0    0  0.00000000000E+00  0.00000000000E+00 -0.21850523786E+04  0.38191720032E+04  0.31323506977E+04 0.  0.
        5    1    3    3  502    0 -0.14650109415E+04 -0.48421563868E+03 -0.76499626707E+03  0.17221972077E+04  0.46999998093E+01 0.  1.
       -5    1    3    3    0  502  0.14650109415E+04  0.48421563868E+03 -0.14200561115E+04  0.20969747956E+04  0.46999998093E+01 0. -1.
</event>
<event>
 5   0  0.1273754E-06  0.2758569E+04  0.7818609E-02  0.8316248E-01
        1   -1    0    0  501    0  0.00000000000E+00  0.00000000000E+00  0.11879793815E+04  0.11879793815E+04  0.50400001928E-02 0. -1.
       -1   -1    0    0    0  501  0.00000000000E+00  0.00000000000E+00 -0.16013967990E+04  0.16013967990E+04  0.50400001928E-02 0.  1.
    10030    2    1    2    0    0  0.00000000000E+00  0.00000000000E+00 -0.41341741752E+03  0.27893761805E+04  0.27585694690E+04 0.  0.
        2    1    3    3  502    0 -0.32299719760E+03  0.54598406312E+03 -0.14451313347E+04  0.15782364719E+04  0.25500000920E-02 0.  1.
       -2    1    3    3    0  502  0.32299719760E+03 -0.54598406312E+03  0.10317139172E+04  0.12111397086E+04  0.25500000920E-02 0. -1.
</event>
<event>
 5   0  0.1240725E-06  0.3196140E+04  0.7818609E-02  0.8189837E-01
        1   -1    0    0  501    0  0.00000000000E+00  0.00000000000E+00  0.19631357174E+04  0.19631357174E+04  0.50400001928E-02 0.  1.
       -1   -1    0    0    0  501  0.00000000000E+00  0.00000000000E+00 -0.13008921619E+04  0.13008921619E+04  0.50400001928E-02 0. -1.
    10030    2    1    2    0    0  0.00000000000E+00  0.00000000000E+00  0.66224355555E+03  0.32640278793E+04  0.31961400892E+04 0.  0.
        3    1    3    3  502    0 -0.24704264981E+02  0.66145418007E+03  0.18165602842E+04  0.19333968060E+04  0.10100000352E+00 0.  1.
       -3    1    3    3    0  502  0.24704264981E+02 -0.66145418007E+03 -0.11543167286E+04  0.13306310733E+04  0.10100000352E+00 0. -1.
</event>
<event>
 5   0  0.3656086E-06  0.3144337E+04  0.7818609E-02  0.8203674E-01
        2   -1    0    0  501    0  0.00000000000E+00  0.00000000000E+00  0.16537694693E+04  0.16537694693E+04  0.25500000920E-02 0.  1.
       -2   -1    0    0    0  501  0.00000000000E+00  0.00000000000E+00 -0.14945940955E+04  0.14945940955E+04  0.25500000920E-02 0. -1.
    10030    2    1    2    0    0  0.00000000000E+00  0.00000000000E+00  0.15917537375E+03  0.31483635648E+04  0.31443371855E+04 0.  0.
        3    1    3    3  502    0 -0.78097730492E+03  0.10111589957E+04 -0.83774375784E+03  0.15278032201E+04  0.10100000352E+00 0. -1.
       -3    1    3    3    0  502  0.78097730492E+03 -0.10111589957E+04  0.99691913160E+03  0.16205603446E+04  0.10100000352E+00 0.  1.
</event>
<event>
 5   0  0.3745943E-06  0.3206427E+04  0.7818609E-02  0.8187122E-01
        2   -1    0    0  501    0  0.00000000000E+00  0.00000000000E+00  0.19141299438E+04  0.19141299438E+04  0.25500000920E-02 0. -1.
       -2   -1    0    0    0  501  0.00000000000E+00  0.00000000000E+00 -0.13427996890E+04  0.13427996890E+04  0.25500000920E-02 0.  1.
    10030    2    1    2    0    0  0.00000000000E+00  0.00000000000E+00  0.57133025484E+03  0.32569296328E+04  0.32064267297E+04 0.  0.
        5    1    3    3  502    0 -0.72686144314E+03  0.85946786604E+03 -0.87391917400E+03  0.14250506598E+04  0.46999998093E+01 0.  1.
       -5    1    3    3    0  502  0.72686144314E+03 -0.85946786604E+03  0.14452494288E+04  0.18318789730E+04  0.46999998093E+01 0. -1.
</event>
<event>
 5   0  0.3531437E-06  0.3189764E+04  0.7818609E-02  0.8191526E-01
       -2   -1    0    0    0  501  0.00000000000E+00  0.00000000000E+00  0.10675245781E+04  0.10675245781E+04  0.25500000920E-02 0. -1.
        2   -1    0    0  501    0  0.00000000000E+00  0.00000000000E+00 -0.23827545051E+04  0.23827545051E+04  0.25500000920E-02 0.  1.
    10030    2    1    2    0    0  0.00000000000E+00  0.00000000000E+00 -0.13152299270E+04  0.34502790832E+04  0.31897642532E+04 0.  0.
        1    1    3    3  502    0 -0.75013256777E+03  0.98535227973E+03 -0.17446986868E+04  0.21395306710E+04  0.50400001928E-02 0. -1.
       -1    1    3    3    0  502  0.75013256777E+03 -0.98535227973E+03  0.42946875980E+03  0.13107484122E+04  0.50400001928E-02 0.  1.
</event>
<event>
 5   0  0.1273980E-06  0.3135858E+04  0.7818609E-02  0.8205965E-01
       -1   -1    0    0    0  501  0.00000000000E+00  0.00000000000E+00  0.11690839758E+04  0.11690839758E+04  0.50400001928E-02 0.  1.
        1   -1    0    0  501    0  0.00000000000E+00  0.00000000000E+00 -0.21028444192E+04  0.21028444192E+04  0.50400001928E-02 0. -1.
    10030    2    1    2    0    0  0.00000000000E+00  0.00000000000E+00 -0.93376044339E+03  0.32719283950E+04  0.31358582329E+04 0.  0.
        4    1    3    3  502    0 -0.13167199412E+04  0.76501020746E+03 -0.85645545849E+03  0.17471432644E+04  0.12699999809E+01 0. -1.
       -4    1    3    3    0  502  0.13167199412E+04 -0.76501020746E+03 -0.77304984900E+02  0.15247851306E+04  0.12699999809E+01 0.  1.
</event>
<event>
 5   0  0.1306843E-06  0.3138852E+04  0.7818609E-02  0.8205155E-01
       -1   -1    0    0    0  501  0.00000000000E+00  0.00000000000E+00  0.22216735960E+04  0.22216735960E+04  0.50400001928E-02 0. -1.
        1   -1    0    0  501    0  0.00000000000E+00  0.00000000000E+00 -0.11086680351E+04  0.11086680351E+04  0.50400001928E-02 0.  1.
    10030    2    1    2    0    0  0.00000000000E+00  0.00000000000E+00  0.11130055608E+04  0.33303416311E+04  0.31388523383E+04 0.  0.
        5    1    3    3  502    0  0.41394747869E+03  0.23407777373E+03 -0.10303777892E+04  0.11348327620E+04  0.46999998093E+01 0.  1.
       -5    1    3    3    0  502 -0.41394747869E+03 -0.23407777373E+03  0.21433833500E+04  0.21955088691E+04  0.46999998093E+01 0. -1.
</event>
<event>
 5   0  0.1268836E-06  0.3208485E+04  0.7818609E-02  0.8186580E-01
        1   -1    0    0  501    0  0.00000000000E+00  0.00000000000E+00  0.23038069436E+04  0.23038069436E+04  0.50400001928E-02 0. -1.
       -1   -1    0    0    0  501  0.00000000000E+00  0.00000000000E+00 -0.11171047599E+04  0.11171047599E+04  0.50400001928E-02 0.  1.
    10030    2    1    2    0    0  0.00000000000E+00  0.00000000000E+00  0.11867021837E+04  0.34209117035E+04  0.32084848154E+04 0.  0.
        1    1    3    3  502    0 -0.35347331938E+03  0.14941795729E+04  0.10889688624E+04  0.18823839053E+04  0.50400001928E-02 0. -1.
       -1    1    3    3    0  502  0.35347331938E+03 -0.14941795729E+04  0.97733321300E+02  0.15385277982E+04  0.50400001928E-02 0.  1.
</event>
<event>
 5   0  0.3758062E-06  0.3218140E+04  0.7818609E-02  0.8184043E-01
        2   -1    0    0  501    0  0.00000000000E+00  0.00000000000E+00  0.12977783662E+04  0.12977783662E+04  0.25500000920E-02 0.  1.
       -2   -1    0    0    0  501  0.00000000000E+00  0.00000000000E+00 -0.19950296511E+04  0.19950296511E+04  0.25500000920E-02 0. -1.
    10030    2    1    2    0    0  0.00000000000E+00  0.00000000000E+00 -0.69725128498E+03  0.32928080173E+04  0.32181400349E+04 0.  0.
        2    1    3    3  502    0  0.92388426235E+03 -0.13172705077E+04 -0.32968671004E+03  0.16423936944E+04  0.25500000920E-02 0. -1.
       -2    1    3    3    0  502 -0.92388426235E+03  0.13172705077E+04 -0.36756457494E+03  0.16504143229E+04  0.25500000920E-02 0.  1.
</event>
<event>
 5   0  0.1240725E-06  0.3398047E+04  0.7818609E-02  0.8138386E-01
       -1   -1    0    0    0  501  0.00000000000E+00  0.00000000000E+00  0.95229216416E+03  0.95229216418E+03  0.50400001928E-02 0. -1.
        1   -1    0    0  501    0  0.00000000000E+00  0.00000000000E+00 -0.30312976114E+04  0.30312976115E+04  0.50400001928E-02 0.  1.
    10030    2    1    2    0    0  0.00000000000E+00  0.00000000000E+00 -0.20790054473E+04  0.39835897756E+04  0.33980470642E+04 0.  0.
        3    1    3    3  502    0 -0.83008612632E+02  0.13067345745E+03  0.94400672612E+03  0.95661627177E+03  0.10100000352E+00 0. -1.
       -3    1    3    3    0  502  0.83008612632E+02 -0.13067345745E+03 -0.30230121734E+04  0.30269735039E+04  0.10100000352E+00 0.  1.
</event>
<event>
 5   0  0.1273754E-06  0.3182198E+04  0.7818609E-02  0.8193535E-01
        1   -1    0    0  501    0  0.00000000000E+00  0.00000000000E+00  0.17276045612E+04  0.17276045612E+04  0.50400001928E-02 0. -1.
       -1   -1    0    0    0  501  0.00000000000E+00  0.00000000000E+00 -0.14653792683E+04  0.14653792683E+04  0.50400001928E-02 0.  1.
    10030    2    1    2    0    0  0.00000000000E+00  0.00000000000E+00  0.26222529287E+03  0.31929838295E+04  0.31821979246E+04 0.  0.
        2    1    3    3  502    0 -0.93167788902E+01  0.51233465562E+02 -0.14645240134E+04  0.14654495065E+04  0.25500000920E-02 0.  1.
       -2    1    3    3    0  502  0.93167788902E+01 -0.51233465562E+02  0.17267493063E+04  0.17275343230E+04  0.25500000920E-02 0. -1.
</event>
<event>
 5   0  0.1273980E-06  0.3172144E+04  0.7818609E-02  0.8196213E-01
        1   -1    0    0  501    0  0.00000000000E+00  0.00000000000E+00  0.19058057035E+04  0.19058057035E+04  0.50400001928E-02 0. -1.
       -1   -1    0    0    0  501  0.00000000000E+00  0.00000000000E+00 -0.13199790551E+04  0.13199790551E+04  0.50400001928E-02 0.  1.
    10030    2    1    2    0    0  0.00000000000E+00  0.00000000000E+00  0.58582664841E+03  0.32257847586E+04  0.31721435098E+04 0.  0.
        4    1    3    3  502    0 -0.46447295077E+03  0.13019026426E+04  0.10838421656E+04  0.17565309749E+04  0.12699999809E+01 0. -1.
       -4    1    3    3    0  502  0.46447295077E+03 -0.13019026426E+04 -0.49801551715E+03  0.14692537838E+04  0.12699999809E+01 0.  1.
</event>
<event>
 5   0  0.3531437E-06  0.3249509E+04  0.7818609E-02  0.8175863E-01
        2   -1    0    0  501    0  0.00000000000E+00  0.00000000000E+00  0.21270888995E+04  0.21270888995E+04  0.25500000920E-02 0.  1.
       -2   -1    0    0    0  501  0.00000000000E+00  0.00000000000E+00 -0.12410515361E+04  0.12410515361E+04  0.25500000920E-02 0. -1.
    10030    2    1    2    0    0  0.00000000000E+00  0.00000000000E+00  0.88603736341E+03  0.33681404357E+04  0.32495088529E+04 0.  0.
        1    1    3    3  502    0 -0.11297863769E+04  0.64334666658E+03 -0.56698585791E+03  0.14183741234E+04  0.50400001928E-02 0. -1.
       -1    1    3    3    0  502  0.11297863769E+04 -0.64334666658E+03  0.14530232213E+04  0.19497663123E+04  0.50400001928E-02 0.  1.
</event>
<event>
 5   0  0.3656086E-06  0.3088026E+04  0.7818609E-02  0.8219032E-01
       -2   -1    0    0    0  501  0.00000000000E+00  0.00000000000E+00  0.25290069466E+04  0.25290069466E+04  0.25500000920E-02 0.  1.
        2   -1    0    0  501    0  0.00000000000E+00  0.00000000000E+00 -0.94265294332E+03  0.94265294332E+03  0.25500000920E-02 0. -1.
    10030    2    1    2    0    0  0.00000000000E+00  0.00000000000E+00  0.15863540033E+04  0.34716598899E+04  0.30880258042E+04 0.  0.
        3    1    3    3  502    0  0.24603258148E+03  0.73566065384E+02 -0.91847687914E+03  0.95370004972E+03  0.10100000352E+00 0. -1.
       -3    1    3    3    0  502 -0.24603258148E+03 -0.73566065384E+02  0.25048308824E+04  0.25179598402E+04  0.10100000352E+00 0.  1.
</event>
<event>
 5   0  0.1273754E-06  0.3208939E+04  0.7818609E-02  0.8186460E-01
       -1   -1    0    0    0  501  0.00000000000E+00  0.00000000000E+00  0.88327762394E+03  0.88327762396E+03  0.50400001928E-02 0.  1.
        1   -1    0    0  501    0  0.00000000000E+00  0.00000000000E+00 -0.29145104273E+04  0.29145104273E+04  0.50400001928E-02 0. -1.
    10030    2    1    2    0    0  0.00000000000E+00  0.00000000000E+00 -0.20312328033E+04  0.37977880512E+04  0.32089386689E+04 0.  0.
        2    1    3    3  502    0 -0.35057250065E+03  0.76025830990E+03  0.60428215525E+03  0.10324973119E+04  0.25500000920E-02 0.  1.
       -2    1    3    3    0  502  0.35057250065E+03 -0.76025830990E+03 -0.26355149586E+04  0.27652907393E+04  0.25500000920E-02 0. -1.
</event>
<event>
 5   0  0.1306843E-06  0.3288368E+04  0.7818609E-02  0.8165861E-01
        1   -1    0    0  501    0  0.00000000000E+00  0.00000000000E+00  0.20324645639E+04  0.20324645639E+04  0.50400001928E-02 0. -1.
       -1   -1    0    0    0  501  0.00000000000E+00  0.00000000000E+00 -0.13300806241E+04  0.13300806241E+04  0.50400001928E-02 0.  1.
    10030    2    1    2    0    0  0.00000000000E+00  0.00000000000E+00  0.70238393980E+03  0.33625451880E+04  0.32883684316E+04 0.  0.
        5    1    3    3  502    0  0.15247354045E+04 -0.38881870460E+03  0.83872946048E+03  0.17831116725E+04  0.46999998093E+01 0. -1.
       -5    1    3    3    0  502 -0.15247354045E+04  0.38881870460E+03 -0.13634552067E+03  0.15794335155E+04  0.46999998093E+01 0.  1.
</event>
<event>
 5   0  0.3745943E-06  0.3175073E+04  0.7818609E-02  0.8195431E-01
        2   -1    0    0  501    0  0.00000000000E+00  0.00000000000E+00  0.25780066314E+04  0.25780066314E+04  0.25500000920E-02 0. -1.
       -2   -1    0    0    0  501  0.00000000000E+00  0.00000000000E+00 -0.97760507027E+03  0.97760507028E+03  0.25500000920E-02 0.  1.
    10030    2    1    2    0    0  0.00000000000E+00  0.00000000000E+00  0.16004015611E+04  0.35556117017E+04  0.31750731356E+04 0.  0.
        5    1    3    3  502    0 -0.11482563604E+04 -0.76964725853E+03 -0.74001761507E+02  0.13843221888E+04  0.46999998093E+01 0.  1.
       -5    1    3    3    0  502  0.11482563604E+04  0.76964725853E+03  0.16744033226E+04  0.21712895128E+04  0.46999998093E+01 0. -1.
</event>
<event>
 5   0  0.3531437E-06  0.3222117E+04  0.7818609E-02  0.8183000E-01
       -2   -1    0    0    0  501  0.00000000000E+00  0.00000000000E+00  0.13007998998E+04  0.13007998998E+04  0.25500000920E-02 0. -1.
        2   -1    0    0  501    0  0.00000000000E+00  0.00000000000E+00 -0.19953181790E+04  0.19953181790E+04  0.25500000920E-02 0.  1.
    10030    2    1    2    0    0  0.00000000000E+00  0.00000000000E+00 -0.69451827926E+03  0.32961180788E+04  0.32221171222E+04 0.  0.
        1    1    3    3  502    0  0.19559013233E+03  0.12652589810E+03 -0.19779991996E+04  0.19916689324E+04  0.50400001928E-02 0.  1.
       -1    1    3    3    0  502 -0.19559013233E+03 -0.12652589810E+03  0.12834809203E+04  0.13044491464E+04  0.50400001928E-02 0. -1.
</event>
<event>
 5   0  0.1185575E-06  0.2921109E+04  0.7818609E-02  0.8266625E-01
        3   -1    0    0  501    0  0.00000000000E+00  0.00000000000E+00  0.16071158882E+04  0.16071158913E+04  0.10100000352E+00 0. -1.
       -3   -1    0    0    0  501  0.00000000000E+00  0.00000000000E+00 -0.13273585118E+04  0.13273585156E+04  0.10100000352E+00 0.  1.
    10030    2    1    2    0    0  0.00000000000E+00  0.00000000000E+00  0.27975737640E+03  0.29344744069E+04  0.29211086689E+04 0.  0.
        4    1    3    3  502    0  0.96085531577E+03  0.62025452738E+03  0.10524728316E+04  0.15542391356E+04  0.12699999809E+01 0. -1.
       -4    1    3    3    0  502 -0.96085531577E+03 -0.62025452738E+03 -0.77271545518E+03  0.13802352713E+04  0.12699999809E+01 0.  1.
</event>
<event>
 5   0  0.1273980E-06  0.3225014E+04  0.7818609E-02  0.8182242E-01
       -1   -1    0    0    0  501  0.00000000000E+00  0.00000000000E+00  0.16351224653E+04  0.16351224653E+04  0.50400001928E-02 0. -1.
        1   -1    0    0  501    0  0.00000000000E+00  0.00000000000E+00 -0.15902041807E+04  0.15902041807E+04  0.50400001928E-02 0.  1.
    10030    2    1    2    0    0  0.00000000000E+00  0.00000000000E+00  0.44918284568E+02  0.32253266460E+04  0.32250138482E+04 0.  0.
        4    1    3    3  502    0  0.83705671011E+03 -0.44611956876E+03 -0.12816958496E+04  0.15945006959E+04  0.12699999809E+01 0.  1.
       -4    1    3    3    0  502 -0.83705671011E+03  0.44611956876E+03  0.13266141341E+04  0.16308259501E+04  0.12699999809E+01 0. -1.
</event>
<event>
 5   0  0.3497546E-06  0.3206462E+04  0.7818609E-02  0.8187113E-01
        2   -1    0    0  501    0  0.00000000000E+00  0.00000000000E+00  0.15701303489E+04  0.15701303489E+04  0.25500000920E-02 0.  1.
       -2   -1    0    0    0  501  0.00000000000E+00  0.00000000000E+00 -0.16370297201E+04  0.16370297201E+04  0.25500000920E-02 0. -1.
    10030    2    1    2    0    0  0.00000000000E+00  0.00000000000E+00 -0.66899371210E+02  0.32071600690E+04  0.32064622533E+04 0.  0.
        4    1    3    3  502    0  0.22603781327E+03 -0.15854263553E+04 -0.10882264843E+03  0.16051522678E+04  0.12699999809E+01 0.  1.
       -4    1    3    3    0  502 -0.22603781327E+03  0.15854263553E+04  0.41923277221E+02  0.16020078012E+04  0.12699999809E+01 0. -1.
</event>
<event>
 5   0  0.3531437E-06  0.3216132E+04  0.7818609E-02  0.8184570E-01
        2   -1    0    0  501    0  0.00000000000E+00  0.00000000000E+00  0.27996431885E+04  0.27996431885E+04  0.25500000920E-02 0.  1.
       -2   -1    0    0    0  501  0.00000000000E+00  0.00000000000E+00 -0.92364488297E+03  0.92364488297E+03  0.25500000920E-02 0. -1.
    10030    2    1    2    0    0  0.00000000000E+00  0.00000000000E+00  0.18759983056E+04  0.37232880715E+04  0.32161319035E+04 0.  0.
        1    1    3    3  502    0  0.14143478495E+04  0.30210565089E+03  0.12412612897E+03  0.14515698260E+04  0.50400001928E-02 0. -1.
       -1    1    3    3    0  502 -0.14143478495E+04 -0.30210565089E+03  0.17518721766E+04  0.22717182455E+04  0.50400001928E-02 0.  1.
</event>
<event>
 5   0  0.3745943E-06  0.3126308E+04  0.7818609E-02  0.8208555E-01
        2   -1    0    0  501    0  0.00000000000E+00  0.00000000000E+00  0.10033010638E+04  0.10033010638E+04  0.25500000920E-02 0. -1.
       -2   -1    0    0    0  501  0.00000000000E+00  0.00000000000E+00 -0.24354110151E+04  0.24354110151E+04  0.25500000920E-02 0.  1.
    10030    2    1    2    0    0  0.00000000000E+00  0.00000000000E+00 -0.14321099513E+04  0.34387120789E+04  0.31263080221E+04 0.  0.
        5    1    3    3  502    0  0.12297017188E+03  0.13453668070E+04  0.14883700140E+03  0.13591571107E+04  0.46999998093E+01 0. -1.
       -5    1    3    3    0  502 -0.12297017188E+03 -0.13453668070E+04 -0.15809469527E+04  0.20795549682E+04  0.46999998093E+01 0.  1.
</event>
<event>
 5   0  0.3745943E-06  0.3143494E+04  0.7818609E-02  0.8203902E-01
        2   -1    0    0  501    0  0.00000000000E+00  0.00000000000E+00  0.96592232091E+03  0.96592232091E+03  0.25500000920E-02 0. -1.
       -2   -1    0    0    0  501  0.00000000000E+00  0.00000000000E+00 -0.25575431105E+04  0.25575431105E+04  0.25500000920E-02 0.  1.
    10030    2    1    2    0    0  0.00000000000E+00  0.00000000000E+00 -0.15916207896E+04  0.35234654314E+04  0.31434935833E+04 0.  0.
        5    1    3    3  502    0 -0.11457841896E+04 -0.94961666000E+03 -0.22893904043E+03  0.15056654291E+04  0.46999998093E+01 0. -1.
       -5    1    3    3    0  502  0.11457841896E+04  0.94961666000E+03 -0.13626817492E+04  0.20178000024E+04  0.46999998093E+01 0.  1.
</event>
<event>
 5   0  0.3745943E-06  0.3114248E+04  0.7818609E-02  0.8211839E-01
       -2   -1    0    0    0  501  0.00000000000E+00  0.00000000000E+00  0.16408808084E+04  0.16408808084E+04  0.25500000920E-02 0.  1.
        2   -1    0    0  501    0  0.00000000000E+00  0.00000000000E+00 -0.14776420716E+04  0.14776420716E+04  0.25500000920E-02 0. -1.
    10030    2    1    2    0    0  0.00000000000E+00  0.00000000000E+00  0.16323873687E+03  0.31185228800E+04  0.31142475926E+04 0.  0.
        5    1    3    3  502    0 -0.44713255445E+03 -0.66353785773E+02 -0.14104873103E+04  0.14811572802E+04  0.46999998093E+01 0. -1.
       -5    1    3    3    0  502  0.44713255445E+03  0.66353785773E+02  0.15737260471E+04  0.16373655999E+04  0.46999998093E+01 0.  1.
</event>
<event>
 5   0  0.1306843E-06  0.3096245E+04  0.7818609E-02  0.8216769E-01
        1   -1    0    0  501    0  0.00000000000E+00  0.00000000000E+00  0.22465879736E+04  0.22465879736E+04  0.50400001928E-02 0.  1.
       -1   -1    0    0    0  501  0.00000000000E+00  0.00000000000E+00 -0.10668103613E+04  0.10668103613E+04  0.50400001928E-02 0. -1.
    10030    2    1    2    0    0  0.00000000000E+00  0.00000000000E+00  0.11797776123E+04  0.33133983350E+04  0.30962450342E+04 0.  0.
        5    1    3    3  502    0  0.80757051793E+03  0.99253473596E+03 -0.34264346613E+03  0.13246591933E+04  0.46999998093E+01 0. -1.
       -5    1    3    3    0  502 -0.80757051793E+03 -0.99253473596E+03  0.15224210784E+04  0.19887391417E+04  0.46999998093E+01 0.  1.
</event>
<event>
 5   0  0.3531437E-06  0.3111628E+04  0.7818609E-02  0.8212554E-01
        2   -1    0    0  501    0  0.00000000000E+00  0.00000000000E+00  0.23054188986E+04  0.23054188986E+04  0.25500000920E-02 0. -1.
       -2   -1    0    0    0  501  0.00000000000E+00  0.00000000000E+00 -0.10499425628E+04  0.10499425628E+04  0.25500000920E-02 0.  1.
    10030    2    1    2    0    0  0.00000000000E+00  0.00000000000E+00  0.12554763358E+04  0.33553614615E+04  0.31116281441E+04 0.  0.
        1    1    3    3  502    0 -0.86098858260E+03 -0.12545429969E+04  0.97778528660E+03  0.18086579381E+04  0.50400001928E-02 0. -1.
       -1    1    3    3    0  502  0.86098858260E+03  0.12545429969E+04  0.27769104921E+03  0.15467035234E+04  0.50400001928E-02 0.  1.
</event>
<event>
 5   0  0.1273754E-06  0.3139293E+04  0.7818609E-02  0.8205036E-01
        1   -1    0    0  501    0  0.00000000000E+00  0.00000000000E+00  0.11825770691E+04  0.11825770691E+04  0.50400001928E-02 0. -1.
       -1   -1    0    0    0  501  0.00000000000E+00  0.00000000000E+00 -0.20834081901E+04  0.20834081901E+04  0.50400001928E-02 0.  1.
    10030    2    1    2    0    0  0.00000000000E+00  0.00000000000E+00 -0.90083112095E+03  0.32659852592E+04  0.31392933926E+04 0.  0.
        2    1    3    3  502    0  0.11911826424E+04  0.10182472154E+04 -0.54374242087E+03  0.16587342462E+04  0.25500000920E-02 0.  1.
       -2    1    3    3    0  502 -0.11911826424E+04 -0.10182472154E+04 -0.35708870008E+03  0.16072510130E+04  0.25500000920E-02 0. -1.
</event>
<event>
 5   0  0.1273754E-06  0.3189712E+04  0.7818609E-02  0.8191540E-01
        1   -1    0    0  501    0  0.00000000000E+00  0.00000000000E+00  0.12134194944E+04  0.12134194944E+04  0.50400001928E-02 0.  1.
       -1   -1    0    0    0  501  0.00000000000E+00  0.00000000000E+00 -0.20961958825E+04  0.20961958825E+04  0.50400001928E-02 0. -1.
    10030    2    1    2    0    0  0.00000000000E+00  0.00000000000E+00 -0.88277638812E+03  0.33096153769E+04  0.31897115531E+04 0.  0.
        2    1    3    3  502    0  0.26949397027E+03  0.12356086575E+04  0.56684322402E+03  0.13858813063E+04  0.25500000920E-02 0.  1.
       -2    1    3    3    0  502 -0.26949397027E+03 -0.12356086575E+04 -0.14496196121E+04  0.19237340706E+04  0.25500000920E-02 0. -1.
</event>
<event>
 5   0  0.1240725E-06  0.3227208E+04  0.7818609E-02  0.8181668E-01
        1   -1    0    0  501    0  0.00000000000E+00  0.00000000000E+00  0.13432814768E+04  0.13432814768E+04  0.50400001928E-02 0. -1.
       -1   -1    0    0    0  501  0.00000000000E+00  0.00000000000E+00 -0.19383260202E+04  0.19383260202E+04  0.50400001928E-02 0.  1.
    10030    2    1    2    0    0  0.00000000000E+00  0.00000000000E+00 -0.59504454340E+03  0.32816074970E+04  0.32272077336E+04 0.  0.
        3    1    3    3  502    0 -0.16102257142E+04  0.10236349528E+03 -0.31816954317E+03  0.16445476595E+04  0.10100000352E+00 0. -1.
       -3    1    3    3    0  502  0.16102257142E+04 -0.10236349528E+03 -0.27687500022E+03  0.16370598376E+04  0.10100000352E+00 0.  1.
</event>
<event>
 5   0  0.3531437E-06  0.3174530E+04  0.7818609E-02  0.8195576E-01
       -2   -1    0    0    0  501  0.00000000000E+00  0.00000000000E+00  0.14573393407E+04  0.14573393407E+04  0.25500000920E-02 0. -1.
        2   -1    0    0  501    0  0.00000000000E+00  0.00000000000E+00 -0.17287740219E+04  0.17287740219E+04  0.25500000920E-02 0.  1.
    10030    2    1    2    0    0  0.00000000000E+00  0.00000000000E+00 -0.27143468116E+03  0.31861133626E+04  0.31745301343E+04 0.  0.
        1    1    3    3  502    0 -0.85977966408E+03 -0.90426088607E+03  0.84893403944E+03  0.15091712375E+04  0.50400001928E-02 0. -1.
       -1    1    3    3    0  502  0.85977966408E+03  0.90426088607E+03 -0.11203687206E+04  0.16769421251E+04  0.50400001928E-02 0.  1.
</event>
<event>
 5   0  0.1273980E-06  0.3175456E+04  0.7818609E-02  0.8195329E-01
       -1   -1    0    0    0  501  0.00000000000E+00  0.00000000000E+00  0.98022892778E+03  0.98022892779E+03  0.50400001928E-02 0. -1.
        1   -1    0    0  501    0  0.00000000000E+00  0.00000000000E+00 -0.25717258690E+04  0.25717258690E+04  0.50400001928E-02 0.  1.
    10030    2    1    2    0    0  0.00000000000E+00  0.00000000000E+00 -0.15914969413E+04  0.35519547968E+04  0.31754559302E+04 0.  0.
        4    1    3    3  502    0  0.44268461552E+02  0.13690930380E+04 -0.16937432744E+04  0.21783349917E+04  0.12699999809E+01 0. -1.
       -4    1    3    3    0  502 -0.44268461552E+02 -0.13690930380E+04  0.10224633314E+03  0.13736198051E+04  0.12699999809E+01 0.  1.
</event>
<event>
 5   0  0.1273980E-06  0.2657805E+04  0.7818609E-02  0.8348827E-01
       -1   -1    0    0    0  501  0.00000000000E+00  0.00000000000E+00  0.81567132833E+03  0.81567132835E+03  0.50400001928E-02 0. -1.
        1   -1    0    0  501    0  0.00000000000E+00  0.00000000000E+00 -0.21650662571E+04  0.21650662571E+04  0.50400001928E-02 0.  1.
    10030    2    1    2    0    0  0.00000000000E+00  0.00000000000E+00 -0.13493949288E+04  0.29807375855E+04  0.26578054631E+04 0.  0.
        4    1    3    3  502    0  0.10657472075E+04  0.71613991065E+03 -0.29058074360E+03  0.13164772172E+04  0.12699999809E+01 0. -1.
       -4    1    3    3    0  502 -0.10657472075E+04 -0.71613991065E+03 -0.10588141852E+04  0.16642603683E+04  0.12699999809E+01 0.  1.
</event>
<event>
 5   0  0.1306843E-06  0.3189317E+04  0.7818609E-02  0.8191644E-01
        1   -1    0    0  501    0  0.00000000000E+00  0.00000000000E+00  0.19587907578E+04  0.19587907579E+04  0.50400001928E-02 0.  1.
       -1   -1    0    0    0  501  0.00000000000E+00  0.00000000000E+00 -0.12982172017E+04  0.12982172017E+04  0.50400001928E-02 0. -1.
    10030    2    1    2    0    0  0.00000000000E+00  0.00000000000E+00  0.66057355617E+03  0.32570079595E+04  0.31893170782E+04 0.  0.
        5    1    3    3  502    0  0.49292177268E+03 -0.12488954190E+04 -0.54832351174E+03  0.14503076932E+04  0.46999998093E+01 0. -1.
       -5    1    3    3    0  502 -0.49292177268E+03  0.12488954190E+04  0.12088970679E+04  0.18067002663E+04  0.46999998093E+01 0.  1.
</event>
<event>
 5   0  0.3758062E-06  0.3178148E+04  0.7818609E-02  0.8194612E-01
       -2   -1    0    0    0  501  0.00000000000E+00  0.00000000000E+00  0.91332816620E+03  0.91332816620E+03  0.25500000920E-02 0.  1.
        2   -1    0    0  501    0  0.00000000000E+00  0.00000000000E+00 -0.27647852011E+04  0.27647852011E+04  0.25500000920E-02 0. -1.
    10030    2    1    2    0    0  0.00000000000E+00  0.00000000000E+00 -0.18514570349E+04  0.36781133673E+04  0.31781480127E+04 0.  0.
        2    1    3    3  502    0 -0.53773651159E+03  0.14775649372E+03 -0.26478185419E+04  0.27059075314E+04  0.25500000920E-02 0. -1.
       -2    1    3    3    0  502  0.53773651159E+03 -0.14775649372E+03  0.79636150709E+03  0.97220583588E+03  0.25500000920E-02 0.  1.
</event>
<event>
 5   0  0.3497546E-06  0.3194386E+04  0.7818609E-02  0.8190301E-01
        2   -1    0    0  501    0  0.00000000000E+00  0.00000000000E+00  0.16907715208E+04  0.16907715208E+04  0.25500000920E-02 0.  1.
       -2   -1    0    0    0  501  0.00000000000E+00  0.00000000000E+00 -0.15087939288E+04  0.15087939288E+04  0.25500000920E-02 0. -1.
    10030    2    1    2    0    0  0.00000000000E+00  0.00000000000E+00  0.18197759195E+03  0.31995654496E+04  0.31943862043E+04 0.  0.
        4    1    3    3  502    0  0.34704922653E+03 -0.65967599420E+03  0.15058684378E+04  0.16802550246E+04  0.12699999809E+01 0.  1.
       -4    1    3    3    0  502 -0.34704922653E+03  0.65967599420E+03 -0.13238908458E+04  0.15193104250E+04  0.12699999809E+01 0. -1.
</event>
<event>
 5   0  0.3745943E-06  0.2449762E+04  0.7818609E-02  0.8421105E-01
        2   -1    0    0  501    0  0.00000000000E+00  0.00000000000E+00  0.17120745424E+04  0.17120745424E+04  0.25500000920E-02 0.  1.
       -2   -1    0    0    0  501  0.00000000000E+00  0.00000000000E+00 -0.87632509193E+03  0.87632509193E+03  0.25500000920E-02 0. -1.
    10030    2    1    2    0    0  0.00000000000E+00  0.00000000000E+00  0.83574945048E+03  0.25883996343E+04  0.24497623401E+04 0.  0.
        5    1    3    3  502    0  0.31486161017E+03 -0.10699869076E+04  0.95278797080E+03  0.14669140477E+04  0.46999998093E+01 0.  1.
       -5    1    3    3    0  502 -0.31486161017E+03  0.10699869076E+04 -0.11703852032E+03  0.11214855867E+04  0.46999998093E+01 0. -1.
</event>
<event>
 5   0  0.3656086E-06  0.3182929E+04  0.7818609E-02  0.8193340E-01
       -2   -1    0    0    0  501  0.00000000000E+00  0.00000000000E+00  0.13133505000E+04  0.13133505000E+04  0.25500000920E-02 0. -1.
        2   -1    0    0  501    0  0.00000000000E+00  0.00000000000E+00 -0.19284722375E+04  0.19284722375E+04  0.25500000920E-02 0.  1.
    10030    2    1    2    0    0  0.00000000000E+00  0.00000000000E+00 -0.61512173756E+03  0.32418227375E+04  0.31829294540E+04 0.  0.
        3    1    3    3  502    0 -0.21260654710E+03 -0.14590171091E+03  0.12919332924E+04  0.13174143218E+04  0.10100000352E+00 0. -1.
       -3    1    3    3    0  502  0.21260654710E+03  0.14590171091E+03 -0.19070550299E+04  0.19244084157E+04  0.10100000352E+00 0.  1.
</event>
<event>
 5   0  0.3745943E-06  0.3150533E+04  0.7818609E-02  0.8202005E-01
       -2   -1    0    0    0  501  0.00000000000E+00  0.00000000000E+00  0.97407250661E+03  0.97407250661E+03  0.25500000920E-02 0. -1.
        2   -1    0    0  501    0  0.00000000000E+00  0.00000000000E+00 -0.25475150220E+04  0.25475150220E+04  0.25500000920E-02 0.  1.
    10030    2    1    2    0    0  0.00000000000E+00  0.00000000000E+00 -0.15734425154E+04  0.35215875286E+04  0.31505328712E+04 0.  0.
        5    1    3    3  502    0  0.11459820370E+04 -0.60875198132E+03  0.21153927220E+03  0.13147717511E+04  0.46999998093E+01 0. -1.
       -5    1    3    3    0  502 -0.11459820370E+04  0.60875198132E+03 -0.17849817876E+04  0.22068157775E+04  0.46999998093E+01 0.  1.
</event>
<event>
 5   0  0.3758062E-06  0.3220612E+04  0.7818609E-02  0.8183395E-01
        2   -1    0    0  501    0  0.00000000000E+00  0.00000000000E+00  0.18017552924E+04  0.18017552924E+04  0.25500000920E-02 0. -1.
       -2   -1    0    0    0  501  0.00000000000E+00  0.00000000000E+00 -0.14391997279E+04  0.14391997279E+04  0.25500000920E-02 0.  1.
    10030    2    1    2    0    0  0.00000000000E+00  0.00000000000E+00  0.36255556450E+03  0.32409550203E+04  0.32206121944E+04 0.  0.
        2    1    3    3  502    0  0.14727220075E+04 -0.27861149660E+03  0.77368222244E+03  0.16867479536E+04  0.25500000920E-02 0. -1.
       -2    1    3    3    0  502 -0.14727220075E+04  0.27861149660E+03 -0.41112665794E+03  0.15542070668E+04  0.25500000920E-02 0.  1.
</event>
<event>
 5   0  0.1268836E-06  0.3038084E+04  0.7818609E-02  0.8232939E-01
       -1   -1    0    0    0  501  0.00000000000E+00  0.00000000000E+00  0.87206515924E+03  0.87206515925E+03  0.50400001928E-02 0. -1.
        1   -1    0    0  501    0  0.00000000000E+00  0.00000000000E+00 -0.26460044078E+04  0.26460044078E+04  0.50400001928E-02 0.  1.
    10030    2    1    2    0    0  0.00000000000E+00  0.00000000000E+00 -0.17739392486E+04  0.35180695671E+04  0.30380837745E+04 0.  0.
        1    1    3    3  502    0  0.58814532404E+03  0.12090241084E+04 -0.68283194440E+02  0.13462231655E+04  0.50400001928E-02 0. -1.
       -1    1    3    3    0  502 -0.58814532404E+03 -0.12090241084E+04 -0.17056560541E+04  0.21718464015E+04  0.50400001928E-02 0.  1.
</event>
<event>
 5   0  0.1273980E-06  0.3206392E+04  0.7818609E-02  0.8187131E-01
       -1   -1    0    0    0  501  0.00000000000E+00  0.00000000000E+00  0.12304944568E+04  0.12304944568E+04  0.50400001928E-02 0. -1.
        1   -1    0    0  501    0  0.00000000000E+00  0.00000000000E+00 -0.20887842682E+04  0.20887842682E+04  0.50400001928E-02 0.  1.
    10030    2    1    2    0    0  0.00000000000E+00  0.00000000000E+00 -0.85828981134E+03  0.33192787250E+04  0.32063920306E+04 0.  0.
        4    1    3    3  502    0 -0.65320412709E+03  0.31574824532E+03  0.10508254651E+04  0.12769527623E+04  0.12699999809E+01 0. -1.
       -4    1    3    3    0  502  0.65320412709E+03 -0.31574824532E+03 -0.19091152765E+04  0.20423259627E+04  0.12699999809E+01 0.  1.
</event>
<event>
 5   0  0.3497546E-06  0.3199933E+04  0.7818609E-02  0.8188835E-01
        2   -1    0    0  501    0  0.00000000000E+00  0.00000000000E+00  0.10862863053E+04  0.10862863053E+04  0.25500000920E-02 0. -1.
       -2   -1    0    0    0  501  0.00000000000E+00  0.00000000000E+00 -0.23565546899E+04  0.23565546899E+04  0.25500000920E-02 0.  1.
    10030    2    1    2    0    0  0.00000000000E+00  0.00000000000E+00 -0.12702683845E+04  0.34428409952E+04  0.31999331789E+04 0.  0.
        4    1    3    3  502    0  0.11506842353E+04 -0.11114581425E+04 -0.65865858049E+03  0.17301000406E+04  0.12699999809E+01 0.  1.
       -4    1    3    3    0  502 -0.11506842353E+04  0.11114581425E+04 -0.61160980404E+03  0.17127409545E+04  0.12699999809E+01 0. -1.
</event>
<event>
 5   0  0.3497546E-06  0.3140279E+04  0.7818609E-02  0.8204770E-01
        2   -1    0    0  501    0  0.00000000000E+00  0.00000000000E+00  0.14290705451E+04  0.14290705451E+04  0.25500000920E-02 0. -1.
       -2   -1    0    0    0  501  0.00000000000E+00  0.00000000000E+00 -0.17251339326E+04  0.17251339326E+04  0.25500000920E-02 0.  1.
    10030    2    1    2    0    0  0.00000000000E+00  0.00000000000E+00 -0.29606338751E+03  0.31542044776E+04  0.31402790254E+04 0.  0.
        4    1    3    3  502    0 -0.29316853648E+03  0.35560651612E+03 -0.16556649678E+04  0.17186133607E+04  0.12699999809E+01 0.  1.
       -4    1    3    3    0  502  0.29316853648E+03 -0.35560651612E+03  0.13596015803E+04  0.14355911169E+04  0.12699999809E+01 0. -1.
</event>
<event>
 5   0  0.1273754E-06  0.3169478E+04  0.7818609E-02  0.8196925E-01
        1   -1    0    0  501    0  0.00000000000E+00  0.00000000000E+00  0.11996890546E+04  0.11996890546E+04  0.50400001928E-02 0. -1.
       -1   -1    0    0    0  501  0.00000000000E+00  0.00000000000E+00 -0.20933733564E+04  0.20933733564E+04  0.50400001928E-02 0.  1.
    10030    2    1    2    0    0  0.00000000000E+00  0.00000000000E+00 -0.89368430178E+03  0.32930624110E+04  0.31694776243E+04 0.  0.
        2    1    3    3  502    0  0.10793061420E+04  0.12593921233E+03  0.75166792335E+03  0.13212748012E+04  0.25500000920E-02 0. -1.
       -2    1    3    3    0  502 -0.10793061420E+04 -0.12593921233E+03 -0.16453522251E+04  0.19717876098E+04  0.25500000920E-02 0.  1.
</event>
<event>
 5   0  0.1273754E-06  0.3216713E+04  0.7818609E-02  0.8184417E-01
        1   -1    0    0  501    0  0.00000000000E+00  0.00000000000E+00  0.14844488662E+04  0.14844488662E+04  0.50400001928E-02 0.  1.
       -1   -1    0    0    0  501  0.00000000000E+00  0.00000000000E+00 -0.17426063493E+04  0.17426063493E+04  0.50400001928E-02 0. -1.
    10030    2    1    2    0    0  0.00000000000E+00  0.00000000000E+00 -0.25815748306E+03  0.32270552155E+04  0.32167126197E+04 0.  0.
        2    1    3    3  502    0  0.15540039390E+04 -0.47665926352E+02 -0.54223993479E+03  0.16465796154E+04  0.25500000920E-02 0.  1.
       -2    1    3    3    0  502 -0.15540039390E+04  0.47665926352E+02  0.28408245173E+03  0.15804756001E+04  0.25500000920E-02 0. -1.
</event>
<event>
 5   0  0.3758062E-06  0.3186236E+04  0.7818609E-02  0.8192462E-01
       -2   -1    0    0    0  501  0.00000000000E+00  0.00000000000E+00  0.10294501270E+04  0.10294501270E+04  0.25500000920E-02 0. -1.
        2   -1    0    0  501    0  0.00000000000E+00  0.00000000000E+00 -0.24654187436E+04  0.24654187436E+04  0.25500000920E-02 0.  1.
    10030    2    1    2    0    0  0.00000000000E+00  0.00000000000E+00 -0.14359686166E+04  0.34948688706E+04  0.31862364247E+04 0.  0.
        2    1    3    3  502    0  0.10174705415E+04  0.42909343715E+03 -0.19775447144E+04  0.22649614959E+04  0.25500000920E-02 0.  1.
       -2    1    3    3    0  502 -0.10174705415E+04 -0.42909343715E+03  0.54157609772E+03  0.12299073747E+04  0.25500000920E-02 0. -1.
</event>
<event>
 5   0  0.3656086E-06  0.3132193E+04  0.7818609E-02  0.8206958E-01
        2   -1    0    0  501    0  0.00000000000E+00  0.00000000000E+00  0.27874456120E+04  0.27874456120E+04  0.25500000920E-02 0. -1.
       -2   -1    0    0    0  501  0.00000000000E+00  0.00000000000E+00 -0.87989473667E+03  0.87989473667E+03  0.25500000920E-02 0.  1.
    10030    2    1    2    0    0  0.00000000000E+00  0.00000000000E+00  0.19075508754E+04  0.36673403487E+04  0.31321933036E+04 0.  0.
        3    1    3    3  502    0 -0.13044116359E+04 -0.61567734357E+03  0.16680062255E+04  0.22051741623E+04  0.10100000352E+00 0. -1.
       -3    1    3    3    0  502  0.13044116359E+04  0.61567734357E+03  0.23954464986E+03  0.14621661865E+04  0.10100000352E+00 0.  1.
</event>
<event>
 5   0  0.3758062E-06  0.3194240E+04  0.7818609E-02  0.8190340E-01
       -2   -1    0    0    0  501  0.00000000000E+00  0.00000000000E+00  0.18198803282E+04  0.18198803282E+04  0.25500000920E-02 0. -1.
        2   -1    0    0  501    0  0.00000000000E+00  0.00000000000E+00 -0.14016264680E+04  0.14016264680E+04  0.25500000920E-02 0.  1.
    10030    2    1    2    0    0  0.00000000000E+00  0.00000000000E+00  0.41825386012E+03  0.32215067962E+04  0.31942400890E+04 0.  0.
        2    1    3    3  502    0  0.14216080155E+04 -0.64807600056E+02  0.94031433485E+03  0.17056847373E+04  0.25500000920E-02 0. -1.
       -2    1    3    3    0  502 -0.14216080155E+04  0.64807600056E+02 -0.52206047474E+03  0.15158220589E+04  0.25500000920E-02 0.  1.
</event>
<event>
 5   0  0.3531437E-06  0.3218694E+04  0.7818609E-02  0.8183898E-01
        2   -1    0    0  501    0  0.00000000000E+00  0.00000000000E+00  0.21653243357E+04  0.21653243357E+04  0.25500000920E-02 0. -1.
       -2   -1    0    0    0  501  0.00000000000E+00  0.00000000000E+00 -0.11961243976E+04  0.11961243976E+04  0.25500000920E-02 0.  1.
    10030    2    1    2    0    0  0.00000000000E+00  0.00000000000E+00  0.96919993805E+03  0.33614487333E+04  0.32186936894E+04 0.  0.
        1    1    3    3  502    0 -0.99046444737E+03 -0.26474912869E+03 -0.81093749189E+03  0.13071845847E+04  0.50400001928E-02 0.  1.
       -1    1    3    3    0  502  0.99046444737E+03  0.26474912869E+03  0.17801374299E+04  0.20542641486E+04  0.50400001928E-02 0. -1.
</event>
<event>
 5   0  0.1306843E-06  0.3176222E+04  0.7818609E-02  0.8195125E-01
        1   -1    0    0  501    0  0.00000000000E+00  0.00000000000E+00  0.24027480678E+04  0.24027480678E+04  0.50400001928E-02 0.  1.
       -1   -1    0    0    0  501  0.00000000000E+00  0.00000000000E+00 -0.10496717716E+04  0.10496717716E+04  0.50400001928E-02 0. -1.
    10030    2    1    2    0    0  0.00000000000E+00  0.00000000000E+00  0.13530762962E+04  0.34524198394E+04  0.31762221717E+04 0.  0.
        5    1    3    3  502    0  0.72233391000E+03  0.74243520251E+03  0.19850018296E+04  0.22390244887E+04  0.46999998093E+01 0.  1.
       -5    1    3    3    0  502 -0.72233391000E+03 -0.74243520251E+03 -0.63192553332E+03  0.12133953507E+04  0.46999998093E+01 0. -1.
</event>
<event>
 5   0  0.3745943E-06  0.3257147E+04  0.7818609E-02  0.8173886E-01
        2   -1    0    0  501    0  0.00000000000E+00  0.00000000000E+00  0.24027118436E+04  0.24027118436E+04  0.25500000920E-02 0. -1.
       -2   -1    0    0    0  501  0.00000000000E+00  0.00000000000E+00 -0.11038575480E+04  0.11038575480E+04  0.25500000920E-02 0.  1.
    10030    2    1    2    0    0  0.00000000000E+00  0.00000000000E+00  0.12988542956E+04  0.35065693916E+04  0.32571469750E+04 0.  0.
        5    1    3    3  502    0  0.15807123199E+04  0.28564081126E+03  0.36057650737E+03  0.16462926893E+04  0.46999998093E+01 0.  1.
       -5    1    3    3    0  502 -0.15807123199E+04 -0.28564081126E+03  0.93827778821E+03  0.18602767023E+04  0.46999998093E+01 0. -1.
</event>
<event>
 5   0  0.3497546E-06  0.3202008E+04  0.7818609E-02  0.8188287E-01
       -2   -1    0    0    0  501  0.00000000000E+00  0.00000000000E+00  0.21192925362E+04  0.21192925362E+04  0.25500000920E-02 0. -1.
        2   -1    0    0  501    0  0.00000000000E+00  0.00000000000E+00 -0.12094670446E+04  0.12094670446E+04  0.25500000920E-02 0.  1.
    10030    2    1    2    0    0  0.00000000000E+00  0.00000000000E+00  0.90982549162E+03  0.33287595807E+04  0.32020084199E+04 0.  0.
        4    1    3    3  502    0  0.14821413768E+04  0.59238594392E+03  0.32528230375E+03  0.16289488505E+04  0.12699999809E+01 0.  1.
       -4    1    3    3    0  502 -0.14821413768E+04 -0.59238594392E+03  0.58454318787E+03  0.16998107303E+04  0.12699999809E+01 0. -1.
</event>
<event>
 5   0  0.3758062E-06  0.3191981E+04  0.7818609E-02  0.8190938E-01
       -2   -1    0    0    0  501  0.00000000000E+00  0.00000000000E+00  0.15784328957E+04  0.15784328957E+04  0.25500000920E-02 0. -1.
        2   -1    0    0  501    0  0.00000000000E+00  0.00000000000E+00 -0.16137436574E+04  0.16137436574E+04  0.25500000920E-02 0.  1.
    10030    2    1    2    0    0  0.00000000000E+00  0.00000000000E+00 -0.35310761644E+02  0.31921765531E+04  0.31919812494E+04 0.  0.
        2    1    3    3  502    0  0.69628349274E+03 -0.10963701712E+04  0.90995073430E+03  0.15858274160E+04  0.25500000920E-02 0. -1.
       -2    1    3    3    0  502 -0.69628349274E+03  0.10963701712E+04 -0.94526149594E+03  0.16063491371E+04  0.25500000920E-02 0.  1.
</event>
<event>
 5   0  0.1240725E-06  0.3251093E+04  0.7818609E-02  0.8175452E-01
       -1   -1    0    0    0  501  0.00000000000E+00  0.00000000000E+00  0.16007907827E+04  0.16007907827E+04  0.50400001928E-02 0.  1.
        1   -1    0    0  501    0  0.00000000000E+00  0.00000000000E+00 -0.16506850259E+04  0.16506850259E+04  0.50400001928E-02 0. -1.
    10030    2    1    2    0    0  0.00000000000E+00  0.00000000000E+00 -0.49894243182E+02  0.32514758087E+04  0.32510929699E+04 0.  0.
        3    1    3    3  502    0 -0.11616691065E+04 -0.69189841988E+03  0.87749101780E+03  0.16118898948E+04  0.10100000352E+00 0.  1.
       -3    1    3    3    0  502  0.11616691065E+04  0.69189841988E+03 -0.92738526098E+03  0.16395859139E+04  0.10100000352E+00 0. -1.
</event>
<event>
 5   0  0.1306843E-06  0.3268532E+04  0.7818609E-02  0.8170949E-01
        1   -1    0    0  501    0  0.00000000000E+00  0.00000000000E+00  0.90374054331E+03  0.90374054332E+03  0.50400001928E-02 0.  1.
       -1   -1    0    0    0  501  0.00000000000E+00  0.00000000000E+00 -0.29553002165E+04  0.29553002165E+04  0.50400001928E-02 0. -1.
    10030    2    1    2    0    0  0.00000000000E+00  0.00000000000E+00 -0.20515596732E+04  0.38590407598E+04  0.32685315500E+04 0.  0.
        5    1    3    3  502    0 -0.40492328586E+03  0.13685586628E+04 -0.85769657823E+02  0.14297881679E+04  0.46999998093E+01 0. -1.
       -5    1    3    3    0  502  0.40492328586E+03 -0.13685586628E+04 -0.19657900154E+04  0.24292525919E+04  0.46999998093E+01 0.  1.
</event>
<event>
 5   0  0.3531437E-06  0.3049097E+04  0.7818609E-02  0.8229848E-01
       -2   -1    0    0    0  501  0.00000000000E+00  0.00000000000E+00  0.18176501377E+04  0.18176501377E+04  0.25500000920E-02 0. -1.
        2   -1    0    0  501    0  0.00000000000E+00  0.00000000000E+00 -0.12787102388E+04  0.12787102388E+04  0.25500000920E-02 0.  1.
    10030    2    1    2    0    0  0.00000000000E+00  0.00000000000E+00  0.53893989898E+03  0.30963603765E+04  0.30490968116E+04 0.  0.
        1    1    3    3  502    0  0.89628849444E+03  0.28159371392E+03  0.14887561262E+04  0.17604041832E+04  0.50400001928E-02 0. -1.
       -1    1    3    3    0  502 -0.89628849444E+03 -0.28159371392E+03 -0.94981622719E+03  0.13359561933E+04  0.50400001928E-02 0.  1.
</event>
<event>
 5   0  0.3745943E-06  0.3227128E+04  0.7818609E-02  0.8181689E-01
        2   -1    0    0  501    0  0.00000000000E+00  0.00000000000E+00  0.19502235392E+04  0.19502235392E+04  0.25500000920E-02 0.  1.
       -2   -1    0    0    0  501  0.00000000000E+00  0.00000000000E+00 -0.13350203143E+04  0.13350203143E+04  0.25500000920E-02 0. -1.
    10030    2    1    2    0    0  0.00000000000E+00  0.00000000000E+00  0.61520322494E+03  0.32852438535E+04  0.32271275415E+04 0.  0.
        5    1    3    3  502    0 -0.91875759169E+02 -0.15764743348E+04 -0.29808713606E+02  0.15794376001E+04  0.46999998093E+01 0. -1.
       -5    1    3    3    0  502  0.91875759169E+02  0.15764743348E+04  0.64501193855E+03  0.17058062534E+04  0.46999998093E+01 0.  1.
</event>
<event>
 5   0  0.3745943E-06  0.3169571E+04  0.7818609E-02  0.8196900E-01
       -2   -1    0    0    0  501  0.00000000000E+00  0.00000000000E+00  0.11508897983E+04  0.11508897983E+04  0.25500000920E-02 0.  1.
        2   -1    0    0  501    0  0.00000000000E+00  0.00000000000E+00 -0.21822631718E+04  0.21822631718E+04  0.25500000920E-02 0. -1.
    10030    2    1    2    0    0  0.00000000000E+00  0.00000000000E+00 -0.10313733735E+04  0.33331529702E+04  0.31695705840E+04 0.  0.
        5    1    3    3  502    0  0.14744847469E+04  0.16285599915E+03  0.70669723014E+02  0.14851409513E+04  0.46999998093E+01 0.  1.
       -5    1    3    3    0  502 -0.14744847469E+04 -0.16285599915E+03 -0.11020430965E+04  0.18480120189E+04  0.46999998093E+01 0. -1.
</event>
<event>
 5   0  0.1273980E-06  0.3186766E+04  0.7818609E-02  0.8192321E-01
       -1   -1    0    0    0  501  0.00000000000E+00  0.00000000000E+00  0.18330837776E+04  0.18330837776E+04  0.50400001928E-02 0.  1.
        1   -1    0    0  501    0  0.00000000000E+00  0.00000000000E+00 -0.13850261731E+04  0.13850261731E+04  0.50400001928E-02 0. -1.
    10030    2    1    2    0    0  0.00000000000E+00  0.00000000000E+00  0.44805760446E+03  0.32181099507E+04  0.31867657645E+04 0.  0.
        4    1    3    3  502    0  0.18613042223E+03 -0.12276444435E+04 -0.78434766777E+03  0.14686586705E+04  0.12699999809E+01 0. -1.
       -4    1    3    3    0  502 -0.18613042223E+03  0.12276444435E+04  0.12324052722E+04  0.17494512802E+04  0.12699999809E+01 0.  1.
</event>
<event>
 5   0  0.1273980E-06  0.3194243E+04  0.7818609E-02  0.8190339E-01
        1   -1    0    0  501    0  0.00000000000E+00  0.00000000000E+00  0.19092840548E+04  0.19092840548E+04  0.50400001928E-02 0.  1.
       -1   -1    0    0    0  501  0.00000000000E+00  0.00000000000E+00 -0.13359967598E+04  0.13359967598E+04  0.50400001928E-02 0. -1.
    10030    2    1    2    0    0  0.00000000000E+00  0.00000000000E+00  0.57328729501E+03  0.32452808146E+04  0.31942431409E+04 0.  0.
        4    1    3    3  502    0 -0.12385396746E+04  0.88547425426E+03 -0.20350706589E+03  0.15360540092E+04  0.12699999809E+01 0. -1.
       -4    1    3    3    0  502  0.12385396746E+04 -0.88547425426E+03  0.77679436090E+03  0.17092268054E+04  0.12699999809E+01 0.  1.
</event>
<event>
 5   0  0.1273754E-06  0.3179476E+04  0.7818609E-02  0.8194259E-01
        1   -1    0    0  501    0  0.00000000000E+00  0.00000000000E+00  0.20278151496E+04  0.20278151496E+04  0.50400001928E-02 0. -1.
       -1   -1    0    0    0  501  0.00000000000E+00  0.00000000000E+00 -0.12463003709E+04  0.12463003709E+04  0.50400001928E-02 0.  1.
    10030    2    1    2    0    0  0.00000000000E+00  0.00000000000E+00  0.78151477877E+03  0.32741155205E+04  0.31794759147E+04 0.  0.
        2    1    3    3  502    0 -0.76216011319E+02 -0.26614239510E+03 -0.12212869688E+04  0.12522709431E+04  0.25500000920E-02 0.  1.
       -2    1    3    3    0  502  0.76216011319E+02  0.26614239510E+03  0.20028017476E+04  0.20218445774E+04  0.25500000920E-02 0. -1.
</event>
<event>
 5   0  0.3531437E-06  0.2582614E+04  0.7818609E-02  0.8374131E-01
        2   -1    0    0  501    0  0.00000000000E+00  0.00000000000E+00  0.17904780605E+04  0.17904780605E+04  0.25500000920E-02 0.  1.
       -2   -1    0    0    0  501  0.00000000000E+00  0.00000000000E+00 -0.93130101808E+03  0.93130101808E+03  0.25500000920E-02 0. -1.
    10030    2    1    2    0    0  0.00000000000E+00  0.00000000000E+00  0.85917704241E+03  0.27217790786E+04  0.25826142109E+04 0.  0.
        1    1    3    3  502    0 -0.50237538636E+03 -0.78177212359E+02  0.16805558143E+04  0.17557791861E+04  0.50400001928E-02 0.  1.
       -1    1    3    3    0  502  0.50237538636E+03  0.78177212359E+02 -0.82137877188E+03  0.96599989248E+03  0.50400001928E-02 0. -1.
</event>
<event>
 5   0  0.3745943E-06  0.3155769E+04  0.7818609E-02  0.8200597E-01
        2   -1    0    0  501    0  0.00000000000E+00  0.00000000000E+00  0.87036585997E+03  0.87036585997E+03  0.25500000920E-02 0.  1.
       -2   -1    0    0    0  501  0.00000000000E+00  0.00000000000E+00 -0.28605442416E+04  0.28605442416E+04  0.25500000920E-02 0. -1.
    10030    2    1    2    0    0  0.00000000000E+00  0.00000000000E+00 -0.19901783816E+04  0.37309101016E+04  0.31557693508E+04 0.  0.
        5    1    3    3  502    0  0.15571005976E+04  0.25220186640E+03 -0.10413317611E+04  0.18901222127E+04  0.46999998093E+01 0.  1.
       -5    1    3    3    0  502 -0.15571005976E+04 -0.25220186640E+03 -0.94884662058E+03  0.18407878889E+04  0.46999998093E+01 0. -1.
</event>
<event>
 5   0  0.3656086E-06  0.3149522E+04  0.7818609E-02  0.8202277E-01
       -2   -1    0    0    0  501  0.00000000000E+00  0.00000000000E+00  0.12800001648E+04  0.12800001648E+04  0.25500000920E-02 0.  1.
        2   -1    0    0  501    0  0.00000000000E+00  0.00000000000E+00 -0.19373999488E+04  0.19373999488E+04  0.25500000920E-02 0. -1.
    10030    2    1    2    0    0  0.00000000000E+00  0.00000000000E+00 -0.65739978400E+03  0.32174001136E+04  0.31495220296E+04 0.  0.
        3    1    3    3  502    0 -0.86057356258E+03 -0.12217205994E+04 -0.83607722064E+03  0.17123706400E+04  0.10100000352E+00 0.  1.
       -3    1    3    3    0  502  0.86057356258E+03  0.12217205994E+04  0.17867743663E+03  0.15050294735E+04  0.10100000352E+00 0. -1.
</event>
<event>
 5   0  0.1273980E-06  0.3216824E+04  0.7818609E-02  0.8184388E-01
       -1   -1    0    0    0  501  0.00000000000E+00  0.00000000000E+00  0.13920679336E+04  0.13920679336E+04  0.50400001928E-02 0.  1.
        1   -1    0    0  501    0  0.00000000000E+00  0.00000000000E+00 -0.18583787150E+04  0.18583787151E+04  0.50400001928E-02 0. -1.
    10030    2    1    2    0    0  0.00000000000E+00  0.00000000000E+00 -0.46631078142E+03  0.32504466487E+04  0.32168241592E+04 0.  0.
        4    1    3    3  502    0 -0.11183606300E+04  0.21042018973E+03  0.91537826244E+03  0.14604540839E+04  0.12699999809E+01 0.  1.
       -4    1    3    3    0  502  0.11183606300E+04 -0.21042018973E+03 -0.13816890439E+04  0.17899925648E+04  0.12699999809E+01 0. -1.
</event>
<event>
 5   0  0.3531437E-06  0.3114427E+04  0.7818609E-02  0.8211790E-01
        2   -1    0    0  501    0  0.00000000000E+00  0.00000000000E+00  0.16858868058E+04  0.16858868058E+04  0.25500000920E-02 0. -1.
       -2   -1    0    0    0  501  0.00000000000E+00  0.00000000000E+00 -0.14383606195E+04  0.14383606195E+04  0.25500000920E-02 0.  1.
    10030    2    1    2    0    0  0.00000000000E+00  0.00000000000E+00  0.24752618630E+03  0.31242474254E+04  0.31144265543E+04 0.  0.
        1    1    3    3  502    0  0.88471106843E+03 -0.11502128550E+04 -0.44300514694E+03  0.15172201049E+04  0.50400001928E-02 0.  1.
       -1    1    3    3    0  502 -0.88471106843E+03  0.11502128550E+04  0.69053133323E+03  0.16070273205E+04  0.50400001928E-02 0. -1.
</event>
<event>
 5   0  0.1273980E-06  0.3154476E+04  0.7818609E-02  0.8200945E-01
       -1   -1    0    0    0  501  0.00000000000E+00  0.00000000000E+00  0.13480748200E+04  0.13480748200E+04  0.50400001928E-02 0.  1.
        1   -1    0    0  501    0  0.00000000000E+00  0.00000000000E+00 -0.18453571428E+04  0.18453571428E+04  0.50400001928E-02 0. -1.
    10030    2    1    2    0    0  0.00000000000E+00  0.00000000000E+00 -0.49728232278E+03  0.31934319628E+04  0.31544758665E+04 0.  0.
        4    1    3    3  502    0 -0.65565527757E+03 -0.13344395459E+04 -0.78151132313E+03  0.16796947061E+04  0.12699999809E+01 0. -1.
       -4    1    3    3    0  502  0.65565527757E+03  0.13344395459E+04  0.28422900035E+03  0.15137372567E+04  0.12699999809E+01 0.  1.
</event>
<event>
 5   0  0.3656086E-06  0.3182365E+04  0.7818609E-02  0.8193490E-01
        2   -1    0    0  501    0  0.00000000000E+00  0.00000000000E+00  0.20476710896E+04  0.20476710896E+04  0.25500000920E-02 0. -1.
       -2   -1    0    0    0  501  0.00000000000E+00  0.00000000000E+00 -0.12364590981E+04  0.12364590981E+04  0.25500000920E-02 0.  1.
    10030    2    1    2    0    0  0.00000000000E+00  0.00000000000E+00  0.81121199142E+03  0.32841301877E+04  0.31823648745E+04 0.  0.
        3    1    3    3  502    0  0.67032747298E+03 -0.54839071277E+03  0.17831284312E+04  0.19823264886E+04  0.10100000352E+00 0. -1.
       -3    1    3    3    0  502 -0.67032747298E+03  0.54839071277E+03 -0.97191643980E+03  0.13018036991E+04  0.10100000352E+00 0.  1.
</event>
<event>
 5   0  0.3497546E-06  0.3231684E+04  0.7818609E-02  0.8180499E-01
        2   -1    0    0  501    0  0.00000000000E+00  0.00000000000E+00  0.18765575833E+04  0.18765575833E+04  0.25500000920E-02 0.  1.
       -2   -1    0    0    0  501  0.00000000000E+00  0.00000000000E+00 -0.13913487872E+04  0.13913487872E+04  0.25500000920E-02 0. -1.
    10030    2    1    2    0    0  0.00000000000E+00  0.00000000000E+00  0.48520879613E+03  0.32679063705E+04  0.32316844633E+04 0.  0.
        4    1    3    3  502    0 -0.11192447618E+04  0.55041165905E+03 -0.79617913957E+03  0.14797177658E+04  0.12699999809E+01 0. -1.
       -4    1    3    3    0  502  0.11192447618E+04 -0.55041165905E+03  0.12813879357E+04  0.17881886047E+04  0.12699999809E+01 0.  1.
</event>
<event>
 5   0  0.1268836E-06  0.3200817E+04  0.7818609E-02  0.8188601E-01
        1   -1    0    0  501    0  0.00000000000E+00  0.00000000000E+00  0.16276472717E+04  0.16276472717E+04  0.50400001928E-02 0. -1.
       -1   -1    0    0    0  501  0.00000000000E+00  0.00000000000E+00 -0.15736256970E+04  0.15736256970E+04  0.50400001928E-02 0.  1.
    10030    2    1    2    0    0  0.00000000000E+00  0.00000000000E+00  0.54021574638E+02  0.32012729687E+04  0.32008171284E+04 0.  0.
        1    1    3    3  502    0 -0.41838486131E+03 -0.12448657737E+04  0.94178353561E+03  0.16160733011E+04  0.50400001928E-02 0. -1.
       -1    1    3    3    0  502  0.41838486131E+03  0.12448657737E+04 -0.88776196097E+03  0.15851996676E+04  0.50400001928E-02 0.  1.
</event>
<event>
 5   0  0.3531437E-06  0.3094831E+04  0.7818609E-02  0.8217158E-01
       -2   -1    0    0    0  501  0.00000000000E+00  0.00000000000E+00  0.10650341549E+04  0.10650341549E+04  0.25500000920E-02 0. -1.
        2   -1    0    0  501    0  0.00000000000E+00  0.00000000000E+00 -0.22482801135E+04  0.22482801135E+04  0.25500000920E-02 0.  1.
    10030    2    1    2    0    0  0.00000000000E+00  0.00000000000E+00 -0.11832459586E+04  0.33133142684E+04  0.30948312462E+04 0.  0.
        1    1    3    3  502    0 -0.16867551685E+03 -0.14889831143E+04 -0.10048411303E+04  0.18042249976E+04  0.50400001928E-02 0. -1.
       -1    1    3    3    0  502  0.16867551685E+03  0.14889831143E+04 -0.17840482830E+03  0.15090892708E+04  0.50400001928E-02 0.  1.
</event>
<event>
 5   0  0.1306843E-06  0.3411624E+04  0.7818609E-02  0.8135059E-01
        1   -1    0    0  501    0  0.00000000000E+00  0.00000000000E+00  0.15118427667E+04  0.15118427667E+04  0.50400001928E-02 0. -1.
       -1   -1    0    0    0  501  0.00000000000E+00  0.00000000000E+00 -0.19246669250E+04  0.19246669250E+04  0.50400001928E-02 0.  1.
    10030    2    1    2    0    0  0.00000000000E+00  0.00000000000E+00 -0.41282415830E+03  0.34365096918E+04  0.34116235249E+04 0.  0.
        5    1    3    3  502    0  0.12464873320E+04 -0.89488438740E+03  0.54415614561E+03  0.16280899043E+04  0.46999998093E+01 0.  1.
       -5    1    3    3    0  502 -0.12464873320E+04  0.89488438740E+03 -0.95698030391E+03  0.18084197875E+04  0.46999998093E+01 0. -1.
</event>
<event>
 5   0  0.1306843E-06  0.3434768E+04  0.7818609E-02  0.8129425E-01
        1   -1    0    0  501    0  0.00000000000E+00  0.00000000000E+00  0.19979037065E+04  0.19979037065E+04  0.50400001928E-02 0.  1.
       -1   -1    0    0    0  501  0.00000000000E+00  0.00000000000E+00 -0.14762514940E+04  0.14762514940E+04  0.50400001928E-02 0. -1.
    10030    2    1    2    0    0  0.00000000000E+00  0.00000000000E+00  0.52165221249E+03  0.34741552004E+04  0.34347683075E+04 0.  0.
        5    1    3    3  502    0 -0.34873927705E+03  0.12469853161E+04 -0.88029295899E+03  0.15657360076E+04  0.46999998093E+01 0. -1.
       -5    1    3    3    0  502  0.34873927705E+03 -0.12469853161E+04  0.14019451715E+04  0.19084191929E+04  0.46999998093E+01 0.  1.
</event>
<event>
 5   0  0.1268836E-06  0.3199169E+04  0.7818609E-02  0.8189037E-01
        1   -1    0    0  501    0  0.00000000000E+00  0.00000000000E+00  0.15156275249E+04  0.15156275249E+04  0.50400001928E-02 0. -1.
       -1   -1    0    0    0  501  0.00000000000E+00  0.00000000000E+00 -0.16881924939E+04  0.16881924939E+04  0.50400001928E-02 0.  1.
    10030    2    1    2    0    0  0.00000000000E+00  0.00000000000E+00 -0.17256496897E+03  0.32038200188E+04  0.31991692741E+04 0.  0.
        1    1    3    3  502    0 -0.11472090487E+04 -0.60027448939E+03 -0.10269311626E+04  0.16525754678E+04  0.50400001928E-02 0.  1.
       -1    1    3    3    0  502  0.11472090487E+04  0.60027448939E+03  0.85436619366E+03  0.15512445510E+04  0.50400001928E-02 0. -1.
</event>
<event>
 5   0  0.1240725E-06  0.2552105E+04  0.7818609E-02  0.8384654E-01
       -1   -1    0    0    0  501  0.00000000000E+00  0.00000000000E+00  0.99295854629E+03  0.99295854630E+03  0.50400001928E-02 0. -1.
        1   -1    0    0  501    0  0.00000000000E+00  0.00000000000E+00 -0.16398575935E+04  0.16398575935E+04  0.50400001928E-02 0.  1.
    10030    2    1    2    0    0  0.00000000000E+00  0.00000000000E+00 -0.64689904722E+03  0.26328161398E+04  0.25521054933E+04 0.  0.
        3    1    3    3  502    0 -0.27187723970E+03 -0.56791944259E+03 -0.14684422829E+04  0.15977398021E+04  0.10100000352E+00 0.  1.
       -3    1    3    3    0  502  0.27187723970E+03  0.56791944259E+03  0.82154323566E+03  0.10350763378E+04  0.10100000352E+00 0. -1.
</event>
<event>
 5   0  0.1240725E-06  0.3193512E+04  0.7818609E-02  0.8190533E-01
        1   -1    0    0  501    0  0.00000000000E+00  0.00000000000E+00  0.14320437210E+04  0.14320437210E+04  0.50400001928E-02 0.  1.
       -1   -1    0    0    0  501  0.00000000000E+00  0.00000000000E+00 -0.17804131716E+04  0.17804131716E+04  0.50400001928E-02 0. -1.
    10030    2    1    2    0    0  0.00000000000E+00  0.00000000000E+00 -0.34836945060E+03  0.32124568926E+04  0.31935118620E+04 0.  0.
        3    1    3    3  502    0  0.14887872875E+04  0.32778429629E+03 -0.65208132378E+03  0.16580531341E+04  0.10100000352E+00 0.  1.
       -3    1    3    3    0  502 -0.14887872875E+04 -0.32778429629E+03  0.30371187318E+03  0.15544037585E+04  0.10100000352E+00 0. -1.
</event>
<event>
 5   0  0.1273980E-06  0.3197720E+04  0.7818609E-02  0.8189420E-01
        1   -1    0    0  501    0  0.00000000000E+00  0.00000000000E+00  0.16617066343E+04  0.16617066343E+04  0.50400001928E-02 0.  1.
       -1   -1    0    0    0  501  0.00000000000E+00  0.00000000000E+00 -0.15383903208E+04  0.15383903208E+04  0.50400001928E-02 0. -1.
    10030    2    1    2    0    0  0.00000000000E+00  0.00000000000E+00  0.12331631352E+03  0.32000969551E+04  0.31977200642E+04 0.  0.
        4    1    3    3  502    0  0.14013438678E+04 -0.25214094427E+03  0.78953096691E+03  0.16280971876E+04  0.12699999809E+01 0.  1.
       -4    1    3    3    0  502 -0.14013438678E+04  0.25214094427E+03 -0.66621465339E+03  0.15719997675E+04  0.12699999809E+01 0. -1.
</event>
<event>
 5   0  0.1240725E-06  0.3082087E+04  0.7818609E-02  0.8220671E-01
        1   -1    0    0  501    0  0.00000000000E+00  0.00000000000E+00  0.18327147316E+04  0.18327147317E+04  0.50400001928E-02 0.  1.
       -1   -1    0    0    0  501  0.00000000000E+00  0.00000000000E+00 -0.12957912777E+04  0.12957912777E+04  0.50400001928E-02 0. -1.
    10030    2    1    2    0    0  0.00000000000E+00  0.00000000000E+00  0.53692345396E+03  0.31285060094E+04  0.30820874509E+04 0.  0.
        3    1    3    3  502    0  0.10626888874E+04  0.54118380505E+03  0.12591881514E+04  0.17342844037E+04  0.10100000352E+00 0.  1.
       -3    1    3    3    0  502 -0.10626888874E+04 -0.54118380505E+03 -0.72226469743E+03  0.13942216056E+04  0.10100000352E+00 0. -1.
</event>
<event>
 5   0  0.1268836E-06  0.3215517E+04  0.7818609E-02  0.8184731E-01
       -1   -1    0    0    0  501  0.00000000000E+00  0.00000000000E+00  0.10778101073E+04  0.10778101073E+04  0.50400001928E-02 0. -1.
        1   -1    0    0  501    0  0.00000000000E+00  0.00000000000E+00 -0.23982774324E+04  0.23982774324E+04  0.50400001928E-02 0.  1.
    10030    2    1    2    0    0  0.00000000000E+00  0.00000000000E+00 -0.13204673251E+04  0.34760875396E+04  0.32155171632E+04 0.  0.
        1    1    3    3  502    0 -0.67184435397E+03  0.14523498957E+04 -0.82837757804E+03  0.18019168869E+04  0.50400001928E-02 0.  1.
       -1    1    3    3    0  502  0.67184435397E+03 -0.14523498957E+04 -0.49208974706E+03  0.16741706528E+04  0.50400001928E-02 0. -1.
</event>
<event>
 5   0  0.1306843E-06  0.2930348E+04  0.7818609E-02  0.8263905E-01
        1   -1    0    0  501    0  0.00000000000E+00  0.00000000000E+00  0.13708971514E+04  0.13708971514E+04  0.50400001928E-02 0.  1.
       -1   -1    0    0    0  501  0.00000000000E+00  0.00000000000E+00 -0.15659347754E+04  0.15659347754E+04  0.50400001928E-02 0. -1.
    10030    2    1    2    0    0  0.00000000000E+00  0.00000000000E+00 -0.19503762401E+03  0.29368319268E+04  0.29303484591E+04 0.  0.
        5    1    3    3  502    0 -0.10641186102E+04  0.93258825985E+03  0.28364377715E+03  0.14431026164E+04  0.46999998093E+01 0. -1.
       -5    1    3    3    0  502  0.10641186102E+04 -0.93258825985E+03 -0.47868140116E+03  0.14937293104E+04  0.46999998093E+01 0.  1.
</event>
<event>
 5   0  0.3656086E-06  0.3198273E+04  0.7818609E-02  0.8189273E-01
        2   -1    0    0  501    0  0.00000000000E+00  0.00000000000E+00  0.21611489495E+04  0.21611489495E+04  0.25500000920E-02 0. -1.
       -2   -1    0    0    0  501  0.00000000000E+00  0.00000000000E+00 -0.11832769431E+04  0.11832769431E+04  0.25500000920E-02 0.  1.
    10030    2    1    2    0    0  0.00000000000E+00  0.00000000000E+00  0.97787200641E+03  0.33444258925E+04  0.31982731106E+04 0.  0.
        3    1    3    3  502    0 -0.45598558754E+03 -0.32846523223E+03 -0.10766184557E+04  0.12144626689E+04  0.10100000352E+00 0.  1.
       -3    1    3    3    0  502  0.45598558754E+03  0.32846523223E+03  0.20544904621E+04  0.21299632236E+04  0.10100000352E+00 0. -1.
</event>
<event>
 5   0  0.3758062E-06  0.3097903E+04  0.7818609E-02  0.8216314E-01
       -2   -1    0    0    0  501  0.00000000000E+00  0.00000000000E+00  0.12009333903E+04  0.12009333903E+04  0.25500000920E-02 0. -1.
        2   -1    0    0  501    0  0.00000000000E+00  0.00000000000E+00 -0.19978210248E+04  0.19978210248E+04  0.25500000920E-02 0.  1.
    10030    2    1    2    0    0  0.00000000000E+00  0.00000000000E+00 -0.79688763448E+03  0.31987544152E+04  0.30979025011E+04 0.  0.
        2    1    3    3  502    0 -0.14231114039E+04 -0.71933068543E+02  0.22864059145E+03  0.14431552080E+04  0.25500000920E-02 0. -1.
       -2    1    3    3    0  502  0.14231114039E+04  0.71933068543E+02 -0.10255282259E+04  0.17555992072E+04  0.25500000920E-02 0.  1.
</event>
<event>
 5   0  0.1306843E-06  0.3043657E+04  0.7818609E-02  0.8231373E-01
        1   -1    0    0  501    0  0.00000000000E+00  0.00000000000E+00  0.23663628046E+04  0.23663628046E+04  0.50400001928E-02 0. -1.
       -1   -1    0    0    0  501  0.00000000000E+00  0.00000000000E+00 -0.97870099063E+03  0.97870099065E+03  0.50400001928E-02 0.  1.
    10030    2    1    2    0    0  0.00000000000E+00  0.00000000000E+00  0.13876618140E+04  0.33450637953E+04  0.30436567619E+04 0.  0.
        5    1    3    3  502    0 -0.11497634862E+04 -0.97004511633E+03  0.94683642078E+03  0.17774883683E+04  0.46999998093E+01 0. -1.
       -5    1    3    3    0  502  0.11497634862E+04  0.97004511633E+03  0.44082539321E+03  0.15675754269E+04  0.46999998093E+01 0.  1.
</event>
<event>
 5   0  0.3656086E-06  0.3184970E+04  0.7818609E-02  0.8192798E-01
       -2   -1    0    0    0  501  0.00000000000E+00  0.00000000000E+00  0.11404544782E+04  0.11404544782E+04  0.25500000920E-02 0.  1.
        2   -1    0    0  501    0  0.00000000000E+00  0.00000000000E+00 -0.22236826405E+04  0.22236826405E+04  0.25500000920E-02 0. -1.
    10030    2    1    2    0    0  0.00000000000E+00  0.00000000000E+00 -0.10832281623E+04  0.33641371186E+04  0.31849702199E+04 0.  0.
        3    1    3    3  502    0  0.14262140651E+03 -0.13380080744E+04  0.35800320063E+03  0.13923982098E+04  0.10100000352E+00 0.  1.
       -3    1    3    3    0  502 -0.14262140651E+03  0.13380080744E+04 -0.14412313629E+04  0.19717389088E+04  0.10100000352E+00 0. -1.
</event>
<event>
 5   0  0.3531437E-06  0.2855167E+04  0.7818609E-02  0.8286343E-01
       -2   -1    0    0    0  501  0.00000000000E+00  0.00000000000E+00  0.12219927219E+04  0.12219927219E+04  0.25500000920E-02 0. -1.
        2   -1    0    0  501    0  0.00000000000E+00  0.00000000000E+00 -0.16677638165E+04  0.16677638165E+04  0.25500000920E-02 0.  1.
    10030    2    1    2    0    0  0.00000000000E+00  0.00000000000E+00 -0.44577109463E+03  0.28897565383E+04  0.28551674175E+04 0.  0.
        1    1    3    3  502    0 -0.74851289946E+03 -0.11535541373E+04 -0.61098435556E+03  0.15047460221E+04  0.50400001928E-02 0.  1.
       -1    1    3    3    0  502  0.74851289946E+03  0.11535541373E+04  0.16521326093E+03  0.13850105162E+04  0.50400001928E-02 0. -1.
</event>
<event>
 5   0  0.3497546E-06  0.3131526E+04  0.7818609E-02  0.8207139E-01
       -2   -1    0    0    0  501  0.00000000000E+00  0.00000000000E+00  0.10352290366E+04  0.10352290366E+04  0.25500000920E-02 0.  1.
        2   -1    0    0  501    0  0.00000000000E+00  0.00000000000E+00 -0.23681849899E+04  0.23681849899E+04  0.25500000920E-02 0. -1.
    10030    2    1    2    0    0  0.00000000000E+00  0.00000000000E+00 -0.13329559533E+04  0.34034140266E+04  0.31315260598E+04 0.  0.
        4    1    3    3  502    0  0.26602869238E+03 -0.13803134009E+04  0.83016911076E+02  0.14081653916E+04  0.12699999809E+01 0.  1.
       -4    1    3    3    0  502 -0.26602869238E+03  0.13803134009E+04 -0.14159728644E+04  0.19952486350E+04  0.12699999809E+01 0. -1.
</event>
<event>
 5   0  0.3758062E-06  0.3181296E+04  0.7818609E-02  0.8193774E-01
        2   -1    0    0  501    0  0.00000000000E+00  0.00000000000E+00  0.22184802198E+04  0.22184802199E+04  0.25500000920E-02 0.  1.
       -2   -1    0    0    0  501  0.00000000000E+00  0.00000000000E+00 -0.11404929604E+04  0.11404929604E+04  0.25500000920E-02 0. -1.
    10030    2    1    2    0    0  0.00000000000E+00  0.00000000000E+00  0.10779872594E+04  0.33589731803E+04  0.31812960086E+04 0.  0.
        2    1    3    3  502    0  0.75318620453E+03 -0.35110315323E+03 -0.89307536647E+03  0.12198960993E+04  0.25500000920E-02 0. -1.
       -2    1    3    3    0  502 -0.75318620453E+03  0.35110315323E+03  0.19710626259E+04  0.21390770809E+04  0.25500000920E-02 0.  1.
</event>
<event>
 5   0  0.1306843E-06  0.3217180E+04  0.7818609E-02  0.8184295E-01
        1   -1    0    0  501    0  0.00000000000E+00  0.00000000000E+00  0.12958839605E+04  0.12958839605E+04  0.50400001928E-02 0.  1.
       -1   -1    0    0    0  501  0.00000000000E+00  0.00000000000E+00 -0.19967545234E+04  0.19967545234E+04  0.50400001928E-02 0. -1.
    10030    2    1    2    0    0  0.00000000000E+00  0.00000000000E+00 -0.70087056286E+03  0.32926384839E+04  0.32171802312E+04 0.  0.
        5    1    3    3  502    0 -0.24647696662E+03 -0.93496460750E+03  0.96526364868E+03  0.13662597534E+04  0.46999998093E+01 0.  1.
       -5    1    3    3    0  502  0.24647696662E+03  0.93496460750E+03 -0.16661342115E+04  0.19263787305E+04  0.46999998093E+01 0. -1.
</event>
<event>
 5   0  0.3758062E-06  0.3224899E+04  0.7818609E-02  0.8182272E-01
       -2   -1    0    0    0  501  0.00000000000E+00  0.00000000000E+00  0.13467055086E+04  0.13467055086E+04  0.25500000920E-02 0.  1.
        2   -1    0    0  501    0  0.00000000000E+00  0.00000000000E+00 -0.19306323983E+04  0.19306323983E+04  0.25500000920E-02 0. -1.
    10030    2    1    2    0    0  0.00000000000E+00  0.00000000000E+00 -0.58392688973E+03  0.32773379069E+04  0.32248989354E+04 0.  0.
        2    1    3    3  502    0 -0.14948624353E+04 -0.25599372969E+03 -0.84845018236E+03  0.17378188059E+04  0.25500000920E-02 0.  1.
       -2    1    3    3    0  502  0.14948624353E+04  0.25599372969E+03  0.26452329263E+03  0.15395191010E+04  0.25500000920E-02 0. -1.
</event>
<event>
 5   0  0.1306843E-06  0.3248073E+04  0.7818609E-02  0.8176235E-01
       -1   -1    0    0    0  501  0.00000000000E+00  0.00000000000E+00  0.30246427479E+04  0.30246427479E+04  0.50400001928E-02 0.  1.
        1   -1    0    0  501    0  0.00000000000E+00  0.00000000000E+00 -0.87200211491E+03  0.87200211493E+03  0.50400001928E-02 0. -1.
    10030    2    1    2    0    0  0.00000000000E+00  0.00000000000E+00  0.21526406330E+04  0.38966448629E+04  0.32480731969E+04 0.  0.
        5    1    3    3  502    0 -0.88734370283E+03  0.39115934359E+03 -0.48652947386E+03  0.10849504588E+04  0.46999998093E+01 0. -1.
       -5    1    3    3    0  502  0.88734370283E+03 -0.39115934359E+03  0.26391701069E+04  0.28116944041E+04  0.46999998093E+01 0.  1.
</event>
<event>
 5   0  0.1273980E-06  0.3178235E+04  0.7818609E-02  0.8194589E-01
       -1   -1    0    0    0  501  0.00000000000E+00  0.00000000000E+00  0.15240081537E+04  0.15240081537E+04  0.50400001928E-02 0.  1.
        1   -1    0    0  501    0  0.00000000000E+00  0.00000000000E+00 -0.16570081224E+04  0.16570081224E+04  0.50400001928E-02 0. -1.
    10030    2    1    2    0    0  0.00000000000E+00  0.00000000000E+00 -0.13299996868E+03  0.31810162761E+04  0.31782346605E+04 0.  0.
        4    1    3    3  502    0 -0.26755323234E+03  0.48950707496E+02  0.15005367298E+04  0.15249895063E+04  0.12699999809E+01 0.  1.
       -4    1    3    3    0  502  0.26755323234E+03 -0.48950707496E+02 -0.16335366985E+04  0.16560267698E+04  0.12699999809E+01 0. -1.
</event>
<event>
 5   0  0.1273754E-06  0.3120106E+04  0.7818609E-02  0.8210242E-01
       -1   -1    0    0    0  501  0.00000000000E+00  0.00000000000E+00  0.14216232079E+04  0.14216232079E+04  0.50400001928E-02 0. -1.
        1   -1    0    0  501    0  0.00000000000E+00  0.00000000000E+00 -0.17119624632E+04  0.17119624633E+04  0.50400001928E-02 0.  1.
    10030    2    1    2    0    0  0.00000000000E+00  0.00000000000E+00 -0.29033925536E+03  0.31335856711E+04  0.31201061320E+04 0.  0.
        2    1    3    3  502    0 -0.14649591211E+04 -0.51362000501E+03 -0.30028698380E+03  0.15811650795E+04  0.25500000920E-02 0.  1.
       -2    1    3    3    0  502  0.14649591211E+04  0.51362000501E+03  0.99477284441E+01  0.15524205916E+04  0.25500000920E-02 0. -1.
</event>
<event>
 5   0  0.1273980E-06  0.3196583E+04  0.7818609E-02  0.8189720E-01
       -1   -1    0    0    0  501  0.00000000000E+00  0.00000000000E+00  0.28430916660E+04  0.28430916660E+04  0.50400001928E-02 0. -1.
        1   -1    0    0  501    0  0.00000000000E+00  0.00000000000E+00 -0.89850647867E+03  0.89850647868E+03  0.50400001928E-02 0.  1.
    10030    2    1    2    0    0  0.00000000000E+00  0.00000000000E+00  0.19445851874E+04  0.37415981447E+04  0.31965833519E+04 0.  0.
        4    1    3    3  502    0  0.81198212425E+03 -0.13486897827E+04  0.12955190416E+04  0.20387864773E+04  0.12699999809E+01 0. -1.
       -4    1    3    3    0  502 -0.81198212425E+03  0.13486897827E+04  0.64906614577E+03  0.17028116674E+04  0.12699999809E+01 0.  1.
</event>
<event>
 5   0  0.3531437E-06  0.2758980E+04  0.7818609E-02  0.8316118E-01
        2   -1    0    0  501    0  0.00000000000E+00  0.00000000000E+00  0.17743782200E+04  0.17743782200E+04  0.25500000920E-02 0. -1.
       -2   -1    0    0    0  501  0.00000000000E+00  0.00000000000E+00 -0.10724845277E+04  0.10724845277E+04  0.25500000920E-02 0.  1.
    10030    2    1    2    0    0  0.00000000000E+00  0.00000000000E+00  0.70189369226E+03  0.28468627477E+04  0.27589803822E+04 0.  0.
        1    1    3    3  502    0 -0.11409016113E+04 -0.25949178555E+03 -0.40308351985E+03  0.12375252714E+04  0.50400001928E-02 0.  1.
       -1    1    3    3    0  502  0.11409016113E+04  0.25949178555E+03  0.11049772121E+04  0.16093374763E+04  0.50400001928E-02 0. -1.
</event>
<event>
 5   0  0.3497546E-06  0.3026838E+04  0.7818609E-02  0.8236109E-01
       -2   -1    0    0    0  501  0.00000000000E+00  0.00000000000E+00  0.15520443235E+04  0.15520443235E+04  0.25500000920E-02 0. -1.
        2   -1    0    0  501    0  0.00000000000E+00  0.00000000000E+00 -0.14757545621E+04  0.14757545621E+04  0.25500000920E-02 0.  1.
    10030    2    1    2    0    0  0.00000000000E+00  0.00000000000E+00  0.76289761384E+02  0.30277988857E+04  0.30268376178E+04 0.  0.
        4    1    3    3  502    0 -0.87267398969E+03 -0.79023491990E+03  0.98944835090E+03  0.15378689063E+04  0.12699999809E+01 0. -1.
       -4    1    3    3    0  502  0.87267398969E+03  0.79023491990E+03 -0.91315858952E+03  0.14899299794E+04  0.12699999809E+01 0.  1.
</event>
<event>
 5   0  0.1240725E-06  0.3190372E+04  0.7818609E-02  0.8191365E-01
       -1   -1    0    0    0  501  0.00000000000E+00  0.00000000000E+00  0.11000007639E+04  0.11000007640E+04  0.50400001928E-02 0.  1.
        1   -1    0    0  501    0  0.00000000000E+00  0.00000000000E+00 -0.23132875453E+04  0.23132875453E+04  0.50400001928E-02 0. -1.
    10030    2    1    2    0    0  0.00000000000E+00  0.00000000000E+00 -0.12132867814E+04  0.34132883093E+04  0.31903718073E+04 0.  0.
        3    1    3    3  502    0  0.10548211823E+04 -0.13519671758E+03 -0.18787078003E+04  0.21588119159E+04  0.10100000352E+00 0. -1.
       -3    1    3    3    0  502 -0.10548211823E+04  0.13519671758E+03  0.66542101890E+03  0.12544763934E+04  0.10100000352E+00 0.  1.
</event>
<event>
 5   0  0.3656086E-06  0.2989174E+04  0.7818609E-02  0.8246829E-01
       -2   -1    0    0    0  501  0.00000000000E+00  0.00000000000E+00  0.12400403746E+04  0.12400403746E+04  0.25500000920E-02 0. -1.
        2   -1    0    0  501    0  0.00000000000E+00  0.00000000000E+00 -0.18013845703E+04  0.18013845703E+04  0.25500000920E-02 0.  1.
    10030    2    1    2    0    0  0.00000000000E+00  0.00000000000E+00 -0.56134419574E+03  0.30414249449E+04  0.29891735294E+04 0.  0.
        3    1    3    3  502    0  0.39717255717E+03 -0.47853351003E+03  0.11021464972E+04  0.12654909213E+04  0.10100000352E+00 0. -1.
       -3    1    3    3    0  502 -0.39717255717E+03  0.47853351003E+03 -0.16634906929E+04  0.17759340236E+04  0.10100000352E+00 0.  1.
</event>
<event>
 5   0  0.1240725E-06  0.3181462E+04  0.7818609E-02  0.8193730E-01
       -1   -1    0    0    0  501  0.00000000000E+00  0.00000000000E+00  0.11680108555E+04  0.11680108555E+04  0.50400001928E-02 0.  1.
        1   -1    0    0  501    0  0.00000000000E+00  0.00000000000E+00 -0.21664393177E+04  0.21664393177E+04  0.50400001928E-02 0. -1.
    10030    2    1    2    0    0  0.00000000000E+00  0.00000000000E+00 -0.99842846227E+03  0.33344501732E+04  0.31814617023E+04 0.  0.
        3    1    3    3  502    0  0.99025496270E+03  0.53739628068E+03  0.67773946415E+03  0.13148119429E+04  0.10100000352E+00 0.  1.
       -3    1    3    3    0  502 -0.99025496270E+03 -0.53739628068E+03 -0.16761679264E+04  0.20196382303E+04  0.10100000352E+00 0. -1.
</event>
<event>
 5   0  0.1273754E-06  0.3173071E+04  0.7818609E-02  0.8195966E-01
       -1   -1    0    0    0  501  0.00000000000E+00  0.00000000000E+00  0.15966090982E+04  0.15966090982E+04  0.50400001928E-02 0. -1.
        1   -1    0    0  501    0  0.00000000000E+00  0.00000000000E+00 -0.15765252812E+04  0.15765252812E+04  0.50400001928E-02 0.  1.
    10030    2    1    2    0    0  0.00000000000E+00  0.00000000000E+00  0.20083817013E+02  0.31731343794E+04  0.31730708202E+04 0.  0.
        2    1    3    3  502    0  0.10909618277E+04 -0.10507733325E+04  0.48203897037E+03  0.15895546152E+04  0.25500000920E-02 0. -1.
       -2    1    3    3    0  502 -0.10909618277E+04  0.10507733325E+04 -0.46195515336E+03  0.15835797642E+04  0.25500000920E-02 0.  1.
</event>
<event>
 5   0  0.3758062E-06  0.3182291E+04  0.7818609E-02  0.8193510E-01
       -2   -1    0    0    0  501  0.00000000000E+00  0.00000000000E+00  0.12903990974E+04  0.12903990974E+04  0.25500000920E-02 0.  1.
        2   -1    0    0  501    0  0.00000000000E+00  0.00000000000E+00 -0.19619846969E+04  0.19619846969E+04  0.25500000920E-02 0. -1.
    10030    2    1    2    0    0  0.00000000000E+00  0.00000000000E+00 -0.67158559943E+03  0.32523837943E+04  0.31822905474E+04 0.  0.
        2    1    3    3  502    0 -0.41359525173E+03  0.64755641562E+03  0.10882210341E+04  0.13321468998E+04  0.25500000920E-02 0.  1.
       -2    1    3    3    0  502  0.41359525173E+03 -0.64755641562E+03 -0.17598066335E+04  0.19202368945E+04  0.25500000920E-02 0. -1.
</event>
<event>
 5   0  0.1306843E-06  0.3198652E+04  0.7818609E-02  0.8189173E-01
       -1   -1    0    0    0  501  0.00000000000E+00  0.00000000000E+00  0.17079748557E+04  0.17079748557E+04  0.50400001928E-02 0. -1.
        1   -1    0    0  501    0  0.00000000000E+00  0.00000000000E+00 -0.14975882553E+04  0.14975882553E+04  0.50400001928E-02 0.  1.
    10030    2    1    2    0    0  0.00000000000E+00  0.00000000000E+00  0.21038660043E+03  0.32055631110E+04  0.31986516436E+04 0.  0.
        5    1    3    3  502    0 -0.72934078729E+03 -0.13633835407E+04  0.51481641347E+03  0.16296658224E+04  0.46999998093E+01 0. -1.
       -5    1    3    3    0  502  0.72934078729E+03  0.13633835407E+04 -0.30442981304E+03  0.15758972886E+04  0.46999998093E+01 0.  1.
</event>
<event>
 5   0  0.1268836E-06  0.3293996E+04  0.7818609E-02  0.8164425E-01
        1   -1    0    0  501    0  0.00000000000E+00  0.00000000000E+00  0.17488044423E+04  0.17488044423E+04  0.50400001928E-02 0.  1.
       -1   -1    0    0    0  501  0.00000000000E+00  0.00000000000E+00 -0.15511185162E+04  0.15511185162E+04  0.50400001928E-02 0. -1.
    10030    2    1    2    0    0  0.00000000000E+00  0.00000000000E+00  0.19768592605E+03  0.32999229585E+04  0.32939963277E+04 0.  0.
        1    1    3    3  502    0 -0.19358671779E+03 -0.14492088044E+04  0.85844263236E+03  0.16954662277E+04  0.50400001928E-02 0.  1.
       -1    1    3    3    0  502  0.19358671779E+03  0.14492088044E+04 -0.66075670631E+03  0.16044567308E+04  0.50400001928E-02 0. -1.
</event>
<event>
 5   0  0.3497546E-06  0.2844965E+04  0.7818609E-02  0.8289443E-01
       -2   -1    0    0    0  501  0.00000000000E+00  0.00000000000E+00  0.14405147545E+04  0.14405147545E+04  0.25500000920E-02 0.  1.
        2   -1    0    0  501    0  0.00000000000E+00  0.00000000000E+00 -0.14046764311E+04  0.14046764311E+04  0.25500000920E-02 0. -1.
    10030    2    1    2    0    0  0.00000000000E+00  0.00000000000E+00  0.35838323396E+02  0.28451911857E+04  0.28449654651E+04 0.  0.
        4    1    3    3  502    0  0.10601067311E+03  0.81045512866E+03 -0.11463809776E+04  0.14079299475E+04  0.12699999809E+01 0. -1.
       -4    1    3    3    0  502 -0.10601067311E+03 -0.81045512866E+03  0.11822193010E+04  0.14372612382E+04  0.12699999809E+01 0.  1.
</event>
<event>
 5   0  0.1268836E-06  0.3224565E+04  0.7818609E-02  0.8182360E-01
       -1   -1    0    0    0  501  0.00000000000E+00  0.00000000000E+00  0.92838055500E+03  0.92838055502E+03  0.50400001928E-02 0.  1.
        1   -1    0    0  501    0  0.00000000000E+00  0.00000000000E+00 -0.27999890614E+04  0.27999890614E+04  0.50400001928E-02 0. -1.
    10030    2    1    2    0    0  0.00000000000E+00  0.00000000000E+00 -0.18716085064E+04  0.37283696164E+04  0.32245653343E+04 0.  0.
        1    1    3    3  502    0 -0.15728721354E+04 -0.30732853538E+03 -0.11396365619E+04  0.19665068208E+04  0.50400001928E-02 0. -1.
       -1    1    3    3    0  502  0.15728721354E+04  0.30732853538E+03 -0.73197194449E+03  0.17618627956E+04  0.50400001928E-02 0.  1.
</event>
<event>
 5   0  0.3497546E-06  0.3215302E+04  0.7818609E-02  0.8184788E-01
       -2   -1    0    0    0  501  0.00000000000E+00  0.00000000000E+00  0.13314890561E+04  0.13314890561E+04  0.25500000920E-02 0.  1.
        2   -1    0    0  501    0  0.00000000000E+00  0.00000000000E+00 -0.19410912450E+04  0.19410912450E+04  0.25500000920E-02 0. -1.
    10030    2    1    2    0    0  0.00000000000E+00  0.00000000000E+00 -0.60960218883E+03  0.32725803011E+04  0.32153020074E+04 0.  0.
        4    1    3    3  502    0 -0.12707027497E+04  0.72776524852E+03 -0.98010564613E+03  0.17620829791E+04  0.12699999809E+01 0. -1.
       -4    1    3    3    0  502  0.12707027497E+04 -0.72776524852E+03  0.37050345730E+03  0.15104973220E+04  0.12699999809E+01 0.  1.
</event>
<event>
 5   0  0.3745943E-06  0.3149738E+04  0.7818609E-02  0.8202219E-01
        2   -1    0    0  501    0  0.00000000000E+00  0.00000000000E+00  0.13480517991E+04  0.13480517991E+04  0.25500000920E-02 0.  1.
       -2   -1    0    0    0  501  0.00000000000E+00  0.00000000000E+00 -0.18398492725E+04  0.18398492725E+04  0.25500000920E-02 0. -1.
    10030    2    1    2    0    0  0.00000000000E+00  0.00000000000E+00 -0.49179747342E+03  0.31879010716E+04  0.31497378442E+04 0.  0.
        5    1    3    3  502    0 -0.31869592095E+03  0.57216620494E+03  0.12036726059E+04  0.13703251761E+04  0.46999998093E+01 0.  1.
       -5    1    3    3    0  502  0.31869592095E+03 -0.57216620494E+03 -0.16954700793E+04  0.18175758955E+04  0.46999998093E+01 0. -1.
</event>
<event>
 5   0  0.1273980E-06  0.3194203E+04  0.7818609E-02  0.8190350E-01
       -1   -1    0    0    0  501  0.00000000000E+00  0.00000000000E+00  0.13983177173E+04  0.13983177173E+04  0.50400001928E-02 0.  1.
        1   -1    0    0  501    0  0.00000000000E+00  0.00000000000E+00 -0.18241443672E+04  0.18241443672E+04  0.50400001928E-02 0. -1.
    10030    2    1    2    0    0  0.00000000000E+00  0.00000000000E+00 -0.42582664983E+03  0.32224620845E+04  0.31942031166E+04 0.  0.
        4    1    3    3  502    0 -0.43260328892E+03  0.13768867448E+03 -0.17576777537E+04  0.18153612521E+04  0.12699999809E+01 0. -1.
       -4    1    3    3    0  502  0.43260328892E+03 -0.13768867448E+03  0.13318511039E+04  0.14071008324E+04  0.12699999809E+01 0.  1.
</event>
<event>
 5   0  0.3745943E-06  0.3226413E+04  0.7818609E-02  0.8181876E-01
       -2   -1    0    0    0  501  0.00000000000E+00  0.00000000000E+00  0.16495454183E+04  0.16495454183E+04  0.25500000920E-02 0.  1.
        2   -1    0    0  501    0  0.00000000000E+00  0.00000000000E+00 -0.15776679615E+04  0.15776679615E+04  0.25500000920E-02 0. -1.
    10030    2    1    2    0    0  0.00000000000E+00  0.00000000000E+00  0.71877456833E+02  0.32272133799E+04  0.32264128425E+04 0.  0.
        5    1    3    3  502    0 -0.71027706879E+03 -0.11670477105E+04 -0.82213133408E+03  0.15944954981E+04  0.46999998093E+01 0. -1.
       -5    1    3    3    0  502  0.71027706879E+03  0.11670477105E+04  0.89400879092E+03  0.16327178817E+04  0.46999998093E+01 0.  1.
</event>
<event>
 5   0  0.1273754E-06  0.3288754E+04  0.7818609E-02  0.8165763E-01
       -1   -1    0    0    0  501  0.00000000000E+00  0.00000000000E+00  0.14644715853E+04  0.14644715853E+04  0.50400001928E-02 0. -1.
        1   -1    0    0  501    0  0.00000000000E+00  0.00000000000E+00 -0.18463834178E+04  0.18463834178E+04  0.50400001928E-02 0.  1.
    10030    2    1    2    0    0  0.00000000000E+00  0.00000000000E+00 -0.38191183247E+03  0.33108550032E+04  0.32887542025E+04 0.  0.
        2    1    3    3  502    0 -0.10631107367E+04  0.21584492871E+03  0.10531410360E+04  0.15119191491E+04  0.25500000920E-02 0. -1.
       -2    1    3    3    0  502  0.10631107367E+04 -0.21584492871E+03 -0.14350528684E+04  0.17989358541E+04  0.25500000920E-02 0.  1.
</event>
<event>
 5   0  0.3758062E-06  0.3234085E+04  0.7818609E-02  0.8179873E-01
        2   -1    0    0  501    0  0.00000000000E+00  0.00000000000E+00  0.16527724530E+04  0.16527724530E+04  0.25500000920E-02 0.  1.
       -2   -1    0    0    0  501  0.00000000000E+00  0.00000000000E+00 -0.15820852427E+04  0.15820852427E+04  0.25500000920E-02 0. -1.
    10030    2    1    2    0    0  0.00000000000E+00  0.00000000000E+00  0.70687210290E+02  0.32348576957E+04  0.32340852848E+04 0.  0.
        2    1    3    3  502    0 -0.50529824248E+03  0.11150412326E+04 -0.10214046492E+04  0.15943370790E+04  0.25500000920E-02 0. -1.
       -2    1    3    3    0  502  0.50529824248E+03 -0.11150412326E+04  0.10920918594E+04  0.16405206167E+04  0.25500000920E-02 0.  1.
</event>
<event>
 5   0  0.1306843E-06  0.2294774E+04  0.7818609E-02  0.8479984E-01
        1   -1    0    0  501    0  0.00000000000E+00  0.00000000000E+00  0.12178931141E+04  0.12178931141E+04  0.50400001928E-02 0. -1.
       -1   -1    0    0    0  501  0.00000000000E+00  0.00000000000E+00 -0.10809626114E+04  0.10809626115E+04  0.50400001928E-02 0.  1.
    10030    2    1    2    0    0  0.00000000000E+00  0.00000000000E+00  0.13693050269E+03  0.22988557256E+04  0.22947739942E+04 0.  0.
        5    1    3    3  502    0 -0.17911115086E+03  0.56892572904E+03  0.10503706703E+04  0.12079147009E+04  0.46999998093E+01 0. -1.
       -5    1    3    3    0  502  0.17911115086E+03 -0.56892572904E+03 -0.91344016764E+03  0.10909410247E+04  0.46999998093E+01 0.  1.
</event>
</LesHouchesEvents>
