<LesHouchesEvents version="3.0">
<header>
<!--
#*********************************************************************
#                                                                    *
#                        MadGraph5_aMC@NLO                           *
#                                                                    *
#                           Going Beyond                             *
#                                                                    *
#                   http://madgraph.hep.uiuc.edu                     *
#                   http://madgraph.phys.ucl.ac.be                   *
#                   http://amcatnlo.cern.ch                          *
#                                                                    *
#                     The MadGraph5_aMC@NLO team                     *
#                                                                    *
#....................................................................*
#                                                                    *
# This file contains all the information necessary to reproduce      *
# the events generated:                                              *
#                                                                    *
# 1. software version                                                *
# 2. proc_card          : code generation info including model       *
# 3. param_card         : model primary parameters in the LH format  *
# 4. run_card           : running parameters (collider and cuts)     *
# 5. pythia_card        : present only if pythia has been run        *
# 6. pgs_card           : present only if pgs has been run           *
# 7. delphes_cards      : present only if delphes has been run       *
#                                                                    *
#                                                                    *
#*********************************************************************
-->
<MGVersion>
#5.2.2.3
</MGVersion>
<MG5ProcCard>
#************************************************************
#*                     MadGraph5_aMC@NLO                    *
#*                                                          *
#*                *                       *                 *
#*                  *        * *        *                   *
#*                    * * * * 5 * * * *                     *
#*                  *        * *        *                   *
#*                *                       *                 *
#*                                                          *
#*                                                          *
#*         VERSION 2.2.3                 2015-02-10         *
#*                                                          *
#*    The MadGraph5_aMC@NLO Development Team - Find us at   *
#*    https://server06.fynu.ucl.ac.be/projects/madgraph     *
#*                                                          *
#************************************************************
#*                                                          *
#*               Command File for MadGraph5_aMC@NLO         *
#*                                                          *
#*     run as ./bin/mg5_aMC  filename                       *
#*                                                          *
#************************************************************
set group_subprocesses Auto
set ignore_six_quark_processes False
set loop_optimized_output True
set gauge unitary
set complex_mass_scheme False
import model sm
define p = g u c d s u~ c~ d~ s~
define j = g u c d s u~ c~ d~ s~
define l+ = e+ mu+
define l- = e- mu-
define vl = ve vm vt
define vl~ = ve~ vm~ vt~
import model Zprime_UFO
generate p p > zph, zph > j j
add process p p > zph, zph > b b~
output Dijet_signal
</MG5ProcCard>
<MGProcCard>
#*********************************************************************
#                        MadGraph/MadEvent                           *
#                   http://madgraph.hep.uiuc.edu                     *
#                                                                    *
#                          proc_card.dat                             *
#*********************************************************************
#                                                                    *
#            This Files is generated by MADGRAPH 5                   *
#                                                                    *
# WARNING: This Files is generated for MADEVENT (compatibility issue)*
#          This files is NOT a valid MG4 proc_card.dat               *
#          Running this in MG4 will NEVER reproduce the result of MG5*
#                                                                    *
#*********************************************************************
#*********************************************************************
# Process(es) requested : mg2 input                                  *
#*********************************************************************
# Begin PROCESS # This is TAG. Do not modify this line
p p > zph , zph > j j           #Process
# Be carefull the coupling are here in MG5 convention
          
end_coup           # End the couplings input

done               # this tells MG there are no more procs
# End PROCESS  # This is TAG. Do not modify this line
#*********************************************************************
# Model information                                                  *
#*********************************************************************
# Begin MODEL  # This is TAG. Do not modify this line
Zprime_UFO
# End   MODEL  # This is TAG. Do not modify this line
#*********************************************************************
# Start multiparticle definitions                                    *
#*********************************************************************
# Begin MULTIPARTICLES # This is TAG. Do not modify this line

# End  MULTIPARTICLES # This is TAG. Do not modify this line
</MGProcCard>
<MGRunCard>
#*********************************************************************
#                       MadGraph5_aMC@NLO                            *
#                                                                    *
#                     run_card.dat MadEvent                          *
#                                                                    *
#  This file is used to set the parameters of the run.               *
#                                                                    *
#  Some notation/conventions:                                        *
#                                                                    *
#   Lines starting with a '# ' are info or comments                  *
#                                                                    *
#   mind the format:   value    = variable     ! comment             *
#*********************************************************************
#
#*******************                                                 
# Running parameters
#*******************                                                 
#                                                                    
#*********************************************************************
# Tag name for the run (one word)                                    *
#*********************************************************************
  tag_1     = run_tag ! name of the run 
#*********************************************************************
# Run to generate the grid pack                                      *
#*********************************************************************
  .false.     = gridpack  !True = setting up the grid pack
#*********************************************************************
# Number of events and rnd seed                                      *
# Warning: Do not generate more than 1M events in a single run       *
# If you want to run Pythia, avoid more than 50k events in a run.    *
#*********************************************************************
  2000 = nevents ! Number of unweighted events requested 
 3081 = iseed   ! rnd seed (0=assigned automatically=default))
#*********************************************************************
# Collider type and energy                                           *
# lpp: 0=No PDF, 1=proton, -1=antiproton, 2=photon from proton,      *
#                                         3=photon from electron     *
#*********************************************************************
        1     = lpp1    ! beam 1 type 
        1     = lpp2    ! beam 2 type
     4000     = ebeam1  ! beam 1 total energy in GeV
     4000     = ebeam2  ! beam 2 total energy in GeV
#*********************************************************************
# Beam polarization from -100 (left-handed) to 100 (right-handed)    *
#*********************************************************************
        0     = polbeam1 ! beam polarization for beam 1
        0     = polbeam2 ! beam polarization for beam 2
#*********************************************************************
# PDF CHOICE: this automatically fixes also alpha_s and its evol.    *
#*********************************************************************
 'nn23lo1'    = pdlabel     ! PDF set                                     
 230000    = lhaid     ! if pdlabel=lhapdf, this is the lhapdf number
#*********************************************************************
# Renormalization and factorization scales                           *
#*********************************************************************
 F        = fixed_ren_scale  ! if .true. use fixed ren scale
 F        = fixed_fac_scale  ! if .true. use fixed fac scale
 91.1880  = scale            ! fixed ren scale
 91.1880  = dsqrt_q2fact1    ! fixed fact scale for pdf1
 91.1880  = dsqrt_q2fact2    ! fixed fact scale for pdf2
 1        = scalefact        ! scale factor for event-by-event scales
#*********************************************************************
# Matching - Warning! ickkw > 1 is still beta
#*********************************************************************
 0        = ickkw            ! 0 no matching, 1 MLM, 2 CKKW matching
 1        = highestmult      ! for ickkw=2, highest mult group
 1        = ktscheme         ! for ickkw=1, 1 Durham kT, 2 Pythia pTE
 1        = alpsfact         ! scale factor for QCD emission vx
 F        = chcluster        ! cluster only according to channel diag
 T        = pdfwgt           ! for ickkw=1, perform pdf reweighting
 5        = asrwgtflavor     ! highest quark flavor for a_s reweight
 T        = clusinfo         ! include clustering tag in output
 3.0      = lhe_version       ! Change the way clustering information pass to shower.        
#*********************************************************************
#**********************************************************
#
#**********************************************************
# Automatic ptj and mjj cuts if xqcut > 0
# (turn off for VBF and single top processes)
#**********************************************************
   T  = auto_ptj_mjj  ! Automatic setting of ptj and mjj
#**********************************************************
#                                                                    
#**********************************
# BW cutoff (M+/-bwcutoff*Gamma)
#**********************************
  15  = bwcutoff      ! (M+/-bwcutoff*Gamma)
#**********************************************************
# Apply pt/E/eta/dr/mij cuts on decay products or not
# (note that etmiss/ptll/ptheavy/ht/sorted cuts always apply)
#**********************************************************
   T  = cut_decays    ! Cut decay products 
#*************************************************************
# Number of helicities to sum per event (0 = all helicities)
# 0 gives more stable result, but longer run time (needed for
# long decay chains e.g.).
# Use >=2 if most helicities contribute, e.g. pure QCD.
#*************************************************************
   0  = nhel          ! Number of helicities used per event
#*******************                                                 
# Standard Cuts
#*******************                                                 
#                                                                    
#*********************************************************************
# Minimum and maximum pt's (for max, -1 means no cut)                *
#*********************************************************************
 20  = ptj       ! minimum pt for the jets 
  0  = ptb       ! minimum pt for the b 
 10  = pta       ! minimum pt for the photons 
 10  = ptl       ! minimum pt for the charged leptons 
  0  = misset    ! minimum missing Et (sum of neutrino's momenta)
  0  = ptheavy   ! minimum pt for one heavy final state
 1.0 = ptonium   ! minimum pt for the quarkonium states
 -1  = ptjmax    ! maximum pt for the jets
 -1  = ptbmax    ! maximum pt for the b
 -1  = ptamax    ! maximum pt for the photons
 -1  = ptlmax    ! maximum pt for the charged leptons
 -1  = missetmax ! maximum missing Et (sum of neutrino's momenta)
#*********************************************************************
# Minimum and maximum E's (in the center of mass frame)              *
#*********************************************************************
  0  = ej     ! minimum E for the jets 
  0  = eb     ! minimum E for the b 
  0  = ea     ! minimum E for the photons 
  0  = el     ! minimum E for the charged leptons 
 -1   = ejmax ! maximum E for the jets
 -1   = ebmax ! maximum E for the b
 -1   = eamax ! maximum E for the photons
 -1   = elmax ! maximum E for the charged leptons
#*********************************************************************
# Maximum and minimum absolute rapidity (for max, -1 means no cut)   *
#*********************************************************************
   5  = etaj    ! max rap for the jets 
  -1  = etab    ! max rap for the b
 2.5  = etaa    ! max rap for the photons 
 2.5  = etal    ! max rap for the charged leptons 
 0.6  = etaonium ! max rap for the quarkonium states
   0  = etajmin ! min rap for the jets
   0  = etabmin ! min rap for the b
   0  = etaamin ! min rap for the photons
   0  = etalmin ! main rap for the charged leptons
#*********************************************************************
# Minimum and maximum DeltaR distance                                *
#*********************************************************************
 0.4 = drjj    ! min distance between jets 
 0   = drbb    ! min distance between b's 
 0.4 = drll    ! min distance between leptons 
 0.4 = draa    ! min distance between gammas 
 0   = drbj    ! min distance between b and jet 
 0.4 = draj    ! min distance between gamma and jet 
 0.4 = drjl    ! min distance between jet and lepton 
 0   = drab    ! min distance between gamma and b 
 0   = drbl    ! min distance between b and lepton 
 0.4 = dral    ! min distance between gamma and lepton 
 -1  = drjjmax ! max distance between jets
 -1  = drbbmax ! max distance between b's
 -1  = drllmax ! max distance between leptons
 -1  = draamax ! max distance between gammas
 -1  = drbjmax ! max distance between b and jet
 -1  = drajmax ! max distance between gamma and jet
 -1  = drjlmax ! max distance between jet and lepton
 -1  = drabmax ! max distance between gamma and b
 -1  = drblmax ! max distance between b and lepton
 -1  = dralmax ! maxdistance between gamma and lepton
#*********************************************************************
# Minimum and maximum invariant mass for pairs                       *
# WARNING: for four lepton final state mmll cut require to have      *
#          different lepton masses for each flavor!                  *           
#*********************************************************************
 0   = mmjj    ! min invariant mass of a jet pair 
 0   = mmbb    ! min invariant mass of a b pair 
 0   = mmaa    ! min invariant mass of gamma gamma pair
 0   = mmll    ! min invariant mass of l+l- (same flavour) lepton pair
 -1  = mmjjmax ! max invariant mass of a jet pair
 -1  = mmbbmax ! max invariant mass of a b pair
 -1  = mmaamax ! max invariant mass of gamma gamma pair
 -1  = mmllmax ! max invariant mass of l+l- (same flavour) lepton pair
#*********************************************************************
# Minimum and maximum invariant mass for all letpons                 *
#*********************************************************************
 0   = mmnl    ! min invariant mass for all letpons (l+- and vl) 
 -1  = mmnlmax ! max invariant mass for all letpons (l+- and vl) 
#*********************************************************************
# Minimum and maximum pt for 4-momenta sum of leptons                *
#*********************************************************************
 0   = ptllmin  ! Minimum pt for 4-momenta sum of leptons(l and vl)
 -1  = ptllmax  ! Maximum pt for 4-momenta sum of leptons(l and vl)
#*********************************************************************
# Inclusive cuts                                                     *
#*********************************************************************
 0  = xptj ! minimum pt for at least one jet  
 0  = xptb ! minimum pt for at least one b 
 0  = xpta ! minimum pt for at least one photon 
 0  = xptl ! minimum pt for at least one charged lepton 
#*********************************************************************
# Control the pt's of the jets sorted by pt                          *
#*********************************************************************
 0   = ptj1min ! minimum pt for the leading jet in pt
 0   = ptj2min ! minimum pt for the second jet in pt
 0   = ptj3min ! minimum pt for the third jet in pt
 0   = ptj4min ! minimum pt for the fourth jet in pt
 -1  = ptj1max ! maximum pt for the leading jet in pt 
 -1  = ptj2max ! maximum pt for the second jet in pt
 -1  = ptj3max ! maximum pt for the third jet in pt
 -1  = ptj4max ! maximum pt for the fourth jet in pt
 0   = cutuse  ! reject event if fails any (0) / all (1) jet pt cuts
#*********************************************************************
# Control the pt's of leptons sorted by pt                           *
#*********************************************************************
 0   = ptl1min ! minimum pt for the leading lepton in pt
 0   = ptl2min ! minimum pt for the second lepton in pt
 0   = ptl3min ! minimum pt for the third lepton in pt
 0   = ptl4min ! minimum pt for the fourth lepton in pt
 -1  = ptl1max ! maximum pt for the leading lepton in pt 
 -1  = ptl2max ! maximum pt for the second lepton in pt
 -1  = ptl3max ! maximum pt for the third lepton in pt
 -1  = ptl4max ! maximum pt for the fourth lepton in pt
#*********************************************************************
# Control the Ht(k)=Sum of k leading jets                            *
#*********************************************************************
 0   = htjmin ! minimum jet HT=Sum(jet pt)
 -1  = htjmax ! maximum jet HT=Sum(jet pt)
 0   = ihtmin  !inclusive Ht for all partons (including b)
 -1  = ihtmax  !inclusive Ht for all partons (including b)
 0   = ht2min ! minimum Ht for the two leading jets
 0   = ht3min ! minimum Ht for the three leading jets
 0   = ht4min ! minimum Ht for the four leading jets
 -1  = ht2max ! maximum Ht for the two leading jets
 -1  = ht3max ! maximum Ht for the three leading jets
 -1  = ht4max ! maximum Ht for the four leading jets
#***********************************************************************
# Photon-isolation cuts, according to hep-ph/9801442                   *
# When ptgmin=0, all the other parameters are ignored                  *
# When ptgmin>0, pta and draj are not going to be used                 *
#***********************************************************************
   0 = ptgmin ! Min photon transverse momentum
 0.4 = R0gamma ! Radius of isolation code
 1.0 = xn ! n parameter of eq.(3.4) in hep-ph/9801442
 1.0 = epsgamma ! epsilon_gamma parameter of eq.(3.4) in hep-ph/9801442
 .true. = isoEM ! isolate photons from EM energy (photons and leptons)
#*********************************************************************
# WBF cuts                                                           *
#*********************************************************************
 0   = xetamin ! minimum rapidity for two jets in the WBF case  
 0   = deltaeta ! minimum rapidity for two jets in the WBF case 
#*********************************************************************
# KT DURHAM CUT                                                      *
#*********************************************************************
 -1    =  ktdurham        
 0.4  =  dparameter 
#*********************************************************************
# maximal pdg code for quark to be considered as a light jet         *
# (otherwise b cuts are applied)                                     *
#*********************************************************************
 4 = maxjetflavor    ! Maximum jet pdg code
#*********************************************************************
# Jet measure cuts                                                   *
#*********************************************************************
 0   = xqcut   ! minimum kt jet measure between partons
#*********************************************************************
#
#*********************************************************************
# Store info for systematics studies                                 *
# WARNING: If use_syst is T, matched Pythia output is                *
#          meaningful ONLY if plotted taking matchscale              *
#          reweighting into account!                                 *
#*********************************************************************
   F  = use_syst      ! Enable systematics studies
#
#**************************************
# Parameter of the systematics study
#  will be used by SysCalc (if installed)
#**************************************                                  
#
0.5 1 2 = sys_scalefact  # factorization/renormalization scale factor
0.5 1 2 = sys_alpsfact  # \alpha_s emission scale factors
30 50 = sys_matchscale # variation of merging scale
# PDF sets and number of members (0 or none for all members).
CT10nlo.LHgrid = sys_pdf # matching scales
# MSTW2008nlo68cl.LHgrid 1  = sys_pdf
</MGRunCard>
<slha>
######################################################################
## PARAM_CARD AUTOMATICALY GENERATED BY MG5 FOLLOWING UFO MODEL   ####
######################################################################
##                                                                  ##
##  Width set on Auto will be computed following the information    ##
##        present in the decay.py files of the model.               ##
##        See  arXiv:1402.1178 for more details.                    ##
##                                                                  ##
######################################################################

###################################
## INFORMATION FOR CKMBLOCK
###################################
Block ckmblock 
    1 2.277360e-01 # cabi 

###################################
## INFORMATION FOR FRBLOCK
###################################
Block frblock 
    1 1.600000e+00 # gz 

###################################
## INFORMATION FOR MASS
###################################
Block mass 
    1 5.040000e-03 # MD 
    2 2.550000e-03 # MU 
    3 1.010000e-01 # MS 
    4 1.270000e+00 # MC 
    5 4.700000e+00 # MB 
    6 1.720000e+02 # MT 
   11 5.110000e-04 # Me 
   13 1.056600e-01 # MM 
   15 1.777000e+00 # MTA 
   23 9.118760e+01 # MZ 
   25 1.200000e+02 # MH 
  10030 4.000000e+03 # MZph 
  10031 3.000000e+02 # MZpl 
## Dependent parameters, given by model restrictions.
## Those values should be edited following the 
## analytical expression. MG5 ignores those values 
## but they are important for interfacing the output of MG5
## to external program such as Pythia.
  12 0.000000 # ve : 0.0 
  14 0.000000 # vm : 0.0 
  16 0.000000 # vt : 0.0 
  21 0.000000 # g : 0.0 
  22 0.000000 # a : 0.0 
  24 79.824360 # w+ : cmath.sqrt(MZ__exp__2/2. + cmath.sqrt(MZ__exp__4/4. - (aEW*cmath.pi*MZ__exp__2)/(Gf*sqrt__2))) 

###################################
## INFORMATION FOR SMINPUTS
###################################
Block sminputs 
    1 1.279000e+02 # aEWM1 
    2 1.166370e-05 # Gf 
    3 1.184000e-01 # aS 

###################################
## INFORMATION FOR YUKAWA
###################################
Block yukawa 
    1 5.040000e-03 # ymdo 
    2 2.550000e-03 # ymup 
    3 1.010000e-01 # yms 
    4 1.270000e+00 # ymc 
    5 4.700000e+00 # ymb 
    6 1.720000e+02 # ymt 
   11 5.110000e-04 # yme 
   13 1.056600e-01 # ymm 
   15 1.777000e+00 # ymtau 

###################################
## INFORMATION FOR DECAY
###################################
DECAY   6 1.508336e+00 # WT 
DECAY  23 2.495200e+00 # WZ 
DECAY  24 2.085000e+00 # WW 
DECAY  25 5.753088e-03 # WH 
## Dependent parameters, given by model restrictions.
## Those values should be edited following the 
## analytical expression. MG5 ignores those values 
## but they are important for interfacing the output of MG5
## to external program such as Pythia.
DECAY  1 0.000000 # d : 0.0 
DECAY  2 0.000000 # u : 0.0 
DECAY  3 0.000000 # s : 0.0 
DECAY  4 0.000000 # c : 0.0 
DECAY  5 0.000000 # b : 0.0 
DECAY  11 0.000000 # e- : 0.0 
DECAY  12 0.000000 # ve : 0.0 
DECAY  13 0.000000 # mu- : 0.0 
DECAY  14 0.000000 # vm : 0.0 
DECAY  15 0.000000 # ta- : 0.0 
DECAY  16 0.000000 # vt : 0.0 
DECAY  21 0.000000 # g : 0.0 
DECAY  22 0.000000 # a : 0.0 
DECAY  10030 0.308725 # zph : (gz__exp__2*MZph*(5 + cmath.sqrt(1 - (4*MT__exp__2)/MZph__exp__2)))/(144.*cmath.pi) 
DECAY  10031 0.132629 # zpl : (5*gz__exp__2*MZpl)/(144.*cmath.pi) 
#===========================================================
# QUANTUM NUMBERS OF NEW STATE(S) (NON SM PDG CODE)
#===========================================================

Block QNUMBERS 10030  # zph 
        1 0  # 3 times electric charge
        2 3  # number of spin states (2S+1)
        3 1  # colour rep (1: singlet, 3: triplet, 8: octet)
        4 0  # Particle/Antiparticle distinction (0=own anti)
Block QNUMBERS 10031  # zpl 
        1 0  # 3 times electric charge
        2 3  # number of spin states (2S+1)
        3 1  # colour rep (1: singlet, 3: triplet, 8: octet)
        4 0  # Particle/Antiparticle distinction (0=own anti)
</slha>
## END BANNER##
<MGGenerationInfo>
#  Number of Events        :         4264
#  Integrated weight (pb)  :  0.19209E-03
#  Max wgt                 :  0.13034E-06
#  Average wgt             :  0.45049E-07
</MGGenerationInfo>
</header>
<init>
     2212     2212  0.40000000000E+04  0.40000000000E+04 0 0  247000  247000 2   1
  0.19240549847E-03  0.12901154773E-05  0.13033810000E-06   0
</init>
<event>
 5   0  0.4449262E-07  0.4078099E+04  0.7818609E-02  0.7988974E-01
       -2   -1    0    0    0  501  0.00000000000E+00  0.00000000000E+00  0.19278155349E+04  0.19278155349E+04  0.25500000920E-02 0. -1.
        2   -1    0    0  501    0  0.00000000000E+00  0.00000000000E+00 -0.21567019130E+04  0.21567019130E+04  0.25500000920E-02 0.  1.
    10030    2    1    2    0    0  0.00000000000E+00  0.00000000000E+00 -0.22888637809E+03  0.40845174479E+04  0.40780992887E+04 0.  0.
        1    1    3    3  502    0  0.39562323098E+03  0.62485292278E+03 -0.20176349304E+04  0.21489089391E+04  0.50400001928E-02 0.  1.
       -1    1    3    3    0  502 -0.39562323098E+03 -0.62485292278E+03  0.17887485523E+04  0.19356085088E+04  0.50400001928E-02 0. -1.
</event>
<event>
 5   0  0.2401125E-07  0.3809255E+04  0.7818609E-02  0.8044172E-01
        1   -1    0    0  501    0  0.00000000000E+00  0.00000000000E+00  0.12195782211E+04  0.12195782211E+04  0.50400001928E-02 0.  1.
       -1   -1    0    0    0  501  0.00000000000E+00  0.00000000000E+00 -0.29744757749E+04  0.29744757749E+04  0.50400001928E-02 0. -1.
    10030    2    1    2    0    0  0.00000000000E+00  0.00000000000E+00 -0.17548975538E+04  0.41940539961E+04  0.38092549793E+04 0.  0.
        5    1    3    3  502    0  0.40983474811E+03  0.73119207711E+03  0.10055725192E+04  0.13091235830E+04  0.46999998093E+01 0.  1.
       -5    1    3    3    0  502 -0.40983474811E+03 -0.73119207711E+03 -0.27604700730E+04  0.28849304130E+04  0.46999998093E+01 0. -1.
</event>
<event>
 5   0  0.7256473E-07  0.2779232E+04  0.7818609E-02  0.8309745E-01
       -2   -1    0    0    0  501  0.00000000000E+00  0.00000000000E+00  0.11476196878E+04  0.11476196878E+04  0.25500000920E-02 0. -1.
        2   -1    0    0  501    0  0.00000000000E+00  0.00000000000E+00 -0.16826410667E+04  0.16826410667E+04  0.25500000920E-02 0.  1.
    10030    2    1    2    0    0  0.00000000000E+00  0.00000000000E+00 -0.53502137889E+03  0.28302607546E+04  0.27792315598E+04 0.  0.
        4    1    3    3  502    0  0.11078766774E+01  0.10165783842E+04  0.69730098349E+03  0.12327461674E+04  0.12699999809E+01 0. -1.
       -4    1    3    3    0  502 -0.11078766774E+01 -0.10165783842E+04 -0.12323223624E+04  0.15975145872E+04  0.12699999809E+01 0.  1.
</event>
<event>
 5   0  0.4449262E-07  0.3686903E+04  0.7818609E-02  0.8070870E-01
       -2   -1    0    0    0  501  0.00000000000E+00  0.00000000000E+00  0.17386683114E+04  0.17386683114E+04  0.25500000920E-02 0. -1.
        2   -1    0    0  501    0  0.00000000000E+00  0.00000000000E+00 -0.19545495807E+04  0.19545495807E+04  0.25500000920E-02 0.  1.
    10030    2    1    2    0    0  0.00000000000E+00  0.00000000000E+00 -0.21588126933E+03  0.36932178920E+04  0.36869029924E+04 0.  0.
        1    1    3    3  502    0  0.47272332987E+03  0.22512254925E+03  0.16626178001E+04  0.17431137249E+04  0.50400001928E-02 0. -1.
       -1    1    3    3    0  502 -0.47272332987E+03 -0.22512254925E+03 -0.18784990694E+04  0.19501041671E+04  0.50400001928E-02 0.  1.
</event>
<event>
 5   0  0.4449262E-07  0.4210393E+04  0.7818609E-02  0.7963398E-01
        2   -1    0    0  501    0  0.00000000000E+00  0.00000000000E+00  0.24598554360E+04  0.24598554360E+04  0.25500000920E-02 0. -1.
       -2   -1    0    0    0  501  0.00000000000E+00  0.00000000000E+00 -0.18016717022E+04  0.18016717022E+04  0.25500000920E-02 0.  1.
    10030    2    1    2    0    0  0.00000000000E+00  0.00000000000E+00  0.65818373382E+03  0.42615271382E+04  0.42103928227E+04 0.  0.
        1    1    3    3  502    0 -0.78469500469E+03 -0.33100360305E+02 -0.16478344588E+04  0.18254315347E+04  0.50400001928E-02 0.  1.
       -1    1    3    3    0  502  0.78469500469E+03  0.33100360305E+02  0.23060181926E+04  0.24360956034E+04  0.50400001928E-02 0. -1.
</event>
<event>
 5   0  0.4449262E-07  0.4022636E+04  0.7818609E-02  0.7999996E-01
        2   -1    0    0  501    0  0.00000000000E+00  0.00000000000E+00  0.21923884105E+04  0.21923884105E+04  0.25500000920E-02 0.  1.
       -2   -1    0    0    0  501  0.00000000000E+00  0.00000000000E+00 -0.18452024688E+04  0.18452024688E+04  0.25500000920E-02 0. -1.
    10030    2    1    2    0    0  0.00000000000E+00  0.00000000000E+00  0.34718594172E+03  0.40375908793E+04  0.40226362041E+04 0.  0.
        1    1    3    3  502    0 -0.17771380005E+04 -0.90484650533E+03  0.43616411522E+03  0.20413735098E+04  0.50400001928E-02 0.  1.
       -1    1    3    3    0  502  0.17771380005E+04  0.90484650533E+03 -0.88978173493E+02  0.19962173695E+04  0.50400001928E-02 0. -1.
</event>
<event>
 5   0  0.3579559E-07  0.4027582E+04  0.7818609E-02  0.7999005E-01
        1   -1    0    0  501    0  0.00000000000E+00  0.00000000000E+00  0.12133562798E+04  0.12133562798E+04  0.50400001928E-02 0. -1.
       -1   -1    0    0    0  501  0.00000000000E+00  0.00000000000E+00 -0.33422610662E+04  0.33422610662E+04  0.50400001928E-02 0.  1.
    10030    2    1    2    0    0  0.00000000000E+00  0.00000000000E+00 -0.21289047865E+04  0.45556173460E+04  0.40275816334E+04 0.  0.
        4    1    3    3  502    0  0.17930405983E+04  0.91582509545E+03 -0.10189031512E+04  0.22565228643E+04  0.12699999809E+01 0.  1.
       -4    1    3    3    0  502 -0.17930405983E+04 -0.91582509545E+03 -0.11100016352E+04  0.22990944817E+04  0.12699999809E+01 0. -1.
</event>
<event>
 5   0  0.2713405E-07  0.3964413E+04  0.7818609E-02  0.8011764E-01
       -1   -1    0    0    0  501  0.00000000000E+00  0.00000000000E+00  0.14372176916E+04  0.14372176917E+04  0.50400001928E-02 0. -1.
        1   -1    0    0  501    0  0.00000000000E+00  0.00000000000E+00 -0.27338539505E+04  0.27338539505E+04  0.50400001928E-02 0.  1.
    10030    2    1    2    0    0  0.00000000000E+00  0.00000000000E+00 -0.12966362589E+04  0.41710716422E+04  0.39644133307E+04 0.  0.
        1    1    3    3  502    0  0.12408336996E+04 -0.96236196345E+03  0.62442429075E+03  0.16898859470E+04  0.50400001928E-02 0. -1.
       -1    1    3    3    0  502 -0.12408336996E+04  0.96236196345E+03 -0.19210605496E+04  0.24811856952E+04  0.50400001928E-02 0.  1.
</event>
<event>
 5   0  0.7256473E-07  0.2194588E+04  0.7818609E-02  0.8520684E-01
        2   -1    0    0  501    0  0.00000000000E+00  0.00000000000E+00  0.13956388342E+04  0.13956388342E+04  0.25500000920E-02 0.  1.
       -2   -1    0    0    0  501  0.00000000000E+00  0.00000000000E+00 -0.86272594215E+03  0.86272594216E+03  0.25500000920E-02 0. -1.
    10030    2    1    2    0    0  0.00000000000E+00  0.00000000000E+00  0.53291289200E+03  0.22583647763E+04  0.21945877318E+04 0.  0.
        4    1    3    3  502    0 -0.99391201645E+03  0.38393568552E+03  0.53634624043E+03  0.11928690664E+04  0.12699999809E+01 0.  1.
       -4    1    3    3    0  502  0.99391201645E+03 -0.38393568552E+03 -0.34333484252E+01  0.10654957099E+04  0.12699999809E+01 0. -1.
</event>
<event>
 5   0  0.6043512E-07  0.3945819E+04  0.7818609E-02  0.8015567E-01
        2   -1    0    0  501    0  0.00000000000E+00  0.00000000000E+00  0.22642307051E+04  0.22642307051E+04  0.25500000920E-02 0.  1.
       -2   -1    0    0    0  501  0.00000000000E+00  0.00000000000E+00 -0.17190699337E+04  0.17190699337E+04  0.25500000920E-02 0. -1.
    10030    2    1    2    0    0  0.00000000000E+00  0.00000000000E+00  0.54516077140E+03  0.39833006388E+04  0.39458185098E+04 0.  0.
        3    1    3    3  502    0 -0.35177811710E+02  0.18070271300E+04 -0.52600073211E+03  0.18823552554E+04  0.10100000352E+00 0.  1.
       -3    1    3    3    0  502  0.35177811710E+02 -0.18070271300E+04  0.10711615035E+04  0.21009453834E+04  0.10100000352E+00 0. -1.
</event>
<event>
 5   0  0.4449262E-07  0.4012403E+04  0.7818609E-02  0.8002049E-01
        2   -1    0    0  501    0  0.00000000000E+00  0.00000000000E+00  0.20814184210E+04  0.20814184210E+04  0.25500000920E-02 0. -1.
       -2   -1    0    0    0  501  0.00000000000E+00  0.00000000000E+00 -0.19337027044E+04  0.19337027044E+04  0.25500000920E-02 0.  1.
    10030    2    1    2    0    0  0.00000000000E+00  0.00000000000E+00  0.14771571652E+03  0.40151211254E+04  0.40124029856E+04 0.  0.
        1    1    3    3  502    0  0.79262056102E+03 -0.15785195898E+04 -0.87803466718E+03  0.19725405765E+04  0.50400001928E-02 0.  1.
       -1    1    3    3    0  502 -0.79262056102E+03  0.15785195898E+04  0.10257503837E+04  0.20425805489E+04  0.50400001928E-02 0. -1.
</event>
<event>
 5   0  0.6043512E-07  0.2175597E+04  0.7818609E-02  0.8528654E-01
        2   -1    0    0  501    0  0.00000000000E+00  0.00000000000E+00  0.11528986767E+04  0.11528986767E+04  0.25500000920E-02 0.  1.
       -2   -1    0    0    0  501  0.00000000000E+00  0.00000000000E+00 -0.10263746109E+04  0.10263746109E+04  0.25500000920E-02 0. -1.
    10030    2    1    2    0    0  0.00000000000E+00  0.00000000000E+00  0.12652406579E+03  0.21792732877E+04  0.21755973256E+04 0.  0.
        3    1    3    3  502    0  0.31780632348E+02 -0.88771479508E+03  0.69222290953E+03  0.11261528017E+04  0.10100000352E+00 0.  1.
       -3    1    3    3    0  502 -0.31780632348E+02  0.88771479508E+03 -0.56569884375E+03  0.10531204860E+04  0.10100000352E+00 0. -1.
</event>
<event>
 5   0  0.6677593E-07  0.2006900E+04  0.7818609E-02  0.8603401E-01
        2   -1    0    0  501    0  0.00000000000E+00  0.00000000000E+00  0.17106752108E+04  0.17106752108E+04  0.25500000920E-02 0.  1.
       -2   -1    0    0    0  501  0.00000000000E+00  0.00000000000E+00 -0.58860522193E+03  0.58860522194E+03  0.25500000920E-02 0. -1.
    10030    2    1    2    0    0  0.00000000000E+00  0.00000000000E+00  0.11220699889E+04  0.22992804328E+04  0.20069004581E+04 0.  0.
        3    1    3    3  502    0  0.73916577432E+03  0.52641604610E+03  0.10517215992E+04  0.13890997905E+04  0.10100000352E+00 0.  1.
       -3    1    3    3    0  502 -0.73916577432E+03 -0.52641604610E+03  0.70348389751E+02  0.91018064232E+03  0.10100000352E+00 0. -1.
</event>
<event>
 5   0  0.2927688E-07  0.1972886E+04  0.7818609E-02  0.8619403E-01
        1   -1    0    0  501    0  0.00000000000E+00  0.00000000000E+00  0.11166161420E+04  0.11166161420E+04  0.50400001928E-02 0. -1.
       -1   -1    0    0    0  501  0.00000000000E+00  0.00000000000E+00 -0.87144561726E+03  0.87144561727E+03  0.50400001928E-02 0.  1.
    10030    2    1    2    0    0  0.00000000000E+00  0.00000000000E+00  0.24517052472E+03  0.19880617593E+04  0.19728864571E+04 0.  0.
        3    1    3    3  502    0 -0.32995182455E+03  0.72720261227E+03 -0.46098790647E+03  0.92206382964E+03  0.10100000352E+00 0.  1.
       -3    1    3    3    0  502  0.32995182455E+03 -0.72720261227E+03  0.70615843118E+03  0.10659979296E+04  0.10100000352E+00 0. -1.
</event>
<event>
 5   0  0.2401125E-07  0.3697686E+04  0.7818609E-02  0.8068475E-01
        1   -1    0    0  501    0  0.00000000000E+00  0.00000000000E+00  0.12875988742E+04  0.12875988742E+04  0.50400001928E-02 0.  1.
       -1   -1    0    0    0  501  0.00000000000E+00  0.00000000000E+00 -0.26547241838E+04  0.26547241838E+04  0.50400001928E-02 0. -1.
    10030    2    1    2    0    0  0.00000000000E+00  0.00000000000E+00 -0.13671253096E+04  0.39423230580E+04  0.36976856926E+04 0.  0.
        5    1    3    3  502    0  0.16448968184E+04 -0.90638241834E+02 -0.15783093849E+04  0.22814432797E+04  0.46999998093E+01 0. -1.
       -5    1    3    3    0  502 -0.16448968184E+04  0.90638241834E+02  0.21118407536E+03  0.16608797782E+04  0.46999998093E+01 0.  1.
</event>
<event>
 5   0  0.2401125E-07  0.3985112E+04  0.7818609E-02  0.8007557E-01
       -1   -1    0    0    0  501  0.00000000000E+00  0.00000000000E+00  0.28343690330E+04  0.28343690330E+04  0.50400001928E-02 0. -1.
        1   -1    0    0  501    0  0.00000000000E+00  0.00000000000E+00 -0.14007630242E+04  0.14007630242E+04  0.50400001928E-02 0.  1.
    10030    2    1    2    0    0  0.00000000000E+00  0.00000000000E+00  0.14336060088E+04  0.42351320572E+04  0.39851119625E+04 0.  0.
        5    1    3    3  502    0  0.10809198979E+04 -0.11408694385E+04 -0.58490479750E+03  0.16769336938E+04  0.46999998093E+01 0.  1.
       -5    1    3    3    0  502 -0.10809198979E+04  0.11408694385E+04  0.20185108063E+04  0.25581983634E+04  0.46999998093E+01 0. -1.
</event>
<event>
 5   0  0.3579559E-07  0.3933327E+04  0.7818609E-02  0.8018133E-01
        1   -1    0    0  501    0  0.00000000000E+00  0.00000000000E+00  0.21723137764E+04  0.21723137764E+04  0.50400001928E-02 0.  1.
       -1   -1    0    0    0  501  0.00000000000E+00  0.00000000000E+00 -0.17804814512E+04  0.17804814512E+04  0.50400001928E-02 0. -1.
    10030    2    1    2    0    0  0.00000000000E+00  0.00000000000E+00  0.39183232516E+03  0.39527952277E+04  0.39333265235E+04 0.  0.
        4    1    3    3  502    0  0.14337426138E+04  0.94985540006E+03 -0.76270238581E+03  0.18813717617E+04  0.12699999809E+01 0. -1.
       -4    1    3    3    0  502 -0.14337426138E+04 -0.94985540006E+03  0.11545347110E+04  0.20714234659E+04  0.12699999809E+01 0.  1.
</event>
<event>
 5   0  0.2713405E-07  0.3677586E+04  0.7818609E-02  0.8072947E-01
        1   -1    0    0  501    0  0.00000000000E+00  0.00000000000E+00  0.16710636481E+04  0.16710636481E+04  0.50400001928E-02 0.  1.
       -1   -1    0    0    0  501  0.00000000000E+00  0.00000000000E+00 -0.20233578905E+04  0.20233578905E+04  0.50400001928E-02 0. -1.
    10030    2    1    2    0    0  0.00000000000E+00  0.00000000000E+00 -0.35229424238E+03  0.36944215386E+04  0.36775860659E+04 0.  0.
        1    1    3    3  502    0  0.11961342533E+03  0.10275381643E+04 -0.17033095974E+04  0.19928385873E+04  0.50400001928E-02 0. -1.
       -1    1    3    3    0  502 -0.11961342533E+03 -0.10275381643E+04  0.13510153550E+04  0.17015829513E+04  0.50400001928E-02 0.  1.
</event>
<event>
 5   0  0.2713405E-07  0.3291061E+04  0.7818609E-02  0.8165174E-01
       -1   -1    0    0    0  501  0.00000000000E+00  0.00000000000E+00  0.13450559044E+04  0.13450559044E+04  0.50400001928E-02 0. -1.
        1   -1    0    0  501    0  0.00000000000E+00  0.00000000000E+00 -0.20131289561E+04  0.20131289561E+04  0.50400001928E-02 0.  1.
    10030    2    1    2    0    0  0.00000000000E+00  0.00000000000E+00 -0.66807305165E+03  0.33581848605E+04  0.32910612202E+04 0.  0.
        1    1    3    3  502    0 -0.45487881259E+03 -0.15320763439E+04  0.65873126469E+02  0.15995349095E+04  0.50400001928E-02 0. -1.
       -1    1    3    3    0  502  0.45487881259E+03  0.15320763439E+04 -0.73394617812E+03  0.17586499510E+04  0.50400001928E-02 0.  1.
</event>
<event>
 5   0  0.7256473E-07  0.2347768E+04  0.7818609E-02  0.8459321E-01
        2   -1    0    0  501    0  0.00000000000E+00  0.00000000000E+00  0.19455111813E+04  0.19455111813E+04  0.25500000920E-02 0.  1.
       -2   -1    0    0    0  501  0.00000000000E+00  0.00000000000E+00 -0.70829922714E+03  0.70829922714E+03  0.25500000920E-02 0. -1.
    10030    2    1    2    0    0  0.00000000000E+00  0.00000000000E+00  0.12372119542E+04  0.26538104085E+04  0.23477683584E+04 0.  0.
        4    1    3    3  502    0 -0.10315184774E+04 -0.55629317720E+03  0.69451653701E+03  0.13622948658E+04  0.12699999809E+01 0.  1.
       -4    1    3    3    0  502  0.10315184774E+04  0.55629317720E+03  0.54269541719E+03  0.12915155427E+04  0.12699999809E+01 0. -1.
</event>
<event>
 5   0  0.2647879E-07  0.2348280E+04  0.7818609E-02  0.8459124E-01
        1   -1    0    0  501    0  0.00000000000E+00  0.00000000000E+00  0.59663027119E+03  0.59663027121E+03  0.50400001928E-02 0. -1.
       -1   -1    0    0    0  501  0.00000000000E+00  0.00000000000E+00 -0.23106522989E+04  0.23106522989E+04  0.50400001928E-02 0.  1.
    10030    2    1    2    0    0  0.00000000000E+00  0.00000000000E+00 -0.17140220277E+04  0.29072825701E+04  0.23482803135E+04 0.  0.
        2    1    3    3  502    0 -0.71599723597E+03  0.74905107451E+03 -0.17341643765E+03  0.10506202049E+04  0.25500000920E-02 0. -1.
       -2    1    3    3    0  502  0.71599723597E+03 -0.74905107451E+03 -0.15406055900E+04  0.18566623651E+04  0.25500000920E-02 0.  1.
</event>
<event>
 5   0  0.3579559E-07  0.4225105E+04  0.7818609E-02  0.7960614E-01
        1   -1    0    0  501    0  0.00000000000E+00  0.00000000000E+00  0.30559829258E+04  0.30559829258E+04  0.50400001928E-02 0. -1.
       -1   -1    0    0    0  501  0.00000000000E+00  0.00000000000E+00 -0.14603739742E+04  0.14603739742E+04  0.50400001928E-02 0.  1.
    10030    2    1    2    0    0  0.00000000000E+00  0.00000000000E+00  0.15956089516E+04  0.45163569000E+04  0.42251049362E+04 0.  0.
        4    1    3    3  502    0 -0.26715111714E+03 -0.40595706349E+03  0.29954201654E+04  0.30345863699E+04  0.12699999809E+01 0. -1.
       -4    1    3    3    0  502  0.26715111714E+03  0.40595706349E+03 -0.13998112137E+04  0.14817705300E+04  0.12699999809E+01 0.  1.
</event>
<event>
 5   0  0.5161550E-07  0.3773981E+04  0.7818609E-02  0.8051762E-01
        2   -1    0    0  501    0  0.00000000000E+00  0.00000000000E+00  0.30268839308E+04  0.30268839308E+04  0.25500000920E-02 0. -1.
       -2   -1    0    0    0  501  0.00000000000E+00  0.00000000000E+00 -0.11763694954E+04  0.11763694954E+04  0.25500000920E-02 0.  1.
    10030    2    1    2    0    0  0.00000000000E+00  0.00000000000E+00  0.18505144354E+04  0.42032534261E+04  0.37739814108E+04 0.  0.
        2    1    3    3  502    0  0.49704889463E+03  0.18166246343E+04  0.10549081378E+04  0.21587065212E+04  0.25500000920E-02 0. -1.
       -2    1    3    3    0  502 -0.49704889463E+03 -0.18166246343E+04  0.79560629759E+03  0.20445469049E+04  0.25500000920E-02 0.  1.
</event>
<event>
 5   0  0.2713405E-07  0.1996709E+04  0.7818609E-02  0.8608161E-01
        1   -1    0    0  501    0  0.00000000000E+00  0.00000000000E+00  0.17015198703E+04  0.17015198703E+04  0.50400001928E-02 0.  1.
       -1   -1    0    0    0  501  0.00000000000E+00  0.00000000000E+00 -0.58577752423E+03  0.58577752425E+03  0.50400001928E-02 0. -1.
    10030    2    1    2    0    0  0.00000000000E+00  0.00000000000E+00  0.11157423460E+04  0.22872973945E+04  0.19967093900E+04 0.  0.
        1    1    3    3  502    0 -0.88261750084E+03 -0.36790650891E+03  0.22915447656E+03  0.98330088286E+03  0.50400001928E-02 0.  1.
       -1    1    3    3    0  502  0.88261750084E+03  0.36790650891E+03  0.88658786947E+03  0.13039965117E+04  0.50400001928E-02 0. -1.
</event>
<event>
 5   0  0.2401125E-07  0.2316155E+04  0.7818609E-02  0.8471578E-01
       -1   -1    0    0    0  501  0.00000000000E+00  0.00000000000E+00  0.81858407643E+03  0.81858407645E+03  0.50400001928E-02 0.  1.
        1   -1    0    0  501    0  0.00000000000E+00  0.00000000000E+00 -0.16383703705E+04  0.16383703705E+04  0.50400001928E-02 0. -1.
    10030    2    1    2    0    0  0.00000000000E+00  0.00000000000E+00 -0.81978629404E+03  0.24569544469E+04  0.23161553459E+04 0.  0.
        5    1    3    3  502    0 -0.66273100147E+03  0.86336827988E+03 -0.82954875249E+03  0.13684993203E+04  0.46999998093E+01 0. -1.
       -5    1    3    3    0  502  0.66273100147E+03 -0.86336827988E+03  0.97624584540E+01  0.10884551266E+04  0.46999998093E+01 0.  1.
</event>
<event>
 5   0  0.4449262E-07  0.3381076E+04  0.7818609E-02  0.8142566E-01
       -2   -1    0    0    0  501  0.00000000000E+00  0.00000000000E+00  0.14779648032E+04  0.14779648032E+04  0.25500000920E-02 0. -1.
        2   -1    0    0  501    0  0.00000000000E+00  0.00000000000E+00 -0.19336857654E+04  0.19336857654E+04  0.25500000920E-02 0.  1.
    10030    2    1    2    0    0  0.00000000000E+00  0.00000000000E+00 -0.45572096224E+03  0.34116505686E+04  0.33810764568E+04 0.  0.
        1    1    3    3  502    0  0.15890989047E+04 -0.56270701200E+03 -0.35567473693E+03  0.17228984383E+04  0.50400001928E-02 0. -1.
       -1    1    3    3    0  502 -0.15890989047E+04  0.56270701200E+03 -0.10004622531E+03  0.16887521303E+04  0.50400001928E-02 0.  1.
</event>
<event>
 5   0  0.3579559E-07  0.2506700E+04  0.7818609E-02  0.8400603E-01
       -1   -1    0    0    0  501  0.00000000000E+00  0.00000000000E+00  0.13159598056E+04  0.13159598056E+04  0.50400001928E-02 0.  1.
        1   -1    0    0  501    0  0.00000000000E+00  0.00000000000E+00 -0.11937187807E+04  0.11937187807E+04  0.50400001928E-02 0. -1.
    10030    2    1    2    0    0  0.00000000000E+00  0.00000000000E+00  0.12224102494E+03  0.25096785863E+04  0.25066997702E+04 0.  0.
        4    1    3    3  502    0 -0.14973479373E+03  0.99725777162E+03  0.80627692171E+03  0.12911342529E+04  0.12699999809E+01 0.  1.
       -4    1    3    3    0  502  0.14973479373E+03 -0.99725777162E+03 -0.68403589677E+03  0.12185443334E+04  0.12699999809E+01 0. -1.
</event>
<event>
 5   0  0.5161550E-07  0.4060012E+04  0.7818609E-02  0.7992548E-01
        2   -1    0    0  501    0  0.00000000000E+00  0.00000000000E+00  0.14394224444E+04  0.14394224444E+04  0.25500000920E-02 0.  1.
       -2   -1    0    0    0  501  0.00000000000E+00  0.00000000000E+00 -0.28629011631E+04  0.28629011631E+04  0.25500000920E-02 0. -1.
    10030    2    1    2    0    0  0.00000000000E+00  0.00000000000E+00 -0.14234787187E+04  0.43023236074E+04  0.40600119163E+04 0.  0.
        2    1    3    3  502    0  0.50430374172E+03 -0.46982632645E+03  0.13116341787E+04  0.14817028243E+04  0.25500000920E-02 0.  1.
       -2    1    3    3    0  502 -0.50430374172E+03  0.46982632645E+03 -0.27351128973E+04  0.28206207831E+04  0.25500000920E-02 0. -1.
</event>
<event>
 5   0  0.7570277E-07  0.3953407E+04  0.7818609E-02  0.8014012E-01
       -2   -1    0    0    0  501  0.00000000000E+00  0.00000000000E+00  0.16343861742E+04  0.16343861742E+04  0.25500000920E-02 0. -1.
        2   -1    0    0  501    0  0.00000000000E+00  0.00000000000E+00 -0.23907179726E+04  0.23907179726E+04  0.25500000920E-02 0.  1.
    10030    2    1    2    0    0  0.00000000000E+00  0.00000000000E+00 -0.75633179836E+03  0.40251041468E+04  0.39534068350E+04 0.  0.
        5    1    3    3  502    0 -0.10454687756E+04 -0.12393606470E+04  0.77296437810E+03  0.17962504819E+04  0.46999998093E+01 0. -1.
       -5    1    3    3    0  502  0.10454687756E+04  0.12393606470E+04 -0.15292961765E+04  0.22288536648E+04  0.46999998093E+01 0.  1.
</event>
<event>
 5   0  0.4449262E-07  0.3931433E+04  0.7818609E-02  0.8018523E-01
        2   -1    0    0  501    0  0.00000000000E+00  0.00000000000E+00  0.25474476902E+04  0.25474476902E+04  0.25500000920E-02 0. -1.
       -2   -1    0    0    0  501  0.00000000000E+00  0.00000000000E+00 -0.15168286459E+04  0.15168286459E+04  0.25500000920E-02 0.  1.
    10030    2    1    2    0    0  0.00000000000E+00  0.00000000000E+00  0.10306190443E+04  0.40642763361E+04  0.39314331384E+04 0.  0.
        1    1    3    3  502    0 -0.14968502066E+03  0.96352935875E+03 -0.12491877991E+04  0.15846970020E+04  0.50400001928E-02 0.  1.
       -1    1    3    3    0  502  0.14968502066E+03 -0.96352935875E+03  0.22798068435E+04  0.24795793341E+04  0.50400001928E-02 0. -1.
</event>
<event>
 5   0  0.6043512E-07  0.4143075E+04  0.7818609E-02  0.7976290E-01
       -2   -1    0    0    0  501  0.00000000000E+00  0.00000000000E+00  0.15024417431E+04  0.15024417431E+04  0.25500000920E-02 0. -1.
        2   -1    0    0  501    0  0.00000000000E+00  0.00000000000E+00 -0.28561952831E+04  0.28561952831E+04  0.25500000920E-02 0.  1.
    10030    2    1    2    0    0  0.00000000000E+00  0.00000000000E+00 -0.13537535400E+04  0.43586370262E+04  0.41430747132E+04 0.  0.
        3    1    3    3  502    0  0.10620243837E+04 -0.14231431250E+04 -0.17991683952E+04  0.25278922189E+04  0.10100000352E+00 0.  1.
       -3    1    3    3    0  502 -0.10620243837E+04  0.14231431250E+04  0.44541485517E+03  0.18307448073E+04  0.10100000352E+00 0. -1.
</event>
<event>
 5   0  0.7570277E-07  0.3965176E+04  0.7818609E-02  0.8011609E-01
        2   -1    0    0  501    0  0.00000000000E+00  0.00000000000E+00  0.34774689256E+04  0.34774689256E+04  0.25500000920E-02 0.  1.
       -2   -1    0    0    0  501  0.00000000000E+00  0.00000000000E+00 -0.11303205847E+04  0.11303205847E+04  0.25500000920E-02 0. -1.
    10030    2    1    2    0    0  0.00000000000E+00  0.00000000000E+00  0.23471483409E+04  0.46077895103E+04  0.39651757637E+04 0.  0.
        5    1    3    3  502    0  0.27011442210E+03 -0.87629015257E+03  0.32162263250E+04  0.33443953259E+04  0.46999998093E+01 0.  1.
       -5    1    3    3    0  502 -0.27011442210E+03  0.87629015257E+03 -0.86907798413E+03  0.12633941843E+04  0.46999998093E+01 0. -1.
</event>
<event>
 5   0  0.4449262E-07  0.3941413E+04  0.7818609E-02  0.8016471E-01
        2   -1    0    0  501    0  0.00000000000E+00  0.00000000000E+00  0.24848714300E+04  0.24848714300E+04  0.25500000920E-02 0. -1.
       -2   -1    0    0    0  501  0.00000000000E+00  0.00000000000E+00 -0.15629318267E+04  0.15629318267E+04  0.25500000920E-02 0.  1.
    10030    2    1    2    0    0  0.00000000000E+00  0.00000000000E+00  0.92193960331E+03  0.40478032567E+04  0.39414132710E+04 0.  0.
        1    1    3    3  502    0 -0.13726088040E+04  0.41882295154E+03  0.18480631086E+04  0.23398300893E+04  0.50400001928E-02 0. -1.
       -1    1    3    3    0  502  0.13726088040E+04 -0.41882295154E+03 -0.92612350527E+03  0.17079731674E+04  0.50400001928E-02 0.  1.
</event>
<event>
 5   0  0.4449262E-07  0.2089385E+04  0.7818609E-02  0.8565934E-01
       -2   -1    0    0    0  501  0.00000000000E+00  0.00000000000E+00  0.65054198869E+03  0.65054198869E+03  0.25500000920E-02 0.  1.
        2   -1    0    0  501    0  0.00000000000E+00  0.00000000000E+00 -0.16776509026E+04  0.16776509026E+04  0.25500000920E-02 0. -1.
    10030    2    1    2    0    0  0.00000000000E+00  0.00000000000E+00 -0.10271089139E+04  0.23281928913E+04  0.20893849378E+04 0.  0.
        1    1    3    3  502    0 -0.94251884791E+03  0.44001965606E+03 -0.62172313045E+03  0.12118162927E+04  0.50400001928E-02 0.  1.
       -1    1    3    3    0  502  0.94251884791E+03 -0.44001965606E+03 -0.40538578349E+03  0.11163765986E+04  0.50400001928E-02 0. -1.
</event>
<event>
 5   0  0.2601252E-07  0.3986490E+04  0.7818609E-02  0.8007278E-01
       -1   -1    0    0    0  501  0.00000000000E+00  0.00000000000E+00  0.22343825155E+04  0.22343825155E+04  0.50400001928E-02 0. -1.
        1   -1    0    0  501    0  0.00000000000E+00  0.00000000000E+00 -0.17781312003E+04  0.17781312003E+04  0.50400001928E-02 0.  1.
    10030    2    1    2    0    0  0.00000000000E+00  0.00000000000E+00  0.45625131524E+03  0.40125137158E+04  0.39864898165E+04 0.  0.
        3    1    3    3  502    0 -0.40486264535E+03  0.47399588837E+03  0.21337464884E+04  0.22229394843E+04  0.10100000352E+00 0. -1.
       -3    1    3    3    0  502  0.40486264535E+03 -0.47399588837E+03 -0.16774951732E+04  0.17895742315E+04  0.10100000352E+00 0.  1.
</event>
<event>
 5   0  0.4449262E-07  0.3143815E+04  0.7818609E-02  0.8203815E-01
       -2   -1    0    0    0  501  0.00000000000E+00  0.00000000000E+00  0.14050625974E+04  0.14050625974E+04  0.25500000920E-02 0.  1.
        2   -1    0    0  501    0  0.00000000000E+00  0.00000000000E+00 -0.17585647157E+04  0.17585647157E+04  0.25500000920E-02 0. -1.
    10030    2    1    2    0    0  0.00000000000E+00  0.00000000000E+00 -0.35350211833E+03  0.31636273131E+04  0.31438152027E+04 0.  0.
        1    1    3    3  502    0 -0.15650923407E+04 -0.70817535908E+02 -0.30548043787E+03  0.15961978123E+04  0.50400001928E-02 0. -1.
       -1    1    3    3    0  502  0.15650923407E+04  0.70817535908E+02 -0.48021680466E+02  0.15674295008E+04  0.50400001928E-02 0.  1.
</event>
<event>
 5   0  0.2647879E-07  0.3913243E+04  0.7818609E-02  0.8022281E-01
        1   -1    0    0  501    0  0.00000000000E+00  0.00000000000E+00  0.20558251075E+04  0.20558251075E+04  0.50400001928E-02 0.  1.
       -1   -1    0    0    0  501  0.00000000000E+00  0.00000000000E+00 -0.18622045009E+04  0.18622045009E+04  0.50400001928E-02 0. -1.
    10030    2    1    2    0    0  0.00000000000E+00  0.00000000000E+00  0.19362060659E+03  0.39180296083E+04  0.39132425267E+04 0.  0.
        2    1    3    3  502    0  0.19317797072E+04  0.97666314614E+02  0.39222245942E+03  0.19736134383E+04  0.25500000920E-02 0. -1.
       -2    1    3    3    0  502 -0.19317797072E+04 -0.97666314614E+02 -0.19860185284E+03  0.19444161700E+04  0.25500000920E-02 0.  1.
</event>
<event>
 5   0  0.3579559E-07  0.2671029E+04  0.7818609E-02  0.8344467E-01
       -1   -1    0    0    0  501  0.00000000000E+00  0.00000000000E+00  0.18366793714E+04  0.18366793714E+04  0.50400001928E-02 0.  1.
        1   -1    0    0  501    0  0.00000000000E+00  0.00000000000E+00 -0.97109991465E+03  0.97109991467E+03  0.50400001928E-02 0. -1.
    10030    2    1    2    0    0  0.00000000000E+00  0.00000000000E+00  0.86557945677E+03  0.28077792861E+04  0.26710291506E+04 0.  0.
        4    1    3    3  502    0 -0.12231773311E+03 -0.88401872871E+03 -0.61163035661E+03  0.10819168390E+04  0.12699999809E+01 0. -1.
       -4    1    3    3    0  502  0.12231773311E+03  0.88401872871E+03  0.14772098134E+04  0.17258624471E+04  0.12699999809E+01 0.  1.
</event>
<event>
 5   0  0.2601252E-07  0.2306455E+04  0.7818609E-02  0.8475381E-01
        1   -1    0    0  501    0  0.00000000000E+00  0.00000000000E+00  0.14836907401E+04  0.14836907401E+04  0.50400001928E-02 0.  1.
       -1   -1    0    0    0  501  0.00000000000E+00  0.00000000000E+00 -0.89636817615E+03  0.89636817616E+03  0.50400001928E-02 0. -1.
    10030    2    1    2    0    0  0.00000000000E+00  0.00000000000E+00  0.58732256394E+03  0.23800589163E+04  0.23064545629E+04 0.  0.
        3    1    3    3  502    0  0.10397093085E+04  0.27480726112E+03 -0.13606383341E+03  0.10839870174E+04  0.10100000352E+00 0.  1.
       -3    1    3    3    0  502 -0.10397093085E+04 -0.27480726112E+03  0.72338639734E+03  0.12960718989E+04  0.10100000352E+00 0. -1.
</event>
<event>
 5   0  0.5161550E-07  0.3983016E+04  0.7818609E-02  0.8007982E-01
        2   -1    0    0  501    0  0.00000000000E+00  0.00000000000E+00  0.17175291333E+04  0.17175291333E+04  0.25500000920E-02 0. -1.
       -2   -1    0    0    0  501  0.00000000000E+00  0.00000000000E+00 -0.23091917584E+04  0.23091917585E+04  0.25500000920E-02 0.  1.
    10030    2    1    2    0    0  0.00000000000E+00  0.00000000000E+00 -0.59166262513E+03  0.40267208918E+04  0.39830160028E+04 0.  0.
        2    1    3    3  502    0  0.99418244271E+03  0.12354362716E+04  0.92212981163E+03  0.18344004198E+04  0.25500000920E-02 0. -1.
       -2    1    3    3    0  502 -0.99418244271E+03 -0.12354362716E+04 -0.15137924368E+04  0.21923204720E+04  0.25500000920E-02 0.  1.
</event>
<event>
 5   0  0.5161550E-07  0.4131441E+04  0.7818609E-02  0.7978543E-01
       -2   -1    0    0    0  501  0.00000000000E+00  0.00000000000E+00  0.16540505054E+04  0.16540505054E+04  0.25500000920E-02 0.  1.
        2   -1    0    0  501    0  0.00000000000E+00  0.00000000000E+00 -0.25798488503E+04  0.25798488503E+04  0.25500000920E-02 0. -1.
    10030    2    1    2    0    0  0.00000000000E+00  0.00000000000E+00 -0.92579834488E+03  0.42338993557E+04  0.41314405694E+04 0.  0.
        2    1    3    3  502    0  0.12732236401E+04 -0.37482597520E+03 -0.20850660412E+04  0.24716580155E+04  0.25500000920E-02 0. -1.
       -2    1    3    3    0  502 -0.12732236401E+04  0.37482597520E+03  0.11592676963E+04  0.17622413402E+04  0.25500000920E-02 0.  1.
</event>
<event>
 5   0  0.6043512E-07  0.4012773E+04  0.7818609E-02  0.8001975E-01
        2   -1    0    0  501    0  0.00000000000E+00  0.00000000000E+00  0.21906513483E+04  0.21906513483E+04  0.25500000920E-02 0.  1.
       -2   -1    0    0    0  501  0.00000000000E+00  0.00000000000E+00 -0.18376210289E+04  0.18376210289E+04  0.25500000920E-02 0. -1.
    10030    2    1    2    0    0  0.00000000000E+00  0.00000000000E+00  0.35303031941E+03  0.40282723772E+04  0.40127730983E+04 0.  0.
        3    1    3    3  502    0 -0.26809204547E+03 -0.57854288332E+02  0.21717449495E+04  0.21889944266E+04  0.10100000352E+00 0.  1.
       -3    1    3    3    0  502  0.26809204547E+03  0.57854288332E+02 -0.18187146301E+04  0.18392779506E+04  0.10100000352E+00 0. -1.
</event>
<event>
 5   0  0.2601252E-07  0.3630911E+04  0.7818609E-02  0.8083448E-01
        1   -1    0    0  501    0  0.00000000000E+00  0.00000000000E+00  0.15981222963E+04  0.15981222963E+04  0.50400001928E-02 0. -1.
       -1   -1    0    0    0  501  0.00000000000E+00  0.00000000000E+00 -0.20623445472E+04  0.20623445472E+04  0.50400001928E-02 0.  1.
    10030    2    1    2    0    0  0.00000000000E+00  0.00000000000E+00 -0.46422225088E+03  0.36604668435E+04  0.36309110722E+04 0.  0.
        3    1    3    3  502    0  0.20961235139E+03 -0.14798103329E+04  0.80686160486E+03  0.16984703762E+04  0.10100000352E+00 0. -1.
       -3    1    3    3    0  502 -0.20961235139E+03  0.14798103329E+04 -0.12710838557E+04  0.19619964673E+04  0.10100000352E+00 0.  1.
</event>
<event>
 5   0  0.2601252E-07  0.3173178E+04  0.7818609E-02  0.8195937E-01
       -1   -1    0    0    0  501  0.00000000000E+00  0.00000000000E+00  0.31795304904E+04  0.31795304904E+04  0.50400001928E-02 0. -1.
        1   -1    0    0  501    0  0.00000000000E+00  0.00000000000E+00 -0.79170978195E+03  0.79170978197E+03  0.50400001928E-02 0.  1.
    10030    2    1    2    0    0  0.00000000000E+00  0.00000000000E+00  0.23878207084E+04  0.39712402724E+04  0.31731784641E+04 0.  0.
        3    1    3    3  502    0 -0.15118984964E+04 -0.26676997725E+03  0.16949211412E+04  0.22868670641E+04  0.10100000352E+00 0.  1.
       -3    1    3    3    0  502  0.15118984964E+04  0.26676997725E+03  0.69289956728E+03  0.16843732082E+04  0.10100000352E+00 0. -1.
</event>
<event>
 5   0  0.5161550E-07  0.3652798E+04  0.7818609E-02  0.8078504E-01
        2   -1    0    0  501    0  0.00000000000E+00  0.00000000000E+00  0.16884349385E+04  0.16884349385E+04  0.25500000920E-02 0. -1.
       -2   -1    0    0    0  501  0.00000000000E+00  0.00000000000E+00 -0.19756364004E+04  0.19756364004E+04  0.25500000920E-02 0.  1.
    10030    2    1    2    0    0  0.00000000000E+00  0.00000000000E+00 -0.28720146190E+03  0.36640713390E+04  0.36527981189E+04 0.  0.
        2    1    3    3  502    0  0.11629551021E+04  0.14080528462E+04 -0.11790649912E+03  0.18300216746E+04  0.25500000920E-02 0. -1.
       -2    1    3    3    0  502 -0.11629551021E+04 -0.14080528462E+04 -0.16929496278E+03  0.18340496644E+04  0.25500000920E-02 0.  1.
</event>
<event>
 5   0  0.4449262E-07  0.4076894E+04  0.7818609E-02  0.7989212E-01
        2   -1    0    0  501    0  0.00000000000E+00  0.00000000000E+00  0.22704061892E+04  0.22704061892E+04  0.25500000920E-02 0. -1.
       -2   -1    0    0    0  501  0.00000000000E+00  0.00000000000E+00 -0.18301864299E+04  0.18301864299E+04  0.25500000920E-02 0.  1.
    10030    2    1    2    0    0  0.00000000000E+00  0.00000000000E+00  0.44021975925E+03  0.41005926191E+04  0.40768942090E+04 0.  0.
        1    1    3    3  502    0 -0.16515998919E+04 -0.11193428722E+04  0.64033739593E+03  0.20954099000E+04  0.50400001928E-02 0. -1.
       -1    1    3    3    0  502  0.16515998919E+04  0.11193428722E+04 -0.20011763667E+03  0.20051827191E+04  0.50400001928E-02 0.  1.
</event>
<event>
 5   0  0.7256473E-07  0.3864850E+04  0.7818609E-02  0.8032380E-01
       -2   -1    0    0    0  501  0.00000000000E+00  0.00000000000E+00  0.23472373018E+04  0.23472373018E+04  0.25500000920E-02 0.  1.
        2   -1    0    0  501    0  0.00000000000E+00  0.00000000000E+00 -0.15909198070E+04  0.15909198070E+04  0.25500000920E-02 0. -1.
    10030    2    1    2    0    0  0.00000000000E+00  0.00000000000E+00  0.75631749483E+03  0.39381571088E+04  0.38648499661E+04 0.  0.
        4    1    3    3  502    0 -0.34150930467E+03 -0.56287962476E+03 -0.14731130142E+04  0.16135444347E+04  0.12699999809E+01 0. -1.
       -4    1    3    3    0  502  0.34150930467E+03  0.56287962476E+03  0.22294305090E+04  0.23246126741E+04  0.12699999809E+01 0.  1.
</event>
<event>
 5   0  0.5161550E-07  0.3955161E+04  0.7818609E-02  0.8013654E-01
       -2   -1    0    0    0  501  0.00000000000E+00  0.00000000000E+00  0.19263701312E+04  0.19263701312E+04  0.25500000920E-02 0.  1.
        2   -1    0    0  501    0  0.00000000000E+00  0.00000000000E+00 -0.20301521905E+04  0.20301521905E+04  0.25500000920E-02 0. -1.
    10030    2    1    2    0    0  0.00000000000E+00  0.00000000000E+00 -0.10378205939E+03  0.39565223217E+04  0.39551609533E+04 0.  0.
        2    1    3    3  502    0  0.12462944992E+04 -0.29666973109E+03  0.14551339439E+04  0.19387309516E+04  0.25500000920E-02 0.  1.
       -2    1    3    3    0  502 -0.12462944992E+04  0.29666973109E+03 -0.15589160032E+04  0.20177913701E+04  0.25500000920E-02 0. -1.
</event>
<event>
 5   0  0.4449262E-07  0.4065288E+04  0.7818609E-02  0.7991504E-01
       -2   -1    0    0    0  501  0.00000000000E+00  0.00000000000E+00  0.17317910889E+04  0.17317910889E+04  0.25500000920E-02 0. -1.
        2   -1    0    0  501    0  0.00000000000E+00  0.00000000000E+00 -0.23857626810E+04  0.23857626810E+04  0.25500000920E-02 0.  1.
    10030    2    1    2    0    0  0.00000000000E+00  0.00000000000E+00 -0.65397159210E+03  0.41175537699E+04  0.40652884528E+04 0.  0.
        1    1    3    3  502    0 -0.31239905311E+03  0.17479484092E+04 -0.13290104756E+04  0.22179237259E+04  0.50400001928E-02 0.  1.
       -1    1    3    3    0  502  0.31239905311E+03 -0.17479484092E+04  0.67503888351E+03  0.18996300440E+04  0.50400001928E-02 0. -1.
</event>
<event>
 5   0  0.2601252E-07  0.2570987E+04  0.7818609E-02  0.8378124E-01
        1   -1    0    0  501    0  0.00000000000E+00  0.00000000000E+00  0.18099618610E+04  0.18099618610E+04  0.50400001928E-02 0. -1.
       -1   -1    0    0    0  501  0.00000000000E+00  0.00000000000E+00 -0.91299905138E+03  0.91299905140E+03  0.50400001928E-02 0.  1.
    10030    2    1    2    0    0  0.00000000000E+00  0.00000000000E+00  0.89696280965E+03  0.27229609124E+04  0.25709869406E+04 0.  0.
        3    1    3    3  502    0  0.82929470958E+03  0.40683231362E+03 -0.49837296202E+03  0.10495798522E+04  0.10100000352E+00 0.  1.
       -3    1    3    3    0  502 -0.82929470958E+03 -0.40683231362E+03  0.13953357717E+04  0.16733810602E+04  0.10100000352E+00 0. -1.
</event>
<event>
 5   0  0.6043512E-07  0.3949832E+04  0.7818609E-02  0.8014744E-01
       -2   -1    0    0    0  501  0.00000000000E+00  0.00000000000E+00  0.34166873828E+04  0.34166873828E+04  0.25500000920E-02 0. -1.
        2   -1    0    0  501    0  0.00000000000E+00  0.00000000000E+00 -0.11415424173E+04  0.11415424173E+04  0.25500000920E-02 0.  1.
    10030    2    1    2    0    0  0.00000000000E+00  0.00000000000E+00  0.22751449655E+04  0.45582298002E+04  0.39498321860E+04 0.  0.
        3    1    3    3  502    0 -0.94870238737E+03  0.16049210764E+04  0.18894534564E+04  0.26544005453E+04  0.10100000352E+00 0. -1.
       -3    1    3    3    0  502  0.94870238737E+03 -0.16049210764E+04  0.38569150912E+03  0.19038292548E+04  0.10100000352E+00 0.  1.
</event>
<event>
 5   0  0.2601252E-07  0.2290777E+04  0.7818609E-02  0.8481566E-01
       -1   -1    0    0    0  501  0.00000000000E+00  0.00000000000E+00  0.13244528658E+04  0.13244528658E+04  0.50400001928E-02 0.  1.
        1   -1    0    0  501    0  0.00000000000E+00  0.00000000000E+00 -0.99053347240E+03  0.99053347241E+03  0.50400001928E-02 0. -1.
    10030    2    1    2    0    0  0.00000000000E+00  0.00000000000E+00  0.33391939336E+03  0.23149863382E+04  0.22907770701E+04 0.  0.
        3    1    3    3  502    0 -0.81769863519E+03 -0.71788642642E+03  0.52840265206E+03  0.12096286009E+04  0.10100000352E+00 0.  1.
       -3    1    3    3    0  502  0.81769863519E+03  0.71788642642E+03 -0.19448325870E+03  0.11053577373E+04  0.10100000352E+00 0. -1.
</event>
<event>
 5   0  0.2713405E-07  0.2031263E+04  0.7818609E-02  0.8592142E-01
       -1   -1    0    0    0  501  0.00000000000E+00  0.00000000000E+00  0.11975234933E+04  0.11975234933E+04  0.50400001928E-02 0. -1.
        1   -1    0    0  501    0  0.00000000000E+00  0.00000000000E+00 -0.86136672176E+03  0.86136672178E+03  0.50400001928E-02 0.  1.
    10030    2    1    2    0    0  0.00000000000E+00  0.00000000000E+00  0.33615677155E+03  0.20588902151E+04  0.20312625490E+04 0.  0.
        1    1    3    3  502    0  0.51793415508E+03 -0.59257392833E+03  0.81876556305E+03  0.11356833611E+04  0.50400001928E-02 0. -1.
       -1    1    3    3    0  502 -0.51793415508E+03  0.59257392833E+03 -0.48260879150E+03  0.92320685395E+03  0.50400001928E-02 0.  1.
</event>
<event>
 5   0  0.2401125E-07  0.2528628E+04  0.7818609E-02  0.8392857E-01
       -1   -1    0    0    0  501  0.00000000000E+00  0.00000000000E+00  0.11902582696E+04  0.11902582696E+04  0.50400001928E-02 0.  1.
        1   -1    0    0  501    0  0.00000000000E+00  0.00000000000E+00 -0.13429775081E+04  0.13429775081E+04  0.50400001928E-02 0. -1.
    10030    2    1    2    0    0  0.00000000000E+00  0.00000000000E+00 -0.15271923846E+03  0.25332357777E+04  0.25286281537E+04 0.  0.
        5    1    3    3  502    0  0.12189288123E+04  0.24123967009E+03  0.15748372069E+03  0.12525203551E+04  0.46999998093E+01 0.  1.
       -5    1    3    3    0  502 -0.12189288123E+04 -0.24123967009E+03 -0.31020295915E+03  0.12807154226E+04  0.46999998093E+01 0. -1.
</event>
<event>
 5   0  0.4449262E-07  0.3899399E+04  0.7818609E-02  0.8025154E-01
        2   -1    0    0  501    0  0.00000000000E+00  0.00000000000E+00  0.26035484879E+04  0.26035484879E+04  0.25500000920E-02 0.  1.
       -2   -1    0    0    0  501  0.00000000000E+00  0.00000000000E+00 -0.14600564307E+04  0.14600564307E+04  0.25500000920E-02 0. -1.
    10030    2    1    2    0    0  0.00000000000E+00  0.00000000000E+00  0.11434920572E+04  0.40636049186E+04  0.38993987805E+04 0.  0.
        1    1    3    3  502    0 -0.78810645028E+03  0.15349583224E+04  0.15177844148E+04  0.22980161789E+04  0.50400001928E-02 0.  1.
       -1    1    3    3    0  502  0.78810645028E+03 -0.15349583224E+04 -0.37429235760E+03  0.17655887396E+04  0.50400001928E-02 0. -1.
</event>
<event>
 5   0  0.6020602E-07  0.2091200E+04  0.7818609E-02  0.8565130E-01
       -1   -1    0    0    0  501  0.00000000000E+00  0.00000000000E+00  0.73284954385E+03  0.73284954387E+03  0.50400001928E-02 0.  1.
        1   -1    0    0  501    0  0.00000000000E+00  0.00000000000E+00 -0.14918195484E+04  0.14918195484E+04  0.50400001928E-02 0. -1.
    10030    2    1    2    0    0  0.00000000000E+00  0.00000000000E+00 -0.75897000456E+03  0.22246690923E+04  0.20911999193E+04 0.  0.
        4    1    3    3  502    0 -0.91148638342E+03  0.68448553954E+02 -0.91961551921E+03  0.12966059339E+04  0.12699999809E+01 0. -1.
       -4    1    3    3    0  502  0.91148638342E+03 -0.68448553954E+02  0.16064551465E+03  0.92806315840E+03  0.12699999809E+01 0.  1.
</event>
<event>
 5   0  0.2601252E-07  0.2089762E+04  0.7818609E-02  0.8565767E-01
        1   -1    0    0  501    0  0.00000000000E+00  0.00000000000E+00  0.21401853778E+04  0.21401853778E+04  0.50400001928E-02 0. -1.
       -1   -1    0    0    0  501  0.00000000000E+00  0.00000000000E+00 -0.51013172421E+03  0.51013172423E+03  0.50400001928E-02 0.  1.
    10030    2    1    2    0    0  0.00000000000E+00  0.00000000000E+00  0.16300536536E+04  0.26503171020E+04  0.20897621462E+04 0.  0.
        3    1    3    3  502    0  0.35590436412E+03  0.30896809801E+03  0.19977212352E+04  0.20525640905E+04  0.10100000352E+00 0. -1.
       -3    1    3    3    0  502 -0.35590436412E+03 -0.30896809801E+03 -0.36766758161E+03  0.59775301150E+03  0.10100000352E+00 0.  1.
</event>
<event>
 5   0  0.7570277E-07  0.2315600E+04  0.7818609E-02  0.8471796E-01
       -2   -1    0    0    0  501  0.00000000000E+00  0.00000000000E+00  0.11015393045E+04  0.11015393045E+04  0.25500000920E-02 0. -1.
        2   -1    0    0  501    0  0.00000000000E+00  0.00000000000E+00 -0.12169338629E+04  0.12169338629E+04  0.25500000920E-02 0.  1.
    10030    2    1    2    0    0  0.00000000000E+00  0.00000000000E+00 -0.11539455834E+03  0.23184731674E+04  0.23155996899E+04 0.  0.
        5    1    3    3  502    0 -0.24295560797E+03  0.10560534800E+04  0.35048742664E+03  0.11389205005E+04  0.46999998093E+01 0. -1.
       -5    1    3    3    0  502  0.24295560797E+03 -0.10560534800E+04 -0.46588198497E+03  0.11795526669E+04  0.46999998093E+01 0.  1.
</event>
<event>
 5   0  0.2601252E-07  0.1988168E+04  0.7818609E-02  0.8612173E-01
        1   -1    0    0  501    0  0.00000000000E+00  0.00000000000E+00  0.12958287038E+04  0.12958287038E+04  0.50400001928E-02 0.  1.
       -1   -1    0    0    0  501  0.00000000000E+00  0.00000000000E+00 -0.76260283220E+03  0.76260283221E+03  0.50400001928E-02 0. -1.
    10030    2    1    2    0    0  0.00000000000E+00  0.00000000000E+00  0.53322587157E+03  0.20584315360E+04  0.19881676384E+04 0.  0.
        3    1    3    3  502    0  0.89174682056E+03 -0.32164951704E+03  0.57640632525E+03  0.11094661175E+04  0.10100000352E+00 0.  1.
       -3    1    3    3    0  502 -0.89174682056E+03  0.32164951704E+03 -0.43180453680E+02  0.94896541853E+03  0.10100000352E+00 0. -1.
</event>
<event>
 5   0  0.5161550E-07  0.4074510E+04  0.7818609E-02  0.7989682E-01
        2   -1    0    0  501    0  0.00000000000E+00  0.00000000000E+00  0.26442430298E+04  0.26442430298E+04  0.25500000920E-02 0. -1.
       -2   -1    0    0    0  501  0.00000000000E+00  0.00000000000E+00 -0.15696011645E+04  0.15696011645E+04  0.25500000920E-02 0.  1.
    10030    2    1    2    0    0  0.00000000000E+00  0.00000000000E+00  0.10746418654E+04  0.42138441943E+04  0.40745095110E+04 0.  0.
        2    1    3    3  502    0  0.50838515712E+03 -0.19113773107E+04  0.32162437466E+02  0.19780933027E+04  0.25500000920E-02 0.  1.
       -2    1    3    3    0  502 -0.50838515712E+03  0.19113773107E+04  0.10424794279E+04  0.22357508916E+04  0.25500000920E-02 0. -1.
</event>
<event>
 5   0  0.4449262E-07  0.4195423E+04  0.7818609E-02  0.7966243E-01
        2   -1    0    0  501    0  0.00000000000E+00  0.00000000000E+00  0.15969866666E+04  0.15969866666E+04  0.25500000920E-02 0.  1.
       -2   -1    0    0    0  501  0.00000000000E+00  0.00000000000E+00 -0.27554355805E+04  0.27554355805E+04  0.25500000920E-02 0. -1.
    10030    2    1    2    0    0  0.00000000000E+00  0.00000000000E+00 -0.11584489139E+04  0.43524222471E+04  0.41954231647E+04 0.  0.
        1    1    3    3  502    0  0.15171536281E+04  0.82125259329E+03 -0.18172743234E+04  0.25057328109E+04  0.50400001928E-02 0. -1.
       -1    1    3    3    0  502 -0.15171536281E+04 -0.82125259329E+03  0.65882540946E+03  0.18466894361E+04  0.50400001928E-02 0.  1.
</event>
<event>
 5   0  0.2647879E-07  0.2830834E+04  0.7818609E-02  0.8293759E-01
       -1   -1    0    0    0  501  0.00000000000E+00  0.00000000000E+00  0.18147722779E+04  0.18147722779E+04  0.50400001928E-02 0. -1.
        1   -1    0    0  501    0  0.00000000000E+00  0.00000000000E+00 -0.11039430591E+04  0.11039430591E+04  0.50400001928E-02 0.  1.
    10030    2    1    2    0    0  0.00000000000E+00  0.00000000000E+00  0.71082921887E+03  0.29187153370E+04  0.28308339831E+04 0.  0.
        2    1    3    3  502    0  0.46032112373E+03 -0.10151905278E+04 -0.54395982223E+03  0.12403223907E+04  0.25500000920E-02 0.  1.
       -2    1    3    3    0  502 -0.46032112373E+03  0.10151905278E+04  0.12547890411E+04  0.16783929463E+04  0.25500000920E-02 0. -1.
</event>
<event>
 5   0  0.5161550E-07  0.3972102E+04  0.7818609E-02  0.8010198E-01
       -2   -1    0    0    0  501  0.00000000000E+00  0.00000000000E+00  0.12425320688E+04  0.12425320688E+04  0.25500000920E-02 0. -1.
        2   -1    0    0  501    0  0.00000000000E+00  0.00000000000E+00 -0.31744835267E+04  0.31744835267E+04  0.25500000920E-02 0.  1.
    10030    2    1    2    0    0  0.00000000000E+00  0.00000000000E+00 -0.19319514579E+04  0.44170155956E+04  0.39721015012E+04 0.  0.
        2    1    3    3  502    0  0.19571368978E+03 -0.19086407538E+04 -0.39549824429E+03  0.19589875540E+04  0.25500000920E-02 0.  1.
       -2    1    3    3    0  502 -0.19571368978E+03  0.19086407538E+04 -0.15364532136E+04  0.24580280416E+04  0.25500000920E-02 0. -1.
</event>
<event>
 5   0  0.2601252E-07  0.2379607E+04  0.7818609E-02  0.8447178E-01
        1   -1    0    0  501    0  0.00000000000E+00  0.00000000000E+00  0.18303093800E+04  0.18303093800E+04  0.50400001928E-02 0. -1.
       -1   -1    0    0    0  501  0.00000000000E+00  0.00000000000E+00 -0.77343861574E+03  0.77343861575E+03  0.50400001928E-02 0.  1.
    10030    2    1    2    0    0  0.00000000000E+00  0.00000000000E+00  0.10568707643E+04  0.26037479958E+04  0.23796066509E+04 0.  0.
        3    1    3    3  502    0 -0.10475530346E+04 -0.56288826095E+03  0.56968787127E+03  0.13186185330E+04  0.10100000352E+00 0.  1.
       -3    1    3    3    0  502  0.10475530346E+04  0.56288826095E+03  0.48718289301E+03  0.12851294628E+04  0.10100000352E+00 0. -1.
</event>
<event>
 5   0  0.5161550E-07  0.2383866E+04  0.7818609E-02  0.8445569E-01
        2   -1    0    0  501    0  0.00000000000E+00  0.00000000000E+00  0.15576317654E+04  0.15576317654E+04  0.25500000920E-02 0. -1.
       -2   -1    0    0    0  501  0.00000000000E+00  0.00000000000E+00 -0.91209283834E+03  0.91209283834E+03  0.25500000920E-02 0.  1.
    10030    2    1    2    0    0  0.00000000000E+00  0.00000000000E+00  0.64553892703E+03  0.24697246037E+04  0.23838664207E+04 0.  0.
        2    1    3    3  502    0  0.65556115157E+03 -0.96486077038E+03  0.69023595866E+02  0.11685379696E+04  0.25500000920E-02 0.  1.
       -2    1    3    3    0  502 -0.65556115157E+03  0.96486077038E+03  0.57651533117E+03  0.13011866341E+04  0.25500000920E-02 0. -1.
</event>
<event>
 5   0  0.7570277E-07  0.3907008E+04  0.7818609E-02  0.8023573E-01
       -2   -1    0    0    0  501  0.00000000000E+00  0.00000000000E+00  0.18804663711E+04  0.18804663711E+04  0.25500000920E-02 0.  1.
        2   -1    0    0  501    0  0.00000000000E+00  0.00000000000E+00 -0.20293781083E+04  0.20293781083E+04  0.25500000920E-02 0. -1.
    10030    2    1    2    0    0  0.00000000000E+00  0.00000000000E+00 -0.14891173717E+03  0.39098444794E+04  0.39070076975E+04 0.  0.
        5    1    3    3  502    0 -0.92352887769E+03  0.56718098804E+03  0.15520104437E+04  0.18929760612E+04  0.46999998093E+01 0.  1.
       -5    1    3    3    0  502  0.92352887769E+03 -0.56718098804E+03 -0.17009221808E+04  0.20168684182E+04  0.46999998093E+01 0. -1.
</event>
<event>
 5   0  0.7570277E-07  0.3445013E+04  0.7818609E-02  0.8126946E-01
       -2   -1    0    0    0  501  0.00000000000E+00  0.00000000000E+00  0.25320375363E+04  0.25320375363E+04  0.25500000920E-02 0. -1.
        2   -1    0    0  501    0  0.00000000000E+00  0.00000000000E+00 -0.11717946367E+04  0.11717946367E+04  0.25500000920E-02 0.  1.
    10030    2    1    2    0    0  0.00000000000E+00  0.00000000000E+00  0.13602428996E+04  0.37038321730E+04  0.34450126298E+04 0.  0.
        5    1    3    3  502    0 -0.62162613790E+03 -0.15205413509E+03 -0.10392331296E+04  0.12204782272E+04  0.46999998093E+01 0.  1.
       -5    1    3    3    0  502  0.62162613790E+03  0.15205413509E+03  0.23994760292E+04  0.24833539458E+04  0.46999998093E+01 0. -1.
</event>
<event>
 5   0  0.7570277E-07  0.3991275E+04  0.7818609E-02  0.8006309E-01
        2   -1    0    0  501    0  0.00000000000E+00  0.00000000000E+00  0.34458836457E+04  0.34458836457E+04  0.25500000920E-02 0. -1.
       -2   -1    0    0    0  501  0.00000000000E+00  0.00000000000E+00 -0.11557466560E+04  0.11557466560E+04  0.25500000920E-02 0.  1.
    10030    2    1    2    0    0  0.00000000000E+00  0.00000000000E+00  0.22901369897E+04  0.46016303017E+04  0.39912747340E+04 0.  0.
        5    1    3    3  502    0  0.51543835528E+03  0.77449414012E+03  0.31805656074E+04  0.33138403016E+04  0.46999998093E+01 0. -1.
       -5    1    3    3    0  502 -0.51543835528E+03 -0.77449414012E+03 -0.89042861772E+03  0.12877900001E+04  0.46999998093E+01 0.  1.
</event>
<event>
 5   0  0.5161550E-07  0.3895741E+04  0.7818609E-02  0.8025916E-01
        2   -1    0    0  501    0  0.00000000000E+00  0.00000000000E+00  0.28964690421E+04  0.28964690421E+04  0.25500000920E-02 0. -1.
       -2   -1    0    0    0  501  0.00000000000E+00  0.00000000000E+00 -0.13099397727E+04  0.13099397727E+04  0.25500000920E-02 0.  1.
    10030    2    1    2    0    0  0.00000000000E+00  0.00000000000E+00  0.15865292695E+04  0.42064088148E+04  0.38957412638E+04 0.  0.
        2    1    3    3  502    0 -0.68948218627E+03 -0.14317531121E+03 -0.11676895535E+04  0.13635922221E+04  0.25500000920E-02 0.  1.
       -2    1    3    3    0  502  0.68948218627E+03  0.14317531121E+03  0.27542188230E+04  0.28428165927E+04  0.25500000920E-02 0. -1.
</event>
<event>
 5   0  0.2401125E-07  0.2207305E+04  0.7818609E-02  0.8515394E-01
        1   -1    0    0  501    0  0.00000000000E+00  0.00000000000E+00  0.10441034442E+04  0.10441034442E+04  0.50400001928E-02 0. -1.
       -1   -1    0    0    0  501  0.00000000000E+00  0.00000000000E+00 -0.11665975724E+04  0.11665975724E+04  0.50400001928E-02 0.  1.
    10030    2    1    2    0    0  0.00000000000E+00  0.00000000000E+00 -0.12249412818E+03  0.22107010167E+04  0.22073047306E+04 0.  0.
        5    1    3    3  502    0 -0.47002229033E+03 -0.91961879353E+03  0.32846187783E+03  0.10837568796E+04  0.46999998093E+01 0. -1.
       -5    1    3    3    0  502  0.47002229033E+03  0.91961879353E+03 -0.45095600601E+03  0.11269441371E+04  0.46999998093E+01 0.  1.
</event>
<event>
 5   0  0.6043512E-07  0.3589055E+04  0.7818609E-02  0.8093003E-01
        2   -1    0    0  501    0  0.00000000000E+00  0.00000000000E+00  0.32324632887E+04  0.32324632887E+04  0.25500000920E-02 0. -1.
       -2   -1    0    0    0  501  0.00000000000E+00  0.00000000000E+00 -0.99624582452E+03  0.99624582452E+03  0.25500000920E-02 0.  1.
    10030    2    1    2    0    0  0.00000000000E+00  0.00000000000E+00  0.22362174642E+04  0.42287091133E+04  0.35890545018E+04 0.  0.
        3    1    3    3  502    0  0.78676670728E+03  0.13648388587E+04  0.21306554903E+04  0.26498075006E+04  0.10100000352E+00 0. -1.
       -3    1    3    3    0  502 -0.78676670728E+03 -0.13648388587E+04  0.10556197393E+03  0.15789016126E+04  0.10100000352E+00 0.  1.
</event>
<event>
 5   0  0.7193681E-07  0.2020887E+04  0.7818609E-02  0.8596917E-01
        2   -1    0    0  501    0  0.00000000000E+00  0.00000000000E+00  0.92040615540E+03  0.92040615540E+03  0.25500000920E-02 0.  1.
       -2   -1    0    0    0  501  0.00000000000E+00  0.00000000000E+00 -0.11092885344E+04  0.11092885344E+04  0.25500000920E-02 0. -1.
    10030    2    1    2    0    0  0.00000000000E+00  0.00000000000E+00 -0.18888237897E+03  0.20296946898E+04  0.20208869292E+04 0.  0.
        3    1    3    3  502    0 -0.47676329783E+03 -0.26563096090E+03  0.75963727557E+03  0.93536722745E+03  0.10100000352E+00 0.  1.
       -3    1    3    3    0  502  0.47676329783E+03  0.26563096090E+03 -0.94851965454E+03  0.10943274623E+04  0.10100000352E+00 0. -1.
</event>
<event>
 5   0  0.5161550E-07  0.4365096E+04  0.7818609E-02  0.7934690E-01
        2   -1    0    0  501    0  0.00000000000E+00  0.00000000000E+00  0.16036709786E+04  0.16036709786E+04  0.25500000920E-02 0.  1.
       -2   -1    0    0    0  501  0.00000000000E+00  0.00000000000E+00 -0.29703828099E+04  0.29703828099E+04  0.25500000920E-02 0. -1.
    10030    2    1    2    0    0  0.00000000000E+00  0.00000000000E+00 -0.13667118313E+04  0.45740537886E+04  0.43650964286E+04 0.  0.
        2    1    3    3  502    0  0.11041240742E+04  0.14117692274E+04  0.62179320360E+03  0.18970527432E+04  0.25500000920E-02 0.  1.
       -2    1    3    3    0  502 -0.11041240742E+04 -0.14117692274E+04 -0.19885050349E+04  0.26770010453E+04  0.25500000920E-02 0. -1.
</event>
<event>
 5   0  0.2647879E-07  0.3195998E+04  0.7818609E-02  0.8189875E-01
       -1   -1    0    0    0  501  0.00000000000E+00  0.00000000000E+00  0.97563919342E+03  0.97563919344E+03  0.50400001928E-02 0.  1.
        1   -1    0    0  501    0  0.00000000000E+00  0.00000000000E+00 -0.26173613458E+04  0.26173613458E+04  0.50400001928E-02 0. -1.
    10030    2    1    2    0    0  0.00000000000E+00  0.00000000000E+00 -0.16417221524E+04  0.35930005392E+04  0.31959976923E+04 0.  0.
        2    1    3    3  502    0  0.14392442842E+04  0.69300051102E+03 -0.87020511543E+03  0.18190466626E+04  0.25500000920E-02 0. -1.
       -2    1    3    3    0  502 -0.14392442842E+04 -0.69300051102E+03 -0.77151703695E+03  0.17739538766E+04  0.25500000920E-02 0.  1.
</event>
<event>
 5   0  0.6043512E-07  0.3558757E+04  0.7818609E-02  0.8100005E-01
        2   -1    0    0  501    0  0.00000000000E+00  0.00000000000E+00  0.19297066340E+04  0.19297066340E+04  0.25500000920E-02 0.  1.
       -2   -1    0    0    0  501  0.00000000000E+00  0.00000000000E+00 -0.16407608053E+04  0.16407608053E+04  0.25500000920E-02 0. -1.
    10030    2    1    2    0    0  0.00000000000E+00  0.00000000000E+00  0.28894582868E+03  0.35704674393E+04  0.35587565305E+04 0.  0.
        3    1    3    3  502    0 -0.17053277121E+04 -0.15672558270E+03 -0.34031638455E+03  0.17460013647E+04  0.10100000352E+00 0.  1.
       -3    1    3    3    0  502  0.17053277121E+04  0.15672558270E+03  0.62926221324E+03  0.18244660745E+04  0.10100000352E+00 0. -1.
</event>
<event>
 5   0  0.2401125E-07  0.3248280E+04  0.7818609E-02  0.8176182E-01
       -1   -1    0    0    0  501  0.00000000000E+00  0.00000000000E+00  0.12239834148E+04  0.12239834148E+04  0.50400001928E-02 0. -1.
        1   -1    0    0  501    0  0.00000000000E+00  0.00000000000E+00 -0.21551194466E+04  0.21551194466E+04  0.50400001928E-02 0.  1.
    10030    2    1    2    0    0  0.00000000000E+00  0.00000000000E+00 -0.93113603182E+03  0.33791028615E+04  0.32482798276E+04 0.  0.
        5    1    3    3  502    0  0.47314094131E+03 -0.14737564661E+04 -0.97730263787E+03  0.18305635765E+04  0.46999998093E+01 0. -1.
       -5    1    3    3    0  502 -0.47314094131E+03  0.14737564661E+04  0.46166606046E+02  0.15485392850E+04  0.46999998093E+01 0.  1.
</event>
<event>
 5   0  0.5161550E-07  0.3972819E+04  0.7818609E-02  0.8010052E-01
        2   -1    0    0  501    0  0.00000000000E+00  0.00000000000E+00  0.27122750128E+04  0.27122750128E+04  0.25500000920E-02 0.  1.
       -2   -1    0    0    0  501  0.00000000000E+00  0.00000000000E+00 -0.14548017541E+04  0.14548017541E+04  0.25500000920E-02 0. -1.
    10030    2    1    2    0    0  0.00000000000E+00  0.00000000000E+00  0.12574732587E+04  0.41670767668E+04  0.39728188713E+04 0.  0.
        2    1    3    3  502    0  0.14348164574E+04 -0.11128674997E+04  0.14735056583E+04  0.23384591644E+04  0.25500000920E-02 0. -1.
       -2    1    3    3    0  502 -0.14348164574E+04  0.11128674997E+04 -0.21603239956E+03  0.18286176025E+04  0.25500000920E-02 0.  1.
</event>
<event>
 5   0  0.7570277E-07  0.3962019E+04  0.7818609E-02  0.8012253E-01
       -2   -1    0    0    0  501  0.00000000000E+00  0.00000000000E+00  0.17299735763E+04  0.17299735763E+04  0.25500000920E-02 0. -1.
        2   -1    0    0  501    0  0.00000000000E+00  0.00000000000E+00 -0.22684727973E+04  0.22684727973E+04  0.25500000920E-02 0.  1.
    10030    2    1    2    0    0  0.00000000000E+00  0.00000000000E+00 -0.53849922097E+03  0.39984463737E+04  0.39620186764E+04 0.  0.
        5    1    3    3  502    0 -0.79679867473E+03 -0.16461260799E+04 -0.10376678216E+04  0.21027115344E+04  0.46999998093E+01 0.  1.
       -5    1    3    3    0  502  0.79679867473E+03  0.16461260799E+04  0.49916860067E+03  0.18957348392E+04  0.46999998093E+01 0. -1.
</event>
<event>
 5   0  0.4449262E-07  0.3894299E+04  0.7818609E-02  0.8026216E-01
        2   -1    0    0  501    0  0.00000000000E+00  0.00000000000E+00  0.14931483349E+04  0.14931483349E+04  0.25500000920E-02 0.  1.
       -2   -1    0    0    0  501  0.00000000000E+00  0.00000000000E+00 -0.25391925271E+04  0.25391925271E+04  0.25500000920E-02 0. -1.
    10030    2    1    2    0    0  0.00000000000E+00  0.00000000000E+00 -0.10460441923E+04  0.40323408620E+04  0.38942989581E+04 0.  0.
        1    1    3    3  502    0  0.16414819766E+04  0.53839409367E+03 -0.14532316805E+04  0.22574794787E+04  0.50400001928E-02 0. -1.
       -1    1    3    3    0  502 -0.16414819766E+04 -0.53839409367E+03  0.40718748819E+03  0.17748613833E+04  0.50400001928E-02 0.  1.
</event>
<event>
 5   0  0.6043512E-07  0.2912344E+04  0.7818609E-02  0.8269214E-01
        2   -1    0    0  501    0  0.00000000000E+00  0.00000000000E+00  0.11613505273E+04  0.11613505273E+04  0.25500000920E-02 0. -1.
       -2   -1    0    0    0  501  0.00000000000E+00  0.00000000000E+00 -0.18258376410E+04  0.18258376410E+04  0.25500000920E-02 0.  1.
    10030    2    1    2    0    0  0.00000000000E+00  0.00000000000E+00 -0.66448711378E+03  0.29871881683E+04  0.29123444213E+04 0.  0.
        3    1    3    3  502    0 -0.10757777373E+04  0.25830896297E+03 -0.13033675923E+04  0.17096164339E+04  0.10100000352E+00 0.  1.
       -3    1    3    3    0  502  0.10757777373E+04 -0.25830896297E+03  0.63888047848E+03  0.12775717344E+04  0.10100000352E+00 0. -1.
</event>
<event>
 5   0  0.2601252E-07  0.3869851E+04  0.7818609E-02  0.8031329E-01
       -1   -1    0    0    0  501  0.00000000000E+00  0.00000000000E+00  0.17362303186E+04  0.17362303186E+04  0.50400001928E-02 0. -1.
        1   -1    0    0  501    0  0.00000000000E+00  0.00000000000E+00 -0.21563591065E+04  0.21563591065E+04  0.50400001928E-02 0.  1.
    10030    2    1    2    0    0  0.00000000000E+00  0.00000000000E+00 -0.42012878783E+03  0.38925894251E+04  0.38698506734E+04 0.  0.
        3    1    3    3  502    0 -0.12787501703E+04  0.46597527356E+03 -0.15935007026E+04  0.20956095660E+04  0.10100000352E+00 0.  1.
       -3    1    3    3    0  502  0.12787501703E+04 -0.46597527356E+03  0.11733719147E+04  0.17969798592E+04  0.10100000352E+00 0. -1.
</event>
<event>
 5   0  0.2713405E-07  0.4030100E+04  0.7818609E-02  0.7998502E-01
       -1   -1    0    0    0  501  0.00000000000E+00  0.00000000000E+00  0.22396299982E+04  0.22396299982E+04  0.50400001928E-02 0.  1.
        1   -1    0    0  501    0  0.00000000000E+00  0.00000000000E+00 -0.18129901158E+04  0.18129901158E+04  0.50400001928E-02 0. -1.
    10030    2    1    2    0    0  0.00000000000E+00  0.00000000000E+00  0.42663988233E+03  0.40526201140E+04  0.40301002716E+04 0.  0.
        1    1    3    3  502    0  0.16825217263E+04  0.65946417687E+03 -0.68309537679E+03  0.19319398681E+04  0.50400001928E-02 0. -1.
       -1    1    3    3    0  502 -0.16825217263E+04 -0.65946417687E+03  0.11097352591E+04  0.21206802459E+04  0.50400001928E-02 0.  1.
</event>
<event>
 5   0  0.4449262E-07  0.2677180E+04  0.7818609E-02  0.8342447E-01
        2   -1    0    0  501    0  0.00000000000E+00  0.00000000000E+00  0.16583829420E+04  0.16583829420E+04  0.25500000920E-02 0.  1.
       -2   -1    0    0    0  501  0.00000000000E+00  0.00000000000E+00 -0.10804639923E+04  0.10804639923E+04  0.25500000920E-02 0. -1.
    10030    2    1    2    0    0  0.00000000000E+00  0.00000000000E+00  0.57791894963E+03  0.27388469343E+04  0.26771799000E+04 0.  0.
        1    1    3    3  502    0  0.34336795402E+03 -0.57872783980E+03  0.14727634096E+04  0.16192157129E+04  0.50400001928E-02 0.  1.
       -1    1    3    3    0  502 -0.34336795402E+03  0.57872783980E+03 -0.89484445993E+03  0.11196312214E+04  0.50400001928E-02 0. -1.
</event>
<event>
 5   0  0.7256473E-07  0.4011509E+04  0.7818609E-02  0.8002229E-01
       -2   -1    0    0    0  501  0.00000000000E+00  0.00000000000E+00  0.22910865001E+04  0.22910865001E+04  0.25500000920E-02 0. -1.
        2   -1    0    0  501    0  0.00000000000E+00  0.00000000000E+00 -0.17559577694E+04  0.17559577694E+04  0.25500000920E-02 0.  1.
    10030    2    1    2    0    0  0.00000000000E+00  0.00000000000E+00  0.53512873071E+03  0.40470442695E+04  0.40115090130E+04 0.  0.
        4    1    3    3  502    0 -0.93352648731E+03  0.36512467383E+03  0.20202686009E+04  0.22552770478E+04  0.12699999809E+01 0. -1.
       -4    1    3    3    0  502  0.93352648731E+03 -0.36512467383E+03 -0.14851398702E+04  0.17917672217E+04  0.12699999809E+01 0.  1.
</event>
<event>
 5   0  0.7256473E-07  0.4082828E+04  0.7818609E-02  0.7988043E-01
        2   -1    0    0  501    0  0.00000000000E+00  0.00000000000E+00  0.27639760168E+04  0.27639760168E+04  0.25500000920E-02 0. -1.
       -2   -1    0    0    0  501  0.00000000000E+00  0.00000000000E+00 -0.15077447166E+04  0.15077447166E+04  0.25500000920E-02 0.  1.
    10030    2    1    2    0    0  0.00000000000E+00  0.00000000000E+00  0.12562313002E+04  0.42717207334E+04  0.40828275673E+04 0.  0.
        4    1    3    3  502    0 -0.17506319505E+04 -0.53574068454E+02  0.17253412970E+04  0.24585334268E+04  0.12699999809E+01 0. -1.
       -4    1    3    3    0  502  0.17506319505E+04  0.53574068454E+02 -0.46910999679E+03  0.18131873066E+04  0.12699999809E+01 0.  1.
</event>
<event>
 5   0  0.6189509E-07  0.2036177E+04  0.7818609E-02  0.8589891E-01
       -2   -1    0    0    0  501  0.00000000000E+00  0.00000000000E+00  0.80630108721E+03  0.80630108721E+03  0.25500000920E-02 0. -1.
        2   -1    0    0  501    0  0.00000000000E+00  0.00000000000E+00 -0.12855054041E+04  0.12855054041E+04  0.25500000920E-02 0.  1.
    10030    2    1    2    0    0  0.00000000000E+00  0.00000000000E+00 -0.47920431686E+03  0.20918064913E+04  0.20361772073E+04 0.  0.
        2    1    3    3  502    0  0.17568055953E+03 -0.70111797788E+03 -0.97618041148E+03  0.12146432701E+04  0.25500000920E-02 0.  1.
       -2    1    3    3    0  502 -0.17568055953E+03  0.70111797788E+03  0.49697609462E+03  0.87716322115E+03  0.25500000920E-02 0. -1.
</event>
<event>
 5   0  0.3579559E-07  0.2944777E+04  0.7818609E-02  0.8259678E-01
        1   -1    0    0  501    0  0.00000000000E+00  0.00000000000E+00  0.99827978344E+03  0.99827978345E+03  0.50400001928E-02 0.  1.
       -1   -1    0    0    0  501  0.00000000000E+00  0.00000000000E+00 -0.21716629292E+04  0.21716629292E+04  0.50400001928E-02 0. -1.
    10030    2    1    2    0    0  0.00000000000E+00  0.00000000000E+00 -0.11733831457E+04  0.31699427126E+04  0.29447765271E+04 0.  0.
        4    1    3    3  502    0  0.11464145016E+04  0.89982850283E+03 -0.81241032112E+03  0.16685232053E+04  0.12699999809E+01 0. -1.
       -4    1    3    3    0  502 -0.11464145016E+04 -0.89982850283E+03 -0.36097282460E+03  0.15014195073E+04  0.12699999809E+01 0.  1.
</event>
<event>
 5   0  0.7256473E-07  0.4013719E+04  0.7818609E-02  0.8001785E-01
        2   -1    0    0  501    0  0.00000000000E+00  0.00000000000E+00  0.17027914530E+04  0.17027914530E+04  0.25500000920E-02 0.  1.
       -2   -1    0    0    0  501  0.00000000000E+00  0.00000000000E+00 -0.23652250311E+04  0.23652250311E+04  0.25500000920E-02 0. -1.
    10030    2    1    2    0    0  0.00000000000E+00  0.00000000000E+00 -0.66243357809E+03  0.40680164841E+04  0.40137189575E+04 0.  0.
        4    1    3    3  502    0 -0.54398132076E+03  0.18519861876E+03  0.16176236276E+04  0.17166601351E+04  0.12699999809E+01 0.  1.
       -4    1    3    3    0  502  0.54398132076E+03 -0.18519861876E+03 -0.22800572057E+04  0.23513563490E+04  0.12699999809E+01 0. -1.
</event>
<event>
 5   0  0.7256473E-07  0.4030881E+04  0.7818609E-02  0.7998346E-01
       -2   -1    0    0    0  501  0.00000000000E+00  0.00000000000E+00  0.20347990658E+04  0.20347990658E+04  0.25500000920E-02 0. -1.
        2   -1    0    0  501    0  0.00000000000E+00  0.00000000000E+00 -0.19962661489E+04  0.19962661489E+04  0.25500000920E-02 0.  1.
    10030    2    1    2    0    0  0.00000000000E+00  0.00000000000E+00  0.38532916899E+02  0.40310652147E+04  0.40308810426E+04 0.  0.
        4    1    3    3  502    0  0.62352063463E+03  0.31404011283E+03 -0.18714811091E+04  0.19974589680E+04  0.12699999809E+01 0.  1.
       -4    1    3    3    0  502 -0.62352063463E+03 -0.31404011283E+03  0.19100140260E+04  0.20336062467E+04  0.12699999809E+01 0. -1.
</event>
<event>
 5   0  0.4449262E-07  0.4082444E+04  0.7818609E-02  0.7988118E-01
        2   -1    0    0  501    0  0.00000000000E+00  0.00000000000E+00  0.26902344523E+04  0.26902344523E+04  0.25500000920E-02 0. -1.
       -2   -1    0    0    0  501  0.00000000000E+00  0.00000000000E+00 -0.15487820634E+04  0.15487820634E+04  0.25500000920E-02 0.  1.
    10030    2    1    2    0    0  0.00000000000E+00  0.00000000000E+00  0.11414523889E+04  0.42390165157E+04  0.40824438103E+04 0.  0.
        1    1    3    3  502    0 -0.14464833717E+04 -0.12059906338E+04  0.13882331528E+04  0.23396407502E+04  0.50400001928E-02 0.  1.
       -1    1    3    3    0  502  0.14464833717E+04  0.12059906338E+04 -0.24678076392E+03  0.18993757656E+04  0.50400001928E-02 0. -1.
</event>
<event>
 5   0  0.2601252E-07  0.2046415E+04  0.7818609E-02  0.8585222E-01
       -1   -1    0    0    0  501  0.00000000000E+00  0.00000000000E+00  0.40731760803E+03  0.40731760806E+03  0.50400001928E-02 0.  1.
        1   -1    0    0  501    0  0.00000000000E+00  0.00000000000E+00 -0.25703614574E+04  0.25703614574E+04  0.50400001928E-02 0. -1.
    10030    2    1    2    0    0  0.00000000000E+00  0.00000000000E+00 -0.21630438493E+04  0.29776790654E+04  0.20464148950E+04 0.  0.
        3    1    3    3  502    0  0.35027738033E+03  0.73897232276E+03 -0.19763363580E+04  0.21388500993E+04  0.10100000352E+00 0. -1.
       -3    1    3    3    0  502 -0.35027738033E+03 -0.73897232276E+03 -0.18670749136E+03  0.83882896618E+03  0.10100000352E+00 0.  1.
</event>
<event>
 5   0  0.6043512E-07  0.3963388E+04  0.7818609E-02  0.8011973E-01
        2   -1    0    0  501    0  0.00000000000E+00  0.00000000000E+00  0.18100805568E+04  0.18100805568E+04  0.25500000920E-02 0.  1.
       -2   -1    0    0    0  501  0.00000000000E+00  0.00000000000E+00 -0.21695778931E+04  0.21695778931E+04  0.25500000920E-02 0. -1.
    10030    2    1    2    0    0  0.00000000000E+00  0.00000000000E+00 -0.35949733637E+03  0.39796584499E+04  0.39633878239E+04 0.  0.
        3    1    3    3  502    0  0.14838878897E+04  0.38104617835E+03  0.10823885589E+04  0.18758156791E+04  0.10100000352E+00 0.  1.
       -3    1    3    3    0  502 -0.14838878897E+04 -0.38104617835E+03 -0.14418858953E+04  0.21038427708E+04  0.10100000352E+00 0. -1.
</event>
<event>
 5   0  0.7256473E-07  0.4067469E+04  0.7818609E-02  0.7991073E-01
        2   -1    0    0  501    0  0.00000000000E+00  0.00000000000E+00  0.29770434949E+04  0.29770434949E+04  0.25500000920E-02 0.  1.
       -2   -1    0    0    0  501  0.00000000000E+00  0.00000000000E+00 -0.13893232833E+04  0.13893232833E+04  0.25500000920E-02 0. -1.
    10030    2    1    2    0    0  0.00000000000E+00  0.00000000000E+00  0.15877202116E+04  0.43663667782E+04  0.40674689146E+04 0.  0.
        4    1    3    3  502    0  0.19694349494E+04 -0.14784885781E+03  0.27287037866E+03  0.19937384886E+04  0.12699999809E+01 0. -1.
       -4    1    3    3    0  502 -0.19694349494E+04  0.14784885781E+03  0.13148498329E+04  0.23726282896E+04  0.12699999809E+01 0.  1.
</event>
<event>
 5   0  0.2401125E-07  0.4075299E+04  0.7818609E-02  0.7989526E-01
        3   -1    0    0  501    0  0.00000000000E+00  0.00000000000E+00  0.24948066743E+04  0.24948066764E+04  0.10100000352E+00 0. -1.
       -3   -1    0    0    0  501  0.00000000000E+00  0.00000000000E+00 -0.16642637878E+04  0.16642637909E+04  0.10100000352E+00 0.  1.
    10030    2    1    2    0    0  0.00000000000E+00  0.00000000000E+00  0.83054288651E+03  0.41590704673E+04  0.40752994572E+04 0.  0.
        1    1    3    3  502    0  0.17068328247E+04 -0.51862892901E+03 -0.58973620958E+03  0.18788408805E+04  0.50400001928E-02 0.  1.
       -1    1    3    3    0  502 -0.17068328247E+04  0.51862892901E+03  0.14202790961E+04  0.22802295868E+04  0.50400001928E-02 0. -1.
</event>
<event>
 5   0  0.7256473E-07  0.3973998E+04  0.7818609E-02  0.8009813E-01
        2   -1    0    0  501    0  0.00000000000E+00  0.00000000000E+00  0.20425468774E+04  0.20425468774E+04  0.25500000920E-02 0. -1.
       -2   -1    0    0    0  501  0.00000000000E+00  0.00000000000E+00 -0.19329618393E+04  0.19329618393E+04  0.25500000920E-02 0.  1.
    10030    2    1    2    0    0  0.00000000000E+00  0.00000000000E+00  0.10958503804E+03  0.39755087167E+04  0.39739980720E+04 0.  0.
        4    1    3    3  502    0  0.52224358269E+03  0.45300353511E+02  0.19721256513E+04  0.20406057138E+04  0.12699999809E+01 0. -1.
       -4    1    3    3    0  502 -0.52224358269E+03 -0.45300353511E+02 -0.18625406133E+04  0.19349030029E+04  0.12699999809E+01 0.  1.
</event>
<event>
 5   0  0.4449262E-07  0.2525686E+04  0.7818609E-02  0.8393892E-01
       -2   -1    0    0    0  501  0.00000000000E+00  0.00000000000E+00  0.78787876893E+03  0.78787876893E+03  0.25500000920E-02 0. -1.
        2   -1    0    0  501    0  0.00000000000E+00  0.00000000000E+00 -0.20241341424E+04  0.20241341424E+04  0.25500000920E-02 0.  1.
    10030    2    1    2    0    0  0.00000000000E+00  0.00000000000E+00 -0.12362553735E+04  0.28120129114E+04  0.25256859000E+04 0.  0.
        1    1    3    3  502    0 -0.12036295889E+04 -0.65242666344E+02 -0.19888730764E+03  0.12216942965E+04  0.50400001928E-02 0. -1.
       -1    1    3    3    0  502  0.12036295889E+04  0.65242666344E+02 -0.10373680659E+04  0.15903186149E+04  0.50400001928E-02 0.  1.
</event>
<event>
 5   0  0.2713405E-07  0.4030306E+04  0.7818609E-02  0.7998461E-01
       -1   -1    0    0    0  501  0.00000000000E+00  0.00000000000E+00  0.22982443965E+04  0.22982443965E+04  0.50400001928E-02 0. -1.
        1   -1    0    0  501    0  0.00000000000E+00  0.00000000000E+00 -0.17669324451E+04  0.17669324451E+04  0.50400001928E-02 0.  1.
    10030    2    1    2    0    0  0.00000000000E+00  0.00000000000E+00  0.53131195145E+03  0.40651768416E+04  0.40303064851E+04 0.  0.
        1    1    3    3  502    0  0.89108466754E+02 -0.17230379041E+04  0.13158379380E+04  0.21698454823E+04  0.50400001928E-02 0. -1.
       -1    1    3    3    0  502 -0.89108466754E+02  0.17230379041E+04 -0.78452598660E+03  0.18953313593E+04  0.50400001928E-02 0.  1.
</event>
<event>
 5   0  0.5161550E-07  0.3595189E+04  0.7818609E-02  0.8091595E-01
       -2   -1    0    0    0  501  0.00000000000E+00  0.00000000000E+00  0.15411702265E+04  0.15411702265E+04  0.25500000920E-02 0. -1.
        2   -1    0    0  501    0  0.00000000000E+00  0.00000000000E+00 -0.20966832031E+04  0.20966832031E+04  0.25500000920E-02 0.  1.
    10030    2    1    2    0    0  0.00000000000E+00  0.00000000000E+00 -0.55551297660E+03  0.36378534296E+04  0.35951888557E+04 0.  0.
        2    1    3    3  502    0 -0.10538837154E+04  0.92007625909E+03 -0.14199274886E+04  0.19933402321E+04  0.25500000920E-02 0.  1.
       -2    1    3    3    0  502  0.10538837154E+04 -0.92007625909E+03  0.86441451197E+03  0.16445131975E+04  0.25500000920E-02 0. -1.
</event>
<event>
 5   0  0.2647879E-07  0.3879123E+04  0.7818609E-02  0.8029385E-01
        1   -1    0    0  501    0  0.00000000000E+00  0.00000000000E+00  0.17192067240E+04  0.17192067240E+04  0.50400001928E-02 0.  1.
       -1   -1    0    0    0  501  0.00000000000E+00  0.00000000000E+00 -0.21881591098E+04  0.21881591098E+04  0.50400001928E-02 0. -1.
    10030    2    1    2    0    0  0.00000000000E+00  0.00000000000E+00 -0.46895238584E+03  0.39073658338E+04  0.38791225063E+04 0.  0.
        2    1    3    3  502    0  0.18617254979E+04  0.20321229652E+02  0.31304657643E+03  0.18879705879E+04  0.25500000920E-02 0. -1.
       -2    1    3    3    0  502 -0.18617254979E+04 -0.20321229652E+02 -0.78199896228E+03  0.20193952458E+04  0.25500000920E-02 0.  1.
</event>
<event>
 5   0  0.7570277E-07  0.3676500E+04  0.7818609E-02  0.8073190E-01
       -2   -1    0    0    0  501  0.00000000000E+00  0.00000000000E+00  0.11796376477E+04  0.11796376477E+04  0.25500000920E-02 0. -1.
        2   -1    0    0  501    0  0.00000000000E+00  0.00000000000E+00 -0.28645770939E+04  0.28645770939E+04  0.25500000920E-02 0.  1.
    10030    2    1    2    0    0  0.00000000000E+00  0.00000000000E+00 -0.16849394462E+04  0.40442147416E+04  0.36764999577E+04 0.  0.
        5    1    3    3  502    0 -0.56539511423E+03  0.32831977120E+03 -0.27323484634E+04  0.28094867365E+04  0.46999998093E+01 0.  1.
       -5    1    3    3    0  502  0.56539511423E+03 -0.32831977120E+03  0.10474090172E+04  0.12347280051E+04  0.46999998093E+01 0. -1.
</event>
<event>
 5   0  0.6043512E-07  0.2136907E+04  0.7818609E-02  0.8545157E-01
        2   -1    0    0  501    0  0.00000000000E+00  0.00000000000E+00  0.77623123239E+03  0.77623123240E+03  0.25500000920E-02 0. -1.
       -2   -1    0    0    0  501  0.00000000000E+00  0.00000000000E+00 -0.14706872282E+04  0.14706872282E+04  0.25500000920E-02 0.  1.
    10030    2    1    2    0    0  0.00000000000E+00  0.00000000000E+00 -0.69445599583E+03  0.22469184606E+04  0.21369074473E+04 0.  0.
        3    1    3    3  502    0 -0.90269636549E+03 -0.36978860495E+03  0.11108886678E+03  0.98180705189E+03  0.10100000352E+00 0.  1.
       -3    1    3    3    0  502  0.90269636549E+03  0.36978860495E+03 -0.80554486261E+03  0.12651114087E+04  0.10100000352E+00 0. -1.
</event>
<event>
 5   0  0.3579559E-07  0.2154241E+04  0.7818609E-02  0.8537719E-01
       -1   -1    0    0    0  501  0.00000000000E+00  0.00000000000E+00  0.14718429368E+04  0.14718429368E+04  0.50400001928E-02 0. -1.
        1   -1    0    0  501    0  0.00000000000E+00  0.00000000000E+00 -0.78825584885E+03  0.78825584887E+03  0.50400001928E-02 0.  1.
    10030    2    1    2    0    0  0.00000000000E+00  0.00000000000E+00  0.68358708798E+03  0.22600987857E+04  0.21542412154E+04 0.  0.
        4    1    3    3  502    0  0.36228918685E+03  0.85554899340E+03 -0.22993401762E+03  0.95712527935E+03  0.12699999809E+01 0. -1.
       -4    1    3    3    0  502 -0.36228918685E+03 -0.85554899340E+03  0.91352110560E+03  0.13029735064E+04  0.12699999809E+01 0.  1.
</event>
<event>
 5   0  0.7256473E-07  0.3897901E+04  0.7818609E-02  0.8025466E-01
        2   -1    0    0  501    0  0.00000000000E+00  0.00000000000E+00  0.21142729568E+04  0.21142729568E+04  0.25500000920E-02 0.  1.
       -2   -1    0    0    0  501  0.00000000000E+00  0.00000000000E+00 -0.17965551318E+04  0.17965551318E+04  0.25500000920E-02 0. -1.
    10030    2    1    2    0    0  0.00000000000E+00  0.00000000000E+00  0.31771782496E+03  0.39108280886E+04  0.38979009380E+04 0.  0.
        4    1    3    3  502    0  0.34065697053E+02  0.19283433185E+04 -0.12267441917E+03  0.19325421216E+04  0.12699999809E+01 0. -1.
       -4    1    3    3    0  502 -0.34065697053E+02 -0.19283433185E+04  0.44039224413E+03  0.19782859670E+04  0.12699999809E+01 0.  1.
</event>
<event>
 5   0  0.2401125E-07  0.4009399E+04  0.7818609E-02  0.8002653E-01
        1   -1    0    0  501    0  0.00000000000E+00  0.00000000000E+00  0.34913561165E+04  0.34913561165E+04  0.50400001928E-02 0. -1.
       -1   -1    0    0    0  501  0.00000000000E+00  0.00000000000E+00 -0.11510773643E+04  0.11510773643E+04  0.50400001928E-02 0.  1.
    10030    2    1    2    0    0  0.00000000000E+00  0.00000000000E+00  0.23402787523E+04  0.46424334808E+04  0.40093994545E+04 0.  0.
        5    1    3    3  502    0  0.68436590834E+03 -0.18842373894E+04  0.11590532201E+04  0.23156281422E+04  0.46999998093E+01 0.  1.
       -5    1    3    3    0  502 -0.68436590834E+03  0.18842373894E+04  0.11812255322E+04  0.23268053386E+04  0.46999998093E+01 0. -1.
</event>
<event>
 5   0  0.4449262E-07  0.2714232E+04  0.7818609E-02  0.8330402E-01
       -2   -1    0    0    0  501  0.00000000000E+00  0.00000000000E+00  0.14202852032E+04  0.14202852032E+04  0.25500000920E-02 0.  1.
        2   -1    0    0  501    0  0.00000000000E+00  0.00000000000E+00 -0.12967559225E+04  0.12967559225E+04  0.25500000920E-02 0. -1.
    10030    2    1    2    0    0  0.00000000000E+00  0.00000000000E+00  0.12352928069E+03  0.27170411258E+04  0.27142315664E+04 0.  0.
        1    1    3    3  502    0  0.79360050441E+03 -0.10988025660E+04 -0.60875944556E+01  0.13554356859E+04  0.50400001928E-02 0. -1.
       -1    1    3    3    0  502 -0.79360050441E+03  0.10988025660E+04  0.12961687514E+03  0.13616054399E+04  0.50400001928E-02 0.  1.
</event>
<event>
 5   0  0.4449262E-07  0.2282454E+04  0.7818609E-02  0.8484871E-01
        2   -1    0    0  501    0  0.00000000000E+00  0.00000000000E+00  0.16294512670E+04  0.16294512670E+04  0.25500000920E-02 0. -1.
       -2   -1    0    0    0  501  0.00000000000E+00  0.00000000000E+00 -0.79928716227E+03  0.79928716227E+03  0.25500000920E-02 0.  1.
    10030    2    1    2    0    0  0.00000000000E+00  0.00000000000E+00  0.83016410477E+03  0.24287384293E+04  0.22824543626E+04 0.  0.
        1    1    3    3  502    0  0.58535257435E+03  0.68328728942E+02 -0.62484165573E+03  0.85891416699E+03  0.50400001928E-02 0.  1.
       -1    1    3    3    0  502 -0.58535257435E+03 -0.68328728942E+02  0.14550057605E+04  0.15698242623E+04  0.50400001928E-02 0. -1.
</event>
<event>
 5   0  0.2601252E-07  0.3820731E+04  0.7818609E-02  0.8041721E-01
       -1   -1    0    0    0  501  0.00000000000E+00  0.00000000000E+00  0.20616635602E+04  0.20616635602E+04  0.50400001928E-02 0.  1.
        1   -1    0    0  501    0  0.00000000000E+00  0.00000000000E+00 -0.17701709266E+04  0.17701709266E+04  0.50400001928E-02 0. -1.
    10030    2    1    2    0    0  0.00000000000E+00  0.00000000000E+00  0.29149263360E+03  0.38318344869E+04  0.38207312886E+04 0.  0.
        3    1    3    3  502    0 -0.43217382881E+03  0.12999220160E+04  0.14811282007E+04  0.20175014803E+04  0.10100000352E+00 0.  1.
       -3    1    3    3    0  502  0.43217382881E+03 -0.12999220160E+04 -0.11896355671E+04  0.18143330066E+04  0.10100000352E+00 0. -1.
</event>
<event>
 5   0  0.5161550E-07  0.4067608E+04  0.7818609E-02  0.7991045E-01
       -2   -1    0    0    0  501  0.00000000000E+00  0.00000000000E+00  0.20018043993E+04  0.20018043993E+04  0.25500000920E-02 0. -1.
        2   -1    0    0  501    0  0.00000000000E+00  0.00000000000E+00 -0.20663153667E+04  0.20663153667E+04  0.25500000920E-02 0.  1.
    10030    2    1    2    0    0  0.00000000000E+00  0.00000000000E+00 -0.64510967422E+02  0.40681197660E+04  0.40676082365E+04 0.  0.
        2    1    3    3  502    0  0.19758633786E+04  0.40624904684E+03  0.22717029861E+03  0.20299459903E+04  0.25500000920E-02 0. -1.
       -2    1    3    3    0  502 -0.19758633786E+04 -0.40624904684E+03 -0.29168126603E+03  0.20381737757E+04  0.25500000920E-02 0.  1.
</event>
<event>
 5   0  0.5161550E-07  0.3633934E+04  0.7818609E-02  0.8082763E-01
        2   -1    0    0  501    0  0.00000000000E+00  0.00000000000E+00  0.18717812969E+04  0.18717812969E+04  0.25500000920E-02 0.  1.
       -2   -1    0    0    0  501  0.00000000000E+00  0.00000000000E+00 -0.17637576003E+04  0.17637576003E+04  0.25500000920E-02 0. -1.
    10030    2    1    2    0    0  0.00000000000E+00  0.00000000000E+00  0.10802369657E+03  0.36355388972E+04  0.36339336749E+04 0.  0.
        2    1    3    3  502    0 -0.17852035049E+04  0.17494636747E+03 -0.23561681583E+03  0.18091636381E+04  0.25500000920E-02 0.  1.
       -2    1    3    3    0  502  0.17852035049E+04 -0.17494636747E+03  0.34364051240E+03  0.18263752591E+04  0.25500000920E-02 0. -1.
</event>
<event>
 5   0  0.7256473E-07  0.4004274E+04  0.7818609E-02  0.8003685E-01
        2   -1    0    0  501    0  0.00000000000E+00  0.00000000000E+00  0.27623611385E+04  0.27623611385E+04  0.25500000920E-02 0.  1.
       -2   -1    0    0    0  501  0.00000000000E+00  0.00000000000E+00 -0.14511326653E+04  0.14511326653E+04  0.25500000920E-02 0. -1.
    10030    2    1    2    0    0  0.00000000000E+00  0.00000000000E+00  0.13112284732E+04  0.42134938038E+04  0.40042739574E+04 0.  0.
        4    1    3    3  502    0 -0.55663696237E+03  0.19210360514E+04  0.55959600006E+03  0.20768662728E+04  0.12699999809E+01 0. -1.
       -4    1    3    3    0  502  0.55663696237E+03 -0.19210360514E+04  0.75163247317E+03  0.21366275310E+04  0.12699999809E+01 0.  1.
</event>
<event>
 5   0  0.7570277E-07  0.4000825E+04  0.7818609E-02  0.8004380E-01
       -2   -1    0    0    0  501  0.00000000000E+00  0.00000000000E+00  0.14159341659E+04  0.14159341659E+04  0.25500000920E-02 0. -1.
        2   -1    0    0  501    0  0.00000000000E+00  0.00000000000E+00 -0.28261548641E+04  0.28261548641E+04  0.25500000920E-02 0.  1.
    10030    2    1    2    0    0  0.00000000000E+00  0.00000000000E+00 -0.14102206981E+04  0.42420890300E+04  0.40008245301E+04 0.  0.
        5    1    3    3  502    0 -0.12858069081E+04 -0.11221115557E+04  0.40146954114E+03  0.17531781515E+04  0.46999998093E+01 0. -1.
       -5    1    3    3    0  502  0.12858069081E+04  0.11221115557E+04 -0.18116902393E+04  0.24889108786E+04  0.46999998093E+01 0.  1.
</event>
<event>
 5   0  0.2601252E-07  0.2339011E+04  0.7818609E-02  0.8462696E-01
       -1   -1    0    0    0  501  0.00000000000E+00  0.00000000000E+00  0.92052999074E+03  0.92052999076E+03  0.50400001928E-02 0. -1.
        1   -1    0    0  501    0  0.00000000000E+00  0.00000000000E+00 -0.14858214561E+04  0.14858214561E+04  0.50400001928E-02 0.  1.
    10030    2    1    2    0    0  0.00000000000E+00  0.00000000000E+00 -0.56529146538E+03  0.24063514469E+04  0.23390110827E+04 0.  0.
        3    1    3    3  502    0 -0.54894252222E+03 -0.15721049557E+03  0.76737061165E+03  0.95650964367E+03  0.10100000352E+00 0. -1.
       -3    1    3    3    0  502  0.54894252222E+03  0.15721049557E+03 -0.13326620770E+04  0.14498418032E+04  0.10100000352E+00 0.  1.
</event>
<event>
 5   0  0.3579559E-07  0.3970892E+04  0.7818609E-02  0.8010444E-01
       -1   -1    0    0    0  501  0.00000000000E+00  0.00000000000E+00  0.22192748826E+04  0.22192748826E+04  0.50400001928E-02 0.  1.
        1   -1    0    0  501    0  0.00000000000E+00  0.00000000000E+00 -0.17762542732E+04  0.17762542732E+04  0.50400001928E-02 0. -1.
    10030    2    1    2    0    0  0.00000000000E+00  0.00000000000E+00  0.44302060937E+03  0.39955291557E+04  0.39708923398E+04 0.  0.
        4    1    3    3  502    0 -0.10583716347E+04  0.15352721200E+04 -0.46447011661E+03  0.19217036977E+04  0.12699999809E+01 0. -1.
       -4    1    3    3    0  502  0.10583716347E+04 -0.15352721200E+04  0.90749072598E+03  0.20738254580E+04  0.12699999809E+01 0.  1.
</event>
<event>
 5   0  0.7570277E-07  0.2999267E+04  0.7818609E-02  0.8243940E-01
        2   -1    0    0  501    0  0.00000000000E+00  0.00000000000E+00  0.20833560325E+04  0.20833560325E+04  0.25500000920E-02 0. -1.
       -2   -1    0    0    0  501  0.00000000000E+00  0.00000000000E+00 -0.10794603146E+04  0.10794603146E+04  0.25500000920E-02 0.  1.
    10030    2    1    2    0    0  0.00000000000E+00  0.00000000000E+00  0.10038957179E+04  0.31628163471E+04  0.29992666825E+04 0.  0.
        5    1    3    3  502    0  0.68721912109E+03 -0.10070689745E+04  0.14227282031E+04  0.18736690395E+04  0.46999998093E+01 0. -1.
       -5    1    3    3    0  502 -0.68721912109E+03  0.10070689745E+04 -0.41883248521E+03  0.12891473075E+04  0.46999998093E+01 0.  1.
</event>
<event>
 5   0  0.3579559E-07  0.3975175E+04  0.7818609E-02  0.8009573E-01
       -1   -1    0    0    0  501  0.00000000000E+00  0.00000000000E+00  0.28517323137E+04  0.28517323137E+04  0.50400001928E-02 0.  1.
        1   -1    0    0  501    0  0.00000000000E+00  0.00000000000E+00 -0.13852997183E+04  0.13852997183E+04  0.50400001928E-02 0. -1.
    10030    2    1    2    0    0  0.00000000000E+00  0.00000000000E+00  0.14664325954E+04  0.42370320320E+04  0.39751749500E+04 0.  0.
        4    1    3    3  502    0 -0.48769128965E+03 -0.10300729612E+04 -0.10024261530E+04  0.15178118805E+04  0.12699999809E+01 0. -1.
       -4    1    3    3    0  502  0.48769128965E+03  0.10300729612E+04  0.24688587484E+04  0.27192201515E+04  0.12699999809E+01 0.  1.
</event>
<event>
 5   0  0.5161550E-07  0.3288952E+04  0.7818609E-02  0.8165712E-01
       -2   -1    0    0    0  501  0.00000000000E+00  0.00000000000E+00  0.15771650797E+04  0.15771650797E+04  0.25500000920E-02 0. -1.
        2   -1    0    0  501    0  0.00000000000E+00  0.00000000000E+00 -0.17146594204E+04  0.17146594204E+04  0.25500000920E-02 0.  1.
    10030    2    1    2    0    0  0.00000000000E+00  0.00000000000E+00 -0.13749434065E+03  0.32918245001E+04  0.32889517853E+04 0.  0.
        2    1    3    3  502    0  0.36273277054E+03 -0.15793801403E+04 -0.34878481923E+03  0.16576089830E+04  0.25500000920E-02 0.  1.
       -2    1    3    3    0  502 -0.36273277054E+03  0.15793801403E+04  0.21129047858E+03  0.16342155172E+04  0.25500000920E-02 0. -1.
</event>
<event>
 5   0  0.2647879E-07  0.2217896E+04  0.7818609E-02  0.8511016E-01
        1   -1    0    0  501    0  0.00000000000E+00  0.00000000000E+00  0.96113265287E+03  0.96113265288E+03  0.50400001928E-02 0. -1.
       -1   -1    0    0    0  501  0.00000000000E+00  0.00000000000E+00 -0.12794964715E+04  0.12794964715E+04  0.50400001928E-02 0.  1.
    10030    2    1    2    0    0  0.00000000000E+00  0.00000000000E+00 -0.31836381867E+03  0.22406291244E+04  0.22178961545E+04 0.  0.
        2    1    3    3  502    0  0.16869750308E+03 -0.62424916533E+03  0.75095165558E+03  0.99099659787E+03  0.25500000920E-02 0. -1.
       -2    1    3    3    0  502 -0.16869750308E+03  0.62424916533E+03 -0.10693154743E+04  0.12496325266E+04  0.25500000920E-02 0.  1.
</event>
<event>
 5   0  0.5161550E-07  0.4054649E+04  0.7818609E-02  0.7993612E-01
        2   -1    0    0  501    0  0.00000000000E+00  0.00000000000E+00  0.21835882770E+04  0.21835882770E+04  0.25500000920E-02 0. -1.
       -2   -1    0    0    0  501  0.00000000000E+00  0.00000000000E+00 -0.18822436393E+04  0.18822436393E+04  0.25500000920E-02 0.  1.
    10030    2    1    2    0    0  0.00000000000E+00  0.00000000000E+00  0.30134463777E+03  0.40658319163E+04  0.40546492550E+04 0.  0.
        2    1    3    3  502    0  0.17598345752E+04  0.95322608645E+03  0.47465385121E+03  0.20569282881E+04  0.25500000920E-02 0.  1.
       -2    1    3    3    0  502 -0.17598345752E+04 -0.95322608645E+03 -0.17330921345E+03  0.20089036282E+04  0.25500000920E-02 0. -1.
</event>
<event>
 5   0  0.2647879E-07  0.4009970E+04  0.7818609E-02  0.8002538E-01
        1   -1    0    0  501    0  0.00000000000E+00  0.00000000000E+00  0.13093555638E+04  0.13093555638E+04  0.50400001928E-02 0. -1.
       -1   -1    0    0    0  501  0.00000000000E+00  0.00000000000E+00 -0.30701861146E+04  0.30701861146E+04  0.50400001928E-02 0.  1.
    10030    2    1    2    0    0  0.00000000000E+00  0.00000000000E+00 -0.17608305509E+04  0.43795416784E+04  0.40099702099E+04 0.  0.
        2    1    3    3  502    0 -0.19665723018E+04 -0.32601021056E+03 -0.11153598403E+04  0.22842322231E+04  0.25500000920E-02 0. -1.
       -2    1    3    3    0  502  0.19665723018E+04  0.32601021056E+03 -0.64547071057E+03  0.20953094554E+04  0.25500000920E-02 0.  1.
</event>
<event>
 5   0  0.2601252E-07  0.3870236E+04  0.7818609E-02  0.8031248E-01
        1   -1    0    0  501    0  0.00000000000E+00  0.00000000000E+00  0.14508359044E+04  0.14508359044E+04  0.50400001928E-02 0.  1.
       -1   -1    0    0    0  501  0.00000000000E+00  0.00000000000E+00 -0.25810514239E+04  0.25810514239E+04  0.50400001928E-02 0. -1.
    10030    2    1    2    0    0  0.00000000000E+00  0.00000000000E+00 -0.11302155195E+04  0.40318873282E+04  0.38702362082E+04 0.  0.
        3    1    3    3  502    0  0.73195513779E+03 -0.25179022761E+03 -0.24127484386E+04  0.25338728620E+04  0.10100000352E+00 0. -1.
       -3    1    3    3    0  502 -0.73195513779E+03  0.25179022761E+03  0.12825329191E+04  0.14980144663E+04  0.10100000352E+00 0.  1.
</event>
<event>
 5   0  0.5161550E-07  0.4035102E+04  0.7818609E-02  0.7997503E-01
        2   -1    0    0  501    0  0.00000000000E+00  0.00000000000E+00  0.29151816220E+04  0.29151816220E+04  0.25500000920E-02 0.  1.
       -2   -1    0    0    0  501  0.00000000000E+00  0.00000000000E+00 -0.13963150327E+04  0.13963150327E+04  0.25500000920E-02 0. -1.
    10030    2    1    2    0    0  0.00000000000E+00  0.00000000000E+00  0.15188665893E+04  0.43114966547E+04  0.40351019426E+04 0.  0.
        2    1    3    3  502    0  0.64971575063E+03  0.18411527668E+04  0.13027281749E+04  0.23471418289E+04  0.25500000920E-02 0. -1.
       -2    1    3    3    0  502 -0.64971575063E+03 -0.18411527668E+04  0.21613841440E+03  0.19643548258E+04  0.25500000920E-02 0.  1.
</event>
<event>
 5   0  0.4449262E-07  0.2341929E+04  0.7818609E-02  0.8461570E-01
        2   -1    0    0  501    0  0.00000000000E+00  0.00000000000E+00  0.19535308372E+04  0.19535308373E+04  0.25500000920E-02 0.  1.
       -2   -1    0    0    0  501  0.00000000000E+00  0.00000000000E+00 -0.70188690561E+03  0.70188690562E+03  0.25500000920E-02 0. -1.
    10030    2    1    2    0    0  0.00000000000E+00  0.00000000000E+00  0.12516439316E+04  0.26554177429E+04  0.23419288754E+04 0.  0.
        1    1    3    3  502    0 -0.57970129846E+03  0.67903493471E+03 -0.23323314902E+03  0.92278910907E+03  0.50400001928E-02 0. -1.
       -1    1    3    3    0  502  0.57970129846E+03 -0.67903493471E+03  0.14848770807E+04  0.17326286338E+04  0.50400001928E-02 0.  1.
</event>
<event>
 5   0  0.6043512E-07  0.3929795E+04  0.7818609E-02  0.8018861E-01
        2   -1    0    0  501    0  0.00000000000E+00  0.00000000000E+00  0.30184603506E+04  0.30184603506E+04  0.25500000920E-02 0.  1.
       -2   -1    0    0    0  501  0.00000000000E+00  0.00000000000E+00 -0.12790702272E+04  0.12790702272E+04  0.25500000920E-02 0. -1.
    10030    2    1    2    0    0  0.00000000000E+00  0.00000000000E+00  0.17393901233E+04  0.42975305778E+04  0.39297952957E+04 0.  0.
        3    1    3    3  502    0  0.16028760009E+04 -0.31364805360E+03 -0.32487672575E+03  0.16652721919E+04  0.10100000352E+00 0. -1.
       -3    1    3    3    0  502 -0.16028760009E+04  0.31364805360E+03  0.20642668491E+04  0.26322583859E+04  0.10100000352E+00 0.  1.
</event>
<event>
 5   0  0.2647879E-07  0.3844033E+04  0.7818609E-02  0.8036771E-01
        1   -1    0    0  501    0  0.00000000000E+00  0.00000000000E+00  0.26807711435E+04  0.26807711435E+04  0.50400001928E-02 0.  1.
       -1   -1    0    0    0  501  0.00000000000E+00  0.00000000000E+00 -0.13780163580E+04  0.13780163580E+04  0.50400001928E-02 0. -1.
    10030    2    1    2    0    0  0.00000000000E+00  0.00000000000E+00  0.13027547855E+04  0.40587875015E+04  0.38440325117E+04 0.  0.
        2    1    3    3  502    0 -0.13561484242E+04  0.19916157979E+02 -0.78654587520E+03  0.15678614784E+04  0.25500000920E-02 0.  1.
       -2    1    3    3    0  502  0.13561484242E+04 -0.19916157979E+02  0.20893006607E+04  0.24909260231E+04  0.25500000920E-02 0. -1.
</event>
<event>
 5   0  0.3579559E-07  0.2133237E+04  0.7818609E-02  0.8546742E-01
       -1   -1    0    0    0  501  0.00000000000E+00  0.00000000000E+00  0.10016085191E+04  0.10016085191E+04  0.50400001928E-02 0. -1.
        1   -1    0    0  501    0  0.00000000000E+00  0.00000000000E+00 -0.11358479147E+04  0.11358479147E+04  0.50400001928E-02 0.  1.
    10030    2    1    2    0    0  0.00000000000E+00  0.00000000000E+00 -0.13423939561E+03  0.21374564338E+04  0.21332369280E+04 0.  0.
        4    1    3    3  502    0 -0.46971937788E+03  0.70296744997E+03 -0.71869343409E+03  0.11096492215E+04  0.12699999809E+01 0.  1.
       -4    1    3    3    0  502  0.46971937788E+03 -0.70296744997E+03  0.58445403848E+03  0.10278072123E+04  0.12699999809E+01 0. -1.
</event>
<event>
 5   0  0.2601252E-07  0.4048224E+04  0.7818609E-02  0.7994888E-01
        1   -1    0    0  501    0  0.00000000000E+00  0.00000000000E+00  0.29058936080E+04  0.29058936080E+04  0.50400001928E-02 0. -1.
       -1   -1    0    0    0  501  0.00000000000E+00  0.00000000000E+00 -0.14099036850E+04  0.14099036850E+04  0.50400001928E-02 0.  1.
    10030    2    1    2    0    0  0.00000000000E+00  0.00000000000E+00  0.14959899230E+04  0.43157972931E+04  0.40482243546E+04 0.  0.
        3    1    3    3  502    0 -0.86712174182E+03  0.11464698344E+04 -0.77123422470E+03  0.16312864359E+04  0.10100000352E+00 0.  1.
       -3    1    3    3    0  502  0.86712174182E+03 -0.11464698344E+04  0.22672241477E+04  0.26845108572E+04  0.10100000352E+00 0. -1.
</event>
<event>
 5   0  0.4449262E-07  0.4006288E+04  0.7818609E-02  0.8003279E-01
        2   -1    0    0  501    0  0.00000000000E+00  0.00000000000E+00  0.22503477689E+04  0.22503477689E+04  0.25500000920E-02 0. -1.
       -2   -1    0    0    0  501  0.00000000000E+00  0.00000000000E+00 -0.17830955448E+04  0.17830955448E+04  0.25500000920E-02 0.  1.
    10030    2    1    2    0    0  0.00000000000E+00  0.00000000000E+00  0.46725222419E+03  0.40334433137E+04  0.40062875987E+04 0.  0.
        1    1    3    3  502    0  0.12635286232E+04  0.75107735985E+03  0.16037190347E+04  0.21754393865E+04  0.50400001928E-02 0. -1.
       -1    1    3    3    0  502 -0.12635286232E+04 -0.75107735985E+03 -0.11364668105E+04  0.18580039272E+04  0.50400001928E-02 0.  1.
</event>
<event>
 5   0  0.5161550E-07  0.3730468E+04  0.7818609E-02  0.8061243E-01
       -2   -1    0    0    0  501  0.00000000000E+00  0.00000000000E+00  0.16886758038E+04  0.16886758038E+04  0.25500000920E-02 0.  1.
        2   -1    0    0  501    0  0.00000000000E+00  0.00000000000E+00 -0.20602518106E+04  0.20602518106E+04  0.25500000920E-02 0. -1.
    10030    2    1    2    0    0  0.00000000000E+00  0.00000000000E+00 -0.37157600671E+03  0.37489276144E+04  0.37304677360E+04 0.  0.
        2    1    3    3  502    0 -0.59577447657E+03  0.94148621599E+02 -0.19595393651E+04  0.20502696684E+04  0.25500000920E-02 0. -1.
       -2    1    3    3    0  502  0.59577447657E+03 -0.94148621599E+02  0.15879633584E+04  0.16986579460E+04  0.25500000920E-02 0.  1.
</event>
<event>
 5   0  0.6043512E-07  0.2363573E+04  0.7818609E-02  0.8453268E-01
       -2   -1    0    0    0  501  0.00000000000E+00  0.00000000000E+00  0.14262582823E+04  0.14262582823E+04  0.25500000920E-02 0.  1.
        2   -1    0    0  501    0  0.00000000000E+00  0.00000000000E+00 -0.97921943082E+03  0.97921943083E+03  0.25500000920E-02 0. -1.
    10030    2    1    2    0    0  0.00000000000E+00  0.00000000000E+00  0.44703885150E+03  0.24054777132E+04  0.23635734162E+04 0.  0.
        3    1    3    3  502    0 -0.82075791328E+03 -0.62182281997E+02 -0.63951832234E+03  0.10423501730E+04  0.10100000352E+00 0. -1.
       -3    1    3    3    0  502  0.82075791328E+03  0.62182281997E+02  0.10865571738E+04  0.13631275401E+04  0.10100000352E+00 0.  1.
</event>
<event>
 5   0  0.7570277E-07  0.4142600E+04  0.7818609E-02  0.7976382E-01
       -2   -1    0    0    0  501  0.00000000000E+00  0.00000000000E+00  0.17154910397E+04  0.17154910397E+04  0.25500000920E-02 0. -1.
        2   -1    0    0  501    0  0.00000000000E+00  0.00000000000E+00 -0.25009069970E+04  0.25009069970E+04  0.25500000920E-02 0.  1.
    10030    2    1    2    0    0  0.00000000000E+00  0.00000000000E+00 -0.78541595732E+03  0.42163980368E+04  0.41425999298E+04 0.  0.
        5    1    3    3  502    0  0.19121068654E+04  0.43961313728E+03 -0.10685008060E+04  0.22340833552E+04  0.46999998093E+01 0.  1.
       -5    1    3    3    0  502 -0.19121068654E+04 -0.43961313728E+03  0.28308484873E+03  0.19823146816E+04  0.46999998093E+01 0. -1.
</event>
<event>
 5   0  0.7256473E-07  0.2313891E+04  0.7818609E-02  0.8472464E-01
       -2   -1    0    0    0  501  0.00000000000E+00  0.00000000000E+00  0.14585496323E+04  0.14585496323E+04  0.25500000920E-02 0.  1.
        2   -1    0    0  501    0  0.00000000000E+00  0.00000000000E+00 -0.91770788504E+03  0.91770788504E+03  0.25500000920E-02 0. -1.
    10030    2    1    2    0    0  0.00000000000E+00  0.00000000000E+00  0.54084174730E+03  0.23762575174E+04  0.23138906615E+04 0.  0.
        4    1    3    3  502    0  0.78128350055E+03  0.82706095395E+03  0.48604964619E+03  0.12372063697E+04  0.12699999809E+01 0.  1.
       -4    1    3    3    0  502 -0.78128350055E+03 -0.82706095395E+03  0.54792101113E+02  0.11390511477E+04  0.12699999809E+01 0. -1.
</event>
<event>
 5   0  0.2958420E-07  0.1978755E+04  0.7818609E-02  0.8616618E-01
        1   -1    0    0  501    0  0.00000000000E+00  0.00000000000E+00  0.15288339522E+04  0.15288339522E+04  0.50400001928E-02 0.  1.
       -1   -1    0    0    0  501  0.00000000000E+00  0.00000000000E+00 -0.64027077645E+03  0.64027077647E+03  0.50400001928E-02 0. -1.
    10030    2    1    2    0    0  0.00000000000E+00  0.00000000000E+00  0.88856317575E+03  0.21691047287E+04  0.19787548627E+04 0.  0.
        1    1    3    3  502    0 -0.37067621698E+03  0.91672496147E+03  0.48034277727E+03  0.10993246547E+04  0.50400001928E-02 0.  1.
       -1    1    3    3    0  502  0.37067621698E+03 -0.91672496147E+03  0.40822039848E+03  0.10697800739E+04  0.50400001928E-02 0. -1.
</event>
<event>
 5   0  0.4449262E-07  0.4003408E+04  0.7818609E-02  0.8003859E-01
       -2   -1    0    0    0  501  0.00000000000E+00  0.00000000000E+00  0.16789935061E+04  0.16789935061E+04  0.25500000920E-02 0.  1.
        2   -1    0    0  501    0  0.00000000000E+00  0.00000000000E+00 -0.23864413955E+04  0.23864413955E+04  0.25500000920E-02 0. -1.
    10030    2    1    2    0    0  0.00000000000E+00  0.00000000000E+00 -0.70744788940E+03  0.40654349016E+04  0.40034083507E+04 0.  0.
        1    1    3    3  502    0  0.15505217497E+04  0.63293706955E+03  0.75966288032E+03  0.18389711042E+04  0.50400001928E-02 0.  1.
       -1    1    3    3    0  502 -0.15505217497E+04 -0.63293706955E+03 -0.14671107697E+04  0.22264637974E+04  0.50400001928E-02 0. -1.
</event>
<event>
 5   0  0.6043512E-07  0.2827432E+04  0.7818609E-02  0.8294802E-01
        2   -1    0    0  501    0  0.00000000000E+00  0.00000000000E+00  0.17809044766E+04  0.17809044766E+04  0.25500000920E-02 0.  1.
       -2   -1    0    0    0  501  0.00000000000E+00  0.00000000000E+00 -0.11222348715E+04  0.11222348715E+04  0.25500000920E-02 0. -1.
    10030    2    1    2    0    0  0.00000000000E+00  0.00000000000E+00  0.65866960512E+03  0.29031393481E+04  0.28274321258E+04 0.  0.
        3    1    3    3  502    0  0.22095113016E+03 -0.71407672743E+03  0.15614095381E+04  0.17311050605E+04  0.10100000352E+00 0.  1.
       -3    1    3    3    0  502 -0.22095113016E+03  0.71407672743E+03 -0.90273993297E+03  0.11720342876E+04  0.10100000352E+00 0. -1.
</event>
<event>
 5   0  0.2647879E-07  0.2109837E+04  0.7818609E-02  0.8556923E-01
       -1   -1    0    0    0  501  0.00000000000E+00  0.00000000000E+00  0.27415187274E+04  0.27415187274E+04  0.50400001928E-02 0.  1.
        1   -1    0    0  501    0  0.00000000000E+00  0.00000000000E+00 -0.40592556866E+03  0.40592556869E+03  0.50400001928E-02 0. -1.
    10030    2    1    2    0    0  0.00000000000E+00  0.00000000000E+00  0.23355931587E+04  0.31474442961E+04  0.21098365325E+04 0.  0.
        2    1    3    3  502    0 -0.11399162016E+02 -0.68970162487E+02  0.27380596147E+04  0.27389518575E+04  0.25500000920E-02 0.  1.
       -2    1    3    3    0  502  0.11399162016E+02  0.68970162487E+02 -0.40246645594E+03  0.40849243857E+03  0.25500000920E-02 0. -1.
</event>
<event>
 5   0  0.7256473E-07  0.4129487E+04  0.7818609E-02  0.7978923E-01
        2   -1    0    0  501    0  0.00000000000E+00  0.00000000000E+00  0.24244088048E+04  0.24244088048E+04  0.25500000920E-02 0. -1.
       -2   -1    0    0    0  501  0.00000000000E+00  0.00000000000E+00 -0.17584349014E+04  0.17584349014E+04  0.25500000920E-02 0.  1.
    10030    2    1    2    0    0  0.00000000000E+00  0.00000000000E+00  0.66597390346E+03  0.41828437062E+04  0.41294866788E+04 0.  0.
        4    1    3    3  502    0 -0.16231645107E+04  0.93093937181E+03 -0.55113252876E+03  0.19506562537E+04  0.12699999809E+01 0.  1.
       -4    1    3    3    0  502  0.16231645107E+04 -0.93093937181E+03  0.12171064322E+04  0.22321874525E+04  0.12699999809E+01 0. -1.
</event>
<event>
 5   0  0.5161550E-07  0.2135973E+04  0.7818609E-02  0.8545560E-01
        2   -1    0    0  501    0  0.00000000000E+00  0.00000000000E+00  0.25228041840E+04  0.25228041840E+04  0.25500000920E-02 0. -1.
       -2   -1    0    0    0  501  0.00000000000E+00  0.00000000000E+00 -0.45211417539E+03  0.45211417540E+03  0.25500000920E-02 0.  1.
    10030    2    1    2    0    0  0.00000000000E+00  0.00000000000E+00  0.20706900086E+04  0.29749183594E+04  0.21359733456E+04 0.  0.
        2    1    3    3  502    0 -0.93453569312E+03 -0.12170831312E+03  0.17350999418E+04  0.19745231534E+04  0.25500000920E-02 0. -1.
       -2    1    3    3    0  502  0.93453569312E+03  0.12170831312E+03  0.33559006674E+03  0.10003952060E+04  0.25500000920E-02 0.  1.
</event>
<event>
 5   0  0.2601252E-07  0.3411623E+04  0.7818609E-02  0.8135060E-01
       -1   -1    0    0    0  501  0.00000000000E+00  0.00000000000E+00  0.20013921701E+04  0.20013921701E+04  0.50400001928E-02 0. -1.
        1   -1    0    0  501    0  0.00000000000E+00  0.00000000000E+00 -0.14538844547E+04  0.14538844547E+04  0.50400001928E-02 0.  1.
    10030    2    1    2    0    0  0.00000000000E+00  0.00000000000E+00  0.54750771541E+03  0.34552766248E+04  0.34116230530E+04 0.  0.
        3    1    3    3  502    0 -0.31422893014E+03  0.91570553483E+03 -0.11486872891E+04  0.15022446357E+04  0.10100000352E+00 0.  1.
       -3    1    3    3    0  502  0.31422893014E+03 -0.91570553483E+03  0.16961950045E+04  0.19530319892E+04  0.10100000352E+00 0. -1.
</event>
<event>
 5   0  0.6043512E-07  0.2368523E+04  0.7818609E-02  0.8451383E-01
        2   -1    0    0  501    0  0.00000000000E+00  0.00000000000E+00  0.12673807256E+04  0.12673807256E+04  0.25500000920E-02 0.  1.
       -2   -1    0    0    0  501  0.00000000000E+00  0.00000000000E+00 -0.11065936125E+04  0.11065936125E+04  0.25500000920E-02 0. -1.
    10030    2    1    2    0    0  0.00000000000E+00  0.00000000000E+00  0.16078711303E+03  0.23739743381E+04  0.23685230973E+04 0.  0.
        3    1    3    3  502    0  0.10516655888E+04 -0.44496268600E+03 -0.23414888763E+03  0.11656834967E+04  0.10100000352E+00 0. -1.
       -3    1    3    3    0  502 -0.10516655888E+04  0.44496268600E+03  0.39493600066E+03  0.12082908414E+04  0.10100000352E+00 0.  1.
</event>
<event>
 5   0  0.5161550E-07  0.3962969E+04  0.7818609E-02  0.8012059E-01
        2   -1    0    0  501    0  0.00000000000E+00  0.00000000000E+00  0.25045684636E+04  0.25045684636E+04  0.25500000920E-02 0.  1.
       -2   -1    0    0    0  501  0.00000000000E+00  0.00000000000E+00 -0.15676479543E+04  0.15676479543E+04  0.25500000920E-02 0. -1.
    10030    2    1    2    0    0  0.00000000000E+00  0.00000000000E+00  0.93692050928E+03  0.40722164178E+04  0.39629694060E+04 0.  0.
        2    1    3    3  502    0 -0.15134021230E+04 -0.22560110054E+03  0.17621339119E+04  0.23337518647E+04  0.25500000920E-02 0.  1.
       -2    1    3    3    0  502  0.15134021230E+04  0.22560110054E+03 -0.82521340265E+03  0.17384645531E+04  0.25500000920E-02 0. -1.
</event>
<event>
 5   0  0.6043512E-07  0.3543740E+04  0.7818609E-02  0.8103502E-01
        2   -1    0    0  501    0  0.00000000000E+00  0.00000000000E+00  0.25191931738E+04  0.25191931738E+04  0.25500000920E-02 0. -1.
       -2   -1    0    0    0  501  0.00000000000E+00  0.00000000000E+00 -0.12462414694E+04  0.12462414694E+04  0.25500000920E-02 0.  1.
    10030    2    1    2    0    0  0.00000000000E+00  0.00000000000E+00  0.12729517044E+04  0.37654346432E+04  0.35437398339E+04 0.  0.
        3    1    3    3  502    0 -0.11060721052E+04  0.46103561760E+03  0.20233394230E+04  0.23515636869E+04  0.10100000352E+00 0. -1.
       -3    1    3    3    0  502  0.11060721052E+04 -0.46103561760E+03 -0.75038771858E+03  0.14138709563E+04  0.10100000352E+00 0.  1.
</event>
<event>
 5   0  0.2401125E-07  0.4063880E+04  0.7818609E-02  0.7991783E-01
        3   -1    0    0  501    0  0.00000000000E+00  0.00000000000E+00  0.26129847899E+04  0.26129847918E+04  0.10100000352E+00 0.  1.
       -3   -1    0    0    0  501  0.00000000000E+00  0.00000000000E+00 -0.15801007939E+04  0.15801007971E+04  0.10100000352E+00 0. -1.
    10030    2    1    2    0    0  0.00000000000E+00  0.00000000000E+00  0.10328839960E+04  0.41930855890E+04  0.40638796005E+04 0.  0.
        1    1    3    3  502    0 -0.42667977251E+02  0.16673452381E+04  0.17139090649E+04  0.23915152063E+04  0.50400001928E-02 0.  1.
       -1    1    3    3    0  502  0.42667977251E+02 -0.16673452381E+04 -0.68102506891E+03  0.18015703827E+04  0.50400001928E-02 0. -1.
</event>
<event>
 5   0  0.2713405E-07  0.3982436E+04  0.7818609E-02  0.8008099E-01
       -1   -1    0    0    0  501  0.00000000000E+00  0.00000000000E+00  0.13712963224E+04  0.13712963224E+04  0.50400001928E-02 0. -1.
        1   -1    0    0  501    0  0.00000000000E+00  0.00000000000E+00 -0.28913870601E+04  0.28913870602E+04  0.50400001928E-02 0.  1.
    10030    2    1    2    0    0  0.00000000000E+00  0.00000000000E+00 -0.15200907377E+04  0.42626833826E+04  0.39824356579E+04 0.  0.
        1    1    3    3  502    0 -0.32544262580E+03  0.90865230437E+03  0.11041790184E+04  0.14665514712E+04  0.50400001928E-02 0. -1.
       -1    1    3    3    0  502  0.32544262580E+03 -0.90865230437E+03 -0.26242697561E+04  0.27961319114E+04  0.50400001928E-02 0.  1.
</event>
<event>
 5   0  0.4449262E-07  0.2228029E+04  0.7818609E-02  0.8506852E-01
        2   -1    0    0  501    0  0.00000000000E+00  0.00000000000E+00  0.10323418965E+04  0.10323418965E+04  0.25500000920E-02 0.  1.
       -2   -1    0    0    0  501  0.00000000000E+00  0.00000000000E+00 -0.12021481956E+04  0.12021481956E+04  0.25500000920E-02 0. -1.
    10030    2    1    2    0    0  0.00000000000E+00  0.00000000000E+00 -0.16980629909E+03  0.22344900921E+04  0.22280286785E+04 0.  0.
        1    1    3    3  502    0 -0.34943479656E+03  0.92528720658E+03  0.42919134062E+03  0.10781773039E+04  0.50400001928E-02 0.  1.
       -1    1    3    3    0  502  0.34943479656E+03 -0.92528720658E+03 -0.59899763971E+03  0.11563127882E+04  0.50400001928E-02 0. -1.
</event>
<event>
 5   0  0.2713405E-07  0.4045895E+04  0.7818609E-02  0.7995352E-01
       -1   -1    0    0    0  501  0.00000000000E+00  0.00000000000E+00  0.20260638665E+04  0.20260638665E+04  0.50400001928E-02 0.  1.
        1   -1    0    0  501    0  0.00000000000E+00  0.00000000000E+00 -0.20198358909E+04  0.20198358909E+04  0.50400001928E-02 0. -1.
    10030    2    1    2    0    0  0.00000000000E+00  0.00000000000E+00  0.62279755850E+01  0.40458997574E+04  0.40458949639E+04 0.  0.
        1    1    3    3  502    0 -0.32348623558E+03  0.24007327023E+03 -0.19793207041E+04  0.20198982571E+04  0.50400001928E-02 0. -1.
       -1    1    3    3    0  502  0.32348623558E+03 -0.24007327023E+03  0.19855486796E+04  0.20260015002E+04  0.50400001928E-02 0.  1.
</event>
<event>
 5   0  0.2401125E-07  0.3893524E+04  0.7818609E-02  0.8026377E-01
        3   -1    0    0  501    0  0.00000000000E+00  0.00000000000E+00  0.17442688884E+04  0.17442688913E+04  0.10100000352E+00 0.  1.
       -3   -1    0    0    0  501  0.00000000000E+00  0.00000000000E+00 -0.21727627352E+04  0.21727627376E+04  0.10100000352E+00 0. -1.
    10030    2    1    2    0    0  0.00000000000E+00  0.00000000000E+00 -0.42849384686E+03  0.39170316288E+04  0.38935240855E+04 0.  0.
        3    1    3    3  502    0 -0.33872192834E+03  0.19538359296E+03  0.17043528086E+04  0.17486354107E+04  0.10100000352E+00 0.  1.
       -3    1    3    3    0  502  0.33872192834E+03 -0.19538359296E+03 -0.21328466554E+04  0.21683962182E+04  0.10100000352E+00 0. -1.
</event>
<event>
 5   0  0.5161550E-07  0.3273070E+04  0.7818609E-02  0.8169782E-01
        2   -1    0    0  501    0  0.00000000000E+00  0.00000000000E+00  0.18516219289E+04  0.18516219289E+04  0.25500000920E-02 0.  1.
       -2   -1    0    0    0  501  0.00000000000E+00  0.00000000000E+00 -0.14464328970E+04  0.14464328970E+04  0.25500000920E-02 0. -1.
    10030    2    1    2    0    0  0.00000000000E+00  0.00000000000E+00  0.40518903192E+03  0.32980548259E+04  0.32730700394E+04 0.  0.
        2    1    3    3  502    0  0.55404894939E+03  0.49087008266E+03 -0.12681096416E+04  0.14683411523E+04  0.25500000920E-02 0. -1.
       -2    1    3    3    0  502 -0.55404894939E+03 -0.49087008266E+03  0.16732986735E+04  0.18297136736E+04  0.25500000920E-02 0.  1.
</event>
<event>
 5   0  0.4449262E-07  0.3905110E+04  0.7818609E-02  0.8023967E-01
       -2   -1    0    0    0  501  0.00000000000E+00  0.00000000000E+00  0.15807395996E+04  0.15807395996E+04  0.25500000920E-02 0. -1.
        2   -1    0    0  501    0  0.00000000000E+00  0.00000000000E+00 -0.24118278949E+04  0.24118278949E+04  0.25500000920E-02 0.  1.
    10030    2    1    2    0    0  0.00000000000E+00  0.00000000000E+00 -0.83108829524E+03  0.39925674945E+04  0.39051104266E+04 0.  0.
        1    1    3    3  502    0 -0.14590590895E+04 -0.48560429529E+03  0.81465173445E+03  0.17402075758E+04  0.50400001928E-02 0. -1.
       -1    1    3    3    0  502  0.14590590895E+04  0.48560429529E+03 -0.16457400297E+04  0.22523599188E+04  0.50400001928E-02 0.  1.
</event>
<event>
 5   0  0.4449262E-07  0.3962512E+04  0.7818609E-02  0.8012152E-01
       -2   -1    0    0    0  501  0.00000000000E+00  0.00000000000E+00  0.27971874923E+04  0.27971874923E+04  0.25500000920E-02 0. -1.
        2   -1    0    0  501    0  0.00000000000E+00  0.00000000000E+00 -0.14033294148E+04  0.14033294148E+04  0.25500000920E-02 0.  1.
    10030    2    1    2    0    0  0.00000000000E+00  0.00000000000E+00  0.13938580776E+04  0.42005169071E+04  0.39625120752E+04 0.  0.
        1    1    3    3  502    0 -0.92966898992E+03 -0.59182153285E+03 -0.10484266553E+04  0.15210968441E+04  0.50400001928E-02 0.  1.
       -1    1    3    3    0  502  0.92966898992E+03  0.59182153285E+03  0.24422847329E+04  0.26794200630E+04  0.50400001928E-02 0. -1.
</event>
<event>
 5   0  0.6043512E-07  0.2324602E+04  0.7818609E-02  0.8468283E-01
        2   -1    0    0  501    0  0.00000000000E+00  0.00000000000E+00  0.83800818583E+03  0.83800818583E+03  0.25500000920E-02 0. -1.
       -2   -1    0    0    0  501  0.00000000000E+00  0.00000000000E+00 -0.16120892810E+04  0.16120892810E+04  0.25500000920E-02 0.  1.
    10030    2    1    2    0    0  0.00000000000E+00  0.00000000000E+00 -0.77408109517E+03  0.24500974668E+04  0.23246023434E+04 0.  0.
        3    1    3    3  502    0 -0.45877225109E+03 -0.37149098338E+02 -0.15119409836E+04  0.15804485382E+04  0.10100000352E+00 0.  1.
       -3    1    3    3    0  502  0.45877225109E+03  0.37149098338E+02  0.73785988843E+03  0.86964892861E+03  0.10100000352E+00 0. -1.
</event>
<event>
 5   0  0.2647879E-07  0.3047539E+04  0.7818609E-02  0.8230285E-01
        1   -1    0    0  501    0  0.00000000000E+00  0.00000000000E+00  0.24143176118E+04  0.24143176118E+04  0.50400001928E-02 0.  1.
       -1   -1    0    0    0  501  0.00000000000E+00  0.00000000000E+00 -0.96171013753E+03  0.96171013755E+03  0.50400001928E-02 0. -1.
    10030    2    1    2    0    0  0.00000000000E+00  0.00000000000E+00  0.14526074742E+04  0.33760277493E+04  0.30475391531E+04 0.  0.
        2    1    3    3  502    0  0.10874254196E+04  0.90505879366E+03  0.99401091452E+02  0.14182757278E+04  0.25500000920E-02 0. -1.
       -2    1    3    3    0  502 -0.10874254196E+04 -0.90505879366E+03  0.13532063828E+04  0.19577520215E+04  0.25500000920E-02 0.  1.
</event>
<event>
 5   0  0.2601252E-07  0.3961713E+04  0.7818609E-02  0.8012315E-01
        1   -1    0    0  501    0  0.00000000000E+00  0.00000000000E+00  0.19712335544E+04  0.19712335545E+04  0.50400001928E-02 0. -1.
       -1   -1    0    0    0  501  0.00000000000E+00  0.00000000000E+00 -0.19905267626E+04  0.19905267626E+04  0.50400001928E-02 0.  1.
    10030    2    1    2    0    0  0.00000000000E+00  0.00000000000E+00 -0.19293208191E+02  0.39617603171E+04  0.39617133392E+04 0.  0.
        3    1    3    3  502    0  0.71921936865E+03  0.87062256508E+03 -0.16370973091E+04  0.19888056116E+04  0.10100000352E+00 0.  1.
       -3    1    3    3    0  502 -0.71921936865E+03 -0.87062256508E+03  0.16178041009E+04  0.19729547055E+04  0.10100000352E+00 0. -1.
</event>
<event>
 5   0  0.2401125E-07  0.2048968E+04  0.7818609E-02  0.8584063E-01
       -1   -1    0    0    0  501  0.00000000000E+00  0.00000000000E+00  0.54720783846E+03  0.54720783848E+03  0.50400001928E-02 0.  1.
        1   -1    0    0  501    0  0.00000000000E+00  0.00000000000E+00 -0.19180413603E+04  0.19180413603E+04  0.50400001928E-02 0. -1.
    10030    2    1    2    0    0  0.00000000000E+00  0.00000000000E+00 -0.13708335218E+04  0.24652491988E+04  0.20489678054E+04 0.  0.
        5    1    3    3  502    0 -0.62007164048E+03 -0.59440495195E+03 -0.13571878726E+04  0.16061715655E+04  0.46999998093E+01 0. -1.
       -5    1    3    3    0  502  0.62007164048E+03  0.59440495195E+03 -0.13645649191E+02  0.85907763326E+03  0.46999998093E+01 0.  1.
</event>
<event>
 5   0  0.7256473E-07  0.4108687E+04  0.7818609E-02  0.7982973E-01
        2   -1    0    0  501    0  0.00000000000E+00  0.00000000000E+00  0.17627166761E+04  0.17627166761E+04  0.25500000920E-02 0.  1.
       -2   -1    0    0    0  501  0.00000000000E+00  0.00000000000E+00 -0.23942178375E+04  0.23942178375E+04  0.25500000920E-02 0. -1.
    10030    2    1    2    0    0  0.00000000000E+00  0.00000000000E+00 -0.63150116135E+03  0.41569345136E+04  0.41086872397E+04 0.  0.
        4    1    3    3  502    0  0.57194492132E+03  0.10694289326E+03 -0.23091067531E+04  0.23812881778E+04  0.12699999809E+01 0. -1.
       -4    1    3    3    0  502 -0.57194492132E+03 -0.10694289326E+03  0.16776055918E+04  0.17756463358E+04  0.12699999809E+01 0.  1.
</event>
<event>
 5   0  0.2647879E-07  0.2359877E+04  0.7818609E-02  0.8454679E-01
       -1   -1    0    0    0  501  0.00000000000E+00  0.00000000000E+00  0.10266457219E+04  0.10266457219E+04  0.50400001928E-02 0. -1.
        1   -1    0    0  501    0  0.00000000000E+00  0.00000000000E+00 -0.13561204221E+04  0.13561204221E+04  0.50400001928E-02 0.  1.
    10030    2    1    2    0    0  0.00000000000E+00  0.00000000000E+00 -0.32947470023E+03  0.23827661440E+04  0.23598773101E+04 0.  0.
        2    1    3    3  502    0 -0.67457033890E+03  0.40530288365E+03  0.72295973130E+03  0.10686376106E+04  0.25500000920E-02 0. -1.
       -2    1    3    3    0  502  0.67457033890E+03 -0.40530288365E+03 -0.10524344315E+04  0.13141285334E+04  0.25500000920E-02 0.  1.
</event>
<event>
 5   0  0.2401125E-07  0.3465991E+04  0.7818609E-02  0.8121897E-01
        1   -1    0    0  501    0  0.00000000000E+00  0.00000000000E+00  0.17118197439E+04  0.17118197439E+04  0.50400001928E-02 0.  1.
       -1   -1    0    0    0  501  0.00000000000E+00  0.00000000000E+00 -0.17544333159E+04  0.17544333159E+04  0.50400001928E-02 0. -1.
    10030    2    1    2    0    0  0.00000000000E+00  0.00000000000E+00 -0.42613572003E+02  0.34662530598E+04  0.34659911076E+04 0.  0.
        5    1    3    3  502    0 -0.18521286252E+03  0.17406574952E+03 -0.17356851049E+04  0.17542028283E+04  0.46999998093E+01 0. -1.
       -5    1    3    3    0  502  0.18521286252E+03 -0.17406574952E+03  0.16930715329E+04  0.17120502315E+04  0.46999998093E+01 0.  1.
</event>
<event>
 5   0  0.2713405E-07  0.4184722E+04  0.7818609E-02  0.7968285E-01
       -1   -1    0    0    0  501  0.00000000000E+00  0.00000000000E+00  0.24182287801E+04  0.24182287801E+04  0.50400001928E-02 0. -1.
        1   -1    0    0  501    0  0.00000000000E+00  0.00000000000E+00 -0.18104052118E+04  0.18104052118E+04  0.50400001928E-02 0.  1.
    10030    2    1    2    0    0  0.00000000000E+00  0.00000000000E+00  0.60782356827E+03  0.42286339919E+04  0.41847217288E+04 0.  0.
        1    1    3    3  502    0 -0.12014321750E+04  0.85730196126E+03  0.18025686757E+04  0.23297338377E+04  0.50400001928E-02 0. -1.
       -1    1    3    3    0  502  0.12014321750E+04 -0.85730196126E+03 -0.11947451074E+04  0.18989001542E+04  0.50400001928E-02 0.  1.
</event>
<event>
 5   0  0.4449262E-07  0.3311032E+04  0.7818609E-02  0.8160094E-01
       -2   -1    0    0    0  501  0.00000000000E+00  0.00000000000E+00  0.10699571319E+04  0.10699571319E+04  0.25500000920E-02 0. -1.
        2   -1    0    0  501    0  0.00000000000E+00  0.00000000000E+00 -0.25615362069E+04  0.25615362069E+04  0.25500000920E-02 0.  1.
    10030    2    1    2    0    0  0.00000000000E+00  0.00000000000E+00 -0.14915790750E+04  0.36314933388E+04  0.33110324270E+04 0.  0.
        1    1    3    3  502    0 -0.73299945880E+03  0.73164620783E+03  0.67078035711E+03  0.12339127471E+04  0.50400001928E-02 0. -1.
       -1    1    3    3    0  502  0.73299945880E+03 -0.73164620783E+03 -0.21623594321E+04  0.23975805917E+04  0.50400001928E-02 0.  1.
</event>
<event>
 5   0  0.2601252E-07  0.2728465E+04  0.7818609E-02  0.8325828E-01
       -1   -1    0    0    0  501  0.00000000000E+00  0.00000000000E+00  0.10521080713E+04  0.10521080713E+04  0.50400001928E-02 0. -1.
        1   -1    0    0  501    0  0.00000000000E+00  0.00000000000E+00 -0.17689539152E+04  0.17689539152E+04  0.50400001928E-02 0.  1.
    10030    2    1    2    0    0  0.00000000000E+00  0.00000000000E+00 -0.71684584388E+03  0.28210619865E+04  0.27284652770E+04 0.  0.
        3    1    3    3  502    0 -0.11212546244E+04  0.76494849948E+03 -0.21676014762E+03  0.13745337796E+04  0.10100000352E+00 0. -1.
       -3    1    3    3    0  502  0.11212546244E+04 -0.76494849948E+03 -0.50008569625E+03  0.14465282069E+04  0.10100000352E+00 0.  1.
</event>
<event>
 5   0  0.5161550E-07  0.3825952E+04  0.7818609E-02  0.8040608E-01
       -2   -1    0    0    0  501  0.00000000000E+00  0.00000000000E+00  0.12084918955E+04  0.12084918955E+04  0.25500000920E-02 0.  1.
        2   -1    0    0  501    0  0.00000000000E+00  0.00000000000E+00 -0.30281355370E+04  0.30281355370E+04  0.25500000920E-02 0. -1.
    10030    2    1    2    0    0  0.00000000000E+00  0.00000000000E+00 -0.18196436415E+04  0.42366274324E+04  0.38259520409E+04 0.  0.
        2    1    3    3  502    0  0.18809938131E+04 -0.25652901801E+03 -0.11707698047E+04  0.22303916242E+04  0.25500000920E-02 0. -1.
       -2    1    3    3    0  502 -0.18809938131E+04  0.25652901801E+03 -0.64887383682E+03  0.20062358082E+04  0.25500000920E-02 0.  1.
</event>
<event>
 5   0  0.4449262E-07  0.3851948E+04  0.7818609E-02  0.8035098E-01
        2   -1    0    0  501    0  0.00000000000E+00  0.00000000000E+00  0.19132039866E+04  0.19132039866E+04  0.25500000920E-02 0.  1.
       -2   -1    0    0    0  501  0.00000000000E+00  0.00000000000E+00 -0.19388292081E+04  0.19388292081E+04  0.25500000920E-02 0. -1.
    10030    2    1    2    0    0  0.00000000000E+00  0.00000000000E+00 -0.25625221514E+02  0.38520331947E+04  0.38519479593E+04 0.  0.
        1    1    3    3  502    0  0.25461738199E+03 -0.13611001652E+04  0.13258551615E+04  0.19171112592E+04  0.50400001928E-02 0.  1.
       -1    1    3    3    0  502 -0.25461738199E+03  0.13611001652E+04 -0.13514803830E+04  0.19349219355E+04  0.50400001928E-02 0. -1.
</event>
<event>
 5   0  0.4449262E-07  0.2866139E+04  0.7818609E-02  0.8283024E-01
        2   -1    0    0  501    0  0.00000000000E+00  0.00000000000E+00  0.12392189281E+04  0.12392189282E+04  0.25500000920E-02 0. -1.
       -2   -1    0    0    0  501  0.00000000000E+00  0.00000000000E+00 -0.16572434965E+04  0.16572434965E+04  0.25500000920E-02 0.  1.
    10030    2    1    2    0    0  0.00000000000E+00  0.00000000000E+00 -0.41802456840E+03  0.28964624247E+04  0.28661385239E+04 0.  0.
        1    1    3    3  502    0  0.10832786111E+04 -0.69505732375E+03 -0.84583031112E+03  0.15401383535E+04  0.50400001928E-02 0.  1.
       -1    1    3    3    0  502 -0.10832786111E+04  0.69505732375E+03  0.42780574272E+03  0.13563240712E+04  0.50400001928E-02 0. -1.
</event>
<event>
 5   0  0.5161550E-07  0.3812539E+04  0.7818609E-02  0.8043469E-01
       -2   -1    0    0    0  501  0.00000000000E+00  0.00000000000E+00  0.23857017384E+04  0.23857017384E+04  0.25500000920E-02 0. -1.
        2   -1    0    0  501    0  0.00000000000E+00  0.00000000000E+00 -0.15231841310E+04  0.15231841310E+04  0.25500000920E-02 0.  1.
    10030    2    1    2    0    0  0.00000000000E+00  0.00000000000E+00  0.86251760738E+03  0.39088858694E+04  0.38125388020E+04 0.  0.
        2    1    3    3  502    0  0.18290513002E+03  0.60006715512E+03  0.22768402467E+04  0.23616808392E+04  0.25500000920E-02 0. -1.
       -2    1    3    3    0  502 -0.18290513002E+03 -0.60006715512E+03 -0.14143226394E+04  0.15472050302E+04  0.25500000920E-02 0.  1.
</event>
<event>
 5   0  0.4449262E-07  0.4015261E+04  0.7818609E-02  0.8001475E-01
       -2   -1    0    0    0  501  0.00000000000E+00  0.00000000000E+00  0.21683187653E+04  0.21683187653E+04  0.25500000920E-02 0.  1.
        2   -1    0    0  501    0  0.00000000000E+00  0.00000000000E+00 -0.18588499710E+04  0.18588499710E+04  0.25500000920E-02 0. -1.
    10030    2    1    2    0    0  0.00000000000E+00  0.00000000000E+00  0.30946879436E+03  0.40271687363E+04  0.40152605265E+04 0.  0.
        1    1    3    3  502    0  0.14449296704E+04 -0.40141904129E+03  0.14934664773E+04  0.21164595715E+04  0.50400001928E-02 0.  1.
       -1    1    3    3    0  502 -0.14449296704E+04  0.40141904129E+03 -0.11839976829E+04  0.19107091648E+04  0.50400001928E-02 0. -1.
</event>
<event>
 5   0  0.4449262E-07  0.4139036E+04  0.7818609E-02  0.7977071E-01
        2   -1    0    0  501    0  0.00000000000E+00  0.00000000000E+00  0.16410505097E+04  0.16410505098E+04  0.25500000920E-02 0.  1.
       -2   -1    0    0    0  501  0.00000000000E+00  0.00000000000E+00 -0.26098556589E+04  0.26098556589E+04  0.25500000920E-02 0. -1.
    10030    2    1    2    0    0  0.00000000000E+00  0.00000000000E+00 -0.96880514916E+03  0.42509061687E+04  0.41390361001E+04 0.  0.
        1    1    3    3  502    0  0.81424458494E+03 -0.15954347193E+04  0.58019449459E+03  0.18828254935E+04  0.50400001928E-02 0.  1.
       -1    1    3    3    0  502 -0.81424458494E+03  0.15954347193E+04 -0.15489996437E+04  0.23680806751E+04  0.50400001928E-02 0. -1.
</event>
<event>
 5   0  0.2401125E-07  0.3333655E+04  0.7818609E-02  0.8154384E-01
        1   -1    0    0  501    0  0.00000000000E+00  0.00000000000E+00  0.19913670129E+04  0.19913670129E+04  0.50400001928E-02 0.  1.
       -1   -1    0    0    0  501  0.00000000000E+00  0.00000000000E+00 -0.13951794812E+04  0.13951794812E+04  0.50400001928E-02 0. -1.
    10030    2    1    2    0    0  0.00000000000E+00  0.00000000000E+00  0.59618753172E+03  0.33865464941E+04  0.33336552886E+04 0.  0.
        5    1    3    3  502    0  0.56554616104E+03  0.94115821703E+03  0.15720523196E+04  0.19175483919E+04  0.46999998093E+01 0.  1.
       -5    1    3    3    0  502 -0.56554616104E+03 -0.94115821703E+03 -0.97586478791E+03  0.14689981021E+04  0.46999998093E+01 0. -1.
</event>
<event>
 5   0  0.5161550E-07  0.2588983E+04  0.7818609E-02  0.8371953E-01
       -2   -1    0    0    0  501  0.00000000000E+00  0.00000000000E+00  0.11536534861E+04  0.11536534861E+04  0.25500000920E-02 0.  1.
        2   -1    0    0  501    0  0.00000000000E+00  0.00000000000E+00 -0.14525226422E+04  0.14525226422E+04  0.25500000920E-02 0. -1.
    10030    2    1    2    0    0  0.00000000000E+00  0.00000000000E+00 -0.29886915604E+03  0.26061761283E+04  0.25889826649E+04 0.  0.
        2    1    3    3  502    0  0.54194032850E+03  0.98118920773E+02  0.10298320126E+04  0.11678529943E+04  0.25500000920E-02 0.  1.
       -2    1    3    3    0  502 -0.54194032850E+03 -0.98118920773E+02 -0.13287011686E+04  0.14383231340E+04  0.25500000920E-02 0. -1.
</event>
<event>
 5   0  0.2713405E-07  0.4011006E+04  0.7818609E-02  0.8002330E-01
        1   -1    0    0  501    0  0.00000000000E+00  0.00000000000E+00  0.14096706152E+04  0.14096706152E+04  0.50400001928E-02 0.  1.
       -1   -1    0    0    0  501  0.00000000000E+00  0.00000000000E+00 -0.28531793355E+04  0.28531793355E+04  0.50400001928E-02 0. -1.
    10030    2    1    2    0    0  0.00000000000E+00  0.00000000000E+00 -0.14435087203E+04  0.42628499507E+04  0.40110063920E+04 0.  0.
        1    1    3    3  502    0 -0.38664344537E+03 -0.98051179738E+03 -0.25350922026E+04  0.27454669939E+04  0.50400001928E-02 0. -1.
       -1    1    3    3    0  502  0.38664344537E+03  0.98051179738E+03  0.10915834823E+04  0.15173829568E+04  0.50400001928E-02 0.  1.
</event>
<event>
 5   0  0.3579559E-07  0.3952998E+04  0.7818609E-02  0.8014096E-01
       -1   -1    0    0    0  501  0.00000000000E+00  0.00000000000E+00  0.20322333486E+04  0.20322333486E+04  0.50400001928E-02 0. -1.
        1   -1    0    0  501    0  0.00000000000E+00  0.00000000000E+00 -0.19222931081E+04  0.19222931081E+04  0.50400001928E-02 0.  1.
    10030    2    1    2    0    0  0.00000000000E+00  0.00000000000E+00  0.10994024046E+03  0.39545264567E+04  0.39529979307E+04 0.  0.
        4    1    3    3  502    0 -0.15040915225E+04  0.85902629359E+03  0.10073514049E+04  0.20037404889E+04  0.12699999809E+01 0. -1.
       -4    1    3    3    0  502  0.15040915225E+04 -0.85902629359E+03 -0.89741116443E+03  0.19507859678E+04  0.12699999809E+01 0.  1.
</event>
<event>
 5   0  0.5161550E-07  0.3992218E+04  0.7818609E-02  0.8006118E-01
       -2   -1    0    0    0  501  0.00000000000E+00  0.00000000000E+00  0.16241349496E+04  0.16241349496E+04  0.25500000920E-02 0.  1.
        2   -1    0    0  501    0  0.00000000000E+00  0.00000000000E+00 -0.24532759003E+04  0.24532759003E+04  0.25500000920E-02 0. -1.
    10030    2    1    2    0    0  0.00000000000E+00  0.00000000000E+00 -0.82914095068E+03  0.40774108499E+04  0.39922179954E+04 0.  0.
        2    1    3    3  502    0  0.10149472023E+04  0.83691311717E+02  0.13388438089E+04  0.16821488649E+04  0.25500000920E-02 0.  1.
       -2    1    3    3    0  502 -0.10149472023E+04 -0.83691311717E+02 -0.21679847595E+04  0.23952619850E+04  0.25500000920E-02 0. -1.
</event>
<event>
 5   0  0.8683840E-07  0.2014079E+04  0.7818609E-02  0.8600066E-01
        2   -1    0    0  501    0  0.00000000000E+00  0.00000000000E+00  0.20863568734E+04  0.20863568734E+04  0.25500000920E-02 0.  1.
       -2   -1    0    0    0  501  0.00000000000E+00  0.00000000000E+00 -0.48607640353E+03  0.48607640353E+03  0.25500000920E-02 0. -1.
    10030    2    1    2    0    0  0.00000000000E+00  0.00000000000E+00  0.16002804699E+04  0.25724332770E+04  0.20140792889E+04 0.  0.
        3    1    3    3  502    0 -0.45393430574E+03  0.13862678033E+02 -0.34785759329E+03  0.57206069886E+03  0.10100000352E+00 0. -1.
       -3    1    3    3    0  502  0.45393430574E+03 -0.13862678033E+02  0.19481380632E+04  0.20003725781E+04  0.10100000352E+00 0.  1.
</event>
<event>
 5   0  0.6043512E-07  0.4060616E+04  0.7818609E-02  0.7992429E-01
       -2   -1    0    0    0  501  0.00000000000E+00  0.00000000000E+00  0.14342248336E+04  0.14342248336E+04  0.25500000920E-02 0.  1.
        2   -1    0    0  501    0  0.00000000000E+00  0.00000000000E+00 -0.28741318490E+04  0.28741318490E+04  0.25500000920E-02 0. -1.
    10030    2    1    2    0    0  0.00000000000E+00  0.00000000000E+00 -0.14399070154E+04  0.43083566825E+04  0.40606163437E+04 0.  0.
        3    1    3    3  502    0  0.19312975913E+04 -0.43225123538E+03 -0.23909240996E+03  0.19934685117E+04  0.10100000352E+00 0. -1.
       -3    1    3    3    0  502 -0.19312975913E+04  0.43225123538E+03 -0.12008146054E+04  0.23148881708E+04  0.10100000352E+00 0.  1.
</event>
<event>
 5   0  0.2647879E-07  0.3913901E+04  0.7818609E-02  0.8022144E-01
       -1   -1    0    0    0  501  0.00000000000E+00  0.00000000000E+00  0.16852395467E+04  0.16852395467E+04  0.50400001928E-02 0. -1.
        1   -1    0    0  501    0  0.00000000000E+00  0.00000000000E+00 -0.22724691656E+04  0.22724691656E+04  0.50400001928E-02 0.  1.
    10030    2    1    2    0    0  0.00000000000E+00  0.00000000000E+00 -0.58722961893E+03  0.39577087124E+04  0.39139008197E+04 0.  0.
        2    1    3    3  502    0 -0.85338740906E+03 -0.10413717806E+03 -0.20712851037E+04  0.22426182472E+04  0.25500000920E-02 0.  1.
       -2    1    3    3    0  502  0.85338740906E+03  0.10413717806E+03  0.14840554848E+04  0.17150904652E+04  0.25500000920E-02 0. -1.
</event>
<event>
 5   0  0.2401125E-07  0.3587778E+04  0.7818609E-02  0.8093297E-01
        1   -1    0    0  501    0  0.00000000000E+00  0.00000000000E+00  0.24313291923E+04  0.24313291923E+04  0.50400001928E-02 0.  1.
       -1   -1    0    0    0  501  0.00000000000E+00  0.00000000000E+00 -0.13235712488E+04  0.13235712489E+04  0.50400001928E-02 0. -1.
    10030    2    1    2    0    0  0.00000000000E+00  0.00000000000E+00  0.11077579435E+04  0.37549004412E+04  0.35877778167E+04 0.  0.
        5    1    3    3  502    0  0.17188030272E+04 -0.22616727492E+02  0.16930886619E+02  0.17190416247E+04  0.46999998093E+01 0. -1.
       -5    1    3    3    0  502 -0.17188030272E+04  0.22616727492E+02  0.10908270568E+04  0.20358588165E+04  0.46999998093E+01 0.  1.
</event>
<event>
 5   0  0.4449262E-07  0.3251872E+04  0.7818609E-02  0.8175251E-01
       -2   -1    0    0    0  501  0.00000000000E+00  0.00000000000E+00  0.12795928240E+04  0.12795928240E+04  0.25500000920E-02 0.  1.
        2   -1    0    0  501    0  0.00000000000E+00  0.00000000000E+00 -0.20660225703E+04  0.20660225703E+04  0.25500000920E-02 0. -1.
    10030    2    1    2    0    0  0.00000000000E+00  0.00000000000E+00 -0.78642974627E+03  0.33456153943E+04  0.32518718641E+04 0.  0.
        1    1    3    3  502    0 -0.70806139657E+03  0.12238634493E+04 -0.12191493921E+04  0.18669541837E+04  0.50400001928E-02 0. -1.
       -1    1    3    3    0  502  0.70806139657E+03 -0.12238634493E+04  0.43271964581E+03  0.14786612106E+04  0.50400001928E-02 0.  1.
</event>
<event>
 5   0  0.7256473E-07  0.2376872E+04  0.7818609E-02  0.8448214E-01
        2   -1    0    0  501    0  0.00000000000E+00  0.00000000000E+00  0.19084813288E+04  0.19084813288E+04  0.25500000920E-02 0.  1.
       -2   -1    0    0    0  501  0.00000000000E+00  0.00000000000E+00 -0.74005425603E+03  0.74005425603E+03  0.25500000920E-02 0. -1.
    10030    2    1    2    0    0  0.00000000000E+00  0.00000000000E+00  0.11684270728E+04  0.26485355848E+04  0.23768716667E+04 0.  0.
        4    1    3    3  502    0  0.10097076297E+03  0.11838350483E+04  0.61406333705E+03  0.13374363205E+04  0.12699999809E+01 0. -1.
       -4    1    3    3    0  502 -0.10097076297E+03 -0.11838350483E+04  0.55436373573E+03  0.13110992643E+04  0.12699999809E+01 0.  1.
</event>
<event>
 5   0  0.5161550E-07  0.2249245E+04  0.7818609E-02  0.8498206E-01
       -2   -1    0    0    0  501  0.00000000000E+00  0.00000000000E+00  0.96404567709E+03  0.96404567709E+03  0.25500000920E-02 0. -1.
        2   -1    0    0  501    0  0.00000000000E+00  0.00000000000E+00 -0.13119458675E+04  0.13119458675E+04  0.25500000920E-02 0.  1.
    10030    2    1    2    0    0  0.00000000000E+00  0.00000000000E+00 -0.34790019040E+03  0.22759915446E+04  0.22492449774E+04 0.  0.
        2    1    3    3  502    0 -0.88494098244E+03 -0.24764892372E+03  0.48208429217E+03  0.10377166263E+04  0.25500000920E-02 0. -1.
       -2    1    3    3    0  502  0.88494098244E+03  0.24764892372E+03 -0.82998448257E+03  0.12382749182E+04  0.25500000920E-02 0.  1.
</event>
<event>
 5   0  0.5161550E-07  0.3999813E+04  0.7818609E-02  0.8004584E-01
       -2   -1    0    0    0  501  0.00000000000E+00  0.00000000000E+00  0.15321149541E+04  0.15321149541E+04  0.25500000920E-02 0. -1.
        2   -1    0    0  501    0  0.00000000000E+00  0.00000000000E+00 -0.26105254396E+04  0.26105254396E+04  0.25500000920E-02 0.  1.
    10030    2    1    2    0    0  0.00000000000E+00  0.00000000000E+00 -0.10784104855E+04  0.41426403937E+04  0.39998125276E+04 0.  0.
        2    1    3    3  502    0  0.15435118188E+04 -0.45959309264E+03 -0.17672825496E+04  0.23910127887E+04  0.25500000920E-02 0.  1.
       -2    1    3    3    0  502 -0.15435118188E+04  0.45959309264E+03  0.68887206418E+03  0.17516276049E+04  0.25500000920E-02 0. -1.
</event>
<event>
 5   0  0.6043512E-07  0.3799606E+04  0.7818609E-02  0.8046239E-01
        2   -1    0    0  501    0  0.00000000000E+00  0.00000000000E+00  0.18333013149E+04  0.18333013149E+04  0.25500000920E-02 0. -1.
       -2   -1    0    0    0  501  0.00000000000E+00  0.00000000000E+00 -0.19687172483E+04  0.19687172483E+04  0.25500000920E-02 0.  1.
    10030    2    1    2    0    0  0.00000000000E+00  0.00000000000E+00 -0.13541593344E+03  0.38020185632E+04  0.37996062533E+04 0.  0.
        3    1    3    3  502    0  0.12919067053E+04 -0.13767650477E+04  0.14396114901E+03  0.18934702940E+04  0.10100000352E+00 0. -1.
       -3    1    3    3    0  502 -0.12919067053E+04  0.13767650477E+04 -0.27937708244E+03  0.19085482692E+04  0.10100000352E+00 0.  1.
</event>
<event>
 5   0  0.2713405E-07  0.4042996E+04  0.7818609E-02  0.7995929E-01
       -1   -1    0    0    0  501  0.00000000000E+00  0.00000000000E+00  0.17947198321E+04  0.17947198321E+04  0.50400001928E-02 0. -1.
        1   -1    0    0  501    0  0.00000000000E+00  0.00000000000E+00 -0.22769315463E+04  0.22769315463E+04  0.50400001928E-02 0.  1.
    10030    2    1    2    0    0  0.00000000000E+00  0.00000000000E+00 -0.48221171429E+03  0.40716513784E+04  0.40429960190E+04 0.  0.
        1    1    3    3  502    0  0.60668415259E+02  0.88146462290E+02  0.17918655869E+04  0.17950578645E+04  0.50400001928E-02 0. -1.
       -1    1    3    3    0  502 -0.60668415259E+02 -0.88146462290E+02 -0.22740773012E+04  0.22765935139E+04  0.50400001928E-02 0.  1.
</event>
<event>
 5   0  0.6043512E-07  0.2215979E+04  0.7818609E-02  0.8511807E-01
        2   -1    0    0  501    0  0.00000000000E+00  0.00000000000E+00  0.10134488711E+04  0.10134488711E+04  0.25500000920E-02 0. -1.
       -2   -1    0    0    0  501  0.00000000000E+00  0.00000000000E+00 -0.12113490961E+04  0.12113490961E+04  0.25500000920E-02 0.  1.
    10030    2    1    2    0    0  0.00000000000E+00  0.00000000000E+00 -0.19790022501E+03  0.22247979673E+04  0.22159786768E+04 0.  0.
        3    1    3    3  502    0  0.94782442875E+03  0.51313061708E+03 -0.35681112829E+03  0.11353362363E+04  0.10100000352E+00 0.  1.
       -3    1    3    3    0  502 -0.94782442875E+03 -0.51313061708E+03  0.15891090328E+03  0.10894617310E+04  0.10100000352E+00 0. -1.
</event>
<event>
 5   0  0.4449262E-07  0.2638055E+04  0.7818609E-02  0.8355389E-01
       -2   -1    0    0    0  501  0.00000000000E+00  0.00000000000E+00  0.95171343301E+03  0.95171343302E+03  0.25500000920E-02 0.  1.
        2   -1    0    0  501    0  0.00000000000E+00  0.00000000000E+00 -0.18281064585E+04  0.18281064585E+04  0.25500000920E-02 0. -1.
    10030    2    1    2    0    0  0.00000000000E+00  0.00000000000E+00 -0.87639302550E+03  0.27798198915E+04  0.26380549453E+04 0.  0.
        1    1    3    3  502    0 -0.11815140858E+04  0.34672537693E+03  0.60122010373E+02  0.12328052069E+04  0.50400001928E-02 0.  1.
       -1    1    3    3    0  502  0.11815140858E+04 -0.34672537693E+03 -0.93651503587E+03  0.15470146846E+04  0.50400001928E-02 0. -1.
</event>
<event>
 5   0  0.2647879E-07  0.3999483E+04  0.7818609E-02  0.8004651E-01
        1   -1    0    0  501    0  0.00000000000E+00  0.00000000000E+00  0.12760442502E+04  0.12760442502E+04  0.50400001928E-02 0. -1.
       -1   -1    0    0    0  501  0.00000000000E+00  0.00000000000E+00 -0.31338770132E+04  0.31338770132E+04  0.50400001928E-02 0.  1.
    10030    2    1    2    0    0  0.00000000000E+00  0.00000000000E+00 -0.18578327631E+04  0.44099212634E+04  0.39994828383E+04 0.  0.
        2    1    3    3  502    0  0.97745955275E+03 -0.14708997885E+04  0.10543108070E+03  0.17692057760E+04  0.25500000920E-02 0. -1.
       -2    1    3    3    0  502 -0.97745955275E+03  0.14708997885E+04 -0.19632638438E+04  0.26407154874E+04  0.25500000920E-02 0.  1.
</event>
<event>
 5   0  0.2713405E-07  0.3989914E+04  0.7818609E-02  0.8006584E-01
        1   -1    0    0  501    0  0.00000000000E+00  0.00000000000E+00  0.16761391024E+04  0.16761391025E+04  0.50400001928E-02 0. -1.
       -1   -1    0    0    0  501  0.00000000000E+00  0.00000000000E+00 -0.23744170429E+04  0.23744170429E+04  0.50400001928E-02 0.  1.
    10030    2    1    2    0    0  0.00000000000E+00  0.00000000000E+00 -0.69827794046E+03  0.40505561454E+04  0.39899139094E+04 0.  0.
        1    1    3    3  502    0  0.26914891327E+03  0.20719979950E+03 -0.23448455236E+04  0.23693191900E+04  0.50400001928E-02 0.  1.
       -1    1    3    3    0  502 -0.26914891327E+03 -0.20719979950E+03  0.16465675831E+04  0.16812369554E+04  0.50400001928E-02 0. -1.
</event>
<event>
 5   0  0.6043512E-07  0.3879591E+04  0.7818609E-02  0.8029287E-01
       -2   -1    0    0    0  501  0.00000000000E+00  0.00000000000E+00  0.29640653645E+04  0.29640653645E+04  0.25500000920E-02 0. -1.
        2   -1    0    0  501    0  0.00000000000E+00  0.00000000000E+00 -0.12694752193E+04  0.12694752193E+04  0.25500000920E-02 0.  1.
    10030    2    1    2    0    0  0.00000000000E+00  0.00000000000E+00  0.16945901452E+04  0.42335405838E+04  0.38795914881E+04 0.  0.
        3    1    3    3  502    0  0.11500106362E+04  0.14185064203E+04  0.15613009749E+04  0.24025706384E+04  0.10100000352E+00 0. -1.
       -3    1    3    3    0  502 -0.11500106362E+04 -0.14185064203E+04  0.13328917026E+03  0.18309699454E+04  0.10100000352E+00 0.  1.
</event>
<event>
 5   0  0.6043512E-07  0.3991419E+04  0.7818609E-02  0.8006280E-01
       -2   -1    0    0    0  501  0.00000000000E+00  0.00000000000E+00  0.24640690368E+04  0.24640690368E+04  0.25500000920E-02 0.  1.
        2   -1    0    0  501    0  0.00000000000E+00  0.00000000000E+00 -0.16163736680E+04  0.16163736680E+04  0.25500000920E-02 0. -1.
    10030    2    1    2    0    0  0.00000000000E+00  0.00000000000E+00  0.84769536881E+03  0.40804427048E+04  0.39914189493E+04 0.  0.
        3    1    3    3  502    0 -0.26772563101E+03  0.90688002539E+03  0.22205296192E+04  0.24134747138E+04  0.10100000352E+00 0.  1.
       -3    1    3    3    0  502  0.26772563101E+03 -0.90688002539E+03 -0.13728342504E+04  0.16669679911E+04  0.10100000352E+00 0. -1.
</event>
<event>
 5   0  0.5161550E-07  0.2113630E+04  0.7818609E-02  0.8555263E-01
       -2   -1    0    0    0  501  0.00000000000E+00  0.00000000000E+00  0.35295066398E+03  0.35295066399E+03  0.25500000920E-02 0.  1.
        2   -1    0    0  501    0  0.00000000000E+00  0.00000000000E+00 -0.31643466385E+04  0.31643466385E+04  0.25500000920E-02 0. -1.
    10030    2    1    2    0    0  0.00000000000E+00  0.00000000000E+00 -0.28113959745E+04  0.35172973025E+04  0.21136302866E+04 0.  0.
        2    1    3    3  502    0  0.75404853239E+03  0.67968818382E+03 -0.18945393168E+04  0.21493823391E+04  0.25500000920E-02 0. -1.
       -2    1    3    3    0  502 -0.75404853239E+03 -0.67968818382E+03 -0.91685665767E+03  0.13679149634E+04  0.25500000920E-02 0.  1.
</event>
<event>
 5   0  0.7256473E-07  0.2188152E+04  0.7818609E-02  0.8523376E-01
       -2   -1    0    0    0  501  0.00000000000E+00  0.00000000000E+00  0.11093368043E+04  0.11093368043E+04  0.25500000920E-02 0.  1.
        2   -1    0    0  501    0  0.00000000000E+00  0.00000000000E+00 -0.10790252021E+04  0.10790252021E+04  0.25500000920E-02 0. -1.
    10030    2    1    2    0    0  0.00000000000E+00  0.00000000000E+00  0.30311602182E+02  0.21883620064E+04  0.21881520692E+04 0.  0.
        4    1    3    3  502    0 -0.81352897181E+03 -0.42688322990E+03  0.60930208298E+03  0.11024106863E+04  0.12699999809E+01 0.  1.
       -4    1    3    3    0  502  0.81352897181E+03  0.42688322990E+03 -0.57899048080E+03  0.10859513201E+04  0.12699999809E+01 0. -1.
</event>
<event>
 5   0  0.3579559E-07  0.4000051E+04  0.7818609E-02  0.8004536E-01
       -1   -1    0    0    0  501  0.00000000000E+00  0.00000000000E+00  0.18484853800E+04  0.18484853800E+04  0.50400001928E-02 0. -1.
        1   -1    0    0  501    0  0.00000000000E+00  0.00000000000E+00 -0.21639891782E+04  0.21639891782E+04  0.50400001928E-02 0.  1.
    10030    2    1    2    0    0  0.00000000000E+00  0.00000000000E+00 -0.31550379816E+03  0.40124745583E+04  0.40000511789E+04 0.  0.
        4    1    3    3  502    0 -0.77353116369E+03 -0.16305426978E+04 -0.10224505119E+04  0.20742291611E+04  0.12699999809E+01 0.  1.
       -4    1    3    3    0  502  0.77353116369E+03  0.16305426978E+04  0.70694671370E+03  0.19382453972E+04  0.12699999809E+01 0. -1.
</event>
<event>
 5   0  0.3579559E-07  0.4063495E+04  0.7818609E-02  0.7991859E-01
       -1   -1    0    0    0  501  0.00000000000E+00  0.00000000000E+00  0.24797767463E+04  0.24797767463E+04  0.50400001928E-02 0. -1.
        1   -1    0    0  501    0  0.00000000000E+00  0.00000000000E+00 -0.16646652319E+04  0.16646652319E+04  0.50400001928E-02 0.  1.
    10030    2    1    2    0    0  0.00000000000E+00  0.00000000000E+00  0.81511151440E+03  0.41444419782E+04  0.40634951125E+04 0.  0.
        4    1    3    3  502    0 -0.22240706265E+03  0.17245918119E+04 -0.66424176550E+03  0.18614243350E+04  0.12699999809E+01 0.  1.
       -4    1    3    3    0  502  0.22240706265E+03 -0.17245918119E+04  0.14793532799E+04  0.22830176431E+04  0.12699999809E+01 0. -1.
</event>
<event>
 5   0  0.2601252E-07  0.3967827E+04  0.7818609E-02  0.8011068E-01
        1   -1    0    0  501    0  0.00000000000E+00  0.00000000000E+00  0.22703443487E+04  0.22703443487E+04  0.50400001928E-02 0. -1.
       -1   -1    0    0    0  501  0.00000000000E+00  0.00000000000E+00 -0.17336194229E+04  0.17336194229E+04  0.50400001928E-02 0.  1.
    10030    2    1    2    0    0  0.00000000000E+00  0.00000000000E+00  0.53672492580E+03  0.40039637716E+04  0.39678271432E+04 0.  0.
        3    1    3    3  502    0  0.84156002767E+03 -0.10134490372E+04 -0.12285934741E+04  0.18013173418E+04  0.10100000352E+00 0.  1.
       -3    1    3    3    0  502 -0.84156002767E+03  0.10134490372E+04  0.17653183999E+04  0.22026464297E+04  0.10100000352E+00 0. -1.
</event>
<event>
 5   0  0.4449262E-07  0.3492361E+04  0.7818609E-02  0.8115603E-01
       -2   -1    0    0    0  501  0.00000000000E+00  0.00000000000E+00  0.11984372201E+04  0.11984372201E+04  0.25500000920E-02 0. -1.
        2   -1    0    0  501    0  0.00000000000E+00  0.00000000000E+00 -0.25442683951E+04  0.25442683951E+04  0.25500000920E-02 0.  1.
    10030    2    1    2    0    0  0.00000000000E+00  0.00000000000E+00 -0.13458311750E+04  0.37427056151E+04  0.34923607732E+04 0.  0.
        1    1    3    3  502    0  0.86583615594E+03  0.11483867801E+04 -0.17341969998E+04  0.22529766265E+04  0.50400001928E-02 0.  1.
       -1    1    3    3    0  502 -0.86583615594E+03 -0.11483867801E+04  0.38836582482E+03  0.14897289886E+04  0.50400001928E-02 0. -1.
</event>
<event>
 5   0  0.2477311E-07  0.2086532E+04  0.7818609E-02  0.8567199E-01
        1   -1    0    0  501    0  0.00000000000E+00  0.00000000000E+00  0.13550711227E+04  0.13550711227E+04  0.50400001928E-02 0.  1.
       -1   -1    0    0    0  501  0.00000000000E+00  0.00000000000E+00 -0.80320801643E+03  0.80320801644E+03  0.50400001928E-02 0. -1.
    10030    2    1    2    0    0  0.00000000000E+00  0.00000000000E+00  0.55186310625E+03  0.21582791391E+04  0.20865320401E+04 0.  0.
        5    1    3    3  502    0  0.14147394293E+03 -0.49248382695E+03 -0.66406663332E+03  0.83878589629E+03  0.46999998093E+01 0. -1.
       -5    1    3    3    0  502 -0.14147394293E+03  0.49248382695E+03  0.12159297396E+04  0.13194932428E+04  0.46999998093E+01 0.  1.
</event>
<event>
 5   0  0.5161550E-07  0.4034797E+04  0.7818609E-02  0.7997563E-01
       -2   -1    0    0    0  501  0.00000000000E+00  0.00000000000E+00  0.16586370427E+04  0.16586370427E+04  0.25500000920E-02 0.  1.
        2   -1    0    0  501    0  0.00000000000E+00  0.00000000000E+00 -0.24537602620E+04  0.24537602620E+04  0.25500000920E-02 0. -1.
    10030    2    1    2    0    0  0.00000000000E+00  0.00000000000E+00 -0.79512321924E+03  0.41123973047E+04  0.40347974743E+04 0.  0.
        2    1    3    3  502    0  0.52954326330E+03 -0.10167291795E+04 -0.20895318160E+04  0.23833374713E+04  0.25500000920E-02 0. -1.
       -2    1    3    3    0  502 -0.52954326330E+03  0.10167291795E+04  0.12944085968E+04  0.17290598334E+04  0.25500000920E-02 0.  1.
</event>
<event>
 5   0  0.2647879E-07  0.3947392E+04  0.7818609E-02  0.8015244E-01
       -1   -1    0    0    0  501  0.00000000000E+00  0.00000000000E+00  0.19802017715E+04  0.19802017715E+04  0.50400001928E-02 0.  1.
        1   -1    0    0  501    0  0.00000000000E+00  0.00000000000E+00 -0.19672116308E+04  0.19672116308E+04  0.50400001928E-02 0. -1.
    10030    2    1    2    0    0  0.00000000000E+00  0.00000000000E+00  0.12990140703E+02  0.39474134023E+04  0.39473920282E+04 0.  0.
        2    1    3    3  502    0 -0.94424087461E+03 -0.24113216669E+03  0.17228203035E+04  0.19793547810E+04  0.25500000920E-02 0.  1.
       -2    1    3    3    0  502  0.94424087461E+03  0.24113216669E+03 -0.17098301628E+04  0.19680586212E+04  0.25500000920E-02 0. -1.
</event>
<event>
 5   0  0.2401125E-07  0.2013621E+04  0.7818609E-02  0.8600279E-01
        1   -1    0    0  501    0  0.00000000000E+00  0.00000000000E+00  0.11978193435E+04  0.11978193435E+04  0.50400001928E-02 0. -1.
       -1   -1    0    0    0  501  0.00000000000E+00  0.00000000000E+00 -0.84626032667E+03  0.84626032668E+03  0.50400001928E-02 0.  1.
    10030    2    1    2    0    0  0.00000000000E+00  0.00000000000E+00  0.35155901685E+03  0.20440796702E+04  0.20136206087E+04 0.  0.
        5    1    3    3  502    0 -0.80139126737E+03  0.28795521962E+03 -0.36946603191E+03  0.92826365363E+03  0.46999998093E+01 0.  1.
       -5    1    3    3    0  502  0.80139126737E+03 -0.28795521962E+03  0.72102504876E+03  0.11158160166E+04  0.46999998093E+01 0. -1.
</event>
<event>
 5   0  0.7256473E-07  0.3985300E+04  0.7818609E-02  0.8007519E-01
       -2   -1    0    0    0  501  0.00000000000E+00  0.00000000000E+00  0.21706090186E+04  0.21706090186E+04  0.25500000920E-02 0. -1.
        2   -1    0    0  501    0  0.00000000000E+00  0.00000000000E+00 -0.18292809988E+04  0.18292809988E+04  0.25500000920E-02 0.  1.
    10030    2    1    2    0    0  0.00000000000E+00  0.00000000000E+00  0.34132801979E+03  0.39998900174E+04  0.39852999052E+04 0.  0.
        4    1    3    3  502    0  0.68673108886E+03  0.80637080647E+03  0.18646875890E+04  0.21445034119E+04  0.12699999809E+01 0. -1.
       -4    1    3    3    0  502 -0.68673108886E+03 -0.80637080647E+03 -0.15233595692E+04  0.18553866055E+04  0.12699999809E+01 0.  1.
</event>
<event>
 5   0  0.2713405E-07  0.4070045E+04  0.7818609E-02  0.7990564E-01
        1   -1    0    0  501    0  0.00000000000E+00  0.00000000000E+00  0.23732029298E+04  0.23732029298E+04  0.50400001928E-02 0.  1.
       -1   -1    0    0    0  501  0.00000000000E+00  0.00000000000E+00 -0.17450323126E+04  0.17450323126E+04  0.50400001928E-02 0. -1.
    10030    2    1    2    0    0  0.00000000000E+00  0.00000000000E+00  0.62817061724E+03  0.41182352425E+04  0.40700446174E+04 0.  0.
        1    1    3    3  502    0 -0.15109918157E+04  0.13568925390E+04  0.18191646882E+03  0.20389573883E+04  0.50400001928E-02 0. -1.
       -1    1    3    3    0  502  0.15109918157E+04 -0.13568925390E+04  0.44625414842E+03  0.20792778541E+04  0.50400001928E-02 0.  1.
</event>
<event>
 5   0  0.5161550E-07  0.3230114E+04  0.7818609E-02  0.8180909E-01
        2   -1    0    0  501    0  0.00000000000E+00  0.00000000000E+00  0.19763666990E+04  0.19763666990E+04  0.25500000920E-02 0. -1.
       -2   -1    0    0    0  501  0.00000000000E+00  0.00000000000E+00 -0.13198003780E+04  0.13198003780E+04  0.25500000920E-02 0.  1.
    10030    2    1    2    0    0  0.00000000000E+00  0.00000000000E+00  0.65656632097E+03  0.32961670770E+04  0.32301142496E+04 0.  0.
        2    1    3    3  502    0 -0.24471585956E+03 -0.15292601970E+04  0.79578574363E+03  0.17412057753E+04  0.25500000920E-02 0. -1.
       -2    1    3    3    0  502  0.24471585956E+03  0.15292601970E+04 -0.13921942265E+03  0.15549613017E+04  0.25500000920E-02 0.  1.
</event>
<event>
 5   0  0.5161550E-07  0.2742079E+04  0.7818609E-02  0.8321480E-01
       -2   -1    0    0    0  501  0.00000000000E+00  0.00000000000E+00  0.83623809627E+03  0.83623809627E+03  0.25500000920E-02 0.  1.
        2   -1    0    0  501    0  0.00000000000E+00  0.00000000000E+00 -0.22478636865E+04  0.22478636865E+04  0.25500000920E-02 0. -1.
    10030    2    1    2    0    0  0.00000000000E+00  0.00000000000E+00 -0.14116255902E+04  0.30841017828E+04  0.27420789557E+04 0.  0.
        2    1    3    3  502    0 -0.70738031282E+03  0.10357553926E+03 -0.20216206675E+04  0.21443098943E+04  0.25500000920E-02 0. -1.
       -2    1    3    3    0  502  0.70738031282E+03 -0.10357553926E+03  0.60999507732E+03  0.93979188848E+03  0.25500000920E-02 0.  1.
</event>
<event>
 5   0  0.5161550E-07  0.4058279E+04  0.7818609E-02  0.7992892E-01
        2   -1    0    0  501    0  0.00000000000E+00  0.00000000000E+00  0.24741960123E+04  0.24741960123E+04  0.25500000920E-02 0. -1.
       -2   -1    0    0    0  501  0.00000000000E+00  0.00000000000E+00 -0.16641395611E+04  0.16641395611E+04  0.25500000920E-02 0.  1.
    10030    2    1    2    0    0  0.00000000000E+00  0.00000000000E+00  0.81005645125E+03  0.41383355734E+04  0.40582791752E+04 0.  0.
        2    1    3    3  502    0  0.10774500855E+04 -0.13453799243E+04  0.14968796587E+04  0.22828917058E+04  0.25500000920E-02 0. -1.
       -2    1    3    3    0  502 -0.10774500855E+04  0.13453799243E+04 -0.68682320747E+03  0.18554438676E+04  0.25500000920E-02 0.  1.
</event>
<event>
 5   0  0.4449262E-07  0.4013635E+04  0.7818609E-02  0.8001802E-01
       -2   -1    0    0    0  501  0.00000000000E+00  0.00000000000E+00  0.17370548852E+04  0.17370548852E+04  0.25500000920E-02 0. -1.
        2   -1    0    0  501    0  0.00000000000E+00  0.00000000000E+00 -0.23184740215E+04  0.23184740215E+04  0.25500000920E-02 0.  1.
    10030    2    1    2    0    0  0.00000000000E+00  0.00000000000E+00 -0.58141913631E+03  0.40555289067E+04  0.40136350732E+04 0.  0.
        1    1    3    3  502    0 -0.14336112228E+04 -0.38565553187E+03  0.10736978716E+04  0.18321567747E+04  0.50400001928E-02 0. -1.
       -1    1    3    3    0  502  0.14336112228E+04  0.38565553187E+03 -0.16551170079E+04  0.22233721320E+04  0.50400001928E-02 0.  1.
</event>
<event>
 5   0  0.4449262E-07  0.3004262E+04  0.7818609E-02  0.8242515E-01
        2   -1    0    0  501    0  0.00000000000E+00  0.00000000000E+00  0.23936027183E+04  0.23936027183E+04  0.25500000920E-02 0. -1.
       -2   -1    0    0    0  501  0.00000000000E+00  0.00000000000E+00 -0.94267825891E+03  0.94267825891E+03  0.25500000920E-02 0.  1.
    10030    2    1    2    0    0  0.00000000000E+00  0.00000000000E+00  0.14509244594E+04  0.33362809772E+04  0.30042618015E+04 0.  0.
        1    1    3    3  502    0  0.13870175884E+04  0.51957816912E+03  0.10033531553E+04  0.17889932416E+04  0.50400001928E-02 0. -1.
       -1    1    3    3    0  502 -0.13870175884E+04 -0.51957816912E+03  0.44757130411E+03  0.15472877356E+04  0.50400001928E-02 0.  1.
</event>
<event>
 5   0  0.6043512E-07  0.2476020E+04  0.7818609E-02  0.8411579E-01
       -2   -1    0    0    0  501  0.00000000000E+00  0.00000000000E+00  0.18972667126E+04  0.18972667126E+04  0.25500000920E-02 0. -1.
        2   -1    0    0  501    0  0.00000000000E+00  0.00000000000E+00 -0.80782993014E+03  0.80782993015E+03  0.25500000920E-02 0.  1.
    10030    2    1    2    0    0  0.00000000000E+00  0.00000000000E+00  0.10894367825E+04  0.27050966428E+04  0.24760200613E+04 0.  0.
        3    1    3    3  502    0  0.29207573319E+03 -0.53382853025E+03 -0.63316996233E+03  0.87817159201E+03  0.10100000352E+00 0.  1.
       -3    1    3    3    0  502 -0.29207573319E+03  0.53382853025E+03  0.17226067448E+04  0.18269250508E+04  0.10100000352E+00 0. -1.
</event>
<event>
 5   0  0.2647879E-07  0.4026951E+04  0.7818609E-02  0.7999132E-01
        1   -1    0    0  501    0  0.00000000000E+00  0.00000000000E+00  0.22057987793E+04  0.22057987793E+04  0.50400001928E-02 0. -1.
       -1   -1    0    0    0  501  0.00000000000E+00  0.00000000000E+00 -0.18379210064E+04  0.18379210064E+04  0.50400001928E-02 0.  1.
    10030    2    1    2    0    0  0.00000000000E+00  0.00000000000E+00  0.36787777296E+03  0.40437197857E+04  0.40269511606E+04 0.  0.
        2    1    3    3  502    0  0.71878183377E+03 -0.17310167350E+04 -0.55466299186E+03  0.19546655202E+04  0.25500000920E-02 0.  1.
       -2    1    3    3    0  502 -0.71878183377E+03  0.17310167350E+04  0.92254076482E+03  0.20890542655E+04  0.25500000920E-02 0. -1.
</event>
<event>
 5   0  0.2601252E-07  0.2036929E+04  0.7818609E-02  0.8589547E-01
       -1   -1    0    0    0  501  0.00000000000E+00  0.00000000000E+00  0.16484819059E+04  0.16484819059E+04  0.50400001928E-02 0.  1.
        1   -1    0    0  501    0  0.00000000000E+00  0.00000000000E+00 -0.62922763991E+03  0.62922763993E+03  0.50400001928E-02 0. -1.
    10030    2    1    2    0    0  0.00000000000E+00  0.00000000000E+00  0.10192542660E+04  0.22777095458E+04  0.20369294333E+04 0.  0.
        3    1    3    3  502    0  0.75271852413E+03  0.19875397645E+03 -0.22463764210E+03  0.81027797710E+03  0.10100000352E+00 0. -1.
       -3    1    3    3    0  502 -0.75271852413E+03 -0.19875397645E+03  0.12438919081E+04  0.14674315687E+04  0.10100000352E+00 0.  1.
</event>
<event>
 5   0  0.5161550E-07  0.3961711E+04  0.7818609E-02  0.8012315E-01
       -2   -1    0    0    0  501  0.00000000000E+00  0.00000000000E+00  0.14724372309E+04  0.14724372309E+04  0.25500000920E-02 0. -1.
        2   -1    0    0  501    0  0.00000000000E+00  0.00000000000E+00 -0.26648259400E+04  0.26648259400E+04  0.25500000920E-02 0.  1.
    10030    2    1    2    0    0  0.00000000000E+00  0.00000000000E+00 -0.11923887091E+04  0.41372631710E+04  0.39617112101E+04 0.  0.
        2    1    3    3  502    0 -0.11821496882E+04 -0.14356243091E+04  0.11615659196E+03  0.18633269697E+04  0.25500000920E-02 0. -1.
       -2    1    3    3    0  502  0.11821496882E+04  0.14356243091E+04 -0.13085453011E+04  0.22739362012E+04  0.25500000920E-02 0.  1.
</event>
<event>
 5   0  0.5161550E-07  0.4036867E+04  0.7818609E-02  0.7997150E-01
       -2   -1    0    0    0  501  0.00000000000E+00  0.00000000000E+00  0.21481350625E+04  0.21481350625E+04  0.25500000920E-02 0.  1.
        2   -1    0    0  501    0  0.00000000000E+00  0.00000000000E+00 -0.18965630584E+04  0.18965630584E+04  0.25500000920E-02 0. -1.
    10030    2    1    2    0    0  0.00000000000E+00  0.00000000000E+00  0.25157200412E+03  0.40446981209E+04  0.40368669059E+04 0.  0.
        2    1    3    3  502    0 -0.19202832867E+04 -0.77656159348E+02  0.74387430670E+03  0.20607928970E+04  0.25500000920E-02 0.  1.
       -2    1    3    3    0  502  0.19202832867E+04  0.77656159348E+02 -0.49230230258E+03  0.19839052239E+04  0.25500000920E-02 0. -1.
</event>
<event>
 5   0  0.2601252E-07  0.2296890E+04  0.7818609E-02  0.8479148E-01
       -1   -1    0    0    0  501  0.00000000000E+00  0.00000000000E+00  0.51719748970E+03  0.51719748972E+03  0.50400001928E-02 0. -1.
        1   -1    0    0  501    0  0.00000000000E+00  0.00000000000E+00 -0.25501408743E+04  0.25501408743E+04  0.50400001928E-02 0.  1.
    10030    2    1    2    0    0  0.00000000000E+00  0.00000000000E+00 -0.20329433846E+04  0.30673383640E+04  0.22968904707E+04 0.  0.
        3    1    3    3  502    0 -0.90090571710E+03  0.53602385761E+03 -0.39013646159E+03  0.11185522589E+04  0.10100000352E+00 0. -1.
       -3    1    3    3    0  502  0.90090571710E+03 -0.53602385761E+03 -0.16428069230E+04  0.19487861051E+04  0.10100000352E+00 0.  1.
</event>
<event>
 5   0  0.7570277E-07  0.2023809E+04  0.7818609E-02  0.8595569E-01
        2   -1    0    0  501    0  0.00000000000E+00  0.00000000000E+00  0.13090655743E+04  0.13090655743E+04  0.25500000920E-02 0. -1.
       -2   -1    0    0    0  501  0.00000000000E+00  0.00000000000E+00 -0.78219976322E+03  0.78219976322E+03  0.25500000920E-02 0.  1.
    10030    2    1    2    0    0  0.00000000000E+00  0.00000000000E+00  0.52686581105E+03  0.20912653375E+04  0.20238090644E+04 0.  0.
        5    1    3    3  502    0 -0.55191195428E+02  0.14547020197E+03  0.12966201113E+04  0.13059301094E+04  0.46999998093E+01 0. -1.
       -5    1    3    3    0  502  0.55191195428E+02 -0.14547020197E+03 -0.76975430024E+03  0.78533522807E+03  0.46999998093E+01 0.  1.
</event>
<event>
 5   0  0.6043512E-07  0.3963358E+04  0.7818609E-02  0.8011980E-01
        2   -1    0    0  501    0  0.00000000000E+00  0.00000000000E+00  0.22738422741E+04  0.22738422741E+04  0.25500000920E-02 0.  1.
       -2   -1    0    0    0  501  0.00000000000E+00  0.00000000000E+00 -0.17270552278E+04  0.17270552278E+04  0.25500000920E-02 0. -1.
    10030    2    1    2    0    0  0.00000000000E+00  0.00000000000E+00  0.54678704632E+03  0.40008975020E+04  0.39633577617E+04 0.  0.
        3    1    3    3  502    0 -0.14466328162E+04 -0.76168761810E+03 -0.85709609270E+03  0.18459491474E+04  0.10100000352E+00 0. -1.
       -3    1    3    3    0  502  0.14466328162E+04  0.76168761810E+03  0.14038831390E+04  0.21549483545E+04  0.10100000352E+00 0.  1.
</event>
<event>
 5   0  0.7570277E-07  0.4072654E+04  0.7818609E-02  0.7990048E-01
        2   -1    0    0  501    0  0.00000000000E+00  0.00000000000E+00  0.18917424145E+04  0.18917424145E+04  0.25500000920E-02 0. -1.
       -2   -1    0    0    0  501  0.00000000000E+00  0.00000000000E+00 -0.21919620558E+04  0.21919620558E+04  0.25500000920E-02 0.  1.
    10030    2    1    2    0    0  0.00000000000E+00  0.00000000000E+00 -0.30021964130E+03  0.40837044703E+04  0.40726539711E+04 0.  0.
        5    1    3    3  502    0  0.82258265292E+03 -0.15169732772E+04 -0.12341330796E+04  0.21215458262E+04  0.46999998093E+01 0.  1.
       -5    1    3    3    0  502 -0.82258265292E+03  0.15169732772E+04  0.93391343827E+03  0.19621586441E+04  0.46999998093E+01 0. -1.
</event>
<event>
 5   0  0.2713405E-07  0.2628407E+04  0.7818609E-02  0.8358616E-01
       -1   -1    0    0    0  501  0.00000000000E+00  0.00000000000E+00  0.90623201133E+03  0.90623201135E+03  0.50400001928E-02 0. -1.
        1   -1    0    0  501    0  0.00000000000E+00  0.00000000000E+00 -0.19058368387E+04  0.19058368387E+04  0.50400001928E-02 0.  1.
    10030    2    1    2    0    0  0.00000000000E+00  0.00000000000E+00 -0.99960482734E+03  0.28120688500E+04  0.26284066288E+04 0.  0.
        1    1    3    3  502    0 -0.96606121596E+03 -0.62817598934E+03 -0.11758175262E+04  0.16463372077E+04  0.50400001928E-02 0.  1.
       -1    1    3    3    0  502  0.96606121596E+03  0.62817598934E+03  0.17621269887E+03  0.11657316423E+04  0.50400001928E-02 0. -1.
</event>
<event>
 5   0  0.3579559E-07  0.4006374E+04  0.7818609E-02  0.8003262E-01
        1   -1    0    0  501    0  0.00000000000E+00  0.00000000000E+00  0.22247639271E+04  0.22247639271E+04  0.50400001928E-02 0. -1.
       -1   -1    0    0    0  501  0.00000000000E+00  0.00000000000E+00 -0.18036780994E+04  0.18036780994E+04  0.50400001928E-02 0.  1.
    10030    2    1    2    0    0  0.00000000000E+00  0.00000000000E+00  0.42108582772E+03  0.40284420265E+04  0.40063739075E+04 0.  0.
        4    1    3    3  502    0  0.11462588780E+04 -0.30952355122E+03  0.18328244922E+04  0.21837952002E+04  0.12699999809E+01 0. -1.
       -4    1    3    3    0  502 -0.11462588780E+04  0.30952355122E+03 -0.14117386645E+04  0.18446468263E+04  0.12699999809E+01 0.  1.
</event>
<event>
 5   0  0.4449262E-07  0.3006084E+04  0.7818609E-02  0.8241996E-01
       -2   -1    0    0    0  501  0.00000000000E+00  0.00000000000E+00  0.95010289263E+03  0.95010289264E+03  0.25500000920E-02 0. -1.
        2   -1    0    0  501    0  0.00000000000E+00  0.00000000000E+00 -0.23777793885E+04  0.23777793885E+04  0.25500000920E-02 0.  1.
    10030    2    1    2    0    0  0.00000000000E+00  0.00000000000E+00 -0.14276764959E+04  0.33278822811E+04  0.30060838811E+04 0.  0.
        1    1    3    3  502    0 -0.62852663515E+03  0.12743615526E+04 -0.17139328023E+03  0.14312298049E+04  0.50400001928E-02 0. -1.
       -1    1    3    3    0  502  0.62852663515E+03 -0.12743615526E+04 -0.12562832156E+04  0.18966524763E+04  0.50400001928E-02 0.  1.
</event>
<event>
 5   0  0.2401125E-07  0.3938775E+04  0.7818609E-02  0.8017013E-01
        1   -1    0    0  501    0  0.00000000000E+00  0.00000000000E+00  0.23050875078E+04  0.23050875078E+04  0.50400001928E-02 0. -1.
       -1   -1    0    0    0  501  0.00000000000E+00  0.00000000000E+00 -0.16825767117E+04  0.16825767117E+04  0.50400001928E-02 0.  1.
    10030    2    1    2    0    0  0.00000000000E+00  0.00000000000E+00  0.62251079617E+03  0.39876642195E+04  0.39387747126E+04 0.  0.
        5    1    3    3  502    0  0.19497223076E+04  0.21337346295E+03  0.49099539998E+03  0.20218911653E+04  0.46999998093E+01 0.  1.
       -5    1    3    3    0  502 -0.19497223076E+04 -0.21337346295E+03  0.13151539619E+03  0.19657730543E+04  0.46999998093E+01 0. -1.
</event>
<event>
 5   0  0.4449262E-07  0.4049889E+04  0.7818609E-02  0.7994557E-01
       -2   -1    0    0    0  501  0.00000000000E+00  0.00000000000E+00  0.25703646777E+04  0.25703646777E+04  0.25500000920E-02 0.  1.
        2   -1    0    0  501    0  0.00000000000E+00  0.00000000000E+00 -0.15952599801E+04  0.15952599801E+04  0.25500000920E-02 0. -1.
    10030    2    1    2    0    0  0.00000000000E+00  0.00000000000E+00  0.97510469754E+03  0.41656246578E+04  0.40498888403E+04 0.  0.
        1    1    3    3  502    0 -0.18455488807E+04 -0.78988890417E+03  0.76051278118E+03  0.21467079080E+04  0.50400001928E-02 0.  1.
       -1    1    3    3    0  502  0.18455488807E+04  0.78988890417E+03  0.21459191635E+03  0.20189167498E+04  0.50400001928E-02 0. -1.
</event>
<event>
 5   0  0.6043512E-07  0.2471777E+04  0.7818609E-02  0.8413110E-01
        2   -1    0    0  501    0  0.00000000000E+00  0.00000000000E+00  0.12323634878E+04  0.12323634878E+04  0.25500000920E-02 0.  1.
       -2   -1    0    0    0  501  0.00000000000E+00  0.00000000000E+00 -0.12394232839E+04  0.12394232839E+04  0.25500000920E-02 0. -1.
    10030    2    1    2    0    0  0.00000000000E+00  0.00000000000E+00 -0.70597961099E+01  0.24717867717E+04  0.24717766897E+04 0.  0.
        3    1    3    3  502    0 -0.24212993785E+03 -0.92202051104E+03 -0.79008969115E+03  0.12381399193E+04  0.10100000352E+00 0. -1.
       -3    1    3    3    0  502  0.24212993785E+03  0.92202051104E+03  0.78302989504E+03  0.12336468523E+04  0.10100000352E+00 0.  1.
</event>
<event>
 5   0  0.5161550E-07  0.3949177E+04  0.7818609E-02  0.8014878E-01
        2   -1    0    0  501    0  0.00000000000E+00  0.00000000000E+00  0.22075667438E+04  0.22075667438E+04  0.25500000920E-02 0. -1.
       -2   -1    0    0    0  501  0.00000000000E+00  0.00000000000E+00 -0.17661977491E+04  0.17661977491E+04  0.25500000920E-02 0.  1.
    10030    2    1    2    0    0  0.00000000000E+00  0.00000000000E+00  0.44136899466E+03  0.39737644929E+04  0.39491768326E+04 0.  0.
        2    1    3    3  502    0  0.17637265960E+03 -0.34926568285E+03 -0.17267997679E+04  0.17705737123E+04  0.25500000920E-02 0.  1.
       -2    1    3    3    0  502 -0.17637265960E+03  0.34926568285E+03  0.21681687626E+04  0.22031907805E+04  0.25500000920E-02 0. -1.
</event>
<event>
 5   0  0.7256473E-07  0.4176936E+04  0.7818609E-02  0.7969774E-01
        2   -1    0    0  501    0  0.00000000000E+00  0.00000000000E+00  0.15708548317E+04  0.15708548317E+04  0.25500000920E-02 0.  1.
       -2   -1    0    0    0  501  0.00000000000E+00  0.00000000000E+00 -0.27766406082E+04  0.27766406082E+04  0.25500000920E-02 0. -1.
    10030    2    1    2    0    0  0.00000000000E+00  0.00000000000E+00 -0.12057857765E+04  0.43474954399E+04  0.41769363487E+04 0.  0.
        4    1    3    3  502    0 -0.46459492286E+03  0.64336062468E+03  0.14078122740E+04  0.16160749820E+04  0.12699999809E+01 0.  1.
       -4    1    3    3    0  502  0.46459492286E+03 -0.64336062468E+03 -0.26135980505E+04  0.27314204580E+04  0.12699999809E+01 0. -1.
</event>
<event>
 5   0  0.7570277E-07  0.3968717E+04  0.7818609E-02  0.8010887E-01
       -2   -1    0    0    0  501  0.00000000000E+00  0.00000000000E+00  0.11503718960E+04  0.11503718960E+04  0.25500000920E-02 0. -1.
        2   -1    0    0  501    0  0.00000000000E+00  0.00000000000E+00 -0.34229610035E+04  0.34229610035E+04  0.25500000920E-02 0.  1.
    10030    2    1    2    0    0  0.00000000000E+00  0.00000000000E+00 -0.22725891075E+04  0.45733328995E+04  0.39687167394E+04 0.  0.
        5    1    3    3  502    0 -0.18084736100E+04  0.14771650853E+03 -0.20619508856E+04  0.27466453193E+04  0.46999998093E+01 0.  1.
       -5    1    3    3    0  502  0.18084736100E+04 -0.14771650853E+03 -0.21063822187E+03  0.18266875802E+04  0.46999998093E+01 0. -1.
</event>
<event>
 5   0  0.2713405E-07  0.4245440E+04  0.7818609E-02  0.7956785E-01
       -1   -1    0    0    0  501  0.00000000000E+00  0.00000000000E+00  0.26592131744E+04  0.26592131744E+04  0.50400001928E-02 0. -1.
        1   -1    0    0  501    0  0.00000000000E+00  0.00000000000E+00 -0.16944635490E+04  0.16944635490E+04  0.50400001928E-02 0.  1.
    10030    2    1    2    0    0  0.00000000000E+00  0.00000000000E+00  0.96474962541E+03  0.43536767234E+04  0.42454398090E+04 0.  0.
        1    1    3    3  502    0 -0.18049366779E+04  0.40712013144E+03  0.15492821351E+04  0.24132588644E+04  0.50400001928E-02 0. -1.
       -1    1    3    3    0  502  0.18049366779E+04 -0.40712013144E+03 -0.58453250964E+03  0.19404178590E+04  0.50400001928E-02 0.  1.
</event>
<event>
 5   0  0.2401125E-07  0.2025681E+04  0.7818609E-02  0.8594707E-01
        1   -1    0    0  501    0  0.00000000000E+00  0.00000000000E+00  0.12915902178E+04  0.12915902178E+04  0.50400001928E-02 0.  1.
       -1   -1    0    0    0  501  0.00000000000E+00  0.00000000000E+00 -0.79425041092E+03  0.79425041094E+03  0.50400001928E-02 0. -1.
    10030    2    1    2    0    0  0.00000000000E+00  0.00000000000E+00  0.49733980691E+03  0.20858406288E+04  0.20256811805E+04 0.  0.
        5    1    3    3  502    0 -0.62179219215E+02  0.11109697270E+03  0.12833068070E+04  0.12896151533E+04  0.46999998093E+01 0.  1.
       -5    1    3    3    0  502  0.62179219215E+02 -0.11109697270E+03 -0.78596700008E+03  0.79622547552E+03  0.46999998093E+01 0. -1.
</event>
<event>
 5   0  0.4449262E-07  0.3337675E+04  0.7818609E-02  0.8153375E-01
        2   -1    0    0  501    0  0.00000000000E+00  0.00000000000E+00  0.16610871232E+04  0.16610871232E+04  0.25500000920E-02 0.  1.
       -2   -1    0    0    0  501  0.00000000000E+00  0.00000000000E+00 -0.16766236615E+04  0.16766236615E+04  0.25500000920E-02 0. -1.
    10030    2    1    2    0    0  0.00000000000E+00  0.00000000000E+00 -0.15536538359E+02  0.33377107847E+04  0.33376746244E+04 0.  0.
        1    1    3    3  502    0  0.13267542138E+04  0.96243257397E+03 -0.32156263619E+03  0.16703160576E+04  0.50400001928E-02 0. -1.
       -1    1    3    3    0  502 -0.13267542138E+04 -0.96243257397E+03  0.30602609783E+03  0.16673947271E+04  0.50400001928E-02 0.  1.
</event>
<event>
 5   0  0.4449262E-07  0.3946038E+04  0.7818609E-02  0.8015522E-01
        2   -1    0    0  501    0  0.00000000000E+00  0.00000000000E+00  0.14963485517E+04  0.14963485517E+04  0.25500000920E-02 0. -1.
       -2   -1    0    0    0  501  0.00000000000E+00  0.00000000000E+00 -0.26015351994E+04  0.26015351994E+04  0.25500000920E-02 0.  1.
    10030    2    1    2    0    0  0.00000000000E+00  0.00000000000E+00 -0.11051866477E+04  0.40978837511E+04  0.39460377230E+04 0.  0.
        1    1    3    3  502    0  0.88261040785E+02 -0.10540679770E+04 -0.22822027285E+04  0.25154122139E+04  0.50400001928E-02 0.  1.
       -1    1    3    3    0  502 -0.88261040785E+02  0.10540679770E+04  0.11770160809E+04  0.15824715372E+04  0.50400001928E-02 0. -1.
</event>
<event>
 5   0  0.7570277E-07  0.2488985E+04  0.7818609E-02  0.8406920E-01
        2   -1    0    0  501    0  0.00000000000E+00  0.00000000000E+00  0.13245794065E+04  0.13245794065E+04  0.25500000920E-02 0. -1.
       -2   -1    0    0    0  501  0.00000000000E+00  0.00000000000E+00 -0.11692480713E+04  0.11692480713E+04  0.25500000920E-02 0.  1.
    10030    2    1    2    0    0  0.00000000000E+00  0.00000000000E+00  0.15533133527E+03  0.24938274778E+04  0.24889852682E+04 0.  0.
        5    1    3    3  502    0 -0.89678817740E+03 -0.79337985063E+03 -0.26219801736E+03  0.12257448808E+04  0.46999998093E+01 0.  1.
       -5    1    3    3    0  502  0.89678817740E+03  0.79337985063E+03  0.41752935263E+03  0.12680825970E+04  0.46999998093E+01 0. -1.
</event>
<event>
 5   0  0.3579559E-07  0.4044051E+04  0.7818609E-02  0.7995719E-01
       -1   -1    0    0    0  501  0.00000000000E+00  0.00000000000E+00  0.24132122255E+04  0.24132122255E+04  0.50400001928E-02 0.  1.
        1   -1    0    0  501    0  0.00000000000E+00  0.00000000000E+00 -0.16942507394E+04  0.16942507394E+04  0.50400001928E-02 0. -1.
    10030    2    1    2    0    0  0.00000000000E+00  0.00000000000E+00  0.71896148618E+03  0.41074629649E+04  0.40440507402E+04 0.  0.
        4    1    3    3  502    0 -0.80134319452E+03 -0.25303110291E+03 -0.15084903107E+04  0.17267658454E+04  0.12699999809E+01 0. -1.
       -4    1    3    3    0  502  0.80134319452E+03  0.25303110291E+03  0.22274517969E+04  0.23806971195E+04  0.12699999809E+01 0.  1.
</event>
<event>
 5   0  0.6043512E-07  0.2251623E+04  0.7818609E-02  0.8497243E-01
       -2   -1    0    0    0  501  0.00000000000E+00  0.00000000000E+00  0.84426112666E+03  0.84426112666E+03  0.25500000920E-02 0.  1.
        2   -1    0    0  501    0  0.00000000000E+00  0.00000000000E+00 -0.15012560096E+04  0.15012560096E+04  0.25500000920E-02 0. -1.
    10030    2    1    2    0    0  0.00000000000E+00  0.00000000000E+00 -0.65699488295E+03  0.23455171363E+04  0.22516234944E+04 0.  0.
        3    1    3    3  502    0 -0.62848871562E+03  0.85490477310E+03 -0.72047567933E+03  0.12825542684E+04  0.10100000352E+00 0. -1.
       -3    1    3    3    0  502  0.62848871562E+03 -0.85490477310E+03  0.63480796378E+02  0.10629628679E+04  0.10100000352E+00 0.  1.
</event>
<event>
 5   0  0.2401125E-07  0.2290104E+04  0.7818609E-02  0.8481833E-01
        1   -1    0    0  501    0  0.00000000000E+00  0.00000000000E+00  0.13448281038E+04  0.13448281038E+04  0.50400001928E-02 0. -1.
       -1   -1    0    0    0  501  0.00000000000E+00  0.00000000000E+00 -0.97495256264E+03  0.97495256266E+03  0.50400001928E-02 0.  1.
    10030    2    1    2    0    0  0.00000000000E+00  0.00000000000E+00  0.36987554111E+03  0.23197806664E+04  0.22901035838E+04 0.  0.
        5    1    3    3  502    0  0.63248050913E+03  0.42768612376E+03 -0.67945182694E+03  0.10220684371E+04  0.46999998093E+01 0.  1.
       -5    1    3    3    0  502 -0.63248050913E+03 -0.42768612376E+03  0.10493273681E+04  0.12977122294E+04  0.46999998093E+01 0. -1.
</event>
<event>
 5   0  0.2647879E-07  0.2252333E+04  0.7818609E-02  0.8496956E-01
        1   -1    0    0  501    0  0.00000000000E+00  0.00000000000E+00  0.16028580309E+04  0.16028580309E+04  0.50400001928E-02 0.  1.
       -1   -1    0    0    0  501  0.00000000000E+00  0.00000000000E+00 -0.79124327773E+03  0.79124327775E+03  0.50400001928E-02 0. -1.
    10030    2    1    2    0    0  0.00000000000E+00  0.00000000000E+00  0.81161475314E+03  0.23941013086E+04  0.22523326949E+04 0.  0.
        2    1    3    3  502    0 -0.55226650010E+03 -0.89961338292E+03 -0.11251311251E+02  0.10556652490E+04  0.25500000920E-02 0. -1.
       -2    1    3    3    0  502  0.55226650010E+03  0.89961338292E+03  0.82286606439E+03  0.13384360597E+04  0.25500000920E-02 0.  1.
</event>
<event>
 5   0  0.3579559E-07  0.2324747E+04  0.7818609E-02  0.8468227E-01
       -1   -1    0    0    0  501  0.00000000000E+00  0.00000000000E+00  0.21203327854E+04  0.21203327854E+04  0.50400001928E-02 0. -1.
        1   -1    0    0  501    0  0.00000000000E+00  0.00000000000E+00 -0.63721678653E+03  0.63721678655E+03  0.50400001928E-02 0.  1.
    10030    2    1    2    0    0  0.00000000000E+00  0.00000000000E+00  0.14831159989E+04  0.27575495720E+04  0.23247465616E+04 0.  0.
        4    1    3    3  502    0  0.42539733648E+03  0.55858999073E+03  0.18403685722E+04  0.19697572861E+04  0.12699999809E+01 0. -1.
       -4    1    3    3    0  502 -0.42539733648E+03 -0.55858999073E+03 -0.35725257334E+03  0.78779228587E+03  0.12699999809E+01 0.  1.
</event>
<event>
 5   0  0.7256473E-07  0.2416468E+04  0.7818609E-02  0.8433364E-01
       -2   -1    0    0    0  501  0.00000000000E+00  0.00000000000E+00  0.10803451168E+04  0.10803451168E+04  0.25500000920E-02 0.  1.
        2   -1    0    0  501    0  0.00000000000E+00  0.00000000000E+00 -0.13512615963E+04  0.13512615963E+04  0.25500000920E-02 0. -1.
    10030    2    1    2    0    0  0.00000000000E+00  0.00000000000E+00 -0.27091647947E+03  0.24316067131E+04  0.24164675600E+04 0.  0.
        4    1    3    3  502    0 -0.50622652401E+03  0.10938187945E+04 -0.50535165215E+02  0.12063416865E+04  0.12699999809E+01 0. -1.
       -4    1    3    3    0  502  0.50622652401E+03 -0.10938187945E+04 -0.22038131425E+03  0.12252650266E+04  0.12699999809E+01 0.  1.
</event>
<event>
 5   0  0.2713405E-07  0.2438828E+04  0.7818609E-02  0.8425108E-01
       -1   -1    0    0    0  501  0.00000000000E+00  0.00000000000E+00  0.15790300057E+04  0.15790300058E+04  0.50400001928E-02 0.  1.
        1   -1    0    0  501    0  0.00000000000E+00  0.00000000000E+00 -0.94169865587E+03  0.94169865589E+03  0.50400001928E-02 0. -1.
    10030    2    1    2    0    0  0.00000000000E+00  0.00000000000E+00  0.63733134988E+03  0.25207286616E+04  0.24388279431E+04 0.  0.
        1    1    3    3  502    0  0.18394214125E+03  0.58582265593E+03  0.14075861485E+04  0.15356827996E+04  0.50400001928E-02 0.  1.
       -1    1    3    3    0  502 -0.18394214125E+03 -0.58582265593E+03 -0.77025479862E+03  0.98504586205E+03  0.50400001928E-02 0. -1.
</event>
<event>
 5   0  0.2713405E-07  0.3040292E+04  0.7818609E-02  0.8232318E-01
        1   -1    0    0  501    0  0.00000000000E+00  0.00000000000E+00  0.14101573228E+04  0.14101573228E+04  0.50400001928E-02 0.  1.
       -1   -1    0    0    0  501  0.00000000000E+00  0.00000000000E+00 -0.16387135330E+04  0.16387135330E+04  0.50400001928E-02 0. -1.
    10030    2    1    2    0    0  0.00000000000E+00  0.00000000000E+00 -0.22855621020E+03  0.30488708558E+04  0.30402920179E+04 0.  0.
        1    1    3    3  502    0  0.65505209386E+03 -0.28994062926E+01  0.12613587292E+04  0.14213118926E+04  0.50400001928E-02 0.  1.
       -1    1    3    3    0  502 -0.65505209386E+03  0.28994062926E+01 -0.14899149394E+04  0.16275589633E+04  0.50400001928E-02 0. -1.
</event>
<event>
 5   0  0.3579559E-07  0.4062821E+04  0.7818609E-02  0.7991992E-01
        1   -1    0    0  501    0  0.00000000000E+00  0.00000000000E+00  0.21127346071E+04  0.21127346071E+04  0.50400001928E-02 0. -1.
       -1   -1    0    0    0  501  0.00000000000E+00  0.00000000000E+00 -0.19532170349E+04  0.19532170349E+04  0.50400001928E-02 0.  1.
    10030    2    1    2    0    0  0.00000000000E+00  0.00000000000E+00  0.15951757216E+03  0.40659516420E+04  0.40628212980E+04 0.  0.
        4    1    3    3  502    0 -0.64149065980E+03 -0.19266043056E+04  0.22154076875E+02  0.20307158425E+04  0.12699999809E+01 0.  1.
       -4    1    3    3    0  502  0.64149065980E+03  0.19266043056E+04  0.13736349529E+03  0.20352357995E+04  0.12699999809E+01 0. -1.
</event>
<event>
 5   0  0.2601252E-07  0.2983565E+04  0.7818609E-02  0.8248440E-01
        1   -1    0    0  501    0  0.00000000000E+00  0.00000000000E+00  0.16256238320E+04  0.16256238320E+04  0.50400001928E-02 0. -1.
       -1   -1    0    0    0  501  0.00000000000E+00  0.00000000000E+00 -0.13689609183E+04  0.13689609183E+04  0.50400001928E-02 0.  1.
    10030    2    1    2    0    0  0.00000000000E+00  0.00000000000E+00  0.25666291372E+03  0.29945847503E+04  0.29835653127E+04 0.  0.
        3    1    3    3  502    0  0.11537757564E+04 -0.26023444264E+03  0.10408068897E+04  0.15754997470E+04  0.10100000352E+00 0. -1.
       -3    1    3    3    0  502 -0.11537757564E+04  0.26023444264E+03 -0.78414397598E+03  0.14190850032E+04  0.10100000352E+00 0.  1.
</event>
<event>
 5   0  0.2601252E-07  0.3464964E+04  0.7818609E-02  0.8122144E-01
       -1   -1    0    0    0  501  0.00000000000E+00  0.00000000000E+00  0.13530886470E+04  0.13530886471E+04  0.50400001928E-02 0. -1.
        1   -1    0    0  501    0  0.00000000000E+00  0.00000000000E+00 -0.22182539120E+04  0.22182539121E+04  0.50400001928E-02 0.  1.
    10030    2    1    2    0    0  0.00000000000E+00  0.00000000000E+00 -0.86516526500E+03  0.35713425591E+04  0.34649641757E+04 0.  0.
        3    1    3    3  502    0  0.17079359540E+03  0.74602514957E+03  0.11694102054E+04  0.13975851368E+04  0.10100000352E+00 0. -1.
       -3    1    3    3    0  502 -0.17079359540E+03 -0.74602514957E+03 -0.20345754704E+04  0.21737574223E+04  0.10100000352E+00 0.  1.
</event>
<event>
 5   0  0.7570277E-07  0.3496830E+04  0.7818609E-02  0.8114542E-01
       -2   -1    0    0    0  501  0.00000000000E+00  0.00000000000E+00  0.12813324803E+04  0.12813324803E+04  0.25500000920E-02 0. -1.
        2   -1    0    0  501    0  0.00000000000E+00  0.00000000000E+00 -0.23857620864E+04  0.23857620864E+04  0.25500000920E-02 0.  1.
    10030    2    1    2    0    0  0.00000000000E+00  0.00000000000E+00 -0.11044296061E+04  0.36670945667E+04  0.34968296793E+04 0.  0.
        5    1    3    3  502    0  0.12885243187E+03 -0.17340344563E+04 -0.36040486079E+03  0.17757793215E+04  0.46999998093E+01 0.  1.
       -5    1    3    3    0  502 -0.12885243187E+03  0.17340344563E+04 -0.74402474532E+03  0.18913152452E+04  0.46999998093E+01 0. -1.
</event>
<event>
 5   0  0.7570277E-07  0.4025440E+04  0.7818609E-02  0.7999434E-01
       -2   -1    0    0    0  501  0.00000000000E+00  0.00000000000E+00  0.22869611373E+04  0.22869611373E+04  0.25500000920E-02 0.  1.
        2   -1    0    0  501    0  0.00000000000E+00  0.00000000000E+00 -0.17713642626E+04  0.17713642626E+04  0.25500000920E-02 0. -1.
    10030    2    1    2    0    0  0.00000000000E+00  0.00000000000E+00  0.51559687468E+03  0.40583253999E+04  0.40254397169E+04 0.  0.
        5    1    3    3  502    0 -0.20569205691E+01 -0.17934236953E+04  0.11788517947E+04  0.21461794952E+04  0.46999998093E+01 0.  1.
       -5    1    3    3    0  502  0.20569205691E+01  0.17934236953E+04 -0.66325492003E+03  0.19121459047E+04  0.46999998093E+01 0. -1.
</event>
<event>
 5   0  0.7570277E-07  0.2077085E+04  0.7818609E-02  0.8571406E-01
        2   -1    0    0  501    0  0.00000000000E+00  0.00000000000E+00  0.23969166924E+04  0.23969166924E+04  0.25500000920E-02 0. -1.
       -2   -1    0    0    0  501  0.00000000000E+00  0.00000000000E+00 -0.44998226835E+03  0.44998226836E+03  0.25500000920E-02 0.  1.
    10030    2    1    2    0    0  0.00000000000E+00  0.00000000000E+00  0.19469344241E+04  0.28468989608E+04  0.20770845051E+04 0.  0.
        5    1    3    3  502    0 -0.75910320395E+03  0.85137338409E+02  0.90884642279E+01  0.76393110345E+03  0.46999998093E+01 0. -1.
       -5    1    3    3    0  502  0.75910320395E+03 -0.85137338409E+02  0.19378459598E+04  0.20829678573E+04  0.46999998093E+01 0.  1.
</event>
<event>
 5   0  0.4449262E-07  0.2170121E+04  0.7818609E-02  0.8530968E-01
        2   -1    0    0  501    0  0.00000000000E+00  0.00000000000E+00  0.11889629726E+04  0.11889629726E+04  0.25500000920E-02 0.  1.
       -2   -1    0    0    0  501  0.00000000000E+00  0.00000000000E+00 -0.99023790899E+03  0.99023790899E+03  0.25500000920E-02 0. -1.
    10030    2    1    2    0    0  0.00000000000E+00  0.00000000000E+00  0.19872506366E+03  0.21792008816E+04  0.21701209256E+04 0.  0.
        1    1    3    3  502    0  0.96675953298E+03 -0.38176431831E+03 -0.21336982830E+03  0.10610818409E+04  0.50400001928E-02 0. -1.
       -1    1    3    3    0  502 -0.96675953298E+03  0.38176431831E+03  0.41209489196E+03  0.11181190408E+04  0.50400001928E-02 0.  1.
</event>
<event>
 5   0  0.3579559E-07  0.3552376E+04  0.7818609E-02  0.8101489E-01
       -1   -1    0    0    0  501  0.00000000000E+00  0.00000000000E+00  0.16701092285E+04  0.16701092285E+04  0.50400001928E-02 0.  1.
        1   -1    0    0  501    0  0.00000000000E+00  0.00000000000E+00 -0.18890039732E+04  0.18890039732E+04  0.50400001928E-02 0. -1.
    10030    2    1    2    0    0  0.00000000000E+00  0.00000000000E+00 -0.21889474473E+03  0.35591132017E+04  0.35523755253E+04 0.  0.
        4    1    3    3  502    0  0.13402995221E+04  0.10388482365E+04  0.41997978644E+03  0.17469954497E+04  0.12699999809E+01 0.  1.
       -4    1    3    3    0  502 -0.13402995221E+04 -0.10388482365E+04 -0.63887453118E+03  0.18121177519E+04  0.12699999809E+01 0. -1.
</event>
<event>
 5   0  0.2401125E-07  0.4039176E+04  0.7818609E-02  0.7996690E-01
        1   -1    0    0  501    0  0.00000000000E+00  0.00000000000E+00  0.21711306230E+04  0.21711306230E+04  0.50400001928E-02 0.  1.
       -1   -1    0    0    0  501  0.00000000000E+00  0.00000000000E+00 -0.18786231014E+04  0.18786231014E+04  0.50400001928E-02 0. -1.
    10030    2    1    2    0    0  0.00000000000E+00  0.00000000000E+00  0.29250752152E+03  0.40497537244E+04  0.40391762252E+04 0.  0.
        5    1    3    3  502    0  0.10270200219E+04  0.46847867047E+03  0.18252949119E+04  0.21461514382E+04  0.46999998093E+01 0.  1.
       -5    1    3    3    0  502 -0.10270200219E+04 -0.46847867047E+03 -0.15327873904E+04  0.19036022862E+04  0.46999998093E+01 0. -1.
</event>
<event>
 5   0  0.4449262E-07  0.3890201E+04  0.7818609E-02  0.8027070E-01
       -2   -1    0    0    0  501  0.00000000000E+00  0.00000000000E+00  0.13584040941E+04  0.13584040941E+04  0.25500000920E-02 0. -1.
        2   -1    0    0  501    0  0.00000000000E+00  0.00000000000E+00 -0.27851921084E+04  0.27851921084E+04  0.25500000920E-02 0.  1.
    10030    2    1    2    0    0  0.00000000000E+00  0.00000000000E+00 -0.14267880143E+04  0.41435962025E+04  0.38902012097E+04 0.  0.
        1    1    3    3  502    0  0.12211520501E+04  0.12855164143E+04 -0.15652714156E+04  0.23651298876E+04  0.50400001928E-02 0.  1.
       -1    1    3    3    0  502 -0.12211520501E+04 -0.12855164143E+04  0.13848340133E+03  0.17784663149E+04  0.50400001928E-02 0. -1.
</event>
<event>
 5   0  0.2647879E-07  0.3687599E+04  0.7818609E-02  0.8070716E-01
        1   -1    0    0  501    0  0.00000000000E+00  0.00000000000E+00  0.29967923221E+04  0.29967923221E+04  0.50400001928E-02 0.  1.
       -1   -1    0    0    0  501  0.00000000000E+00  0.00000000000E+00 -0.11344118850E+04  0.11344118850E+04  0.50400001928E-02 0. -1.
    10030    2    1    2    0    0  0.00000000000E+00  0.00000000000E+00  0.18623804371E+04  0.41312042072E+04  0.36875991253E+04 0.  0.
        2    1    3    3  502    0 -0.92840078236E+03  0.85535072585E+02 -0.85087452594E+03  0.12622328312E+04  0.25500000920E-02 0. -1.
       -2    1    3    3    0  502  0.92840078236E+03 -0.85535072585E+02  0.27132549631E+04  0.28689713759E+04  0.25500000920E-02 0.  1.
</event>
<event>
 5   0  0.5161550E-07  0.3780603E+04  0.7818609E-02  0.8050330E-01
       -2   -1    0    0    0  501  0.00000000000E+00  0.00000000000E+00  0.15747373562E+04  0.15747373562E+04  0.25500000920E-02 0. -1.
        2   -1    0    0  501    0  0.00000000000E+00  0.00000000000E+00 -0.22691022938E+04  0.22691022938E+04  0.25500000920E-02 0.  1.
    10030    2    1    2    0    0  0.00000000000E+00  0.00000000000E+00 -0.69436493758E+03  0.38438396500E+04  0.37806032043E+04 0.  0.
        2    1    3    3  502    0  0.85258852311E+03  0.30121244388E+03  0.13405848343E+04  0.16170355049E+04  0.25500000920E-02 0. -1.
       -2    1    3    3    0  502 -0.85258852311E+03 -0.30121244388E+03 -0.20349497719E+04  0.22268041450E+04  0.25500000920E-02 0.  1.
</event>
<event>
 5   0  0.4449262E-07  0.2222522E+04  0.7818609E-02  0.8509112E-01
       -2   -1    0    0    0  501  0.00000000000E+00  0.00000000000E+00  0.13020137111E+04  0.13020137111E+04  0.25500000920E-02 0.  1.
        2   -1    0    0  501    0  0.00000000000E+00  0.00000000000E+00 -0.94845464433E+03  0.94845464434E+03  0.25500000920E-02 0. -1.
    10030    2    1    2    0    0  0.00000000000E+00  0.00000000000E+00  0.35355906674E+03  0.22504683554E+04  0.22225219470E+04 0.  0.
        1    1    3    3  502    0  0.60589948201E+01  0.79831817436E+03  0.95951466222E+03  0.12482055143E+04  0.50400001928E-02 0.  1.
       -1    1    3    3    0  502 -0.60589948201E+01 -0.79831817436E+03 -0.60595559547E+03  0.10022628411E+04  0.50400001928E-02 0. -1.
</event>
<event>
 5   0  0.2713405E-07  0.2350982E+04  0.7818609E-02  0.8458087E-01
        1   -1    0    0  501    0  0.00000000000E+00  0.00000000000E+00  0.15584036294E+04  0.15584036294E+04  0.50400001928E-02 0.  1.
       -1   -1    0    0    0  501  0.00000000000E+00  0.00000000000E+00 -0.88666325501E+03  0.88666325502E+03  0.50400001928E-02 0. -1.
    10030    2    1    2    0    0  0.00000000000E+00  0.00000000000E+00  0.67174037440E+03  0.24450668844E+04  0.23509821222E+04 0.  0.
        1    1    3    3  502    0 -0.70852476831E+03 -0.22686213644E+03  0.12824051899E+04  0.14825777711E+04  0.50400001928E-02 0.  1.
       -1    1    3    3    0  502  0.70852476831E+03  0.22686213644E+03 -0.61066481554E+03  0.96248911330E+03  0.50400001928E-02 0. -1.
</event>
<event>
 5   0  0.4449262E-07  0.2179915E+04  0.7818609E-02  0.8526835E-01
       -2   -1    0    0    0  501  0.00000000000E+00  0.00000000000E+00  0.49874149037E+03  0.49874149038E+03  0.25500000920E-02 0. -1.
        2   -1    0    0  501    0  0.00000000000E+00  0.00000000000E+00 -0.23820109900E+04  0.23820109900E+04  0.25500000920E-02 0.  1.
    10030    2    1    2    0    0  0.00000000000E+00  0.00000000000E+00 -0.18832694997E+04  0.28807524804E+04  0.21799153298E+04 0.  0.
        1    1    3    3  502    0 -0.31597251597E+03 -0.84856645868E+03 -0.13986140432E+03  0.91622315954E+03  0.50400001928E-02 0. -1.
       -1    1    3    3    0  502  0.31597251597E+03  0.84856645868E+03 -0.17434080953E+04  0.19645293209E+04  0.50400001928E-02 0.  1.
</event>
<event>
 5   0  0.2647879E-07  0.3931798E+04  0.7818609E-02  0.8018448E-01
       -1   -1    0    0    0  501  0.00000000000E+00  0.00000000000E+00  0.24876354516E+04  0.24876354516E+04  0.50400001928E-02 0. -1.
        1   -1    0    0  501    0  0.00000000000E+00  0.00000000000E+00 -0.15535877015E+04  0.15535877015E+04  0.50400001928E-02 0.  1.
    10030    2    1    2    0    0  0.00000000000E+00  0.00000000000E+00  0.93404775013E+03  0.40412231531E+04  0.39317984910E+04 0.  0.
        2    1    3    3  502    0 -0.14485802698E+04  0.12819725993E+03 -0.89264520994E+03  0.17063513139E+04  0.25500000920E-02 0.  1.
       -2    1    3    3    0  502  0.14485802698E+04 -0.12819725993E+03  0.18266929601E+04  0.23348718393E+04  0.25500000920E-02 0. -1.
</event>
<event>
 5   0  0.5161550E-07  0.2119334E+04  0.7818609E-02  0.8552774E-01
        2   -1    0    0  501    0  0.00000000000E+00  0.00000000000E+00  0.98603347423E+03  0.98603347423E+03  0.25500000920E-02 0. -1.
       -2   -1    0    0    0  501  0.00000000000E+00  0.00000000000E+00 -0.11387990874E+04  0.11387990874E+04  0.25500000920E-02 0.  1.
    10030    2    1    2    0    0  0.00000000000E+00  0.00000000000E+00 -0.15276561316E+03  0.21248325616E+04  0.21193338770E+04 0.  0.
        2    1    3    3  502    0  0.18045655185E+03 -0.67022721282E+03  0.72639742102E+03  0.10047001031E+04  0.25500000920E-02 0. -1.
       -2    1    3    3    0  502 -0.18045655185E+03  0.67022721282E+03 -0.87916303418E+03  0.11201324585E+04  0.25500000920E-02 0.  1.
</event>
<event>
 5   0  0.2647879E-07  0.3762315E+04  0.7818609E-02  0.8054291E-01
       -1   -1    0    0    0  501  0.00000000000E+00  0.00000000000E+00  0.16032422139E+04  0.16032422139E+04  0.50400001928E-02 0. -1.
        1   -1    0    0  501    0  0.00000000000E+00  0.00000000000E+00 -0.22072476532E+04  0.22072476533E+04  0.50400001928E-02 0.  1.
    10030    2    1    2    0    0  0.00000000000E+00  0.00000000000E+00 -0.60400543939E+03  0.38104898671E+04  0.37623145079E+04 0.  0.
        2    1    3    3  502    0  0.59638214150E+03 -0.26459357042E+03  0.14849795378E+04  0.16219881762E+04  0.25500000920E-02 0. -1.
       -2    1    3    3    0  502 -0.59638214150E+03  0.26459357042E+03 -0.20889849772E+04  0.21885016909E+04  0.25500000920E-02 0.  1.
</event>
<event>
 5   0  0.2647879E-07  0.2439923E+04  0.7818609E-02  0.8424707E-01
       -1   -1    0    0    0  501  0.00000000000E+00  0.00000000000E+00  0.86904819708E+03  0.86904819710E+03  0.50400001928E-02 0.  1.
        1   -1    0    0  501    0  0.00000000000E+00  0.00000000000E+00 -0.17125697763E+04  0.17125697763E+04  0.50400001928E-02 0. -1.
    10030    2    1    2    0    0  0.00000000000E+00  0.00000000000E+00 -0.84352157925E+03  0.25816179734E+04  0.24399226844E+04 0.  0.
        2    1    3    3  502    0  0.57992578181E+02 -0.59940010057E+03 -0.15443475733E+04  0.16576046112E+04  0.25500000920E-02 0. -1.
       -2    1    3    3    0  502 -0.57992578181E+02  0.59940010057E+03  0.70082599408E+03  0.92401336228E+03  0.25500000920E-02 0.  1.
</event>
<event>
 5   0  0.7570277E-07  0.3614453E+04  0.7818609E-02  0.8087189E-01
        2   -1    0    0  501    0  0.00000000000E+00  0.00000000000E+00  0.13463252117E+04  0.13463252117E+04  0.25500000920E-02 0. -1.
       -2   -1    0    0    0  501  0.00000000000E+00  0.00000000000E+00 -0.24259128769E+04  0.24259128769E+04  0.25500000920E-02 0.  1.
    10030    2    1    2    0    0  0.00000000000E+00  0.00000000000E+00 -0.10795876652E+04  0.37722380886E+04  0.36144530250E+04 0.  0.
        5    1    3    3  502    0  0.15853724777E+04  0.13624565127E+03 -0.14339785899E+04  0.21420283511E+04  0.46999998093E+01 0.  1.
       -5    1    3    3    0  502 -0.15853724777E+04 -0.13624565127E+03  0.35439092469E+03  0.16302097375E+04  0.46999998093E+01 0. -1.
</event>
<event>
 5   0  0.5161550E-07  0.2234206E+04  0.7818609E-02  0.8504324E-01
       -2   -1    0    0    0  501  0.00000000000E+00  0.00000000000E+00  0.87420954853E+03  0.87420954853E+03  0.25500000920E-02 0. -1.
        2   -1    0    0  501    0  0.00000000000E+00  0.00000000000E+00 -0.14274826160E+04  0.14274826160E+04  0.25500000920E-02 0.  1.
    10030    2    1    2    0    0  0.00000000000E+00  0.00000000000E+00 -0.55327306743E+03  0.23016921645E+04  0.22342058394E+04 0.  0.
        2    1    3    3  502    0  0.49780569672E+02 -0.39395792762E+03  0.79904746957E+03  0.89227675779E+03  0.25500000920E-02 0. -1.
       -2    1    3    3    0  502 -0.49780569672E+02  0.39395792762E+03 -0.13523205370E+04  0.14094154067E+04  0.25500000920E-02 0.  1.
</event>
<event>
 5   0  0.9096049E-07  0.1965364E+04  0.7818609E-02  0.8622987E-01
       -2   -1    0    0    0  501  0.00000000000E+00  0.00000000000E+00  0.52289845717E+03  0.52289845718E+03  0.25500000920E-02 0.  1.
        2   -1    0    0  501    0  0.00000000000E+00  0.00000000000E+00 -0.18467524447E+04  0.18467524447E+04  0.25500000920E-02 0. -1.
    10030    2    1    2    0    0  0.00000000000E+00  0.00000000000E+00 -0.13238539876E+04  0.23696509019E+04  0.19653640926E+04 0.  0.
        4    1    3    3  502    0 -0.81936151099E+03 -0.37192686940E+03 -0.11381113547E+04  0.14508555926E+04  0.12699999809E+01 0. -1.
       -4    1    3    3    0  502  0.81936151099E+03  0.37192686940E+03 -0.18574263282E+03  0.91879530932E+03  0.12699999809E+01 0.  1.
</event>
<event>
 5   0  0.6043512E-07  0.3423928E+04  0.7818609E-02  0.8132058E-01
       -2   -1    0    0    0  501  0.00000000000E+00  0.00000000000E+00  0.21245994230E+04  0.21245994230E+04  0.25500000920E-02 0. -1.
        2   -1    0    0  501    0  0.00000000000E+00  0.00000000000E+00 -0.13794696859E+04  0.13794696859E+04  0.25500000920E-02 0.  1.
    10030    2    1    2    0    0  0.00000000000E+00  0.00000000000E+00  0.74512973706E+03  0.35040691089E+04  0.34239278606E+04 0.  0.
        3    1    3    3  502    0 -0.93986500389E+03 -0.83016307626E+03 -0.82017701993E+03  0.14984015860E+04  0.10100000352E+00 0.  1.
       -3    1    3    3    0  502  0.93986500389E+03  0.83016307626E+03  0.15653067570E+04  0.20056675229E+04  0.10100000352E+00 0. -1.
</event>
<event>
 5   0  0.7256473E-07  0.2699279E+04  0.7818609E-02  0.8335239E-01
       -2   -1    0    0    0  501  0.00000000000E+00  0.00000000000E+00  0.26055610835E+04  0.26055610835E+04  0.25500000920E-02 0.  1.
        2   -1    0    0  501    0  0.00000000000E+00  0.00000000000E+00 -0.69909187156E+03  0.69909187157E+03  0.25500000920E-02 0. -1.
    10030    2    1    2    0    0  0.00000000000E+00  0.00000000000E+00  0.19064692120E+04  0.33046529551E+04  0.26992788477E+04 0.  0.
        4    1    3    3  502    0 -0.45655900760E+03 -0.26236974778E+03  0.24746073758E+04  0.25300132982E+04  0.12699999809E+01 0.  1.
       -4    1    3    3    0  502  0.45655900760E+03  0.26236974778E+03 -0.56813816380E+03  0.77463965690E+03  0.12699999809E+01 0. -1.
</event>
<event>
 5   0  0.3579559E-07  0.3970928E+04  0.7818609E-02  0.8010437E-01
        1   -1    0    0  501    0  0.00000000000E+00  0.00000000000E+00  0.26631426442E+04  0.26631426442E+04  0.50400001928E-02 0.  1.
       -1   -1    0    0    0  501  0.00000000000E+00  0.00000000000E+00 -0.14802317449E+04  0.14802317449E+04  0.50400001928E-02 0. -1.
    10030    2    1    2    0    0  0.00000000000E+00  0.00000000000E+00  0.11829108992E+04  0.41433743891E+04  0.39709284975E+04 0.  0.
        4    1    3    3  502    0  0.10135267240E+04 -0.38174364518E+03  0.23277827350E+04  0.25673992103E+04  0.12699999809E+01 0.  1.
       -4    1    3    3    0  502 -0.10135267240E+04  0.38174364518E+03 -0.11448718358E+04  0.15759751788E+04  0.12699999809E+01 0. -1.
</event>
<event>
 5   0  0.6043512E-07  0.2461343E+04  0.7818609E-02  0.8416888E-01
        2   -1    0    0  501    0  0.00000000000E+00  0.00000000000E+00  0.21980807897E+04  0.21980807897E+04  0.25500000920E-02 0.  1.
       -2   -1    0    0    0  501  0.00000000000E+00  0.00000000000E+00 -0.68903424458E+03  0.68903424459E+03  0.25500000920E-02 0. -1.
    10030    2    1    2    0    0  0.00000000000E+00  0.00000000000E+00  0.15090465451E+04  0.28871150343E+04  0.24613434839E+04 0.  0.
        3    1    3    3  502    0 -0.28854480816E+03  0.40714334368E+03 -0.56503305912E+03  0.75384758188E+03  0.10100000352E+00 0. -1.
       -3    1    3    3    0  502  0.28854480816E+03 -0.40714334368E+03  0.20740796042E+04  0.21332674524E+04  0.10100000352E+00 0.  1.
</event>
<event>
 5   0  0.2401125E-07  0.2577989E+04  0.7818609E-02  0.8375717E-01
       -1   -1    0    0    0  501  0.00000000000E+00  0.00000000000E+00  0.14686920366E+04  0.14686920366E+04  0.50400001928E-02 0. -1.
        1   -1    0    0  501    0  0.00000000000E+00  0.00000000000E+00 -0.11312829580E+04  0.11312829580E+04  0.50400001928E-02 0.  1.
    10030    2    1    2    0    0  0.00000000000E+00  0.00000000000E+00  0.33740907859E+03  0.25999749946E+04  0.25779885738E+04 0.  0.
        5    1    3    3  502    0 -0.29356087258E+03 -0.53079719534E+03 -0.97834337974E+03  0.11511305344E+04  0.46999998093E+01 0.  1.
       -5    1    3    3    0  502  0.29356087258E+03  0.53079719534E+03  0.13157524583E+04  0.14488444603E+04  0.46999998093E+01 0. -1.
</event>
<event>
 5   0  0.7256473E-07  0.4005645E+04  0.7818609E-02  0.8003409E-01
        2   -1    0    0  501    0  0.00000000000E+00  0.00000000000E+00  0.12912936134E+04  0.12912936134E+04  0.25500000920E-02 0.  1.
       -2   -1    0    0    0  501  0.00000000000E+00  0.00000000000E+00 -0.31064176780E+04  0.31064176780E+04  0.25500000920E-02 0. -1.
    10030    2    1    2    0    0  0.00000000000E+00  0.00000000000E+00 -0.18151240646E+04  0.43977112914E+04  0.40056446713E+04 0.  0.
        4    1    3    3  502    0 -0.17011606044E+04 -0.92128455008E+03 -0.33858647390E+03  0.19640150298E+04  0.12699999809E+01 0. -1.
       -4    1    3    3    0  502  0.17011606044E+04  0.92128455008E+03 -0.14765375907E+04  0.24336962616E+04  0.12699999809E+01 0.  1.
</event>
<event>
 5   0  0.5161550E-07  0.3805109E+04  0.7818609E-02  0.8045059E-01
        2   -1    0    0  501    0  0.00000000000E+00  0.00000000000E+00  0.33351622632E+04  0.33351622632E+04  0.25500000920E-02 0. -1.
       -2   -1    0    0    0  501  0.00000000000E+00  0.00000000000E+00 -0.10853184171E+04  0.10853184171E+04  0.25500000920E-02 0.  1.
    10030    2    1    2    0    0  0.00000000000E+00  0.00000000000E+00  0.22498438462E+04  0.44204806803E+04  0.38051086861E+04 0.  0.
        2    1    3    3  502    0  0.75025424765E+03  0.16647620547E+04  0.17455459330E+04  0.25261125745E+04  0.25500000920E-02 0. -1.
       -2    1    3    3    0  502 -0.75025424765E+03 -0.16647620547E+04  0.50429791319E+03  0.18943681058E+04  0.25500000920E-02 0.  1.
</event>
<event>
 5   0  0.6043512E-07  0.3901225E+04  0.7818609E-02  0.8024774E-01
        2   -1    0    0  501    0  0.00000000000E+00  0.00000000000E+00  0.17167769123E+04  0.17167769123E+04  0.25500000920E-02 0. -1.
       -2   -1    0    0    0  501  0.00000000000E+00  0.00000000000E+00 -0.22162983264E+04  0.22162983264E+04  0.25500000920E-02 0.  1.
    10030    2    1    2    0    0  0.00000000000E+00  0.00000000000E+00 -0.49952141404E+03  0.39330752387E+04  0.39012253447E+04 0.  0.
        3    1    3    3  502    0 -0.13825674516E+04 -0.47014876928E+03 -0.15535149503E+04  0.21321213226E+04  0.10100000352E+00 0.  1.
       -3    1    3    3    0  502  0.13825674516E+04  0.47014876928E+03  0.10539935362E+04  0.18009539161E+04  0.10100000352E+00 0. -1.
</event>
<event>
 5   0  0.2401125E-07  0.3603983E+04  0.7818609E-02  0.8089580E-01
       -1   -1    0    0    0  501  0.00000000000E+00  0.00000000000E+00  0.13320707057E+04  0.13320707057E+04  0.50400001928E-02 0. -1.
        1   -1    0    0  501    0  0.00000000000E+00  0.00000000000E+00 -0.24376883409E+04  0.24376883409E+04  0.50400001928E-02 0.  1.
    10030    2    1    2    0    0  0.00000000000E+00  0.00000000000E+00 -0.11056176352E+04  0.37697590467E+04  0.36039829237E+04 0.  0.
        5    1    3    3  502    0  0.10421016112E+04 -0.65595025986E+03 -0.19289640857E+04  0.22884866278E+04  0.46999998093E+01 0.  1.
       -5    1    3    3    0  502 -0.10421016112E+04  0.65595025986E+03  0.82334645047E+03  0.14812724189E+04  0.46999998093E+01 0. -1.
</event>
<event>
 5   0  0.2713405E-07  0.4031185E+04  0.7818609E-02  0.7998285E-01
       -1   -1    0    0    0  501  0.00000000000E+00  0.00000000000E+00  0.22225201882E+04  0.22225201883E+04  0.50400001928E-02 0. -1.
        1   -1    0    0  501    0  0.00000000000E+00  0.00000000000E+00 -0.18279310218E+04  0.18279310218E+04  0.50400001928E-02 0.  1.
    10030    2    1    2    0    0  0.00000000000E+00  0.00000000000E+00  0.39458916647E+03  0.40504512100E+04  0.40311852345E+04 0.  0.
        1    1    3    3  502    0 -0.13990368563E+04 -0.13348922396E+04  0.76867056314E+03  0.20808882362E+04  0.50400001928E-02 0. -1.
       -1    1    3    3    0  502  0.13990368563E+04  0.13348922396E+04 -0.37408139667E+03  0.19695629739E+04  0.50400001928E-02 0.  1.
</event>
<event>
 5   0  0.2601252E-07  0.2533260E+04  0.7818609E-02  0.8391231E-01
        1   -1    0    0  501    0  0.00000000000E+00  0.00000000000E+00  0.15454810024E+04  0.15454810024E+04  0.50400001928E-02 0. -1.
       -1   -1    0    0    0  501  0.00000000000E+00  0.00000000000E+00 -0.10380923812E+04  0.10380923812E+04  0.50400001928E-02 0.  1.
    10030    2    1    2    0    0  0.00000000000E+00  0.00000000000E+00  0.50738862124E+03  0.25835733836E+04  0.25332603923E+04 0.  0.
        3    1    3    3  502    0 -0.54466279100E+03  0.43932226663E+03 -0.82306368604E+03  0.10803219202E+04  0.10100000352E+00 0.  1.
       -3    1    3    3    0  502  0.54466279100E+03 -0.43932226663E+03  0.13304523073E+04  0.15032514633E+04  0.10100000352E+00 0. -1.
</event>
<event>
 5   0  0.5161550E-07  0.3984537E+04  0.7818609E-02  0.8007673E-01
        2   -1    0    0  501    0  0.00000000000E+00  0.00000000000E+00  0.14432138590E+04  0.14432138590E+04  0.25500000920E-02 0. -1.
       -2   -1    0    0    0  501  0.00000000000E+00  0.00000000000E+00 -0.27502048299E+04  0.27502048299E+04  0.25500000920E-02 0.  1.
    10030    2    1    2    0    0  0.00000000000E+00  0.00000000000E+00 -0.13069909709E+04  0.41934186889E+04  0.39845369747E+04 0.  0.
        2    1    3    3  502    0 -0.12800260617E+04  0.10577817898E+04 -0.18120047527E+04  0.24577897097E+04  0.25500000920E-02 0.  1.
       -2    1    3    3    0  502  0.12800260617E+04 -0.10577817898E+04  0.50501378178E+03  0.17356289792E+04  0.25500000920E-02 0. -1.
</event>
<event>
 5   0  0.6043512E-07  0.3945376E+04  0.7818609E-02  0.8015658E-01
       -2   -1    0    0    0  501  0.00000000000E+00  0.00000000000E+00  0.19437219350E+04  0.19437219350E+04  0.25500000920E-02 0. -1.
        2   -1    0    0  501    0  0.00000000000E+00  0.00000000000E+00 -0.20020856610E+04  0.20020856610E+04  0.25500000920E-02 0.  1.
    10030    2    1    2    0    0  0.00000000000E+00  0.00000000000E+00 -0.58363726029E+02  0.39458075960E+04  0.39453759339E+04 0.  0.
        3    1    3    3  502    0  0.11916172716E+04 -0.88963548879E+03  0.12671446533E+04  0.19537294100E+04  0.10100000352E+00 0. -1.
       -3    1    3    3    0  502 -0.11916172716E+04  0.88963548879E+03 -0.13255083794E+04  0.19920781859E+04  0.10100000352E+00 0.  1.
</event>
<event>
 5   0  0.4449262E-07  0.4030886E+04  0.7818609E-02  0.7998345E-01
       -2   -1    0    0    0  501  0.00000000000E+00  0.00000000000E+00  0.25626837016E+04  0.25626837016E+04  0.25500000920E-02 0.  1.
        2   -1    0    0  501    0  0.00000000000E+00  0.00000000000E+00 -0.15850609821E+04  0.15850609821E+04  0.25500000920E-02 0. -1.
    10030    2    1    2    0    0  0.00000000000E+00  0.00000000000E+00  0.97762271951E+03  0.41477446837E+04  0.40308857313E+04 0.  0.
        1    1    3    3  502    0  0.41365540707E+03 -0.15955127555E+04 -0.70465758717E+03  0.17925719132E+04  0.50400001928E-02 0. -1.
       -1    1    3    3    0  502 -0.41365540707E+03  0.15955127555E+04  0.16822803067E+04  0.23551727705E+04  0.50400001928E-02 0.  1.
</event>
<event>
 5   0  0.7256473E-07  0.2583959E+04  0.7818609E-02  0.8373670E-01
       -2   -1    0    0    0  501  0.00000000000E+00  0.00000000000E+00  0.93986462054E+03  0.93986462055E+03  0.25500000920E-02 0.  1.
        2   -1    0    0  501    0  0.00000000000E+00  0.00000000000E+00 -0.17760121499E+04  0.17760121499E+04  0.25500000920E-02 0. -1.
    10030    2    1    2    0    0  0.00000000000E+00  0.00000000000E+00 -0.83614752940E+03  0.27158767705E+04  0.25839589667E+04 0.  0.
        4    1    3    3  502    0  0.41054342014E+03  0.11041383835E+04 -0.97576776004E+03  0.15296378016E+04  0.12699999809E+01 0. -1.
       -4    1    3    3    0  502 -0.41054342014E+03 -0.11041383835E+04  0.13962023064E+03  0.11862389689E+04  0.12699999809E+01 0.  1.
</event>
<event>
 5   0  0.2401125E-07  0.3099668E+04  0.7818609E-02  0.8215829E-01
       -3   -1    0    0    0  501  0.00000000000E+00  0.00000000000E+00  0.27981135251E+04  0.27981135269E+04  0.10100000352E+00 0.  1.
        3   -1    0    0  501    0  0.00000000000E+00  0.00000000000E+00 -0.85843017522E+03  0.85843018117E+03  0.10100000352E+00 0. -1.
    10030    2    1    2    0    0  0.00000000000E+00  0.00000000000E+00  0.19396833499E+04  0.36565437081E+04  0.30996677873E+04 0.  0.
        3    1    3    3  502    0 -0.24734831463E+03 -0.14067984252E+04  0.16793265388E+04  0.22046316318E+04  0.10100000352E+00 0.  1.
       -3    1    3    3    0  502  0.24734831463E+03  0.14067984252E+04  0.26035681110E+03  0.14519120763E+04  0.10100000352E+00 0. -1.
</event>
<event>
 5   0  0.2401125E-07  0.2066049E+04  0.7818609E-02  0.8576348E-01
        1   -1    0    0  501    0  0.00000000000E+00  0.00000000000E+00  0.92458854706E+03  0.92458854708E+03  0.50400001928E-02 0.  1.
       -1   -1    0    0    0  501  0.00000000000E+00  0.00000000000E+00 -0.11541774605E+04  0.11541774605E+04  0.50400001928E-02 0. -1.
    10030    2    1    2    0    0  0.00000000000E+00  0.00000000000E+00 -0.22958891342E+03  0.20787660076E+04  0.20660486551E+04 0.  0.
        5    1    3    3  502    0 -0.42110179311E+03  0.28933791890E+03 -0.10181371240E+04  0.11391525116E+04  0.46999998093E+01 0. -1.
       -5    1    3    3    0  502  0.42110179311E+03 -0.28933791890E+03  0.78854821054E+03  0.93961349598E+03  0.46999998093E+01 0.  1.
</event>
<event>
 5   0  0.2401125E-07  0.2187283E+04  0.7818609E-02  0.8523740E-01
       -1   -1    0    0    0  501  0.00000000000E+00  0.00000000000E+00  0.13499530812E+04  0.13499530812E+04  0.50400001928E-02 0. -1.
        1   -1    0    0  501    0  0.00000000000E+00  0.00000000000E+00 -0.88599470138E+03  0.88599470139E+03  0.50400001928E-02 0.  1.
    10030    2    1    2    0    0  0.00000000000E+00  0.00000000000E+00  0.46395837977E+03  0.22359477826E+04  0.21872825853E+04 0.  0.
        5    1    3    3  502    0 -0.34685659401E+03  0.76995966614E+03 -0.47837865584E+03  0.97057488771E+03  0.46999998093E+01 0.  1.
       -5    1    3    3    0  502  0.34685659401E+03 -0.76995966614E+03  0.94233703562E+03  0.12653728948E+04  0.46999998093E+01 0. -1.
</event>
<event>
 5   0  0.7256473E-07  0.3942101E+04  0.7818609E-02  0.8016329E-01
       -2   -1    0    0    0  501  0.00000000000E+00  0.00000000000E+00  0.17562557349E+04  0.17562557349E+04  0.25500000920E-02 0. -1.
        2   -1    0    0  501    0  0.00000000000E+00  0.00000000000E+00 -0.22121156461E+04  0.22121156461E+04  0.25500000920E-02 0.  1.
    10030    2    1    2    0    0  0.00000000000E+00  0.00000000000E+00 -0.45585991125E+03  0.39683713810E+04  0.39421013633E+04 0.  0.
        4    1    3    3  502    0 -0.98665454091E+03 -0.11958439500E+03 -0.19414043742E+04  0.21810181493E+04  0.12699999809E+01 0.  1.
       -4    1    3    3    0  502  0.98665454091E+03  0.11958439500E+03  0.14855444629E+04  0.17873532317E+04  0.12699999809E+01 0. -1.
</event>
<event>
 5   0  0.2647879E-07  0.2134396E+04  0.7818609E-02  0.8546241E-01
       -1   -1    0    0    0  501  0.00000000000E+00  0.00000000000E+00  0.80895348434E+03  0.80895348436E+03  0.50400001928E-02 0. -1.
        1   -1    0    0  501    0  0.00000000000E+00  0.00000000000E+00 -0.14078827638E+04  0.14078827638E+04  0.50400001928E-02 0.  1.
    10030    2    1    2    0    0  0.00000000000E+00  0.00000000000E+00 -0.59892927946E+03  0.22168362482E+04  0.21343960901E+04 0.  0.
        2    1    3    3  502    0 -0.23506637803E+03  0.38534982002E+03  0.70492398742E+03  0.83705944468E+03  0.25500000920E-02 0. -1.
       -2    1    3    3    0  502  0.23506637803E+03 -0.38534982002E+03 -0.13038532669E+04  0.13797768035E+04  0.25500000920E-02 0.  1.
</event>
<event>
 5   0  0.5161550E-07  0.4097212E+04  0.7818609E-02  0.7985218E-01
        2   -1    0    0  501    0  0.00000000000E+00  0.00000000000E+00  0.19752736101E+04  0.19752736101E+04  0.25500000920E-02 0. -1.
       -2   -1    0    0    0  501  0.00000000000E+00  0.00000000000E+00 -0.21246611617E+04  0.21246611617E+04  0.25500000920E-02 0.  1.
    10030    2    1    2    0    0  0.00000000000E+00  0.00000000000E+00 -0.14938755156E+03  0.40999347718E+04  0.40972122830E+04 0.  0.
        2    1    3    3  502    0  0.27064222251E+03 -0.99388085855E+02 -0.21042579096E+04  0.21239177372E+04  0.25500000920E-02 0.  1.
       -2    1    3    3    0  502 -0.27064222251E+03  0.99388085855E+02  0.19548703580E+04  0.19760170346E+04  0.25500000920E-02 0. -1.
</event>
<event>
 5   0  0.2713405E-07  0.3626895E+04  0.7818609E-02  0.8084359E-01
        1   -1    0    0  501    0  0.00000000000E+00  0.00000000000E+00  0.28650647636E+04  0.28650647636E+04  0.50400001928E-02 0. -1.
       -1   -1    0    0    0  501  0.00000000000E+00  0.00000000000E+00 -0.11478245909E+04  0.11478245909E+04  0.50400001928E-02 0.  1.
    10030    2    1    2    0    0  0.00000000000E+00  0.00000000000E+00  0.17172401727E+04  0.40128893545E+04  0.36268949751E+04 0.  0.
        1    1    3    3  502    0 -0.87270196956E+03  0.14707618433E+04  0.19123112950E+03  0.17208481840E+04  0.50400001928E-02 0.  1.
       -1    1    3    3    0  502  0.87270196956E+03 -0.14707618433E+04  0.15260090432E+04  0.22920411705E+04  0.50400001928E-02 0. -1.
</event>
<event>
 5   0  0.2647879E-07  0.1972435E+04  0.7818609E-02  0.8619618E-01
       -1   -1    0    0    0  501  0.00000000000E+00  0.00000000000E+00  0.87882003168E+03  0.87882003170E+03  0.50400001928E-02 0. -1.
        1   -1    0    0  501    0  0.00000000000E+00  0.00000000000E+00 -0.11067398811E+04  0.11067398811E+04  0.50400001928E-02 0.  1.
    10030    2    1    2    0    0  0.00000000000E+00  0.00000000000E+00 -0.22791984943E+03  0.19855599128E+04  0.19724352232E+04 0.  0.
        2    1    3    3  502    0 -0.75067506995E+03 -0.57155715878E+03  0.17506469099E+03  0.95960319530E+03  0.25500000920E-02 0.  1.
       -2    1    3    3    0  502  0.75067506995E+03  0.57155715878E+03 -0.40298454043E+03  0.10259567175E+04  0.25500000920E-02 0. -1.
</event>
<event>
 5   0  0.7570277E-07  0.2301937E+04  0.7818609E-02  0.8477158E-01
        2   -1    0    0  501    0  0.00000000000E+00  0.00000000000E+00  0.11032941797E+04  0.11032941797E+04  0.25500000920E-02 0. -1.
       -2   -1    0    0    0  501  0.00000000000E+00  0.00000000000E+00 -0.12007030679E+04  0.12007030679E+04  0.25500000920E-02 0.  1.
    10030    2    1    2    0    0  0.00000000000E+00  0.00000000000E+00 -0.97408888126E+02  0.23039972476E+04  0.23019371898E+04 0.  0.
        5    1    3    3  502    0 -0.31318482214E+03 -0.65653374003E+03 -0.94145857881E+03  0.11897426740E+04  0.46999998093E+01 0.  1.
       -5    1    3    3    0  502  0.31318482214E+03  0.65653374003E+03  0.84404969068E+03  0.11142545737E+04  0.46999998093E+01 0. -1.
</event>
<event>
 5   0  0.7256473E-07  0.2093491E+04  0.7818609E-02  0.8564116E-01
       -2   -1    0    0    0  501  0.00000000000E+00  0.00000000000E+00  0.88609825482E+03  0.88609825483E+03  0.25500000920E-02 0. -1.
        2   -1    0    0  501    0  0.00000000000E+00  0.00000000000E+00 -0.12365177273E+04  0.12365177273E+04  0.25500000920E-02 0.  1.
    10030    2    1    2    0    0  0.00000000000E+00  0.00000000000E+00 -0.35041947250E+03  0.21226159822E+04  0.20934910559E+04 0.  0.
        4    1    3    3  502    0 -0.26748820347E+03  0.30562195955E+03  0.80295006768E+03  0.89982506369E+03  0.12699999809E+01 0. -1.
       -4    1    3    3    0  502  0.26748820347E+03 -0.30562195955E+03 -0.11533695402E+04  0.12227909185E+04  0.12699999809E+01 0.  1.
</event>
<event>
 5   0  0.2713405E-07  0.2955154E+04  0.7818609E-02  0.8256654E-01
       -1   -1    0    0    0  501  0.00000000000E+00  0.00000000000E+00  0.11581204645E+04  0.11581204646E+04  0.50400001928E-02 0.  1.
        1   -1    0    0  501    0  0.00000000000E+00  0.00000000000E+00 -0.18851532103E+04  0.18851532103E+04  0.50400001928E-02 0. -1.
    10030    2    1    2    0    0  0.00000000000E+00  0.00000000000E+00 -0.72703274573E+03  0.30432736748E+04  0.29551544878E+04 0.  0.
        1    1    3    3  502    0  0.74692251192E+03 -0.37324297608E+03 -0.16188950492E+04  0.18215446024E+04  0.50400001928E-02 0. -1.
       -1    1    3    3    0  502 -0.74692251192E+03  0.37324297608E+03  0.89186230351E+03  0.12217290724E+04  0.50400001928E-02 0.  1.
</event>
<event>
 5   0  0.4449262E-07  0.3851195E+04  0.7818609E-02  0.8035257E-01
        2   -1    0    0  501    0  0.00000000000E+00  0.00000000000E+00  0.26846828139E+04  0.26846828139E+04  0.25500000920E-02 0.  1.
       -2   -1    0    0    0  501  0.00000000000E+00  0.00000000000E+00 -0.13811408025E+04  0.13811408025E+04  0.25500000920E-02 0. -1.
    10030    2    1    2    0    0  0.00000000000E+00  0.00000000000E+00  0.13035420114E+04  0.40658236164E+04  0.38511946074E+04 0.  0.
        1    1    3    3  502    0 -0.45406185601E+03  0.18685674891E+04  0.75843816980E+03  0.20671103231E+04  0.50400001928E-02 0.  1.
       -1    1    3    3    0  502  0.45406185601E+03 -0.18685674891E+04  0.54510384161E+03  0.19987132933E+04  0.50400001928E-02 0. -1.
</event>
<event>
 5   0  0.5161550E-07  0.2951560E+04  0.7818609E-02  0.8257700E-01
       -2   -1    0    0    0  501  0.00000000000E+00  0.00000000000E+00  0.14819490815E+04  0.14819490815E+04  0.25500000920E-02 0. -1.
        2   -1    0    0  501    0  0.00000000000E+00  0.00000000000E+00 -0.14696364191E+04  0.14696364192E+04  0.25500000920E-02 0.  1.
    10030    2    1    2    0    0  0.00000000000E+00  0.00000000000E+00  0.12312662373E+02  0.29515855007E+04  0.29515598192E+04 0.  0.
        2    1    3    3  502    0  0.20828948623E+03  0.14352423335E+04  0.27932765866E+03  0.14769322960E+04  0.25500000920E-02 0.  1.
       -2    1    3    3    0  502 -0.20828948623E+03 -0.14352423335E+04 -0.26701499629E+03  0.14746532047E+04  0.25500000920E-02 0. -1.
</event>
<event>
 5   0  0.5161550E-07  0.3984992E+04  0.7818609E-02  0.8007581E-01
        2   -1    0    0  501    0  0.00000000000E+00  0.00000000000E+00  0.21345470982E+04  0.21345470982E+04  0.25500000920E-02 0.  1.
       -2   -1    0    0    0  501  0.00000000000E+00  0.00000000000E+00 -0.18598980411E+04  0.18598980411E+04  0.25500000920E-02 0. -1.
    10030    2    1    2    0    0  0.00000000000E+00  0.00000000000E+00  0.27464905705E+03  0.39944451393E+04  0.39849918277E+04 0.  0.
        2    1    3    3  502    0 -0.85869924713E+03  0.14932596420E+04  0.11411247275E+04  0.20662416120E+04  0.25500000920E-02 0.  1.
       -2    1    3    3    0  502  0.85869924713E+03 -0.14932596420E+04 -0.86647567045E+03  0.19282035273E+04  0.25500000920E-02 0. -1.
</event>
<event>
 5   0  0.7570277E-07  0.2759408E+04  0.7818609E-02  0.8315982E-01
        2   -1    0    0  501    0  0.00000000000E+00  0.00000000000E+00  0.14605208662E+04  0.14605208662E+04  0.25500000920E-02 0. -1.
       -2   -1    0    0    0  501  0.00000000000E+00  0.00000000000E+00 -0.13033592297E+04  0.13033592297E+04  0.25500000920E-02 0.  1.
    10030    2    1    2    0    0  0.00000000000E+00  0.00000000000E+00  0.15716163648E+03  0.27638800958E+04  0.27594081619E+04 0.  0.
        5    1    3    3  502    0 -0.51089049766E+02 -0.13727668092E+04  0.20709486211E+03  0.13892477012E+04  0.46999998093E+01 0. -1.
       -5    1    3    3    0  502  0.51089049766E+02  0.13727668092E+04 -0.49933225634E+02  0.13746323946E+04  0.46999998093E+01 0.  1.
</event>
<event>
 5   0  0.3579559E-07  0.2749833E+04  0.7818609E-02  0.8319015E-01
       -1   -1    0    0    0  501  0.00000000000E+00  0.00000000000E+00  0.14920016809E+04  0.14920016810E+04  0.50400001928E-02 0. -1.
        1   -1    0    0  501    0  0.00000000000E+00  0.00000000000E+00 -0.12670198000E+04  0.12670198000E+04  0.50400001928E-02 0.  1.
    10030    2    1    2    0    0  0.00000000000E+00  0.00000000000E+00  0.22498188094E+03  0.27590214810E+04  0.27498332105E+04 0.  0.
        4    1    3    3  502    0 -0.52239527691E+03  0.11715981679E+04 -0.38399069335E+03  0.13390256001E+04  0.12699999809E+01 0. -1.
       -4    1    3    3    0  502  0.52239527691E+03 -0.11715981679E+04  0.60897257429E+03  0.14199958808E+04  0.12699999809E+01 0.  1.
</event>
<event>
 5   0  0.5161550E-07  0.4018920E+04  0.7818609E-02  0.8000741E-01
       -2   -1    0    0    0  501  0.00000000000E+00  0.00000000000E+00  0.16949247666E+04  0.16949247666E+04  0.25500000920E-02 0.  1.
        2   -1    0    0  501    0  0.00000000000E+00  0.00000000000E+00 -0.23823644553E+04  0.23823644553E+04  0.25500000920E-02 0. -1.
    10030    2    1    2    0    0  0.00000000000E+00  0.00000000000E+00 -0.68743968867E+03  0.40772892219E+04  0.40189195157E+04 0.  0.
        2    1    3    3  502    0  0.99101419767E+03 -0.96513889298E+03  0.11349554703E+04  0.17893367884E+04  0.25500000920E-02 0.  1.
       -2    1    3    3    0  502 -0.99101419767E+03  0.96513889298E+03 -0.18223951590E+04  0.22879524335E+04  0.25500000920E-02 0. -1.
</event>
<event>
 5   0  0.4449262E-07  0.3977374E+04  0.7818609E-02  0.8009126E-01
       -2   -1    0    0    0  501  0.00000000000E+00  0.00000000000E+00  0.17080171323E+04  0.17080171323E+04  0.25500000920E-02 0. -1.
        2   -1    0    0  501    0  0.00000000000E+00  0.00000000000E+00 -0.23154783621E+04  0.23154783621E+04  0.25500000920E-02 0.  1.
    10030    2    1    2    0    0  0.00000000000E+00  0.00000000000E+00 -0.60746122983E+03  0.40234954944E+04  0.39773743660E+04 0.  0.
        1    1    3    3  502    0  0.96831409362E+03  0.16915612721E+04 -0.70310604006E+03  0.20720448414E+04  0.50400001928E-02 0.  1.
       -1    1    3    3    0  502 -0.96831409362E+03 -0.16915612721E+04  0.95644810232E+02  0.19514506530E+04  0.50400001928E-02 0. -1.
</event>
<event>
 5   0  0.6043512E-07  0.3876706E+04  0.7818609E-02  0.8029891E-01
        2   -1    0    0  501    0  0.00000000000E+00  0.00000000000E+00  0.23272651238E+04  0.23272651238E+04  0.25500000920E-02 0. -1.
       -2   -1    0    0    0  501  0.00000000000E+00  0.00000000000E+00 -0.16144322903E+04  0.16144322903E+04  0.25500000920E-02 0.  1.
    10030    2    1    2    0    0  0.00000000000E+00  0.00000000000E+00  0.71283283345E+03  0.39416974141E+04  0.38767057995E+04 0.  0.
        3    1    3    3  502    0 -0.81135642600E+03  0.10242511288E+04 -0.10993059281E+04  0.17075898684E+04  0.10100000352E+00 0.  1.
       -3    1    3    3    0  502  0.81135642600E+03 -0.10242511288E+04  0.18121387615E+04  0.22341075458E+04  0.10100000352E+00 0. -1.
</event>
<event>
 5   0  0.2401125E-07  0.3922513E+04  0.7818609E-02  0.8020363E-01
       -1   -1    0    0    0  501  0.00000000000E+00  0.00000000000E+00  0.17918332510E+04  0.17918332510E+04  0.50400001928E-02 0. -1.
        1   -1    0    0  501    0  0.00000000000E+00  0.00000000000E+00 -0.21466994575E+04  0.21466994575E+04  0.50400001928E-02 0.  1.
    10030    2    1    2    0    0  0.00000000000E+00  0.00000000000E+00 -0.35486620653E+03  0.39385327085E+04  0.39225132086E+04 0.  0.
        5    1    3    3  502    0 -0.34298163328E+03  0.15622659095E+04  0.96218860256E+03  0.18665851627E+04  0.46999998093E+01 0. -1.
       -5    1    3    3    0  502  0.34298163328E+03 -0.15622659095E+04 -0.13170548091E+04  0.20719475458E+04  0.46999998093E+01 0.  1.
</event>
<event>
 5   0  0.2713405E-07  0.3929852E+04  0.7818609E-02  0.8018849E-01
       -1   -1    0    0    0  501  0.00000000000E+00  0.00000000000E+00  0.24441957056E+04  0.24441957056E+04  0.50400001928E-02 0. -1.
        1   -1    0    0  501    0  0.00000000000E+00  0.00000000000E+00 -0.15796339947E+04  0.15796339948E+04  0.50400001928E-02 0.  1.
    10030    2    1    2    0    0  0.00000000000E+00  0.00000000000E+00  0.86456171089E+03  0.40238297004E+04  0.39298522244E+04 0.  0.
        1    1    3    3  502    0 -0.25022920411E+03  0.38033668256E+03 -0.15248851959E+04  0.15913973443E+04  0.50400001928E-02 0.  1.
       -1    1    3    3    0  502  0.25022920411E+03 -0.38033668256E+03  0.23894469068E+04  0.24324323561E+04  0.50400001928E-02 0. -1.
</event>
<event>
 5   0  0.5161550E-07  0.4132916E+04  0.7818609E-02  0.7978257E-01
        2   -1    0    0  501    0  0.00000000000E+00  0.00000000000E+00  0.24257051028E+04  0.24257051028E+04  0.25500000920E-02 0. -1.
       -2   -1    0    0    0  501  0.00000000000E+00  0.00000000000E+00 -0.17604150796E+04  0.17604150796E+04  0.25500000920E-02 0.  1.
    10030    2    1    2    0    0  0.00000000000E+00  0.00000000000E+00  0.66529002315E+03  0.41861201824E+04  0.41329156012E+04 0.  0.
        2    1    3    3  502    0 -0.17635612098E+03 -0.13478886493E+04 -0.12437786141E+04  0.18425228718E+04  0.25500000920E-02 0.  1.
       -2    1    3    3    0  502  0.17635612098E+03  0.13478886493E+04  0.19090686372E+04  0.23435973105E+04  0.25500000920E-02 0. -1.
</event>
<event>
 5   0  0.5161550E-07  0.3907124E+04  0.7818609E-02  0.8023549E-01
        2   -1    0    0  501    0  0.00000000000E+00  0.00000000000E+00  0.25300919836E+04  0.25300919836E+04  0.25500000920E-02 0. -1.
       -2   -1    0    0    0  501  0.00000000000E+00  0.00000000000E+00 -0.15084050601E+04  0.15084050601E+04  0.25500000920E-02 0.  1.
    10030    2    1    2    0    0  0.00000000000E+00  0.00000000000E+00  0.10216869235E+04  0.40384970438E+04  0.39071235203E+04 0.  0.
        2    1    3    3  502    0 -0.35045201741E+03  0.17494114968E+04  0.13333032649E+04  0.22273200933E+04  0.25500000920E-02 0. -1.
       -2    1    3    3    0  502  0.35045201741E+03 -0.17494114968E+04 -0.31161634142E+03  0.18111769505E+04  0.25500000920E-02 0.  1.
</event>
<event>
 5   0  0.3777573E-07  0.2136987E+04  0.7818609E-02  0.8545123E-01
        1   -1    0    0  501    0  0.00000000000E+00  0.00000000000E+00  0.10818626572E+04  0.10818626572E+04  0.50400001928E-02 0. -1.
       -1   -1    0    0    0  501  0.00000000000E+00  0.00000000000E+00 -0.10552892297E+04  0.10552892297E+04  0.50400001928E-02 0.  1.
    10030    2    1    2    0    0  0.00000000000E+00  0.00000000000E+00  0.26573427512E+02  0.21371518870E+04  0.21369866731E+04 0.  0.
        4    1    3    3  502    0  0.25338570795E+03  0.66493174283E+03 -0.78385574497E+03  0.10586642440E+04  0.12699999809E+01 0.  1.
       -4    1    3    3    0  502 -0.25338570795E+03 -0.66493174283E+03  0.81042917248E+03  0.10784876430E+04  0.12699999809E+01 0. -1.
</event>
<event>
 5   0  0.3579559E-07  0.4137946E+04  0.7818609E-02  0.7977282E-01
        1   -1    0    0  501    0  0.00000000000E+00  0.00000000000E+00  0.17228795713E+04  0.17228795713E+04  0.50400001928E-02 0.  1.
       -1   -1    0    0    0  501  0.00000000000E+00  0.00000000000E+00 -0.24845900323E+04  0.24845900323E+04  0.50400001928E-02 0. -1.
    10030    2    1    2    0    0  0.00000000000E+00  0.00000000000E+00 -0.76171046097E+03  0.42074696036E+04  0.41379460652E+04 0.  0.
        4    1    3    3  502    0  0.92569857366E+03  0.32751276606E+03 -0.22325691559E+04  0.24389647620E+04  0.12699999809E+01 0. -1.
       -4    1    3    3    0  502 -0.92569857366E+03 -0.32751276606E+03  0.14708586950E+04  0.17685048416E+04  0.12699999809E+01 0.  1.
</event>
<event>
 5   0  0.4449262E-07  0.2194294E+04  0.7818609E-02  0.8520807E-01
        2   -1    0    0  501    0  0.00000000000E+00  0.00000000000E+00  0.16906731623E+04  0.16906731623E+04  0.25500000920E-02 0. -1.
       -2   -1    0    0    0  501  0.00000000000E+00  0.00000000000E+00 -0.71198329557E+03  0.71198329558E+03  0.25500000920E-02 0.  1.
    10030    2    1    2    0    0  0.00000000000E+00  0.00000000000E+00  0.97868986671E+03  0.24026564579E+04  0.21942935536E+04 0.  0.
        1    1    3    3  502    0  0.69513296428E+03  0.46448491853E+03  0.12672844944E+04  0.15182114699E+04  0.50400001928E-02 0. -1.
       -1    1    3    3    0  502 -0.69513296428E+03 -0.46448491853E+03 -0.28859462769E+03  0.88444498796E+03  0.50400001928E-02 0.  1.
</event>
<event>
 5   0  0.2647879E-07  0.3233858E+04  0.7818609E-02  0.8179932E-01
        1   -1    0    0  501    0  0.00000000000E+00  0.00000000000E+00  0.22877770599E+04  0.22877770599E+04  0.50400001928E-02 0.  1.
       -1   -1    0    0    0  501  0.00000000000E+00  0.00000000000E+00 -0.11427944661E+04  0.11427944661E+04  0.50400001928E-02 0. -1.
    10030    2    1    2    0    0  0.00000000000E+00  0.00000000000E+00  0.11449825938E+04  0.34305715261E+04  0.32338577358E+04 0.  0.
        2    1    3    3  502    0 -0.35592389944E+03  0.14701748986E+04 -0.33541274498E+02  0.15130172080E+04  0.25500000920E-02 0. -1.
       -2    1    3    3    0  502  0.35592389944E+03 -0.14701748986E+04  0.11785238683E+04  0.19175543181E+04  0.25500000920E-02 0.  1.
</event>
<event>
 5   0  0.2713405E-07  0.3964494E+04  0.7818609E-02  0.8011748E-01
        1   -1    0    0  501    0  0.00000000000E+00  0.00000000000E+00  0.14615996713E+04  0.14615996713E+04  0.50400001928E-02 0. -1.
       -1   -1    0    0    0  501  0.00000000000E+00  0.00000000000E+00 -0.26883577775E+04  0.26883577775E+04  0.50400001928E-02 0.  1.
    10030    2    1    2    0    0  0.00000000000E+00  0.00000000000E+00 -0.12267581062E+04  0.41499574488E+04  0.39644938360E+04 0.  0.
        1    1    3    3  502    0  0.92630575857E+03 -0.13426670405E+04  0.56558919535E+03  0.17264669930E+04  0.50400001928E-02 0. -1.
       -1    1    3    3    0  502 -0.92630575857E+03  0.13426670405E+04 -0.17923473016E+04  0.24234904558E+04  0.50400001928E-02 0.  1.
</event>
<event>
 5   0  0.2401125E-07  0.2429949E+04  0.7818609E-02  0.8428375E-01
       -1   -1    0    0    0  501  0.00000000000E+00  0.00000000000E+00  0.90005835077E+03  0.90005835078E+03  0.50400001928E-02 0. -1.
        1   -1    0    0  501    0  0.00000000000E+00  0.00000000000E+00 -0.16400752878E+04  0.16400752878E+04  0.50400001928E-02 0.  1.
    10030    2    1    2    0    0  0.00000000000E+00  0.00000000000E+00 -0.74001693703E+03  0.25401336386E+04  0.24299493482E+04 0.  0.
        5    1    3    3  502    0 -0.87611946400E+03 -0.13935836223E+03  0.49777544136E+03  0.10172553998E+04  0.46999998093E+01 0. -1.
       -5    1    3    3    0  502  0.87611946400E+03  0.13935836223E+03 -0.12377923784E+04  0.15228782388E+04  0.46999998093E+01 0.  1.
</event>
<event>
 5   0  0.3579559E-07  0.3413756E+04  0.7818609E-02  0.8134538E-01
        1   -1    0    0  501    0  0.00000000000E+00  0.00000000000E+00  0.91796138588E+03  0.91796138589E+03  0.50400001928E-02 0. -1.
       -1   -1    0    0    0  501  0.00000000000E+00  0.00000000000E+00 -0.31738074848E+04  0.31738074848E+04  0.50400001928E-02 0.  1.
    10030    2    1    2    0    0  0.00000000000E+00  0.00000000000E+00 -0.22558460989E+04  0.40917688707E+04  0.34137561233E+04 0.  0.
        4    1    3    3  502    0  0.25603600069E+03 -0.16673713593E+04 -0.14399063843E+04  0.22178849591E+04  0.12699999809E+01 0.  1.
       -4    1    3    3    0  502 -0.25603600069E+03  0.16673713593E+04 -0.81593971457E+03  0.18738839116E+04  0.12699999809E+01 0. -1.
</event>
<event>
 5   0  0.2713405E-07  0.3859838E+04  0.7818609E-02  0.8033434E-01
       -1   -1    0    0    0  501  0.00000000000E+00  0.00000000000E+00  0.14983504140E+04  0.14983504140E+04  0.50400001928E-02 0. -1.
        1   -1    0    0  501    0  0.00000000000E+00  0.00000000000E+00 -0.24857916628E+04  0.24857916628E+04  0.50400001928E-02 0.  1.
    10030    2    1    2    0    0  0.00000000000E+00  0.00000000000E+00 -0.98744124882E+03  0.39841420769E+04  0.38598378034E+04 0.  0.
        1    1    3    3  502    0  0.86436107402E+03  0.11706076828E+04 -0.18022793942E+04  0.23163880133E+04  0.50400001928E-02 0.  1.
       -1    1    3    3    0  502 -0.86436107402E+03 -0.11706076828E+04  0.81483814542E+03  0.16677540636E+04  0.50400001928E-02 0. -1.
</event>
<event>
 5   0  0.6043512E-07  0.3894094E+04  0.7818609E-02  0.8026259E-01
       -2   -1    0    0    0  501  0.00000000000E+00  0.00000000000E+00  0.25009329099E+04  0.25009329099E+04  0.25500000920E-02 0. -1.
        2   -1    0    0  501    0  0.00000000000E+00  0.00000000000E+00 -0.15158309543E+04  0.15158309543E+04  0.25500000920E-02 0.  1.
    10030    2    1    2    0    0  0.00000000000E+00  0.00000000000E+00  0.98510195555E+03  0.40167638642E+04  0.38940937428E+04 0.  0.
        3    1    3    3  502    0  0.28791711156E+03  0.19226506926E+04  0.60321316892E+03  0.20355215760E+04  0.10100000352E+00 0. -1.
       -3    1    3    3    0  502 -0.28791711156E+03 -0.19226506926E+04  0.38188878663E+03  0.19812422882E+04  0.10100000352E+00 0.  1.
</event>
<event>
 5   0  0.2401125E-07  0.2733010E+04  0.7818609E-02  0.8324373E-01
        3   -1    0    0  501    0  0.00000000000E+00  0.00000000000E+00  0.18149056723E+04  0.18149056751E+04  0.10100000352E+00 0.  1.
       -3   -1    0    0    0  501  0.00000000000E+00  0.00000000000E+00 -0.10288886416E+04  0.10288886466E+04  0.10100000352E+00 0. -1.
    10030    2    1    2    0    0  0.00000000000E+00  0.00000000000E+00  0.78601703071E+03  0.28437943217E+04  0.27330099472E+04 0.  0.
        1    1    3    3  502    0  0.80238073099E+03 -0.26945976303E+03  0.15093012876E+04  0.17304374528E+04  0.50400001928E-02 0.  1.
       -1    1    3    3    0  502 -0.80238073099E+03  0.26945976303E+03 -0.72328425685E+03  0.11133568689E+04  0.50400001928E-02 0. -1.
</event>
<event>
 5   0  0.2647879E-07  0.2307576E+04  0.7818609E-02  0.8474940E-01
        1   -1    0    0  501    0  0.00000000000E+00  0.00000000000E+00  0.11717772306E+04  0.11717772306E+04  0.50400001928E-02 0. -1.
       -1   -1    0    0    0  501  0.00000000000E+00  0.00000000000E+00 -0.11360749207E+04  0.11360749207E+04  0.50400001928E-02 0.  1.
    10030    2    1    2    0    0  0.00000000000E+00  0.00000000000E+00  0.35702309855E+02  0.23078521514E+04  0.23075759787E+04 0.  0.
        2    1    3    3  502    0  0.88970915817E+03 -0.23222883026E+03 -0.67916417988E+03  0.11431432977E+04  0.25500000920E-02 0.  1.
       -2    1    3    3    0  502 -0.88970915817E+03  0.23222883026E+03  0.71486648974E+03  0.11647088537E+04  0.25500000920E-02 0. -1.
</event>
<event>
 5   0  0.5052376E-07  0.2107211E+04  0.7818609E-02  0.8558074E-01
        1   -1    0    0  501    0  0.00000000000E+00  0.00000000000E+00  0.12454854364E+04  0.12454854364E+04  0.50400001928E-02 0. -1.
       -1   -1    0    0    0  501  0.00000000000E+00  0.00000000000E+00 -0.89128647967E+03  0.89128647968E+03  0.50400001928E-02 0.  1.
    10030    2    1    2    0    0  0.00000000000E+00  0.00000000000E+00  0.35419895672E+03  0.21367719161E+04  0.21072107916E+04 0.  0.
        4    1    3    3  502    0 -0.60679342984E+03 -0.74277417703E+02 -0.69305715894E+03  0.92414568101E+03  0.12699999809E+01 0.  1.
       -4    1    3    3    0  502  0.60679342984E+03  0.74277417703E+02  0.10472561157E+04  0.12126262351E+04  0.12699999809E+01 0. -1.
</event>
<event>
 5   0  0.2713405E-07  0.3547451E+04  0.7818609E-02  0.8102636E-01
        1   -1    0    0  501    0  0.00000000000E+00  0.00000000000E+00  0.99089584786E+03  0.99089584787E+03  0.50400001928E-02 0. -1.
       -1   -1    0    0    0  501  0.00000000000E+00  0.00000000000E+00 -0.31750085318E+04  0.31750085318E+04  0.50400001928E-02 0.  1.
    10030    2    1    2    0    0  0.00000000000E+00  0.00000000000E+00 -0.21841126839E+04  0.41659043797E+04  0.35474513505E+04 0.  0.
        1    1    3    3  502    0  0.25349476632E+03 -0.58761149634E+03  0.85059566601E+03  0.10644528427E+04  0.50400001928E-02 0. -1.
       -1    1    3    3    0  502 -0.25349476632E+03  0.58761149634E+03 -0.30347083500E+04  0.31014515370E+04  0.50400001928E-02 0.  1.
</event>
<event>
 5   0  0.6043512E-07  0.2923079E+04  0.7818609E-02  0.8266044E-01
       -2   -1    0    0    0  501  0.00000000000E+00  0.00000000000E+00  0.85366766616E+03  0.85366766617E+03  0.25500000920E-02 0.  1.
        2   -1    0    0  501    0  0.00000000000E+00  0.00000000000E+00 -0.25022587159E+04  0.25022587159E+04  0.25500000920E-02 0. -1.
    10030    2    1    2    0    0  0.00000000000E+00  0.00000000000E+00 -0.16485910498E+04  0.33559263821E+04  0.29230787592E+04 0.  0.
        3    1    3    3  502    0 -0.11656412838E+04 -0.57611524203E+03 -0.15905634354E+04  0.20543905244E+04  0.10100000352E+00 0. -1.
       -3    1    3    3    0  502  0.11656412838E+04  0.57611524203E+03 -0.58027614355E+02  0.13015358577E+04  0.10100000352E+00 0.  1.
</event>
<event>
 5   0  0.2401125E-07  0.2920216E+04  0.7818609E-02  0.8266888E-01
        1   -1    0    0  501    0  0.00000000000E+00  0.00000000000E+00  0.19649239118E+04  0.19649239118E+04  0.50400001928E-02 0. -1.
       -1   -1    0    0    0  501  0.00000000000E+00  0.00000000000E+00 -0.10849863008E+04  0.10849863008E+04  0.50400001928E-02 0.  1.
    10030    2    1    2    0    0  0.00000000000E+00  0.00000000000E+00  0.87993761097E+03  0.30499102125E+04  0.29202161059E+04 0.  0.
        5    1    3    3  502    0  0.72474431128E+03 -0.46758045881E+03  0.16704301924E+04  0.18799587548E+04  0.46999998093E+01 0. -1.
       -5    1    3    3    0  502 -0.72474431128E+03  0.46758045881E+03 -0.79049258140E+03  0.11699514577E+04  0.46999998093E+01 0.  1.
</event>
<event>
 5   0  0.7256473E-07  0.1986067E+04  0.7818609E-02  0.8613163E-01
        2   -1    0    0  501    0  0.00000000000E+00  0.00000000000E+00  0.76668762883E+03  0.76668762883E+03  0.25500000920E-02 0.  1.
       -2   -1    0    0    0  501  0.00000000000E+00  0.00000000000E+00 -0.12862020343E+04  0.12862020343E+04  0.25500000920E-02 0. -1.
    10030    2    1    2    0    0  0.00000000000E+00  0.00000000000E+00 -0.51951440552E+03  0.20528896632E+04  0.19860666534E+04 0.  0.
        4    1    3    3  502    0 -0.63613112179E+03  0.71611392124E+03  0.11033607687E+02  0.95791717059E+03  0.12699999809E+01 0.  1.
       -4    1    3    3    0  502  0.63613112179E+03 -0.71611392124E+03 -0.53054801320E+03  0.10949724926E+04  0.12699999809E+01 0. -1.
</event>
<event>
 5   0  0.2601252E-07  0.2030571E+04  0.7818609E-02  0.8592460E-01
       -1   -1    0    0    0  501  0.00000000000E+00  0.00000000000E+00  0.98762621681E+03  0.98762621682E+03  0.50400001928E-02 0.  1.
        1   -1    0    0  501    0  0.00000000000E+00  0.00000000000E+00 -0.10437195158E+04  0.10437195158E+04  0.50400001928E-02 0. -1.
    10030    2    1    2    0    0  0.00000000000E+00  0.00000000000E+00 -0.56093299025E+02  0.20313457327E+04  0.20305711087E+04 0.  0.
        3    1    3    3  502    0  0.60923837647E+03  0.31081181714E+03 -0.77868571950E+03  0.10364009094E+04  0.10100000352E+00 0. -1.
       -3    1    3    3    0  502 -0.60923837647E+03 -0.31081181714E+03  0.72259242048E+03  0.99494482328E+03  0.10100000352E+00 0.  1.
</event>
<event>
 5   0  0.7256473E-07  0.2842412E+04  0.7818609E-02  0.8290221E-01
       -2   -1    0    0    0  501  0.00000000000E+00  0.00000000000E+00  0.10754857871E+04  0.10754857871E+04  0.25500000920E-02 0.  1.
        2   -1    0    0  501    0  0.00000000000E+00  0.00000000000E+00 -0.18780591570E+04  0.18780591570E+04  0.25500000920E-02 0. -1.
    10030    2    1    2    0    0  0.00000000000E+00  0.00000000000E+00 -0.80257336993E+03  0.29535449441E+04  0.28424116033E+04 0.  0.
        4    1    3    3  502    0 -0.10614914966E+04  0.22561361372E+03 -0.13548588492E+04  0.17358887678E+04  0.12699999809E+01 0. -1.
       -4    1    3    3    0  502  0.10614914966E+04 -0.22561361372E+03  0.55228547930E+03  0.12176561763E+04  0.12699999809E+01 0.  1.
</event>
<event>
 5   0  0.2601252E-07  0.4051730E+04  0.7818609E-02  0.7994192E-01
       -1   -1    0    0    0  501  0.00000000000E+00  0.00000000000E+00  0.15690972291E+04  0.15690972291E+04  0.50400001928E-02 0.  1.
        1   -1    0    0  501    0  0.00000000000E+00  0.00000000000E+00 -0.26155990159E+04  0.26155990159E+04  0.50400001928E-02 0. -1.
    10030    2    1    2    0    0  0.00000000000E+00  0.00000000000E+00 -0.10465017868E+04  0.41846962450E+04  0.40517300840E+04 0.  0.
        3    1    3    3  502    0 -0.63385059803E+03  0.87942881948E+02 -0.25084717477E+04  0.25888088092E+04  0.10100000352E+00 0. -1.
       -3    1    3    3    0  502  0.63385059803E+03 -0.87942881948E+02  0.14619699609E+04  0.15958874359E+04  0.10100000352E+00 0.  1.
</event>
<event>
 5   0  0.5161550E-07  0.2169334E+04  0.7818609E-02  0.8531301E-01
        2   -1    0    0  501    0  0.00000000000E+00  0.00000000000E+00  0.12361632910E+04  0.12361632910E+04  0.25500000920E-02 0.  1.
       -2   -1    0    0    0  501  0.00000000000E+00  0.00000000000E+00 -0.95173728704E+03  0.95173728704E+03  0.25500000920E-02 0. -1.
    10030    2    1    2    0    0  0.00000000000E+00  0.00000000000E+00  0.28442600398E+03  0.21879005781E+04  0.21693341807E+04 0.  0.
        2    1    3    3  502    0  0.69577895192E+03 -0.83200496300E+03  0.12937263962E+03  0.10922810482E+04  0.25500000920E-02 0. -1.
       -2    1    3    3    0  502 -0.69577895192E+03  0.83200496300E+03  0.15505336436E+03  0.10956195299E+04  0.25500000920E-02 0.  1.
</event>
<event>
 5   0  0.7256473E-07  0.2137464E+04  0.7818609E-02  0.8544917E-01
        2   -1    0    0  501    0  0.00000000000E+00  0.00000000000E+00  0.83329598336E+03  0.83329598336E+03  0.25500000920E-02 0.  1.
       -2   -1    0    0    0  501  0.00000000000E+00  0.00000000000E+00 -0.13706873843E+04  0.13706873843E+04  0.25500000920E-02 0. -1.
    10030    2    1    2    0    0  0.00000000000E+00  0.00000000000E+00 -0.53739140099E+03  0.22039833677E+04  0.21374641909E+04 0.  0.
        4    1    3    3  502    0 -0.38807953119E+03 -0.54293947093E+03  0.59202612460E+03  0.89212417114E+03  0.12699999809E+01 0.  1.
       -4    1    3    3    0  502  0.38807953119E+03  0.54293947093E+03 -0.11294175256E+04  0.13118591966E+04  0.12699999809E+01 0. -1.
</event>
<event>
 5   0  0.2401125E-07  0.4063524E+04  0.7818609E-02  0.7991853E-01
       -1   -1    0    0    0  501  0.00000000000E+00  0.00000000000E+00  0.15619170384E+04  0.15619170384E+04  0.50400001928E-02 0. -1.
        1   -1    0    0  501    0  0.00000000000E+00  0.00000000000E+00 -0.26429419938E+04  0.26429419938E+04  0.50400001928E-02 0.  1.
    10030    2    1    2    0    0  0.00000000000E+00  0.00000000000E+00 -0.10810249554E+04  0.42048590322E+04  0.40635236589E+04 0.  0.
        5    1    3    3  502    0 -0.15604115771E+04 -0.83184148750E+03  0.49488425280E+03  0.18362399255E+04  0.46999998093E+01 0. -1.
       -5    1    3    3    0  502  0.15604115771E+04  0.83184148750E+03 -0.15759092082E+04  0.23686191067E+04  0.46999998093E+01 0.  1.
</event>
<event>
 5   0  0.2647879E-07  0.4010425E+04  0.7818609E-02  0.8002447E-01
        1   -1    0    0  501    0  0.00000000000E+00  0.00000000000E+00  0.13999995228E+04  0.13999995228E+04  0.50400001928E-02 0.  1.
       -1   -1    0    0    0  501  0.00000000000E+00  0.00000000000E+00 -0.28720556038E+04  0.28720556038E+04  0.50400001928E-02 0. -1.
    10030    2    1    2    0    0  0.00000000000E+00  0.00000000000E+00 -0.14720560810E+04  0.42720551267E+04  0.40104246533E+04 0.  0.
        2    1    3    3  502    0 -0.68234170897E+03 -0.46647993030E+03 -0.26821453409E+04  0.28066167110E+04  0.25500000920E-02 0. -1.
       -2    1    3    3    0  502  0.68234170897E+03  0.46647993030E+03  0.12100892599E+04  0.14654384156E+04  0.25500000920E-02 0.  1.
</event>
<event>
 5   0  0.4449262E-07  0.3968941E+04  0.7818609E-02  0.8010841E-01
        2   -1    0    0  501    0  0.00000000000E+00  0.00000000000E+00  0.14455122705E+04  0.14455122705E+04  0.25500000920E-02 0.  1.
       -2   -1    0    0    0  501  0.00000000000E+00  0.00000000000E+00 -0.27243795918E+04  0.27243795918E+04  0.25500000920E-02 0. -1.
    10030    2    1    2    0    0  0.00000000000E+00  0.00000000000E+00 -0.12788673212E+04  0.41698918623E+04  0.39689414858E+04 0.  0.
        1    1    3    3  502    0 -0.13416563533E+04 -0.30238121566E+03 -0.21424775760E+04  0.25459156180E+04  0.50400001928E-02 0. -1.
       -1    1    3    3    0  502  0.13416563533E+04  0.30238121566E+03  0.86361025481E+03  0.16239762443E+04  0.50400001928E-02 0.  1.
</event>
<event>
 5   0  0.6043512E-07  0.2385808E+04  0.7818609E-02  0.8444836E-01
        2   -1    0    0  501    0  0.00000000000E+00  0.00000000000E+00  0.54773603290E+03  0.54773603291E+03  0.25500000920E-02 0. -1.
       -2   -1    0    0    0  501  0.00000000000E+00  0.00000000000E+00 -0.25980023245E+04  0.25980023245E+04  0.25500000920E-02 0.  1.
    10030    2    1    2    0    0  0.00000000000E+00  0.00000000000E+00 -0.20502662916E+04  0.31457383574E+04  0.23858076089E+04 0.  0.
        3    1    3    3  502    0  0.52761356142E+03  0.21715663270E+03  0.35616284994E+03  0.67259576210E+03  0.10100000352E+00 0. -1.
       -3    1    3    3    0  502 -0.52761356142E+03 -0.21715663270E+03 -0.24064291415E+04  0.24731425953E+04  0.10100000352E+00 0.  1.
</event>
<event>
 5   0  0.5161550E-07  0.3845969E+04  0.7818609E-02  0.8036361E-01
        2   -1    0    0  501    0  0.00000000000E+00  0.00000000000E+00  0.25666844622E+04  0.25666844622E+04  0.25500000920E-02 0. -1.
       -2   -1    0    0    0  501  0.00000000000E+00  0.00000000000E+00 -0.14407184193E+04  0.14407184193E+04  0.25500000920E-02 0.  1.
    10030    2    1    2    0    0  0.00000000000E+00  0.00000000000E+00  0.11259660429E+04  0.40074028815E+04  0.38459691009E+04 0.  0.
        2    1    3    3  502    0  0.14790942148E+04 -0.97735999722E+03  0.13391789418E+04  0.22217903813E+04  0.25500000920E-02 0. -1.
       -2    1    3    3    0  502 -0.14790942148E+04  0.97735999722E+03 -0.21321289889E+03  0.17856125002E+04  0.25500000920E-02 0.  1.
</event>
<event>
 5   0  0.4449262E-07  0.2121425E+04  0.7818609E-02  0.8551864E-01
       -2   -1    0    0    0  501  0.00000000000E+00  0.00000000000E+00  0.10607242351E+04  0.10607242351E+04  0.25500000920E-02 0.  1.
        2   -1    0    0  501    0  0.00000000000E+00  0.00000000000E+00 -0.10607003851E+04  0.10607003851E+04  0.25500000920E-02 0. -1.
    10030    2    1    2    0    0  0.00000000000E+00  0.00000000000E+00  0.23849978531E-01  0.21214246202E+04  0.21214246201E+04 0.  0.
        1    1    3    3  502    0 -0.41448028617E+03 -0.61972587458E+03 -0.75447898778E+03  0.10607038278E+04  0.50400001928E-02 0. -1.
       -1    1    3    3    0  502  0.41448028617E+03  0.61972587458E+03  0.75450283776E+03  0.10607207924E+04  0.50400001928E-02 0.  1.
</event>
<event>
 5   0  0.7570277E-07  0.3993258E+04  0.7818609E-02  0.8005908E-01
       -2   -1    0    0    0  501  0.00000000000E+00  0.00000000000E+00  0.13088602920E+04  0.13088602920E+04  0.25500000920E-02 0. -1.
        2   -1    0    0  501    0  0.00000000000E+00  0.00000000000E+00 -0.30458008554E+04  0.30458008554E+04  0.25500000920E-02 0.  1.
    10030    2    1    2    0    0  0.00000000000E+00  0.00000000000E+00 -0.17369405634E+04  0.43546611473E+04  0.39932582170E+04 0.  0.
        5    1    3    3  502    0  0.88199156717E+03 -0.79610963785E+03 -0.26183138722E+04  0.28752894295E+04  0.46999998093E+01 0.  1.
       -5    1    3    3    0  502 -0.88199156717E+03  0.79610963785E+03  0.88137330883E+03  0.14793717178E+04  0.46999998093E+01 0. -1.
</event>
<event>
 5   0  0.2647879E-07  0.4077908E+04  0.7818609E-02  0.7989012E-01
        1   -1    0    0  501    0  0.00000000000E+00  0.00000000000E+00  0.18257707287E+04  0.18257707287E+04  0.50400001928E-02 0. -1.
       -1   -1    0    0    0  501  0.00000000000E+00  0.00000000000E+00 -0.22770289190E+04  0.22770289190E+04  0.50400001928E-02 0.  1.
    10030    2    1    2    0    0  0.00000000000E+00  0.00000000000E+00 -0.45125819026E+03  0.41027996477E+04  0.40779076737E+04 0.  0.
        2    1    3    3  502    0  0.54946764425E+03 -0.18417253758E+04 -0.91056781613E+03  0.21267347742E+04  0.25500000920E-02 0.  1.
       -2    1    3    3    0  502 -0.54946764425E+03  0.18417253758E+04  0.45930962587E+03  0.19760648735E+04  0.25500000920E-02 0. -1.
</event>
<event>
 5   0  0.2601252E-07  0.3634986E+04  0.7818609E-02  0.8082524E-01
        1   -1    0    0  501    0  0.00000000000E+00  0.00000000000E+00  0.21448611237E+04  0.21448611237E+04  0.50400001928E-02 0. -1.
       -1   -1    0    0    0  501  0.00000000000E+00  0.00000000000E+00 -0.15400906871E+04  0.15400906871E+04  0.50400001928E-02 0.  1.
    10030    2    1    2    0    0  0.00000000000E+00  0.00000000000E+00  0.60477043660E+03  0.36849518108E+04  0.36349859101E+04 0.  0.
        3    1    3    3  502    0 -0.11054934240E+03  0.96832522010E+02 -0.15340575169E+04  0.15410808447E+04  0.10100000352E+00 0.  1.
       -3    1    3    3    0  502  0.11054934240E+03 -0.96832522010E+02  0.21388279535E+04  0.21438709661E+04  0.10100000352E+00 0. -1.
</event>
<event>
 5   0  0.2713405E-07  0.3816459E+04  0.7818609E-02  0.8042632E-01
       -1   -1    0    0    0  501  0.00000000000E+00  0.00000000000E+00  0.23003321378E+04  0.23003321378E+04  0.50400001928E-02 0. -1.
        1   -1    0    0  501    0  0.00000000000E+00  0.00000000000E+00 -0.15829628232E+04  0.15829628233E+04  0.50400001928E-02 0.  1.
    10030    2    1    2    0    0  0.00000000000E+00  0.00000000000E+00  0.71736931459E+03  0.38832949611E+04  0.38164592257E+04 0.  0.
        1    1    3    3  502    0  0.10015208586E+04 -0.94811305952E+03 -0.98326653411E+03  0.16937459907E+04  0.50400001928E-02 0.  1.
       -1    1    3    3    0  502 -0.10015208586E+04  0.94811305952E+03  0.17006358487E+04  0.21895489704E+04  0.50400001928E-02 0. -1.
</event>
<event>
 5   0  0.4449262E-07  0.4070876E+04  0.7818609E-02  0.7990399E-01
        2   -1    0    0  501    0  0.00000000000E+00  0.00000000000E+00  0.24109898640E+04  0.24109898640E+04  0.25500000920E-02 0.  1.
       -2   -1    0    0    0  501  0.00000000000E+00  0.00000000000E+00 -0.17183848806E+04  0.17183848806E+04  0.25500000920E-02 0. -1.
    10030    2    1    2    0    0  0.00000000000E+00  0.00000000000E+00  0.69260498341E+03  0.41293747446E+04  0.40708763330E+04 0.  0.
        1    1    3    3  502    0 -0.38752531928E+03  0.19916343760E+04  0.18203352151E+03  0.20371351363E+04  0.50400001928E-02 0. -1.
       -1    1    3    3    0  502  0.38752531928E+03 -0.19916343760E+04  0.51057146190E+03  0.20922396083E+04  0.50400001928E-02 0.  1.
</event>
<event>
 5   0  0.6043512E-07  0.3767138E+04  0.7818609E-02  0.8053244E-01
        2   -1    0    0  501    0  0.00000000000E+00  0.00000000000E+00  0.25609848267E+04  0.25609848267E+04  0.25500000920E-02 0.  1.
       -2   -1    0    0    0  501  0.00000000000E+00  0.00000000000E+00 -0.13853393661E+04  0.13853393661E+04  0.25500000920E-02 0. -1.
    10030    2    1    2    0    0  0.00000000000E+00  0.00000000000E+00  0.11756454606E+04  0.39463241928E+04  0.37671384877E+04 0.  0.
        3    1    3    3  502    0  0.17014358533E+04 -0.36725142178E+03  0.13418337764E+04  0.21977887668E+04  0.10100000352E+00 0.  1.
       -3    1    3    3    0  502 -0.17014358533E+04  0.36725142178E+03 -0.16618831585E+03  0.17485354260E+04  0.10100000352E+00 0. -1.
</event>
<event>
 5   0  0.5161550E-07  0.3030219E+04  0.7818609E-02  0.8235154E-01
       -2   -1    0    0    0  501  0.00000000000E+00  0.00000000000E+00  0.21529673207E+04  0.21529673207E+04  0.25500000920E-02 0.  1.
        2   -1    0    0  501    0  0.00000000000E+00  0.00000000000E+00 -0.10662295790E+04  0.10662295790E+04  0.25500000920E-02 0. -1.
    10030    2    1    2    0    0  0.00000000000E+00  0.00000000000E+00  0.10867377417E+04  0.32191968998E+04  0.30302194244E+04 0.  0.
        2    1    3    3  502    0 -0.36650919396E+03 -0.78358874828E+03 -0.77807613738E+03  0.11635045300E+04  0.25500000920E-02 0. -1.
       -2    1    3    3    0  502  0.36650919396E+03  0.78358874828E+03  0.18648138791E+04  0.20556923698E+04  0.25500000920E-02 0.  1.
</event>
<event>
 5   0  0.2713405E-07  0.4007590E+04  0.7818609E-02  0.8003017E-01
       -1   -1    0    0    0  501  0.00000000000E+00  0.00000000000E+00  0.18700040276E+04  0.18700040276E+04  0.50400001928E-02 0. -1.
        1   -1    0    0  501    0  0.00000000000E+00  0.00000000000E+00 -0.21471578735E+04  0.21471578735E+04  0.50400001928E-02 0.  1.
    10030    2    1    2    0    0  0.00000000000E+00  0.00000000000E+00 -0.27715384588E+03  0.40171619011E+04  0.40075897352E+04 0.  0.
        1    1    3    3  502    0  0.10135903565E+04 -0.15857080259E+04 -0.82823079265E+03  0.20561618614E+04  0.50400001928E-02 0.  1.
       -1    1    3    3    0  502 -0.10135903565E+04  0.15857080259E+04  0.55107694677E+03  0.19610000397E+04  0.50400001928E-02 0. -1.
</event>
<event>
 5   0  0.5161550E-07  0.2238425E+04  0.7818609E-02  0.8502603E-01
       -2   -1    0    0    0  501  0.00000000000E+00  0.00000000000E+00  0.12469053763E+04  0.12469053763E+04  0.25500000920E-02 0.  1.
        2   -1    0    0  501    0  0.00000000000E+00  0.00000000000E+00 -0.10045967586E+04  0.10045967586E+04  0.25500000920E-02 0. -1.
    10030    2    1    2    0    0  0.00000000000E+00  0.00000000000E+00  0.24230861772E+03  0.22515021349E+04  0.22384254281E+04 0.  0.
        2    1    3    3  502    0 -0.82053361790E+03  0.24484207097E+03 -0.60375983827E+03  0.10477351765E+04  0.25500000920E-02 0.  1.
       -2    1    3    3    0  502  0.82053361790E+03 -0.24484207097E+03  0.84606845599E+03  0.12037669584E+04  0.25500000920E-02 0. -1.
</event>
<event>
 5   0  0.3579559E-07  0.4031957E+04  0.7818609E-02  0.7998131E-01
       -1   -1    0    0    0  501  0.00000000000E+00  0.00000000000E+00  0.25517719285E+04  0.25517719285E+04  0.50400001928E-02 0.  1.
        1   -1    0    0  501    0  0.00000000000E+00  0.00000000000E+00 -0.15926848534E+04  0.15926848534E+04  0.50400001928E-02 0. -1.
    10030    2    1    2    0    0  0.00000000000E+00  0.00000000000E+00  0.95908707506E+03  0.41444567819E+04  0.40319565969E+04 0.  0.
        4    1    3    3  502    0 -0.87134363608E+03 -0.14774402942E+04  0.15683909708E+04  0.23242033915E+04  0.12699999809E+01 0.  1.
       -4    1    3    3    0  502  0.87134363608E+03  0.14774402942E+04 -0.60930389571E+03  0.18202533904E+04  0.12699999809E+01 0. -1.
</event>
<event>
 5   0  0.2401125E-07  0.3994951E+04  0.7818609E-02  0.8005566E-01
       -1   -1    0    0    0  501  0.00000000000E+00  0.00000000000E+00  0.25427034885E+04  0.25427034885E+04  0.50400001928E-02 0. -1.
        1   -1    0    0  501    0  0.00000000000E+00  0.00000000000E+00 -0.15691602640E+04  0.15691602640E+04  0.50400001928E-02 0.  1.
    10030    2    1    2    0    0  0.00000000000E+00  0.00000000000E+00  0.97354322455E+03  0.41118637525E+04  0.39949514527E+04 0.  0.
        5    1    3    3  502    0  0.16531912952E+04  0.89508791974E+03  0.11815547291E+04  0.22204318297E+04  0.46999998093E+01 0. -1.
       -5    1    3    3    0  502 -0.16531912952E+04 -0.89508791974E+03 -0.20801150455E+03  0.18914319228E+04  0.46999998093E+01 0.  1.
</event>
<event>
 5   0  0.5161550E-07  0.2898427E+04  0.7818609E-02  0.8273346E-01
       -2   -1    0    0    0  501  0.00000000000E+00  0.00000000000E+00  0.14460069458E+04  0.14460069458E+04  0.25500000920E-02 0.  1.
        2   -1    0    0  501    0  0.00000000000E+00  0.00000000000E+00 -0.14524269029E+04  0.14524269029E+04  0.25500000920E-02 0. -1.
    10030    2    1    2    0    0  0.00000000000E+00  0.00000000000E+00 -0.64199570453E+01  0.28984338487E+04  0.28984267387E+04 0.  0.
        2    1    3    3  502    0 -0.58651147400E+03 -0.82522559815E+03 -0.10401437604E+04  0.14515137062E+04  0.25500000920E-02 0. -1.
       -2    1    3    3    0  502  0.58651147400E+03  0.82522559815E+03  0.10337238034E+04  0.14469201425E+04  0.25500000920E-02 0.  1.
</event>
<event>
 5   0  0.2713405E-07  0.2061020E+04  0.7818609E-02  0.8578611E-01
        1   -1    0    0  501    0  0.00000000000E+00  0.00000000000E+00  0.59068188277E+03  0.59068188279E+03  0.50400001928E-02 0.  1.
       -1   -1    0    0    0  501  0.00000000000E+00  0.00000000000E+00 -0.17978395095E+04  0.17978395095E+04  0.50400001928E-02 0. -1.
    10030    2    1    2    0    0  0.00000000000E+00  0.00000000000E+00 -0.12071576267E+04  0.23885213923E+04  0.20610203555E+04 0.  0.
        1    1    3    3  502    0  0.63838402211E+03 -0.59867603056E+03 -0.12340942167E+04  0.15129228946E+04  0.50400001928E-02 0. -1.
       -1    1    3    3    0  502 -0.63838402211E+03  0.59867603056E+03  0.26936589996E+02  0.87559849769E+03  0.50400001928E-02 0.  1.
</event>
<event>
 5   0  0.2401125E-07  0.1984058E+04  0.7818609E-02  0.8614111E-01
        1   -1    0    0  501    0  0.00000000000E+00  0.00000000000E+00  0.19647876879E+04  0.19647876879E+04  0.50400001928E-02 0.  1.
       -1   -1    0    0    0  501  0.00000000000E+00  0.00000000000E+00 -0.50087924260E+03  0.50087924263E+03  0.50400001928E-02 0. -1.
    10030    2    1    2    0    0  0.00000000000E+00  0.00000000000E+00  0.14639084453E+04  0.24656669305E+04  0.19840578308E+04 0.  0.
        5    1    3    3  502    0  0.58167493266E+02 -0.70853065442E+03  0.15917827658E+04  0.17433283136E+04  0.46999998093E+01 0.  1.
       -5    1    3    3    0  502 -0.58167493266E+02  0.70853065442E+03 -0.12787432059E+03  0.72233861685E+03  0.46999998093E+01 0. -1.
</event>
<event>
 5   0  0.3579559E-07  0.2154993E+04  0.7818609E-02  0.8537398E-01
        1   -1    0    0  501    0  0.00000000000E+00  0.00000000000E+00  0.75030243361E+03  0.75030243363E+03  0.50400001928E-02 0.  1.
       -1   -1    0    0    0  501  0.00000000000E+00  0.00000000000E+00 -0.15473738695E+04  0.15473738695E+04  0.50400001928E-02 0. -1.
    10030    2    1    2    0    0  0.00000000000E+00  0.00000000000E+00 -0.79707143589E+03  0.22976763031E+04  0.21549926961E+04 0.  0.
        4    1    3    3  502    0 -0.89839049652E+03  0.54659488288E+03 -0.64886899938E+03  0.12356795869E+04  0.12699999809E+01 0.  1.
       -4    1    3    3    0  502  0.89839049652E+03 -0.54659488288E+03 -0.14820243652E+03  0.10619967162E+04  0.12699999809E+01 0. -1.
</event>
<event>
 5   0  0.7570277E-07  0.3929056E+04  0.7818609E-02  0.8019013E-01
       -2   -1    0    0    0  501  0.00000000000E+00  0.00000000000E+00  0.13961187265E+04  0.13961187265E+04  0.25500000920E-02 0. -1.
        2   -1    0    0  501    0  0.00000000000E+00  0.00000000000E+00 -0.27643574385E+04  0.27643574385E+04  0.25500000920E-02 0.  1.
    10030    2    1    2    0    0  0.00000000000E+00  0.00000000000E+00 -0.13682387120E+04  0.41604761650E+04  0.39290564702E+04 0.  0.
        5    1    3    3  502    0  0.93208832697E+03  0.20343787978E+03  0.11343455630E+04  0.14822069918E+04  0.46999998093E+01 0. -1.
       -5    1    3    3    0  502 -0.93208832697E+03 -0.20343787978E+03 -0.25025842750E+04  0.26782691732E+04  0.46999998093E+01 0.  1.
</event>
<event>
 5   0  0.7570277E-07  0.3704363E+04  0.7818609E-02  0.8066996E-01
       -2   -1    0    0    0  501  0.00000000000E+00  0.00000000000E+00  0.25285829300E+04  0.25285829300E+04  0.25500000920E-02 0. -1.
        2   -1    0    0  501    0  0.00000000000E+00  0.00000000000E+00 -0.13567190262E+04  0.13567190262E+04  0.25500000920E-02 0.  1.
    10030    2    1    2    0    0  0.00000000000E+00  0.00000000000E+00  0.11718639038E+04  0.38853019561E+04  0.37043631411E+04 0.  0.
        5    1    3    3  502    0 -0.23141298069E+03  0.17977481753E+04  0.18640053889E+03  0.18221464596E+04  0.46999998093E+01 0.  1.
       -5    1    3    3    0  502  0.23141298069E+03 -0.17977481753E+04  0.98546336493E+03  0.20631554965E+04  0.46999998093E+01 0. -1.
</event>
<event>
 5   0  0.2401125E-07  0.3870619E+04  0.7818609E-02  0.8031168E-01
        1   -1    0    0  501    0  0.00000000000E+00  0.00000000000E+00  0.21475937570E+04  0.21475937570E+04  0.50400001928E-02 0. -1.
       -1   -1    0    0    0  501  0.00000000000E+00  0.00000000000E+00 -0.17440091471E+04  0.17440091471E+04  0.50400001928E-02 0.  1.
    10030    2    1    2    0    0  0.00000000000E+00  0.00000000000E+00  0.40358460993E+03  0.38916029041E+04  0.38706191528E+04 0.  0.
        5    1    3    3  502    0 -0.57390639645E+03  0.17102311914E+04 -0.50282210462E+03  0.18727283409E+04  0.46999998093E+01 0.  1.
       -5    1    3    3    0  502  0.57390639645E+03 -0.17102311914E+04  0.90640671455E+03  0.20188745632E+04  0.46999998093E+01 0. -1.
</event>
<event>
 5   0  0.2401125E-07  0.3628314E+04  0.7818609E-02  0.8084037E-01
       -1   -1    0    0    0  501  0.00000000000E+00  0.00000000000E+00  0.23179281398E+04  0.23179281398E+04  0.50400001928E-02 0. -1.
        1   -1    0    0  501    0  0.00000000000E+00  0.00000000000E+00 -0.14198737034E+04  0.14198737034E+04  0.50400001928E-02 0.  1.
    10030    2    1    2    0    0  0.00000000000E+00  0.00000000000E+00  0.89805443639E+03  0.37378018433E+04  0.36283137749E+04 0.  0.
        5    1    3    3  502    0  0.10948741553E+04 -0.13762445369E+04  0.90782542862E+03  0.19791330274E+04  0.46999998093E+01 0.  1.
       -5    1    3    3    0  502 -0.10948741553E+04  0.13762445369E+04 -0.97709922278E+01  0.17586688158E+04  0.46999998093E+01 0. -1.
</event>
<event>
 5   0  0.2401125E-07  0.3318696E+04  0.7818609E-02  0.8158154E-01
       -1   -1    0    0    0  501  0.00000000000E+00  0.00000000000E+00  0.13126724650E+04  0.13126724650E+04  0.50400001928E-02 0. -1.
        1   -1    0    0  501    0  0.00000000000E+00  0.00000000000E+00 -0.20975807677E+04  0.20975807677E+04  0.50400001928E-02 0.  1.
    10030    2    1    2    0    0  0.00000000000E+00  0.00000000000E+00 -0.78490830272E+03  0.34102532327E+04  0.33186964409E+04 0.  0.
        5    1    3    3  502    0  0.13072137915E+04 -0.30890150275E+03  0.60868593517E+03  0.14747029168E+04  0.46999998093E+01 0. -1.
       -5    1    3    3    0  502 -0.13072137915E+04  0.30890150275E+03 -0.13935942379E+04  0.19355503158E+04  0.46999998093E+01 0.  1.
</event>
<event>
 5   0  0.4449262E-07  0.2814696E+04  0.7818609E-02  0.8298720E-01
       -2   -1    0    0    0  501  0.00000000000E+00  0.00000000000E+00  0.10175567238E+04  0.10175567238E+04  0.25500000920E-02 0. -1.
        2   -1    0    0  501    0  0.00000000000E+00  0.00000000000E+00 -0.19464550015E+04  0.19464550015E+04  0.25500000920E-02 0.  1.
    10030    2    1    2    0    0  0.00000000000E+00  0.00000000000E+00 -0.92889827767E+03  0.29640117253E+04  0.28146959867E+04 0.  0.
        1    1    3    3  502    0  0.12842266344E+04  0.25291218836E+03  0.80116250028E+02  0.13113432949E+04  0.50400001928E-02 0. -1.
       -1    1    3    3    0  502 -0.12842266344E+04 -0.25291218836E+03 -0.10090145277E+04  0.16526684304E+04  0.50400001928E-02 0.  1.
</event>
<event>
 5   0  0.7570277E-07  0.3289164E+04  0.7818609E-02  0.8165658E-01
        2   -1    0    0  501    0  0.00000000000E+00  0.00000000000E+00  0.27448887483E+04  0.27448887483E+04  0.25500000920E-02 0.  1.
       -2   -1    0    0    0  501  0.00000000000E+00  0.00000000000E+00 -0.98534029528E+03  0.98534029528E+03  0.25500000920E-02 0. -1.
    10030    2    1    2    0    0  0.00000000000E+00  0.00000000000E+00  0.17595484531E+04  0.37302290436E+04  0.32891637173E+04 0.  0.
        5    1    3    3  502    0 -0.45994025739E+03  0.11317124024E+04 -0.36892184145E+03  0.12761047830E+04  0.46999998093E+01 0. -1.
       -5    1    3    3    0  502  0.45994025739E+03 -0.11317124024E+04  0.21284702945E+04  0.24541242606E+04  0.46999998093E+01 0.  1.
</event>
<event>
 5   0  0.4449262E-07  0.2325346E+04  0.7818609E-02  0.8467994E-01
        2   -1    0    0  501    0  0.00000000000E+00  0.00000000000E+00  0.13404767392E+04  0.13404767392E+04  0.25500000920E-02 0. -1.
       -2   -1    0    0    0  501  0.00000000000E+00  0.00000000000E+00 -0.10084538885E+04  0.10084538885E+04  0.25500000920E-02 0.  1.
    10030    2    1    2    0    0  0.00000000000E+00  0.00000000000E+00  0.33202285069E+03  0.23489306278E+04  0.23253464087E+04 0.  0.
        1    1    3    3  502    0 -0.81909531422E+03 -0.23998734246E+03 -0.63148798553E+03  0.10617382607E+04  0.50400001928E-02 0.  1.
       -1    1    3    3    0  502  0.81909531422E+03  0.23998734246E+03  0.96351083622E+03  0.12871923671E+04  0.50400001928E-02 0. -1.
</event>
<event>
 5   0  0.2647879E-07  0.2689596E+04  0.7818609E-02  0.8338389E-01
        1   -1    0    0  501    0  0.00000000000E+00  0.00000000000E+00  0.90572180376E+03  0.90572180378E+03  0.50400001928E-02 0. -1.
       -1   -1    0    0    0  501  0.00000000000E+00  0.00000000000E+00 -0.19967300736E+04  0.19967300736E+04  0.50400001928E-02 0.  1.
    10030    2    1    2    0    0  0.00000000000E+00  0.00000000000E+00 -0.10910082698E+04  0.29024518774E+04  0.26895962254E+04 0.  0.
        2    1    3    3  502    0 -0.18436476477E+03  0.69888889958E+02 -0.19810476852E+04  0.19908351902E+04  0.25500000920E-02 0.  1.
       -2    1    3    3    0  502  0.18436476477E+03 -0.69888889958E+02  0.89003941538E+03  0.91161668719E+03  0.25500000920E-02 0. -1.
</event>
<event>
 5   0  0.4449262E-07  0.2671050E+04  0.7818609E-02  0.8344460E-01
       -2   -1    0    0    0  501  0.00000000000E+00  0.00000000000E+00  0.15285991850E+04  0.15285991850E+04  0.25500000920E-02 0.  1.
        2   -1    0    0  501    0  0.00000000000E+00  0.00000000000E+00 -0.11668376059E+04  0.11668376059E+04  0.25500000920E-02 0. -1.
    10030    2    1    2    0    0  0.00000000000E+00  0.00000000000E+00  0.36176157913E+03  0.26954367910E+04  0.26710499909E+04 0.  0.
        1    1    3    3  502    0  0.67862318314E+03  0.71302187051E+03  0.10917275144E+04  0.14699655024E+04  0.50400001928E-02 0.  1.
       -1    1    3    3    0  502 -0.67862318314E+03 -0.71302187051E+03 -0.72996593523E+03  0.12254712886E+04  0.50400001928E-02 0. -1.
</event>
<event>
 5   0  0.2713405E-07  0.3772731E+04  0.7818609E-02  0.8052032E-01
       -1   -1    0    0    0  501  0.00000000000E+00  0.00000000000E+00  0.19860426362E+04  0.19860426362E+04  0.50400001928E-02 0. -1.
        1   -1    0    0  501    0  0.00000000000E+00  0.00000000000E+00 -0.17916910811E+04  0.17916910811E+04  0.50400001928E-02 0.  1.
    10030    2    1    2    0    0  0.00000000000E+00  0.00000000000E+00  0.19435155511E+03  0.37777337174E+04  0.37727310416E+04 0.  0.
        1    1    3    3  502    0 -0.12692698167E+04 -0.37259544354E+03  0.14437644323E+04  0.19581442664E+04  0.50400001928E-02 0. -1.
       -1    1    3    3    0  502  0.12692698167E+04  0.37259544354E+03 -0.12494128772E+04  0.18195894509E+04  0.50400001928E-02 0.  1.
</event>
<event>
 5   0  0.7256473E-07  0.3505179E+04  0.7818609E-02  0.8112564E-01
       -2   -1    0    0    0  501  0.00000000000E+00  0.00000000000E+00  0.12122107925E+04  0.12122107925E+04  0.25500000920E-02 0. -1.
        2   -1    0    0  501    0  0.00000000000E+00  0.00000000000E+00 -0.25338581306E+04  0.25338581306E+04  0.25500000920E-02 0.  1.
    10030    2    1    2    0    0  0.00000000000E+00  0.00000000000E+00 -0.13216473381E+04  0.37460689231E+04  0.35051791238E+04 0.  0.
        4    1    3    3  502    0  0.11947033007E+04 -0.43796279269E+03  0.62717324721E+03  0.14186173831E+04  0.12699999809E+01 0. -1.
       -4    1    3    3    0  502 -0.11947033007E+04  0.43796279269E+03 -0.19488205853E+04  0.23274515400E+04  0.12699999809E+01 0.  1.
</event>
<event>
 5   0  0.2401125E-07  0.4035828E+04  0.7818609E-02  0.7997358E-01
       -1   -1    0    0    0  501  0.00000000000E+00  0.00000000000E+00  0.14689026554E+04  0.14689026554E+04  0.50400001928E-02 0. -1.
        1   -1    0    0  501    0  0.00000000000E+00  0.00000000000E+00 -0.27721215177E+04  0.27721215177E+04  0.50400001928E-02 0.  1.
    10030    2    1    2    0    0  0.00000000000E+00  0.00000000000E+00 -0.13032188624E+04  0.42410241731E+04  0.40358278746E+04 0.  0.
        5    1    3    3  502    0  0.44289587512E+03  0.49955927462E+03  0.13494790182E+04  0.15056001912E+04  0.46999998093E+01 0. -1.
       -5    1    3    3    0  502 -0.44289587512E+03 -0.49955927462E+03 -0.26526978806E+04  0.27354239819E+04  0.46999998093E+01 0.  1.
</event>
<event>
 5   0  0.5161550E-07  0.3992560E+04  0.7818609E-02  0.8006049E-01
       -2   -1    0    0    0  501  0.00000000000E+00  0.00000000000E+00  0.19599712870E+04  0.19599712870E+04  0.25500000920E-02 0. -1.
        2   -1    0    0  501    0  0.00000000000E+00  0.00000000000E+00 -0.20332611051E+04  0.20332611051E+04  0.25500000920E-02 0.  1.
    10030    2    1    2    0    0  0.00000000000E+00  0.00000000000E+00 -0.73289818141E+02  0.39932323921E+04  0.39925597729E+04 0.  0.
        2    1    3    3  502    0  0.10373291995E+04  0.13550140408E+04  0.99939564782E+03  0.19776012186E+04  0.25500000920E-02 0. -1.
       -2    1    3    3    0  502 -0.10373291995E+04 -0.13550140408E+04 -0.10726854660E+04  0.20156311735E+04  0.25500000920E-02 0.  1.
</event>
<event>
 5   0  0.6043512E-07  0.3367218E+04  0.7818609E-02  0.8145999E-01
        2   -1    0    0  501    0  0.00000000000E+00  0.00000000000E+00  0.10121835777E+04  0.10121835777E+04  0.25500000920E-02 0.  1.
       -2   -1    0    0    0  501  0.00000000000E+00  0.00000000000E+00 -0.28004208022E+04  0.28004208022E+04  0.25500000920E-02 0. -1.
    10030    2    1    2    0    0  0.00000000000E+00  0.00000000000E+00 -0.17882372246E+04  0.38126043799E+04  0.33672184049E+04 0.  0.
        3    1    3    3  502    0 -0.16274547131E+04  0.11645125432E+03 -0.42402803418E+03  0.16858142014E+04  0.10100000352E+00 0.  1.
       -3    1    3    3    0  502  0.16274547131E+04 -0.11645125432E+03 -0.13642091904E+04  0.21267901784E+04  0.10100000352E+00 0. -1.
</event>
<event>
 5   0  0.5161550E-07  0.3203835E+04  0.7818609E-02  0.8187805E-01
        2   -1    0    0  501    0  0.00000000000E+00  0.00000000000E+00  0.23440920304E+04  0.23440920304E+04  0.25500000920E-02 0. -1.
       -2   -1    0    0    0  501  0.00000000000E+00  0.00000000000E+00 -0.10947262392E+04  0.10947262392E+04  0.25500000920E-02 0.  1.
    10030    2    1    2    0    0  0.00000000000E+00  0.00000000000E+00  0.12493657913E+04  0.34388182696E+04  0.32038346104E+04 0.  0.
        2    1    3    3  502    0  0.11565495722E+04  0.95327807581E+02 -0.56059504190E+03  0.12887827998E+04  0.25500000920E-02 0.  1.
       -2    1    3    3    0  502 -0.11565495722E+04 -0.95327807581E+02  0.18099608332E+04  0.21500354698E+04  0.25500000920E-02 0. -1.
</event>
<event>
 5   0  0.4449262E-07  0.3228579E+04  0.7818609E-02  0.8181310E-01
       -2   -1    0    0    0  501  0.00000000000E+00  0.00000000000E+00  0.72266623106E+03  0.72266623107E+03  0.25500000920E-02 0.  1.
        2   -1    0    0  501    0  0.00000000000E+00  0.00000000000E+00 -0.36059943951E+04  0.36059943951E+04  0.25500000920E-02 0. -1.
    10030    2    1    2    0    0  0.00000000000E+00  0.00000000000E+00 -0.28833281640E+04  0.43286606262E+04  0.32285788693E+04 0.  0.
        1    1    3    3  502    0  0.84121354623E+03  0.75867696317E+00  0.40557610790E+03  0.93388049839E+03  0.50400001928E-02 0.  1.
       -1    1    3    3    0  502 -0.84121354623E+03 -0.75867696317E+00 -0.32889042719E+04  0.33947801278E+04  0.50400001928E-02 0. -1.
</event>
<event>
 5   0  0.4449262E-07  0.4057559E+04  0.7818609E-02  0.7993035E-01
       -2   -1    0    0    0  501  0.00000000000E+00  0.00000000000E+00  0.17565078545E+04  0.17565078545E+04  0.25500000920E-02 0. -1.
        2   -1    0    0  501    0  0.00000000000E+00  0.00000000000E+00 -0.23432548518E+04  0.23432548518E+04  0.25500000920E-02 0.  1.
    10030    2    1    2    0    0  0.00000000000E+00  0.00000000000E+00 -0.58674699726E+03  0.40997627063E+04  0.40575586513E+04 0.  0.
        1    1    3    3  502    0 -0.29514969165E+03 -0.20006454436E+04 -0.12966970650E+03  0.20264525073E+04  0.50400001928E-02 0.  1.
       -1    1    3    3    0  502  0.29514969165E+03  0.20006454436E+04 -0.45707729077E+03  0.20733101990E+04  0.50400001928E-02 0. -1.
</event>
<event>
 5   0  0.5161550E-07  0.3889563E+04  0.7818609E-02  0.8027203E-01
       -2   -1    0    0    0  501  0.00000000000E+00  0.00000000000E+00  0.13884235027E+04  0.13884235027E+04  0.25500000920E-02 0.  1.
        2   -1    0    0  501    0  0.00000000000E+00  0.00000000000E+00 -0.27240790765E+04  0.27240790765E+04  0.25500000920E-02 0. -1.
    10030    2    1    2    0    0  0.00000000000E+00  0.00000000000E+00 -0.13356555738E+04  0.41125025793E+04  0.38895631699E+04 0.  0.
        2    1    3    3  502    0  0.64942914004E+03 -0.16872790857E+04 -0.14254947020E+04  0.23023257951E+04  0.25500000920E-02 0. -1.
       -2    1    3    3    0  502 -0.64942914004E+03  0.16872790857E+04  0.89839128229E+02  0.18101767842E+04  0.25500000920E-02 0.  1.
</event>
<event>
 5   0  0.2401125E-07  0.4167374E+04  0.7818609E-02  0.7971608E-01
       -1   -1    0    0    0  501  0.00000000000E+00  0.00000000000E+00  0.22186134702E+04  0.22186134702E+04  0.50400001928E-02 0.  1.
        1   -1    0    0  501    0  0.00000000000E+00  0.00000000000E+00 -0.19569658345E+04  0.19569658345E+04  0.50400001928E-02 0. -1.
    10030    2    1    2    0    0  0.00000000000E+00  0.00000000000E+00  0.26164763572E+03  0.41755793047E+04  0.41673736387E+04 0.  0.
        5    1    3    3  502    0  0.90034224843E+03  0.10094692527E+04  0.17189002617E+04  0.21873007421E+04  0.46999998093E+01 0.  1.
       -5    1    3    3    0  502 -0.90034224843E+03 -0.10094692527E+04 -0.14572526260E+04  0.19882785626E+04  0.46999998093E+01 0. -1.
</event>
<event>
 5   0  0.6043512E-07  0.4038436E+04  0.7818609E-02  0.7996837E-01
        2   -1    0    0  501    0  0.00000000000E+00  0.00000000000E+00  0.30795436587E+04  0.30795436587E+04  0.25500000920E-02 0. -1.
       -2   -1    0    0    0  501  0.00000000000E+00  0.00000000000E+00 -0.13239758619E+04  0.13239758619E+04  0.25500000920E-02 0.  1.
    10030    2    1    2    0    0  0.00000000000E+00  0.00000000000E+00  0.17555677968E+04  0.44035195207E+04  0.40384360686E+04 0.  0.
        3    1    3    3  502    0  0.24720592611E+02  0.14483922374E+03  0.30737066208E+04  0.30772165847E+04  0.10100000352E+00 0. -1.
       -3    1    3    3    0  502 -0.24720592611E+02 -0.14483922374E+03 -0.13181388240E+04  0.13263029360E+04  0.10100000352E+00 0.  1.
</event>
<event>
 5   0  0.4449262E-07  0.3689300E+04  0.7818609E-02  0.8070337E-01
        2   -1    0    0  501    0  0.00000000000E+00  0.00000000000E+00  0.23564146981E+04  0.23564146981E+04  0.25500000920E-02 0. -1.
       -2   -1    0    0    0  501  0.00000000000E+00  0.00000000000E+00 -0.14440298754E+04  0.14440298754E+04  0.25500000920E-02 0.  1.
    10030    2    1    2    0    0  0.00000000000E+00  0.00000000000E+00  0.91238482265E+03  0.38004445735E+04  0.36892997834E+04 0.  0.
        1    1    3    3  502    0 -0.10593339996E+04 -0.79705446892E+03 -0.86512226168E+03  0.15830100685E+04  0.50400001928E-02 0.  1.
       -1    1    3    3    0  502  0.10593339996E+04  0.79705446892E+03  0.17775070843E+04  0.22174345050E+04  0.50400001928E-02 0. -1.
</event>
<event>
 5   0  0.2647879E-07  0.3983775E+04  0.7818609E-02  0.8007828E-01
        1   -1    0    0  501    0  0.00000000000E+00  0.00000000000E+00  0.14182743363E+04  0.14182743363E+04  0.50400001928E-02 0. -1.
       -1   -1    0    0    0  501  0.00000000000E+00  0.00000000000E+00 -0.27974946869E+04  0.27974946869E+04  0.50400001928E-02 0.  1.
    10030    2    1    2    0    0  0.00000000000E+00  0.00000000000E+00 -0.13792203506E+04  0.42157690233E+04  0.39837745521E+04 0.  0.
        2    1    3    3  502    0  0.19118388987E+04  0.34118224813E+03 -0.11582082477E+04  0.22611898740E+04  0.25500000920E-02 0.  1.
       -2    1    3    3    0  502 -0.19118388987E+04 -0.34118224813E+03 -0.22101210290E+03  0.19545791493E+04  0.25500000920E-02 0. -1.
</event>
<event>
 5   0  0.4449262E-07  0.3829145E+04  0.7818609E-02  0.8039929E-01
        2   -1    0    0  501    0  0.00000000000E+00  0.00000000000E+00  0.19524808863E+04  0.19524808864E+04  0.25500000920E-02 0. -1.
       -2   -1    0    0    0  501  0.00000000000E+00  0.00000000000E+00 -0.18773997045E+04  0.18773997045E+04  0.25500000920E-02 0.  1.
    10030    2    1    2    0    0  0.00000000000E+00  0.00000000000E+00  0.75081181842E+02  0.38298805909E+04  0.38291445724E+04 0.  0.
        1    1    3    3  502    0 -0.30160650062E+03  0.18806627884E+04  0.23181498312E+03  0.19187488609E+04  0.50400001928E-02 0.  1.
       -1    1    3    3    0  502  0.30160650062E+03 -0.18806627884E+04 -0.15673380128E+03  0.19111317300E+04  0.50400001928E-02 0. -1.
</event>
<event>
 5   0  0.5161550E-07  0.3994551E+04  0.7818609E-02  0.8005647E-01
       -2   -1    0    0    0  501  0.00000000000E+00  0.00000000000E+00  0.14724549049E+04  0.14724549049E+04  0.25500000920E-02 0.  1.
        2   -1    0    0  501    0  0.00000000000E+00  0.00000000000E+00 -0.27091556402E+04  0.27091556402E+04  0.25500000920E-02 0. -1.
    10030    2    1    2    0    0  0.00000000000E+00  0.00000000000E+00 -0.12367007353E+04  0.41816105451E+04  0.39945510439E+04 0.  0.
        2    1    3    3  502    0  0.17812499645E+04 -0.89148174585E+03 -0.46478958847E+03  0.20453900608E+04  0.25500000920E-02 0. -1.
       -2    1    3    3    0  502 -0.17812499645E+04  0.89148174585E+03 -0.77191114682E+03  0.21362204843E+04  0.25500000920E-02 0.  1.
</event>
<event>
 5   0  0.7570277E-07  0.4005653E+04  0.7818609E-02  0.8003407E-01
        2   -1    0    0  501    0  0.00000000000E+00  0.00000000000E+00  0.23342647768E+04  0.23342647768E+04  0.25500000920E-02 0.  1.
       -2   -1    0    0    0  501  0.00000000000E+00  0.00000000000E+00 -0.17184484512E+04  0.17184484512E+04  0.25500000920E-02 0. -1.
    10030    2    1    2    0    0  0.00000000000E+00  0.00000000000E+00  0.61581632566E+03  0.40527132280E+04  0.40056528509E+04 0.  0.
        5    1    3    3  502    0  0.12578790573E+04 -0.10395333818E+04  0.14827578234E+04  0.22048769189E+04  0.46999998093E+01 0.  1.
       -5    1    3    3    0  502 -0.12578790573E+04  0.10395333818E+04 -0.86694149778E+03  0.18478363091E+04  0.46999998093E+01 0. -1.
</event>
<event>
 5   0  0.6043512E-07  0.3592097E+04  0.7818609E-02  0.8092304E-01
        2   -1    0    0  501    0  0.00000000000E+00  0.00000000000E+00  0.29363037162E+04  0.29363037162E+04  0.25500000920E-02 0.  1.
       -2   -1    0    0    0  501  0.00000000000E+00  0.00000000000E+00 -0.10985885181E+04  0.10985885181E+04  0.25500000920E-02 0. -1.
    10030    2    1    2    0    0  0.00000000000E+00  0.00000000000E+00  0.18377151981E+04  0.40348922342E+04  0.35920966291E+04 0.  0.
        3    1    3    3  502    0  0.17764739583E+04  0.13978414639E+03  0.11710064510E+04  0.21322887822E+04  0.10100000352E+00 0.  1.
       -3    1    3    3    0  502 -0.17764739583E+04 -0.13978414639E+03  0.66670874712E+03  0.19026034521E+04  0.10100000352E+00 0. -1.
</event>
<event>
 5   0  0.2713405E-07  0.3800685E+04  0.7818609E-02  0.8046008E-01
       -1   -1    0    0    0  501  0.00000000000E+00  0.00000000000E+00  0.26278976500E+04  0.26278976500E+04  0.50400001928E-02 0.  1.
        1   -1    0    0  501    0  0.00000000000E+00  0.00000000000E+00 -0.13742168604E+04  0.13742168605E+04  0.50400001928E-02 0. -1.
    10030    2    1    2    0    0  0.00000000000E+00  0.00000000000E+00  0.12536807896E+04  0.40021145105E+04  0.38006848110E+04 0.  0.
        1    1    3    3  502    0 -0.13280575509E+04  0.11898764678E+03 -0.79895438337E+03  0.15544204790E+04  0.50400001928E-02 0. -1.
       -1    1    3    3    0  502  0.13280575509E+04 -0.11898764678E+03  0.20526351730E+04  0.24476940315E+04  0.50400001928E-02 0.  1.
</event>
<event>
 5   0  0.2601252E-07  0.3098273E+04  0.7818609E-02  0.8216212E-01
        1   -1    0    0  501    0  0.00000000000E+00  0.00000000000E+00  0.17650823064E+04  0.17650823064E+04  0.50400001928E-02 0. -1.
       -1   -1    0    0    0  501  0.00000000000E+00  0.00000000000E+00 -0.13596098629E+04  0.13596098629E+04  0.50400001928E-02 0.  1.
    10030    2    1    2    0    0  0.00000000000E+00  0.00000000000E+00  0.40547244357E+03  0.31246921693E+04  0.30982726236E+04 0.  0.
        3    1    3    3  502    0  0.21637950792E+03 -0.13172083092E+04  0.99554731393E+03  0.16652243950E+04  0.10100000352E+00 0. -1.
       -3    1    3    3    0  502 -0.21637950792E+03  0.13172083092E+04 -0.59007487036E+03  0.14594677743E+04  0.10100000352E+00 0.  1.
</event>
<event>
 5   0  0.2647879E-07  0.4001080E+04  0.7818609E-02  0.8004329E-01
       -1   -1    0    0    0  501  0.00000000000E+00  0.00000000000E+00  0.16436285437E+04  0.16436285437E+04  0.50400001928E-02 0.  1.
        1   -1    0    0  501    0  0.00000000000E+00  0.00000000000E+00 -0.24349546030E+04  0.24349546031E+04  0.50400001928E-02 0. -1.
    10030    2    1    2    0    0  0.00000000000E+00  0.00000000000E+00 -0.79132605934E+03  0.40785831468E+04  0.40010802982E+04 0.  0.
        2    1    3    3  502    0  0.20805014514E+03  0.18569381595E+04  0.33278163858E+03  0.18979588537E+04  0.25500000920E-02 0.  1.
       -2    1    3    3    0  502 -0.20805014514E+03 -0.18569381595E+04 -0.11241076979E+04  0.21806242931E+04  0.25500000920E-02 0. -1.
</event>
<event>
 5   0  0.5161550E-07  0.2265520E+04  0.7818609E-02  0.8491642E-01
       -2   -1    0    0    0  501  0.00000000000E+00  0.00000000000E+00  0.12212321091E+04  0.12212321091E+04  0.25500000920E-02 0.  1.
        2   -1    0    0  501    0  0.00000000000E+00  0.00000000000E+00 -0.10506967912E+04  0.10506967912E+04  0.25500000920E-02 0. -1.
    10030    2    1    2    0    0  0.00000000000E+00  0.00000000000E+00  0.17053531795E+03  0.22719289003E+04  0.22655195063E+04 0.  0.
        2    1    3    3  502    0  0.14579063536E+03 -0.94713125417E+03 -0.52045451639E+03  0.10904977880E+04  0.25500000920E-02 0. -1.
       -2    1    3    3    0  502 -0.14579063536E+03  0.94713125417E+03  0.69098983433E+03  0.11814311123E+04  0.25500000920E-02 0.  1.
</event>
<event>
 5   0  0.5161550E-07  0.2659479E+04  0.7818609E-02  0.8348274E-01
        2   -1    0    0  501    0  0.00000000000E+00  0.00000000000E+00  0.10536572817E+04  0.10536572817E+04  0.25500000920E-02 0. -1.
       -2   -1    0    0    0  501  0.00000000000E+00  0.00000000000E+00 -0.16781618297E+04  0.16781618297E+04  0.25500000920E-02 0.  1.
    10030    2    1    2    0    0  0.00000000000E+00  0.00000000000E+00 -0.62450454797E+03  0.27318191114E+04  0.26594792210E+04 0.  0.
        2    1    3    3  502    0  0.33766577995E+03  0.12387943792E+04 -0.66745844799E+03  0.14471110782E+04  0.25500000920E-02 0.  1.
       -2    1    3    3    0  502 -0.33766577995E+03 -0.12387943792E+04  0.42953900016E+02  0.12847080332E+04  0.25500000920E-02 0. -1.
</event>
<event>
 5   0  0.5161550E-07  0.2401574E+04  0.7818609E-02  0.8438914E-01
        2   -1    0    0  501    0  0.00000000000E+00  0.00000000000E+00  0.11246960087E+04  0.11246960087E+04  0.25500000920E-02 0. -1.
       -2   -1    0    0    0  501  0.00000000000E+00  0.00000000000E+00 -0.12820264045E+04  0.12820264045E+04  0.25500000920E-02 0.  1.
    10030    2    1    2    0    0  0.00000000000E+00  0.00000000000E+00 -0.15733039579E+03  0.24067224132E+04  0.24015744670E+04 0.  0.
        2    1    3    3  502    0 -0.45752140363E+03  0.67944930194E+03 -0.95856368458E+03  0.12608812498E+04  0.25500000920E-02 0.  1.
       -2    1    3    3    0  502  0.45752140363E+03 -0.67944930194E+03  0.80123328880E+03  0.11458411634E+04  0.25500000920E-02 0. -1.
</event>
<event>
 5   0  0.4449262E-07  0.3299200E+04  0.7818609E-02  0.8163099E-01
       -2   -1    0    0    0  501  0.00000000000E+00  0.00000000000E+00  0.16285899988E+04  0.16285899988E+04  0.25500000920E-02 0.  1.
        2   -1    0    0  501    0  0.00000000000E+00  0.00000000000E+00 -0.16708811060E+04  0.16708811060E+04  0.25500000920E-02 0. -1.
    10030    2    1    2    0    0  0.00000000000E+00  0.00000000000E+00 -0.42291107205E+02  0.32994711049E+04  0.32992000597E+04 0.  0.
        1    1    3    3  502    0 -0.91720449362E+03  0.15409248572E+03  0.13413802922E+04  0.16322713211E+04  0.50400001928E-02 0.  1.
       -1    1    3    3    0  502  0.91720449362E+03 -0.15409248572E+03 -0.13836713994E+04  0.16671997837E+04  0.50400001928E-02 0. -1.
</event>
<event>
 5   0  0.4449262E-07  0.1994042E+04  0.7818609E-02  0.8609411E-01
        2   -1    0    0  501    0  0.00000000000E+00  0.00000000000E+00  0.68926057672E+03  0.68926057672E+03  0.25500000920E-02 0. -1.
       -2   -1    0    0    0  501  0.00000000000E+00  0.00000000000E+00 -0.14421991968E+04  0.14421991968E+04  0.25500000920E-02 0.  1.
    10030    2    1    2    0    0  0.00000000000E+00  0.00000000000E+00 -0.75293862009E+03  0.21314597735E+04  0.19940421762E+04 0.  0.
        1    1    3    3  502    0  0.35962932967E+03  0.72779126859E+02 -0.13674057066E+04  0.14157783804E+04  0.50400001928E-02 0.  1.
       -1    1    3    3    0  502 -0.35962932967E+03 -0.72779126859E+02  0.61446708648E+03  0.71568139312E+03  0.50400001928E-02 0. -1.
</event>
<event>
 5   0  0.3579559E-07  0.3942723E+04  0.7818609E-02  0.8016202E-01
        1   -1    0    0  501    0  0.00000000000E+00  0.00000000000E+00  0.22039761692E+04  0.22039761692E+04  0.50400001928E-02 0.  1.
       -1   -1    0    0    0  501  0.00000000000E+00  0.00000000000E+00 -0.17632974476E+04  0.17632974476E+04  0.50400001928E-02 0. -1.
    10030    2    1    2    0    0  0.00000000000E+00  0.00000000000E+00  0.44067872158E+03  0.39672736168E+04  0.39427226906E+04 0.  0.
        4    1    3    3  502    0 -0.14002226779E+03 -0.78282235270E+03 -0.15947352301E+04  0.17820210825E+04  0.12699999809E+01 0. -1.
       -4    1    3    3    0  502  0.14002226779E+03  0.78282235270E+03  0.20354139517E+04  0.21852525343E+04  0.12699999809E+01 0.  1.
</event>
<event>
 5   0  0.5161550E-07  0.2203974E+04  0.7818609E-02  0.8516776E-01
       -2   -1    0    0    0  501  0.00000000000E+00  0.00000000000E+00  0.66583154922E+03  0.66583154923E+03  0.25500000920E-02 0. -1.
        2   -1    0    0  501    0  0.00000000000E+00  0.00000000000E+00 -0.18238473213E+04  0.18238473213E+04  0.25500000920E-02 0.  1.
    10030    2    1    2    0    0  0.00000000000E+00  0.00000000000E+00 -0.11580157721E+04  0.24896788705E+04  0.22039737634E+04 0.  0.
        2    1    3    3  502    0  0.96640158822E+03 -0.33076030194E+03 -0.11182532720E+03  0.10275404181E+04  0.25500000920E-02 0. -1.
       -2    1    3    3    0  502 -0.96640158822E+03  0.33076030194E+03 -0.10461904449E+04  0.14621384524E+04  0.25500000920E-02 0.  1.
</event>
<event>
 5   0  0.7570277E-07  0.4056324E+04  0.7818609E-02  0.7993280E-01
        2   -1    0    0  501    0  0.00000000000E+00  0.00000000000E+00  0.27309403055E+04  0.27309403055E+04  0.25500000920E-02 0. -1.
       -2   -1    0    0    0  501  0.00000000000E+00  0.00000000000E+00 -0.15062364704E+04  0.15062364704E+04  0.25500000920E-02 0.  1.
    10030    2    1    2    0    0  0.00000000000E+00  0.00000000000E+00  0.12247038350E+04  0.42371767759E+04  0.40563243887E+04 0.  0.
        5    1    3    3  502    0 -0.65084883320E+03  0.86526470054E+03  0.24037875420E+04  0.26363808227E+04  0.46999998093E+01 0. -1.
       -5    1    3    3    0  502  0.65084883320E+03 -0.86526470054E+03 -0.11790837069E+04  0.16007959531E+04  0.46999998093E+01 0.  1.
</event>
<event>
 5   0  0.5161550E-07  0.3789176E+04  0.7818609E-02  0.8048482E-01
       -2   -1    0    0    0  501  0.00000000000E+00  0.00000000000E+00  0.16494605164E+04  0.16494605164E+04  0.25500000920E-02 0. -1.
        2   -1    0    0  501    0  0.00000000000E+00  0.00000000000E+00 -0.21761443545E+04  0.21761443545E+04  0.25500000920E-02 0.  1.
    10030    2    1    2    0    0  0.00000000000E+00  0.00000000000E+00 -0.52668383804E+03  0.38256048709E+04  0.37891762644E+04 0.  0.
        2    1    3    3  502    0 -0.71295398351E+03  0.68897572818E+03 -0.18933206592E+04  0.21372070689E+04  0.25500000920E-02 0.  1.
       -2    1    3    3    0  502  0.71295398351E+03 -0.68897572818E+03  0.13666368212E+04  0.16883978020E+04  0.25500000920E-02 0. -1.
</event>
<event>
 5   0  0.7256473E-07  0.2858702E+04  0.7818609E-02  0.8285272E-01
        2   -1    0    0  501    0  0.00000000000E+00  0.00000000000E+00  0.11104384370E+04  0.11104384370E+04  0.25500000920E-02 0.  1.
       -2   -1    0    0    0  501  0.00000000000E+00  0.00000000000E+00 -0.18398534657E+04  0.18398534657E+04  0.25500000920E-02 0. -1.
    10030    2    1    2    0    0  0.00000000000E+00  0.00000000000E+00 -0.72941502870E+03  0.29502919027E+04  0.28587018080E+04 0.  0.
        4    1    3    3  502    0  0.11910558410E+04  0.60296442232E+03 -0.89181814663E+03  0.16054660789E+04  0.12699999809E+01 0. -1.
       -4    1    3    3    0  502 -0.11910558410E+04 -0.60296442232E+03  0.16240311793E+03  0.13448258239E+04  0.12699999809E+01 0.  1.
</event>
<event>
 5   0  0.2647879E-07  0.3996532E+04  0.7818609E-02  0.8005247E-01
       -1   -1    0    0    0  501  0.00000000000E+00  0.00000000000E+00  0.14868013182E+04  0.14868013182E+04  0.50400001928E-02 0. -1.
        1   -1    0    0  501    0  0.00000000000E+00  0.00000000000E+00 -0.26856763669E+04  0.26856763670E+04  0.50400001928E-02 0.  1.
    10030    2    1    2    0    0  0.00000000000E+00  0.00000000000E+00 -0.11988750488E+04  0.41724776851E+04  0.39965320780E+04 0.  0.
        2    1    3    3  502    0  0.12248683941E+04  0.11569211276E+04 -0.17211194116E+04  0.24085309023E+04  0.25500000920E-02 0.  1.
       -2    1    3    3    0  502 -0.12248683941E+04 -0.11569211276E+04  0.52224436281E+03  0.17639467828E+04  0.25500000920E-02 0. -1.
</event>
<event>
 5   0  0.2601252E-07  0.3924996E+04  0.7818609E-02  0.8019851E-01
       -1   -1    0    0    0  501  0.00000000000E+00  0.00000000000E+00  0.25300563149E+04  0.25300563149E+04  0.50400001928E-02 0.  1.
        1   -1    0    0  501    0  0.00000000000E+00  0.00000000000E+00 -0.15222576744E+04  0.15222576744E+04  0.50400001928E-02 0. -1.
    10030    2    1    2    0    0  0.00000000000E+00  0.00000000000E+00  0.10077986405E+04  0.40523139893E+04  0.39249956138E+04 0.  0.
        3    1    3    3  502    0 -0.94804975401E+03 -0.34516274313E+03 -0.12339919737E+04  0.15939485113E+04  0.10100000352E+00 0. -1.
       -3    1    3    3    0  502  0.94804975401E+03  0.34516274313E+03  0.22417906142E+04  0.24583654780E+04  0.10100000352E+00 0.  1.
</event>
<event>
 5   0  0.4449262E-07  0.3838443E+04  0.7818609E-02  0.8037955E-01
        2   -1    0    0  501    0  0.00000000000E+00  0.00000000000E+00  0.24185478472E+04  0.24185478472E+04  0.25500000920E-02 0.  1.
       -2   -1    0    0    0  501  0.00000000000E+00  0.00000000000E+00 -0.15229844417E+04  0.15229844417E+04  0.25500000920E-02 0. -1.
    10030    2    1    2    0    0  0.00000000000E+00  0.00000000000E+00  0.89556340547E+03  0.39415322889E+04  0.38384427795E+04 0.  0.
        1    1    3    3  502    0  0.67669716191E+02 -0.18697586829E+04  0.88685651264E+03  0.20705292070E+04  0.50400001928E-02 0.  1.
       -1    1    3    3    0  502 -0.67669716191E+02  0.18697586829E+04  0.87068928255E+01  0.18710030820E+04  0.50400001928E-02 0. -1.
</event>
<event>
 5   0  0.2601252E-07  0.2751179E+04  0.7818609E-02  0.8318588E-01
        1   -1    0    0  501    0  0.00000000000E+00  0.00000000000E+00  0.87830082540E+03  0.87830082542E+03  0.50400001928E-02 0.  1.
       -1   -1    0    0    0  501  0.00000000000E+00  0.00000000000E+00 -0.21544405873E+04  0.21544405873E+04  0.50400001928E-02 0. -1.
    10030    2    1    2    0    0  0.00000000000E+00  0.00000000000E+00 -0.12761397619E+04  0.30327414127E+04  0.27511793443E+04 0.  0.
        3    1    3    3  502    0  0.25127987668E+03 -0.10376041761E+04  0.31816549566E+03  0.11139987861E+04  0.10100000352E+00 0.  1.
       -3    1    3    3    0  502 -0.25127987668E+03  0.10376041761E+04 -0.15943052576E+04  0.19187426266E+04  0.10100000352E+00 0. -1.
</event>
<event>
 5   0  0.2647879E-07  0.2475562E+04  0.7818609E-02  0.8411744E-01
       -1   -1    0    0    0  501  0.00000000000E+00  0.00000000000E+00  0.66374276048E+03  0.66374276050E+03  0.50400001928E-02 0. -1.
        1   -1    0    0  501    0  0.00000000000E+00  0.00000000000E+00 -0.23082773178E+04  0.23082773178E+04  0.50400001928E-02 0.  1.
    10030    2    1    2    0    0  0.00000000000E+00  0.00000000000E+00 -0.16445345573E+04  0.29720200783E+04  0.24755624483E+04 0.  0.
        2    1    3    3  502    0  0.10151769841E+03  0.10215998015E+04  0.78720969642E+01  0.10266615642E+04  0.25500000920E-02 0. -1.
       -2    1    3    3    0  502 -0.10151769841E+03 -0.10215998015E+04 -0.16524066543E+04  0.19453585141E+04  0.25500000920E-02 0.  1.
</event>
<event>
 5   0  0.2401125E-07  0.2437161E+04  0.7818609E-02  0.8425721E-01
        3   -1    0    0  501    0  0.00000000000E+00  0.00000000000E+00  0.10562994376E+04  0.10562994425E+04  0.10100000352E+00 0. -1.
       -3   -1    0    0    0  501  0.00000000000E+00  0.00000000000E+00 -0.14057930161E+04  0.14057930198E+04  0.10100000352E+00 0.  1.
    10030    2    1    2    0    0  0.00000000000E+00  0.00000000000E+00 -0.34949357848E+03  0.24620924622E+04  0.24371609572E+04 0.  0.
        4    1    3    3  502    0  0.99417705839E+02  0.25246263383E+03 -0.13748875974E+04  0.14014060012E+04  0.12699999809E+01 0.  1.
       -4    1    3    3    0  502 -0.99417705839E+02 -0.25246263383E+03  0.10253940189E+04  0.10606864611E+04  0.12699999809E+01 0. -1.
</event>
<event>
 5   0  0.7256473E-07  0.2467121E+04  0.7818609E-02  0.8414793E-01
       -2   -1    0    0    0  501  0.00000000000E+00  0.00000000000E+00  0.69942547175E+03  0.69942547176E+03  0.25500000920E-02 0.  1.
        2   -1    0    0  501    0  0.00000000000E+00  0.00000000000E+00 -0.21756015914E+04  0.21756015914E+04  0.25500000920E-02 0. -1.
    10030    2    1    2    0    0  0.00000000000E+00  0.00000000000E+00 -0.14761761197E+04  0.28750270632E+04  0.24671207262E+04 0.  0.
        4    1    3    3  502    0  0.62392819134E+03  0.97753803100E+03 -0.12280877641E+04  0.16891027675E+04  0.12699999809E+01 0. -1.
       -4    1    3    3    0  502 -0.62392819134E+03 -0.97753803100E+03 -0.24808835559E+03  0.11859242957E+04  0.12699999809E+01 0.  1.
</event>
<event>
 5   0  0.4449262E-07  0.3719303E+04  0.7818609E-02  0.8063698E-01
        2   -1    0    0  501    0  0.00000000000E+00  0.00000000000E+00  0.26391761637E+04  0.26391761637E+04  0.25500000920E-02 0.  1.
       -2   -1    0    0    0  501  0.00000000000E+00  0.00000000000E+00 -0.13103721858E+04  0.13103721858E+04  0.25500000920E-02 0. -1.
    10030    2    1    2    0    0  0.00000000000E+00  0.00000000000E+00  0.13288039779E+04  0.39495483495E+04  0.37193026434E+04 0.  0.
        1    1    3    3  502    0  0.97159965759E+03  0.15839222039E+02  0.23481323708E+04  0.25412560687E+04  0.50400001928E-02 0.  1.
       -1    1    3    3    0  502 -0.97159965759E+03 -0.15839222039E+02 -0.10193283929E+04  0.14082922808E+04  0.50400001928E-02 0. -1.
</event>
<event>
 5   0  0.7570277E-07  0.3961684E+04  0.7818609E-02  0.8012321E-01
       -2   -1    0    0    0  501  0.00000000000E+00  0.00000000000E+00  0.26609148940E+04  0.26609148940E+04  0.25500000920E-02 0. -1.
        2   -1    0    0  501    0  0.00000000000E+00  0.00000000000E+00 -0.14745811750E+04  0.14745811750E+04  0.25500000920E-02 0.  1.
    10030    2    1    2    0    0  0.00000000000E+00  0.00000000000E+00  0.11863337190E+04  0.41354960690E+04  0.39616839909E+04 0.  0.
        5    1    3    3  502    0  0.12759088525E+04  0.15151115873E+04  0.57816995157E+03  0.20634459297E+04  0.46999998093E+01 0. -1.
       -5    1    3    3    0  502 -0.12759088525E+04 -0.15151115873E+04  0.60816376739E+03  0.20720501393E+04  0.46999998093E+01 0.  1.
</event>
<event>
 5   0  0.5161550E-07  0.3937695E+04  0.7818609E-02  0.8017235E-01
       -2   -1    0    0    0  501  0.00000000000E+00  0.00000000000E+00  0.27516031833E+04  0.27516031833E+04  0.25500000920E-02 0.  1.
        2   -1    0    0  501    0  0.00000000000E+00  0.00000000000E+00 -0.14087641706E+04  0.14087641706E+04  0.25500000920E-02 0. -1.
    10030    2    1    2    0    0  0.00000000000E+00  0.00000000000E+00  0.13428390127E+04  0.41603673539E+04  0.39376947451E+04 0.  0.
        2    1    3    3  502    0  0.26029051217E+03  0.46817877717E+03 -0.13302926156E+04  0.14340923824E+04  0.25500000920E-02 0. -1.
       -2    1    3    3    0  502 -0.26029051217E+03 -0.46817877717E+03  0.26731316283E+04  0.27262749715E+04  0.25500000920E-02 0.  1.
</event>
<event>
 5   0  0.2401125E-07  0.3643899E+04  0.7818609E-02  0.8080509E-01
        1   -1    0    0  501    0  0.00000000000E+00  0.00000000000E+00  0.17865193438E+04  0.17865193439E+04  0.50400001928E-02 0.  1.
       -1   -1    0    0    0  501  0.00000000000E+00  0.00000000000E+00 -0.18580824795E+04  0.18580824796E+04  0.50400001928E-02 0. -1.
    10030    2    1    2    0    0  0.00000000000E+00  0.00000000000E+00 -0.71563135703E+02  0.36446018234E+04  0.36438991711E+04 0.  0.
        5    1    3    3  502    0  0.12139374602E+04 -0.95801253096E+02  0.13197126436E+04  0.17956852700E+04  0.46999998093E+01 0. -1.
       -5    1    3    3    0  502 -0.12139374602E+04  0.95801253096E+02 -0.13912757793E+04  0.18489165534E+04  0.46999998093E+01 0.  1.
</event>
<event>
 5   0  0.7256473E-07  0.2036025E+04  0.7818609E-02  0.8589961E-01
       -2   -1    0    0    0  501  0.00000000000E+00  0.00000000000E+00  0.11408438146E+04  0.11408438146E+04  0.25500000920E-02 0. -1.
        2   -1    0    0  501    0  0.00000000000E+00  0.00000000000E+00 -0.90840574813E+03  0.90840574814E+03  0.25500000920E-02 0.  1.
    10030    2    1    2    0    0  0.00000000000E+00  0.00000000000E+00  0.23243806651E+03  0.20492495628E+04  0.20360246354E+04 0.  0.
        4    1    3    3  502    0  0.98059595468E+03  0.24889729492E+03  0.22173643386E+01  0.10116940345E+04  0.12699999809E+01 0.  1.
       -4    1    3    3    0  502 -0.98059595468E+03 -0.24889729492E+03  0.23022070217E+03  0.10375555283E+04  0.12699999809E+01 0. -1.
</event>
<event>
 5   0  0.4449262E-07  0.3967840E+04  0.7818609E-02  0.8011066E-01
        2   -1    0    0  501    0  0.00000000000E+00  0.00000000000E+00  0.21405708917E+04  0.21405708917E+04  0.25500000920E-02 0. -1.
       -2   -1    0    0    0  501  0.00000000000E+00  0.00000000000E+00 -0.18387329726E+04  0.18387329726E+04  0.25500000920E-02 0.  1.
    10030    2    1    2    0    0  0.00000000000E+00  0.00000000000E+00  0.30183791912E+03  0.39793038643E+04  0.39678398550E+04 0.  0.
        1    1    3    3  502    0  0.14220981857E+04  0.25681528396E+03 -0.12122805022E+04  0.18862506079E+04  0.50400001928E-02 0.  1.
       -1    1    3    3    0  502 -0.14220981857E+04 -0.25681528396E+03  0.15141184213E+04  0.20930532563E+04  0.50400001928E-02 0. -1.
</event>
<event>
 5   0  0.5161550E-07  0.3986228E+04  0.7818609E-02  0.8007331E-01
        2   -1    0    0  501    0  0.00000000000E+00  0.00000000000E+00  0.15624884910E+04  0.15624884910E+04  0.25500000920E-02 0. -1.
       -2   -1    0    0    0  501  0.00000000000E+00  0.00000000000E+00 -0.25424211616E+04  0.25424211616E+04  0.25500000920E-02 0.  1.
    10030    2    1    2    0    0  0.00000000000E+00  0.00000000000E+00 -0.97993267059E+03  0.41049096526E+04  0.39862281943E+04 0.  0.
        2    1    3    3  502    0  0.36375435732E+03 -0.74115142049E+03  0.13781225864E+04  0.16065007077E+04  0.25500000920E-02 0. -1.
       -2    1    3    3    0  502 -0.36375435732E+03  0.74115142049E+03 -0.23580552570E+04  0.24984089449E+04  0.25500000920E-02 0.  1.
</event>
<event>
 5   0  0.2601252E-07  0.3978650E+04  0.7818609E-02  0.8008867E-01
        1   -1    0    0  501    0  0.00000000000E+00  0.00000000000E+00  0.24406723436E+04  0.24406723436E+04  0.50400001928E-02 0. -1.
       -1   -1    0    0    0  501  0.00000000000E+00  0.00000000000E+00 -0.16214442298E+04  0.16214442299E+04  0.50400001928E-02 0.  1.
    10030    2    1    2    0    0  0.00000000000E+00  0.00000000000E+00  0.81922811373E+03  0.40621165734E+04  0.39786500668E+04 0.  0.
        3    1    3    3  502    0  0.41271639256E+03 -0.13227261263E+04 -0.10477322598E+04  0.17371476979E+04  0.10100000352E+00 0.  1.
       -3    1    3    3    0  502 -0.41271639256E+03  0.13227261263E+04  0.18669603735E+04  0.23249688755E+04  0.10100000352E+00 0. -1.
</event>
<event>
 5   0  0.7256473E-07  0.2250354E+04  0.7818609E-02  0.8497757E-01
        2   -1    0    0  501    0  0.00000000000E+00  0.00000000000E+00  0.18118968007E+04  0.18118968007E+04  0.25500000920E-02 0. -1.
       -2   -1    0    0    0  501  0.00000000000E+00  0.00000000000E+00 -0.69872804902E+03  0.69872804903E+03  0.25500000920E-02 0.  1.
    10030    2    1    2    0    0  0.00000000000E+00  0.00000000000E+00  0.11131687517E+04  0.25106248497E+04  0.22503538536E+04 0.  0.
        4    1    3    3  502    0 -0.22061629051E+03  0.79853986418E+03 -0.29284383762E+03  0.87869026878E+03  0.12699999809E+01 0.  1.
       -4    1    3    3    0  502  0.22061629051E+03 -0.79853986418E+03  0.14060125893E+04  0.16319345809E+04  0.12699999809E+01 0. -1.
</event>
<event>
 5   0  0.2713405E-07  0.3995083E+04  0.7818609E-02  0.8005539E-01
       -1   -1    0    0    0  501  0.00000000000E+00  0.00000000000E+00  0.20054418054E+04  0.20054418054E+04  0.50400001928E-02 0. -1.
        1   -1    0    0  501    0  0.00000000000E+00  0.00000000000E+00 -0.19896725564E+04  0.19896725564E+04  0.50400001928E-02 0.  1.
    10030    2    1    2    0    0  0.00000000000E+00  0.00000000000E+00  0.15769248983E+02  0.39951143618E+04  0.39950832400E+04 0.  0.
        1    1    3    3  502    0  0.27166445982E+03 -0.10623624599E+04 -0.16617861161E+04  0.19909667679E+04  0.50400001928E-02 0.  1.
       -1    1    3    3    0  502 -0.27166445982E+03  0.10623624599E+04  0.16775553651E+04  0.20041475939E+04  0.50400001928E-02 0. -1.
</event>
<event>
 5   0  0.2713405E-07  0.4114697E+04  0.7818609E-02  0.7981800E-01
       -1   -1    0    0    0  501  0.00000000000E+00  0.00000000000E+00  0.15434774581E+04  0.15434774582E+04  0.50400001928E-02 0.  1.
        1   -1    0    0  501    0  0.00000000000E+00  0.00000000000E+00 -0.27423035773E+04  0.27423035773E+04  0.50400001928E-02 0. -1.
    10030    2    1    2    0    0  0.00000000000E+00  0.00000000000E+00 -0.11988261192E+04  0.42857810355E+04  0.41146974397E+04 0.  0.
        1    1    3    3  502    0 -0.86370408564E+03 -0.60255874905E+03 -0.24402753703E+04  0.26578197224E+04  0.50400001928E-02 0. -1.
       -1    1    3    3    0  502  0.86370408564E+03  0.60255874905E+03  0.12414492512E+04  0.16279613131E+04  0.50400001928E-02 0.  1.
</event>
<event>
 5   0  0.4449262E-07  0.4014818E+04  0.7818609E-02  0.8001564E-01
       -2   -1    0    0    0  501  0.00000000000E+00  0.00000000000E+00  0.13947624107E+04  0.13947624107E+04  0.25500000920E-02 0.  1.
        2   -1    0    0  501    0  0.00000000000E+00  0.00000000000E+00 -0.28891598491E+04  0.28891598491E+04  0.25500000920E-02 0. -1.
    10030    2    1    2    0    0  0.00000000000E+00  0.00000000000E+00 -0.14943974384E+04  0.42839222599E+04  0.40148183302E+04 0.  0.
        1    1    3    3  502    0  0.12907401734E+04  0.15339817510E+04 -0.85695924845E+03  0.21802498392E+04  0.50400001928E-02 0.  1.
       -1    1    3    3    0  502 -0.12907401734E+04 -0.15339817510E+04 -0.63743818995E+03  0.21036724207E+04  0.50400001928E-02 0. -1.
</event>
<event>
 5   0  0.2401125E-07  0.4073228E+04  0.7818609E-02  0.7989935E-01
        1   -1    0    0  501    0  0.00000000000E+00  0.00000000000E+00  0.22607980262E+04  0.22607980262E+04  0.50400001928E-02 0. -1.
       -1   -1    0    0    0  501  0.00000000000E+00  0.00000000000E+00 -0.18346603662E+04  0.18346603662E+04  0.50400001928E-02 0.  1.
    10030    2    1    2    0    0  0.00000000000E+00  0.00000000000E+00  0.42613765996E+03  0.40954583924E+04  0.40732279753E+04 0.  0.
        5    1    3    3  502    0  0.19905337302E+04 -0.41425020086E+03  0.33180944413E+03  0.20600843083E+04  0.46999998093E+01 0. -1.
       -5    1    3    3    0  502 -0.19905337302E+04  0.41425020086E+03  0.94328215831E+02  0.20353740841E+04  0.46999998093E+01 0.  1.
</event>
<event>
 5   0  0.2713405E-07  0.2177307E+04  0.7818609E-02  0.8527933E-01
       -1   -1    0    0    0  501  0.00000000000E+00  0.00000000000E+00  0.60303930110E+03  0.60303930112E+03  0.50400001928E-02 0. -1.
        1   -1    0    0  501    0  0.00000000000E+00  0.00000000000E+00 -0.19653218901E+04  0.19653218901E+04  0.50400001928E-02 0.  1.
    10030    2    1    2    0    0  0.00000000000E+00  0.00000000000E+00 -0.13622825890E+04  0.25683611912E+04  0.21773069045E+04 0.  0.
        1    1    3    3  502    0 -0.15526426440E+03 -0.10669830522E+04 -0.50378228955E+03  0.11901077350E+04  0.50400001928E-02 0. -1.
       -1    1    3    3    0  502  0.15526426440E+03  0.10669830522E+04 -0.85850029946E+03  0.13782534563E+04  0.50400001928E-02 0.  1.
</event>
<event>
 5   0  0.2647879E-07  0.3823261E+04  0.7818609E-02  0.8041182E-01
        1   -1    0    0  501    0  0.00000000000E+00  0.00000000000E+00  0.17388558864E+04  0.17388558865E+04  0.50400001928E-02 0. -1.
       -1   -1    0    0    0  501  0.00000000000E+00  0.00000000000E+00 -0.21015717768E+04  0.21015717769E+04  0.50400001928E-02 0.  1.
    10030    2    1    2    0    0  0.00000000000E+00  0.00000000000E+00 -0.36271589040E+03  0.38404276633E+04  0.38232606267E+04 0.  0.
        2    1    3    3  502    0  0.43044665475E+03 -0.18621990732E+04 -0.14569155536E+03  0.19168452572E+04  0.25500000920E-02 0. -1.
       -2    1    3    3    0  502 -0.43044665475E+03  0.18621990732E+04 -0.21702433504E+03  0.19235824061E+04  0.25500000920E-02 0.  1.
</event>
<event>
 5   0  0.2601252E-07  0.3990326E+04  0.7818609E-02  0.8006501E-01
       -1   -1    0    0    0  501  0.00000000000E+00  0.00000000000E+00  0.14235001730E+04  0.14235001730E+04  0.50400001928E-02 0.  1.
        1   -1    0    0  501    0  0.00000000000E+00  0.00000000000E+00 -0.27963995660E+04  0.27963995660E+04  0.50400001928E-02 0. -1.
    10030    2    1    2    0    0  0.00000000000E+00  0.00000000000E+00 -0.13728993929E+04  0.42198997390E+04  0.39903259345E+04 0.  0.
        3    1    3    3  502    0 -0.17042407905E+03 -0.73828496525E+03  0.12654260977E+04  0.14749278882E+04  0.10100000352E+00 0.  1.
       -3    1    3    3    0  502  0.17042407905E+03  0.73828496525E+03 -0.26383254906E+04  0.27449718507E+04  0.10100000352E+00 0. -1.
</event>
<event>
 5   0  0.2647879E-07  0.3414047E+04  0.7818609E-02  0.8134467E-01
        1   -1    0    0  501    0  0.00000000000E+00  0.00000000000E+00  0.21762712047E+04  0.21762712047E+04  0.50400001928E-02 0. -1.
       -1   -1    0    0    0  501  0.00000000000E+00  0.00000000000E+00 -0.13389549478E+04  0.13389549478E+04  0.50400001928E-02 0.  1.
    10030    2    1    2    0    0  0.00000000000E+00  0.00000000000E+00  0.83731625689E+03  0.35152261526E+04  0.34140469226E+04 0.  0.
        2    1    3    3  502    0 -0.16762005475E+04  0.31648984679E+03  0.48470749307E+03  0.17733458355E+04  0.25500000920E-02 0. -1.
       -2    1    3    3    0  502  0.16762005475E+04 -0.31648984679E+03  0.35260876382E+03  0.17418803170E+04  0.25500000920E-02 0.  1.
</event>
<event>
 5   0  0.4449262E-07  0.2883198E+04  0.7818609E-02  0.8277894E-01
       -2   -1    0    0    0  501  0.00000000000E+00  0.00000000000E+00  0.93942613995E+03  0.93942613995E+03  0.25500000920E-02 0. -1.
        2   -1    0    0  501    0  0.00000000000E+00  0.00000000000E+00 -0.22122096459E+04  0.22122096459E+04  0.25500000920E-02 0.  1.
    10030    2    1    2    0    0  0.00000000000E+00  0.00000000000E+00 -0.12727835060E+04  0.31516357859E+04  0.28831979248E+04 0.  0.
        1    1    3    3  502    0  0.33017728251E+03 -0.13966791047E+04 -0.48780190011E+03  0.15158100980E+04  0.50400001928E-02 0. -1.
       -1    1    3    3    0  502 -0.33017728251E+03  0.13966791047E+04 -0.78498160587E+03  0.16358256879E+04  0.50400001928E-02 0.  1.
</event>
<event>
 5   0  0.2647879E-07  0.2103137E+04  0.7818609E-02  0.8559863E-01
        1   -1    0    0  501    0  0.00000000000E+00  0.00000000000E+00  0.81411323900E+03  0.81411323902E+03  0.50400001928E-02 0. -1.
       -1   -1    0    0    0  501  0.00000000000E+00  0.00000000000E+00 -0.13582828969E+04  0.13582828969E+04  0.50400001928E-02 0.  1.
    10030    2    1    2    0    0  0.00000000000E+00  0.00000000000E+00 -0.54416965793E+03  0.21723961360E+04  0.21031367894E+04 0.  0.
        2    1    3    3  502    0 -0.99349219041E+03 -0.32975613170E+03 -0.16863557137E+03  0.10602847706E+04  0.25500000920E-02 0. -1.
       -2    1    3    3    0  502  0.99349219041E+03  0.32975613170E+03 -0.37553408656E+03  0.11121113654E+04  0.25500000920E-02 0.  1.
</event>
<event>
 5   0  0.4449262E-07  0.2468109E+04  0.7818609E-02  0.8414436E-01
       -2   -1    0    0    0  501  0.00000000000E+00  0.00000000000E+00  0.64364545113E+03  0.64364545113E+03  0.25500000920E-02 0.  1.
        2   -1    0    0  501    0  0.00000000000E+00  0.00000000000E+00 -0.23660386611E+04  0.23660386611E+04  0.25500000920E-02 0. -1.
    10030    2    1    2    0    0  0.00000000000E+00  0.00000000000E+00 -0.17223932099E+04  0.30096841122E+04  0.24681086049E+04 0.  0.
        1    1    3    3  502    0 -0.40373516029E+03 -0.99083241297E+03 -0.16110604700E+04  0.19339769358E+04  0.50400001928E-02 0. -1.
       -1    1    3    3    0  502  0.40373516029E+03  0.99083241297E+03 -0.11133273991E+03  0.10757071764E+04  0.50400001928E-02 0.  1.
</event>
<event>
 5   0  0.5161550E-07  0.3740945E+04  0.7818609E-02  0.8058948E-01
       -2   -1    0    0    0  501  0.00000000000E+00  0.00000000000E+00  0.12950758925E+04  0.12950758925E+04  0.25500000920E-02 0.  1.
        2   -1    0    0  501    0  0.00000000000E+00  0.00000000000E+00 -0.27015146746E+04  0.27015146746E+04  0.25500000920E-02 0. -1.
    10030    2    1    2    0    0  0.00000000000E+00  0.00000000000E+00 -0.14064387821E+04  0.39965905671E+04  0.37409445482E+04 0.  0.
        2    1    3    3  502    0 -0.46642833963E+03  0.17065190702E+04 -0.13521002299E+04  0.22266427115E+04  0.25500000920E-02 0. -1.
       -2    1    3    3    0  502  0.46642833963E+03 -0.17065190702E+04 -0.54338552233E+02  0.17699478556E+04  0.25500000920E-02 0.  1.
</event>
<event>
 5   0  0.2647879E-07  0.2756052E+04  0.7818609E-02  0.8317044E-01
        1   -1    0    0  501    0  0.00000000000E+00  0.00000000000E+00  0.17025167346E+04  0.17025167346E+04  0.50400001928E-02 0. -1.
       -1   -1    0    0    0  501  0.00000000000E+00  0.00000000000E+00 -0.11153814319E+04  0.11153814319E+04  0.50400001928E-02 0.  1.
    10030    2    1    2    0    0  0.00000000000E+00  0.00000000000E+00  0.58713530264E+03  0.28178981665E+04  0.27560519250E+04 0.  0.
        2    1    3    3  502    0  0.13660959303E+04  0.17751082451E+03  0.32938765417E+03  0.14164125142E+04  0.25500000920E-02 0. -1.
       -2    1    3    3    0  502 -0.13660959303E+04 -0.17751082451E+03  0.25774764847E+03  0.14014856524E+04  0.25500000920E-02 0.  1.
</event>
<event>
 5   0  0.3579559E-07  0.3667906E+04  0.7818609E-02  0.8075112E-01
        1   -1    0    0  501    0  0.00000000000E+00  0.00000000000E+00  0.25701280127E+04  0.25701280127E+04  0.50400001928E-02 0. -1.
       -1   -1    0    0    0  501  0.00000000000E+00  0.00000000000E+00 -0.13086447069E+04  0.13086447069E+04  0.50400001928E-02 0.  1.
    10030    2    1    2    0    0  0.00000000000E+00  0.00000000000E+00  0.12614833059E+04  0.38787727196E+04  0.36679064437E+04 0.  0.
        4    1    3    3  502    0  0.10421511437E+04 -0.13984588368E+04  0.12304572814E+04  0.21344303359E+04  0.12699999809E+01 0. -1.
       -4    1    3    3    0  502 -0.10421511437E+04  0.13984588368E+04  0.31026024502E+02  0.17443423837E+04  0.12699999809E+01 0.  1.
</event>
<event>
 5   0  0.5161550E-07  0.4113286E+04  0.7818609E-02  0.7982075E-01
        2   -1    0    0  501    0  0.00000000000E+00  0.00000000000E+00  0.17836938208E+04  0.17836938208E+04  0.25500000920E-02 0. -1.
       -2   -1    0    0    0  501  0.00000000000E+00  0.00000000000E+00 -0.23713595890E+04  0.23713595890E+04  0.25500000920E-02 0.  1.
    10030    2    1    2    0    0  0.00000000000E+00  0.00000000000E+00 -0.58766576826E+03  0.41550534098E+04  0.41132855217E+04 0.  0.
        2    1    3    3  502    0 -0.13628791129E+04  0.10625139416E+04 -0.14202361477E+04  0.22368384090E+04  0.25500000920E-02 0.  1.
       -2    1    3    3    0  502  0.13628791129E+04 -0.10625139416E+04  0.83257037946E+03  0.19182150008E+04  0.25500000920E-02 0. -1.
</event>
<event>
 5   0  0.4449262E-07  0.2978097E+04  0.7818609E-02  0.8250013E-01
       -2   -1    0    0    0  501  0.00000000000E+00  0.00000000000E+00  0.11364787670E+04  0.11364787670E+04  0.25500000920E-02 0. -1.
        2   -1    0    0  501    0  0.00000000000E+00  0.00000000000E+00 -0.19509963818E+04  0.19509963818E+04  0.25500000920E-02 0.  1.
    10030    2    1    2    0    0  0.00000000000E+00  0.00000000000E+00 -0.81451761473E+03  0.30874751488E+04  0.29780973540E+04 0.  0.
        1    1    3    3  502    0  0.10495974865E+04 -0.40375701145E+03  0.60459529720E+03  0.12767968050E+04  0.50400001928E-02 0. -1.
       -1    1    3    3    0  502 -0.10495974865E+04  0.40375701145E+03 -0.14191129119E+04  0.18106783438E+04  0.50400001928E-02 0.  1.
</event>
<event>
 5   0  0.2647879E-07  0.2078686E+04  0.7818609E-02  0.8570691E-01
        1   -1    0    0  501    0  0.00000000000E+00  0.00000000000E+00  0.18689356281E+04  0.18689356282E+04  0.50400001928E-02 0.  1.
       -1   -1    0    0    0  501  0.00000000000E+00  0.00000000000E+00 -0.57799423434E+03  0.57799423437E+03  0.50400001928E-02 0. -1.
    10030    2    1    2    0    0  0.00000000000E+00  0.00000000000E+00  0.12909413938E+04  0.24469298625E+04  0.20786861403E+04 0.  0.
        2    1    3    3  502    0 -0.10837190460E+03  0.79277663762E+03  0.14263004406E+04  0.16354119401E+04  0.25500000920E-02 0.  1.
       -2    1    3    3    0  502  0.10837190460E+03 -0.79277663762E+03 -0.13535904681E+03  0.81151792243E+03  0.25500000920E-02 0. -1.
</event>
<event>
 5   0  0.7570277E-07  0.3944755E+04  0.7818609E-02  0.8015785E-01
       -2   -1    0    0    0  501  0.00000000000E+00  0.00000000000E+00  0.25241079174E+04  0.25241079174E+04  0.25500000920E-02 0.  1.
        2   -1    0    0  501    0  0.00000000000E+00  0.00000000000E+00 -0.15412466499E+04  0.15412466499E+04  0.25500000920E-02 0. -1.
    10030    2    1    2    0    0  0.00000000000E+00  0.00000000000E+00  0.98286126749E+03  0.40653545672E+04  0.39447549336E+04 0.  0.
        5    1    3    3  502    0  0.54735644793E+03 -0.10458268169E+04 -0.11370357558E+04  0.16389707783E+04  0.46999998093E+01 0. -1.
       -5    1    3    3    0  502 -0.54735644793E+03  0.10458268169E+04  0.21198970233E+04  0.24263837890E+04  0.46999998093E+01 0.  1.
</event>
<event>
 5   0  0.3579559E-07  0.3991285E+04  0.7818609E-02  0.8006307E-01
       -1   -1    0    0    0  501  0.00000000000E+00  0.00000000000E+00  0.19328076463E+04  0.19328076463E+04  0.50400001928E-02 0.  1.
        1   -1    0    0  501    0  0.00000000000E+00  0.00000000000E+00 -0.20605197039E+04  0.20605197039E+04  0.50400001928E-02 0. -1.
    10030    2    1    2    0    0  0.00000000000E+00  0.00000000000E+00 -0.12771205762E+03  0.39933273502E+04  0.39912846248E+04 0.  0.
        4    1    3    3  502    0 -0.93546686442E+02 -0.16152431711E+04  0.11049991909E+04  0.19592820902E+04  0.12699999809E+01 0.  1.
       -4    1    3    3    0  502  0.93546686442E+02  0.16152431711E+04 -0.12327112486E+04  0.20340452599E+04  0.12699999809E+01 0. -1.
</event>
<event>
 5   0  0.5161550E-07  0.4048525E+04  0.7818609E-02  0.7994828E-01
        2   -1    0    0  501    0  0.00000000000E+00  0.00000000000E+00  0.23604470291E+04  0.23604470291E+04  0.25500000920E-02 0. -1.
       -2   -1    0    0    0  501  0.00000000000E+00  0.00000000000E+00 -0.17359587228E+04  0.17359587228E+04  0.25500000920E-02 0.  1.
    10030    2    1    2    0    0  0.00000000000E+00  0.00000000000E+00  0.62448830624E+03  0.40964057519E+04  0.40485249709E+04 0.  0.
        2    1    3    3  502    0 -0.11779961867E+04 -0.12282029515E+04  0.14213286060E+04  0.22172804316E+04  0.25500000920E-02 0. -1.
       -2    1    3    3    0  502  0.11779961867E+04  0.12282029515E+04 -0.79684029978E+03  0.18791253203E+04  0.25500000920E-02 0.  1.
</event>
<event>
 5   0  0.2401125E-07  0.3902421E+04  0.7818609E-02  0.8024526E-01
        1   -1    0    0  501    0  0.00000000000E+00  0.00000000000E+00  0.25620716707E+04  0.25620716707E+04  0.50400001928E-02 0. -1.
       -1   -1    0    0    0  501  0.00000000000E+00  0.00000000000E+00 -0.14859934568E+04  0.14859934568E+04  0.50400001928E-02 0.  1.
    10030    2    1    2    0    0  0.00000000000E+00  0.00000000000E+00  0.10760782139E+04  0.40480651274E+04  0.39024206531E+04 0.  0.
        5    1    3    3  502    0 -0.45143765377E+03  0.17217297469E+04 -0.29120225372E+03  0.18035992124E+04  0.46999998093E+01 0.  1.
       -5    1    3    3    0  502  0.45143765377E+03 -0.17217297469E+04  0.13672804676E+04  0.22444659150E+04  0.46999998093E+01 0. -1.
</event>
<event>
 5   0  0.2601252E-07  0.3638105E+04  0.7818609E-02  0.8081819E-01
       -1   -1    0    0    0  501  0.00000000000E+00  0.00000000000E+00  0.24501065625E+04  0.24501065625E+04  0.50400001928E-02 0. -1.
        1   -1    0    0  501    0  0.00000000000E+00  0.00000000000E+00 -0.13505339693E+04  0.13505339693E+04  0.50400001928E-02 0.  1.
    10030    2    1    2    0    0  0.00000000000E+00  0.00000000000E+00  0.10995725932E+04  0.38006405318E+04  0.36381050787E+04 0.  0.
        3    1    3    3  502    0 -0.95868762772E+03 -0.11232663250E+04  0.16593790694E+04  0.22213392605E+04  0.10100000352E+00 0. -1.
       -3    1    3    3    0  502  0.95868762772E+03  0.11232663250E+04 -0.55980647613E+03  0.15793012712E+04  0.10100000352E+00 0.  1.
</event>
<event>
 5   0  0.2713405E-07  0.4086211E+04  0.7818609E-02  0.7987377E-01
       -1   -1    0    0    0  501  0.00000000000E+00  0.00000000000E+00  0.17336646412E+04  0.17336646412E+04  0.50400001928E-02 0.  1.
        1   -1    0    0  501    0  0.00000000000E+00  0.00000000000E+00 -0.24077788491E+04  0.24077788491E+04  0.50400001928E-02 0. -1.
    10030    2    1    2    0    0  0.00000000000E+00  0.00000000000E+00 -0.67411420783E+03  0.41414434903E+04  0.40862114750E+04 0.  0.
        1    1    3    3  502    0 -0.15942523373E+04 -0.37506079138E+03  0.90091522554E+03  0.18692135662E+04  0.50400001928E-02 0.  1.
       -1    1    3    3    0  502  0.15942523373E+04  0.37506079138E+03 -0.15750294334E+04  0.22722299242E+04  0.50400001928E-02 0. -1.
</event>
<event>
 5   0  0.4449262E-07  0.3557704E+04  0.7818609E-02  0.8100249E-01
        2   -1    0    0  501    0  0.00000000000E+00  0.00000000000E+00  0.25482201618E+04  0.25482201618E+04  0.25500000920E-02 0.  1.
       -2   -1    0    0    0  501  0.00000000000E+00  0.00000000000E+00 -0.12417743328E+04  0.12417743328E+04  0.25500000920E-02 0. -1.
    10030    2    1    2    0    0  0.00000000000E+00  0.00000000000E+00  0.13064458290E+04  0.37899944946E+04  0.35577039737E+04 0.  0.
        1    1    3    3  502    0 -0.44621126375E+03  0.97682920046E+03 -0.85747066473E+03  0.13742473284E+04  0.50400001928E-02 0. -1.
       -1    1    3    3    0  502  0.44621126375E+03 -0.97682920046E+03  0.21639164937E+04  0.24157471661E+04  0.50400001928E-02 0.  1.
</event>
<event>
 5   0  0.4449262E-07  0.3990328E+04  0.7818609E-02  0.8006500E-01
       -2   -1    0    0    0  501  0.00000000000E+00  0.00000000000E+00  0.16421132053E+04  0.16421132053E+04  0.25500000920E-02 0.  1.
        2   -1    0    0  501    0  0.00000000000E+00  0.00000000000E+00 -0.24241203294E+04  0.24241203294E+04  0.25500000920E-02 0. -1.
    10030    2    1    2    0    0  0.00000000000E+00  0.00000000000E+00 -0.78200712411E+03  0.40662335347E+04  0.39903283093E+04 0.  0.
        1    1    3    3  502    0  0.33193535778E+03 -0.29553972934E+03 -0.23730360415E+04  0.24142959362E+04  0.50400001928E-02 0. -1.
       -1    1    3    3    0  502 -0.33193535778E+03  0.29553972934E+03  0.15910289174E+04  0.16519375985E+04  0.50400001928E-02 0.  1.
</event>
<event>
 5   0  0.3579559E-07  0.3996843E+04  0.7818609E-02  0.8005184E-01
        1   -1    0    0  501    0  0.00000000000E+00  0.00000000000E+00  0.19331841367E+04  0.19331841367E+04  0.50400001928E-02 0.  1.
       -1   -1    0    0    0  501  0.00000000000E+00  0.00000000000E+00 -0.20658606627E+04  0.20658606627E+04  0.50400001928E-02 0. -1.
    10030    2    1    2    0    0  0.00000000000E+00  0.00000000000E+00 -0.13267652598E+03  0.39990447994E+04  0.39968432853E+04 0.  0.
        4    1    3    3  502    0  0.18768104183E+04 -0.64403601137E+03 -0.30414062656E+03  0.20074119816E+04  0.12699999809E+01 0. -1.
       -4    1    3    3    0  502 -0.18768104183E+04  0.64403601137E+03  0.17146410059E+03  0.19916328178E+04  0.12699999809E+01 0.  1.
</event>
<event>
 5   0  0.2401125E-07  0.3913290E+04  0.7818609E-02  0.8022271E-01
        1   -1    0    0  501    0  0.00000000000E+00  0.00000000000E+00  0.19536326548E+04  0.19536326548E+04  0.50400001928E-02 0. -1.
       -1   -1    0    0    0  501  0.00000000000E+00  0.00000000000E+00 -0.19596620425E+04  0.19596620425E+04  0.50400001928E-02 0.  1.
    10030    2    1    2    0    0  0.00000000000E+00  0.00000000000E+00 -0.60293877044E+01  0.39132946973E+04  0.39132900524E+04 0.  0.
        5    1    3    3  502    0 -0.10681143380E+04  0.10718533586E+04 -0.12434595576E+04  0.19585585574E+04  0.46999998093E+01 0.  1.
       -5    1    3    3    0  502  0.10681143380E+04 -0.10718533586E+04  0.12374301699E+04  0.19547361399E+04  0.46999998093E+01 0. -1.
</event>
<event>
 5   0  0.7256473E-07  0.3352458E+04  0.7818609E-02  0.8149674E-01
       -2   -1    0    0    0  501  0.00000000000E+00  0.00000000000E+00  0.13012818747E+04  0.13012818747E+04  0.25500000920E-02 0. -1.
        2   -1    0    0  501    0  0.00000000000E+00  0.00000000000E+00 -0.21592127375E+04  0.21592127375E+04  0.25500000920E-02 0.  1.
    10030    2    1    2    0    0  0.00000000000E+00  0.00000000000E+00 -0.85793086282E+03  0.34604946122E+04  0.33524584406E+04 0.  0.
        4    1    3    3  502    0 -0.17180711363E+02 -0.11860584016E+04  0.79356364637E+03  0.14271561171E+04  0.12699999809E+01 0. -1.
       -4    1    3    3    0  502  0.17180711363E+02  0.11860584016E+04 -0.16514945092E+04  0.20333384951E+04  0.12699999809E+01 0.  1.
</event>
<event>
 5   0  0.7570277E-07  0.4020063E+04  0.7818609E-02  0.8000511E-01
        2   -1    0    0  501    0  0.00000000000E+00  0.00000000000E+00  0.28065667096E+04  0.28065667096E+04  0.25500000920E-02 0.  1.
       -2   -1    0    0    0  501  0.00000000000E+00  0.00000000000E+00 -0.14395620794E+04  0.14395620794E+04  0.25500000920E-02 0. -1.
    10030    2    1    2    0    0  0.00000000000E+00  0.00000000000E+00  0.13670046303E+04  0.42461287890E+04  0.40200631878E+04 0.  0.
        5    1    3    3  502    0  0.49885308836E+03 -0.23050745901E+03 -0.13586706714E+04  0.14656043722E+04  0.46999998093E+01 0. -1.
       -5    1    3    3    0  502 -0.49885308836E+03  0.23050745901E+03  0.27256753017E+04  0.27805244168E+04  0.46999998093E+01 0.  1.
</event>
<event>
 5   0  0.3579559E-07  0.2449900E+04  0.7818609E-02  0.8421054E-01
       -1   -1    0    0    0  501  0.00000000000E+00  0.00000000000E+00  0.13980767836E+04  0.13980767836E+04  0.50400001928E-02 0.  1.
        1   -1    0    0  501    0  0.00000000000E+00  0.00000000000E+00 -0.10732619502E+04  0.10732619502E+04  0.50400001928E-02 0. -1.
    10030    2    1    2    0    0  0.00000000000E+00  0.00000000000E+00  0.32481483336E+03  0.24713387338E+04  0.24499000921E+04 0.  0.
        4    1    3    3  502    0  0.31606152889E+03  0.31515429390E+02  0.13558124598E+04  0.13925218675E+04  0.12699999809E+01 0.  1.
       -4    1    3    3    0  502 -0.31606152889E+03 -0.31515429390E+02 -0.10309976265E+04  0.10788168663E+04  0.12699999809E+01 0. -1.
</event>
<event>
 5   0  0.6043512E-07  0.2374403E+04  0.7818609E-02  0.8449149E-01
        2   -1    0    0  501    0  0.00000000000E+00  0.00000000000E+00  0.10690555979E+04  0.10690555979E+04  0.25500000920E-02 0.  1.
       -2   -1    0    0    0  501  0.00000000000E+00  0.00000000000E+00 -0.13184043650E+04  0.13184043650E+04  0.25500000920E-02 0. -1.
    10030    2    1    2    0    0  0.00000000000E+00  0.00000000000E+00 -0.24934876705E+03  0.23874599629E+04  0.23744031391E+04 0.  0.
        3    1    3    3  502    0  0.29250416504E+03 -0.10718866469E+04 -0.54524215500E+03  0.12376545108E+04  0.10100000352E+00 0.  1.
       -3    1    3    3    0  502 -0.29250416504E+03  0.10718866469E+04  0.29589338795E+03  0.11498054521E+04  0.10100000352E+00 0. -1.
</event>
<event>
 5   0  0.4449262E-07  0.4026832E+04  0.7818609E-02  0.7999155E-01
       -2   -1    0    0    0  501  0.00000000000E+00  0.00000000000E+00  0.16837710680E+04  0.16837710680E+04  0.25500000920E-02 0.  1.
        2   -1    0    0  501    0  0.00000000000E+00  0.00000000000E+00 -0.24075984888E+04  0.24075984888E+04  0.25500000920E-02 0. -1.
    10030    2    1    2    0    0  0.00000000000E+00  0.00000000000E+00 -0.72382742075E+03  0.40913695568E+04  0.40268323426E+04 0.  0.
        1    1    3    3  502    0 -0.89681056699E+03 -0.43249655401E+03  0.14161396292E+04  0.17311192656E+04  0.50400001928E-02 0.  1.
       -1    1    3    3    0  502  0.89681056699E+03  0.43249655401E+03 -0.21399670499E+04  0.23602502912E+04  0.50400001928E-02 0. -1.
</event>
<event>
 5   0  0.7570277E-07  0.3161302E+04  0.7818609E-02  0.8199113E-01
       -2   -1    0    0    0  501  0.00000000000E+00  0.00000000000E+00  0.21567879141E+04  0.21567879141E+04  0.25500000920E-02 0. -1.
        2   -1    0    0  501    0  0.00000000000E+00  0.00000000000E+00 -0.11584161630E+04  0.11584161630E+04  0.25500000920E-02 0.  1.
    10030    2    1    2    0    0  0.00000000000E+00  0.00000000000E+00  0.99837175110E+03  0.33152040772E+04  0.31613022506E+04 0.  0.
        5    1    3    3  502    0  0.13597694970E+04  0.79876738446E+03  0.61131883527E+03  0.16913708132E+04  0.46999998093E+01 0. -1.
       -5    1    3    3    0  502 -0.13597694970E+04 -0.79876738446E+03  0.38705291583E+03  0.16238332640E+04  0.46999998093E+01 0.  1.
</event>
<event>
 5   0  0.7570277E-07  0.3289930E+04  0.7818609E-02  0.8165462E-01
        2   -1    0    0  501    0  0.00000000000E+00  0.00000000000E+00  0.25387196533E+04  0.25387196533E+04  0.25500000920E-02 0. -1.
       -2   -1    0    0    0  501  0.00000000000E+00  0.00000000000E+00 -0.10658562276E+04  0.10658562276E+04  0.25500000920E-02 0.  1.
    10030    2    1    2    0    0  0.00000000000E+00  0.00000000000E+00  0.14728634256E+04  0.36045758809E+04  0.32899301832E+04 0.  0.
        5    1    3    3  502    0  0.24151560644E+02 -0.83003810491E+03 -0.81935312994E+03  0.11665796994E+04  0.46999998093E+01 0.  1.
       -5    1    3    3    0  502 -0.24151560644E+02  0.83003810491E+03  0.22922165556E+04  0.24379961815E+04  0.46999998093E+01 0. -1.
</event>
<event>
 5   0  0.5161550E-07  0.4224812E+04  0.7818609E-02  0.7960669E-01
        2   -1    0    0  501    0  0.00000000000E+00  0.00000000000E+00  0.22484040360E+04  0.22484040360E+04  0.25500000920E-02 0. -1.
       -2   -1    0    0    0  501  0.00000000000E+00  0.00000000000E+00 -0.19846337683E+04  0.19846337683E+04  0.25500000920E-02 0.  1.
    10030    2    1    2    0    0  0.00000000000E+00  0.00000000000E+00  0.26377026771E+03  0.42330378044E+04  0.42248117472E+04 0.  0.
        2    1    3    3  502    0  0.32568060796E+03 -0.21940600304E+03 -0.19477408708E+04  0.19869326492E+04  0.25500000920E-02 0.  1.
       -2    1    3    3    0  502 -0.32568060796E+03  0.21940600304E+03  0.22115111385E+04  0.22461051552E+04  0.25500000920E-02 0. -1.
</event>
<event>
 5   0  0.2401125E-07  0.2193499E+04  0.7818609E-02  0.8521139E-01
       -1   -1    0    0    0  501  0.00000000000E+00  0.00000000000E+00  0.13690824459E+04  0.13690824459E+04  0.50400001928E-02 0.  1.
        1   -1    0    0  501    0  0.00000000000E+00  0.00000000000E+00 -0.87858810368E+03  0.87858810370E+03  0.50400001928E-02 0. -1.
    10030    2    1    2    0    0  0.00000000000E+00  0.00000000000E+00  0.49049434225E+03  0.22476705496E+04  0.21934990768E+04 0.  0.
        5    1    3    3  502    0 -0.16357616270E+03 -0.67915457602E+03  0.11116031771E+04  0.13128944407E+04  0.46999998093E+01 0.  1.
       -5    1    3    3    0  502  0.16357616270E+03  0.67915457602E+03 -0.62110883483E+03  0.93477610894E+03  0.46999998093E+01 0. -1.
</event>
<event>
 5   0  0.2713405E-07  0.3976963E+04  0.7818609E-02  0.8009210E-01
       -1   -1    0    0    0  501  0.00000000000E+00  0.00000000000E+00  0.12735280393E+04  0.12735280393E+04  0.50400001928E-02 0. -1.
        1   -1    0    0  501    0  0.00000000000E+00  0.00000000000E+00 -0.31048073852E+04  0.31048073852E+04  0.50400001928E-02 0.  1.
    10030    2    1    2    0    0  0.00000000000E+00  0.00000000000E+00 -0.18312793459E+04  0.43783354245E+04  0.39769632946E+04 0.  0.
        1    1    3    3  502    0  0.15558450368E+04  0.23884984857E+03  0.42204277336E+03  0.16296696387E+04  0.50400001928E-02 0. -1.
       -1    1    3    3    0  502 -0.15558450368E+04 -0.23884984857E+03 -0.22533221193E+04  0.27486657858E+04  0.50400001928E-02 0.  1.
</event>
<event>
 5   0  0.6043512E-07  0.2930682E+04  0.7818609E-02  0.8263807E-01
        2   -1    0    0  501    0  0.00000000000E+00  0.00000000000E+00  0.20308329654E+04  0.20308329654E+04  0.25500000920E-02 0.  1.
       -2   -1    0    0    0  501  0.00000000000E+00  0.00000000000E+00 -0.10573118575E+04  0.10573118575E+04  0.25500000920E-02 0. -1.
    10030    2    1    2    0    0  0.00000000000E+00  0.00000000000E+00  0.97352110786E+03  0.30881448230E+04  0.29306816784E+04 0.  0.
        3    1    3    3  502    0  0.13253035835E+04 -0.89761073915E+02 -0.16513693078E+03  0.13385652226E+04  0.10100000352E+00 0. -1.
       -3    1    3    3    0  502 -0.13253035835E+04  0.89761073915E+02  0.11386580386E+04  0.17495796004E+04  0.10100000352E+00 0.  1.
</event>
<event>
 5   0  0.2713405E-07  0.2600161E+04  0.7818609E-02  0.8368147E-01
       -1   -1    0    0    0  501  0.00000000000E+00  0.00000000000E+00  0.10360634848E+04  0.10360634848E+04  0.50400001928E-02 0. -1.
        1   -1    0    0  501    0  0.00000000000E+00  0.00000000000E+00 -0.16313757535E+04  0.16313757535E+04  0.50400001928E-02 0.  1.
    10030    2    1    2    0    0  0.00000000000E+00  0.00000000000E+00 -0.59531226867E+03  0.26674392383E+04  0.26001606475E+04 0.  0.
        1    1    3    3  502    0 -0.62280530248E+03  0.56447740870E+03  0.71981703473E+03  0.11066425589E+04  0.50400001928E-02 0. -1.
       -1    1    3    3    0  502  0.62280530248E+03 -0.56447740870E+03 -0.13151293034E+04  0.15607966794E+04  0.50400001928E-02 0.  1.
</event>
<event>
 5   0  0.5161550E-07  0.2950552E+04  0.7818609E-02  0.8257994E-01
       -2   -1    0    0    0  501  0.00000000000E+00  0.00000000000E+00  0.16473425320E+04  0.16473425320E+04  0.25500000920E-02 0. -1.
        2   -1    0    0  501    0  0.00000000000E+00  0.00000000000E+00 -0.13211819087E+04  0.13211819087E+04  0.25500000920E-02 0.  1.
    10030    2    1    2    0    0  0.00000000000E+00  0.00000000000E+00  0.32616062328E+03  0.29685244406E+04  0.29505519149E+04 0.  0.
        2    1    3    3  502    0  0.33050281122E+03 -0.96141266367E+03 -0.91249321442E+03  0.13660857530E+04  0.25500000920E-02 0.  1.
       -2    1    3    3    0  502 -0.33050281122E+03  0.96141266367E+03  0.12386538377E+04  0.16024386877E+04  0.25500000920E-02 0. -1.
</event>
<event>
 5   0  0.5161550E-07  0.3939472E+04  0.7818609E-02  0.8016870E-01
        2   -1    0    0  501    0  0.00000000000E+00  0.00000000000E+00  0.19619602586E+04  0.19619602586E+04  0.25500000920E-02 0. -1.
       -2   -1    0    0    0  501  0.00000000000E+00  0.00000000000E+00 -0.19775421201E+04  0.19775421201E+04  0.25500000920E-02 0.  1.
    10030    2    1    2    0    0  0.00000000000E+00  0.00000000000E+00 -0.15581861451E+02  0.39395023787E+04  0.39394715633E+04 0.  0.
        2    1    3    3  502    0 -0.69914719684E+03 -0.15943308077E+04  0.91371588258E+03  0.19661063657E+04  0.25500000920E-02 0. -1.
       -2    1    3    3    0  502  0.69914719684E+03  0.15943308077E+04 -0.92929774403E+03  0.19733960130E+04  0.25500000920E-02 0.  1.
</event>
<event>
 5   0  0.3579559E-07  0.3973523E+04  0.7818609E-02  0.8009909E-01
       -1   -1    0    0    0  501  0.00000000000E+00  0.00000000000E+00  0.22434110339E+04  0.22434110339E+04  0.50400001928E-02 0.  1.
        1   -1    0    0  501    0  0.00000000000E+00  0.00000000000E+00 -0.17594731674E+04  0.17594731674E+04  0.50400001928E-02 0. -1.
    10030    2    1    2    0    0  0.00000000000E+00  0.00000000000E+00  0.48393786655E+03  0.40028842013E+04  0.39735231307E+04 0.  0.
        4    1    3    3  502    0  0.67026872479E+03  0.64013755818E+03  0.20122769690E+04  0.22154675510E+04  0.12699999809E+01 0.  1.
       -4    1    3    3    0  502 -0.67026872479E+03 -0.64013755818E+03 -0.15283391024E+04  0.17874166503E+04  0.12699999809E+01 0. -1.
</event>
<event>
 5   0  0.4449262E-07  0.2900460E+04  0.7818609E-02  0.8272741E-01
       -2   -1    0    0    0  501  0.00000000000E+00  0.00000000000E+00  0.17551096614E+04  0.17551096614E+04  0.25500000920E-02 0. -1.
        2   -1    0    0  501    0  0.00000000000E+00  0.00000000000E+00 -0.11983105269E+04  0.11983105269E+04  0.25500000920E-02 0.  1.
    10030    2    1    2    0    0  0.00000000000E+00  0.00000000000E+00  0.55679913455E+03  0.29534201883E+04  0.29004595382E+04 0.  0.
        1    1    3    3  502    0  0.32586218720E+03 -0.91550342735E+03 -0.81774789980E+03  0.12700568169E+04  0.50400001928E-02 0.  1.
       -1    1    3    3    0  502 -0.32586218720E+03  0.91550342735E+03  0.13745470344E+04  0.16833633714E+04  0.50400001928E-02 0. -1.
</event>
<event>
 5   0  0.5161550E-07  0.3242483E+04  0.7818609E-02  0.8177687E-01
        2   -1    0    0  501    0  0.00000000000E+00  0.00000000000E+00  0.24718309897E+04  0.24718309897E+04  0.25500000920E-02 0. -1.
       -2   -1    0    0    0  501  0.00000000000E+00  0.00000000000E+00 -0.10633507700E+04  0.10633507700E+04  0.25500000920E-02 0.  1.
    10030    2    1    2    0    0  0.00000000000E+00  0.00000000000E+00  0.14084802197E+04  0.35351817598E+04  0.32424826207E+04 0.  0.
        2    1    3    3  502    0 -0.79886677342E+03 -0.31568456468E+03  0.22033430311E+04  0.23648605411E+04  0.25500000920E-02 0. -1.
       -2    1    3    3    0  502  0.79886677342E+03  0.31568456468E+03 -0.79486281137E+03  0.11703212187E+04  0.25500000920E-02 0.  1.
</event>
<event>
 5   0  0.2713405E-07  0.3740597E+04  0.7818609E-02  0.8059024E-01
        1   -1    0    0  501    0  0.00000000000E+00  0.00000000000E+00  0.16761143024E+04  0.16761143024E+04  0.50400001928E-02 0.  1.
       -1   -1    0    0    0  501  0.00000000000E+00  0.00000000000E+00 -0.20869799362E+04  0.20869799362E+04  0.50400001928E-02 0. -1.
    10030    2    1    2    0    0  0.00000000000E+00  0.00000000000E+00 -0.41086563385E+03  0.37630942386E+04  0.37405972357E+04 0.  0.
        1    1    3    3  502    0 -0.19783140058E+03 -0.24529674188E+03 -0.20600793293E+04  0.20840428493E+04  0.50400001928E-02 0. -1.
       -1    1    3    3    0  502  0.19783140058E+03  0.24529674188E+03  0.16492136955E+04  0.16790513893E+04  0.50400001928E-02 0.  1.
</event>
<event>
 5   0  0.2601252E-07  0.4001739E+04  0.7818609E-02  0.8004196E-01
        1   -1    0    0  501    0  0.00000000000E+00  0.00000000000E+00  0.14241013272E+04  0.14241013272E+04  0.50400001928E-02 0. -1.
       -1   -1    0    0    0  501  0.00000000000E+00  0.00000000000E+00 -0.28112316215E+04  0.28112316215E+04  0.50400001928E-02 0.  1.
    10030    2    1    2    0    0  0.00000000000E+00  0.00000000000E+00 -0.13871302943E+04  0.42353329487E+04  0.40017389637E+04 0.  0.
        3    1    3    3  502    0  0.19898458670E+04 -0.10403817689E+03 -0.88631740211E+03  0.21807955118E+04  0.10100000352E+00 0. -1.
       -3    1    3    3    0  502 -0.19898458670E+04  0.10403817689E+03 -0.50081289216E+03  0.20545374370E+04  0.10100000352E+00 0.  1.
</event>
<event>
 5   0  0.2647879E-07  0.2288914E+04  0.7818609E-02  0.8482305E-01
        1   -1    0    0  501    0  0.00000000000E+00  0.00000000000E+00  0.17215612947E+04  0.17215612947E+04  0.50400001928E-02 0. -1.
       -1   -1    0    0    0  501  0.00000000000E+00  0.00000000000E+00 -0.76081049103E+03  0.76081049105E+03  0.50400001928E-02 0.  1.
    10030    2    1    2    0    0  0.00000000000E+00  0.00000000000E+00  0.96075080366E+03  0.24823717858E+04  0.22889140604E+04 0.  0.
        2    1    3    3  502    0  0.46533095376E+03 -0.28958032766E+03 -0.60922515992E+03  0.81947846719E+03  0.25500000920E-02 0.  1.
       -2    1    3    3    0  502 -0.46533095376E+03  0.28958032766E+03  0.15699759636E+04  0.16628933186E+04  0.25500000920E-02 0. -1.
</event>
<event>
 5   0  0.4449262E-07  0.2334409E+04  0.7818609E-02  0.8464476E-01
        2   -1    0    0  501    0  0.00000000000E+00  0.00000000000E+00  0.11669094184E+04  0.11669094184E+04  0.25500000920E-02 0.  1.
       -2   -1    0    0    0  501  0.00000000000E+00  0.00000000000E+00 -0.11674999565E+04  0.11674999565E+04  0.25500000920E-02 0. -1.
    10030    2    1    2    0    0  0.00000000000E+00  0.00000000000E+00 -0.59053804723E+00  0.23344093749E+04  0.23344093002E+04 0.  0.
        1    1    3    3  502    0  0.71653775751E+03  0.12314597254E+03 -0.91340832890E+03  0.11674356787E+04  0.50400001928E-02 0. -1.
       -1    1    3    3    0  502 -0.71653775751E+03 -0.12314597254E+03  0.91281779085E+03  0.11669736963E+04  0.50400001928E-02 0.  1.
</event>
<event>
 5   0  0.5161550E-07  0.3955302E+04  0.7818609E-02  0.8013625E-01
       -2   -1    0    0    0  501  0.00000000000E+00  0.00000000000E+00  0.17008082080E+04  0.17008082080E+04  0.25500000920E-02 0. -1.
        2   -1    0    0  501    0  0.00000000000E+00  0.00000000000E+00 -0.22995564053E+04  0.22995564053E+04  0.25500000920E-02 0.  1.
    10030    2    1    2    0    0  0.00000000000E+00  0.00000000000E+00 -0.59874819725E+03  0.40003646133E+04  0.39553024708E+04 0.  0.
        2    1    3    3  502    0  0.18908944768E+04 -0.10913610814E+03  0.27606469823E+03  0.19140544219E+04  0.25500000920E-02 0. -1.
       -2    1    3    3    0  502 -0.18908944768E+04  0.10913610814E+03 -0.87481289548E+03  0.20863101914E+04  0.25500000920E-02 0.  1.
</event>
<event>
 5   0  0.5161550E-07  0.3719159E+04  0.7818609E-02  0.8063729E-01
        2   -1    0    0  501    0  0.00000000000E+00  0.00000000000E+00  0.15392484759E+04  0.15392484759E+04  0.25500000920E-02 0.  1.
       -2   -1    0    0    0  501  0.00000000000E+00  0.00000000000E+00 -0.22465740669E+04  0.22465740669E+04  0.25500000920E-02 0. -1.
    10030    2    1    2    0    0  0.00000000000E+00  0.00000000000E+00 -0.70732559097E+03  0.37858225428E+04  0.37191588879E+04 0.  0.
        2    1    3    3  502    0  0.67425743097E+03 -0.10118264499E+04  0.10785462806E+04  0.16253239453E+04  0.25500000920E-02 0.  1.
       -2    1    3    3    0  502 -0.67425743097E+03  0.10118264499E+04 -0.17858718716E+04  0.21604985974E+04  0.25500000920E-02 0. -1.
</event>
<event>
 5   0  0.7570277E-07  0.2685952E+04  0.7818609E-02  0.8339577E-01
       -2   -1    0    0    0  501  0.00000000000E+00  0.00000000000E+00  0.15414606274E+04  0.15414606274E+04  0.25500000920E-02 0. -1.
        2   -1    0    0  501    0  0.00000000000E+00  0.00000000000E+00 -0.11700490916E+04  0.11700490916E+04  0.25500000920E-02 0.  1.
    10030    2    1    2    0    0  0.00000000000E+00  0.00000000000E+00  0.37141153583E+03  0.27115097190E+04  0.26859520523E+04 0.  0.
        5    1    3    3  502    0  0.10395512468E+04 -0.71153927128E+03 -0.28413396654E+03  0.12913981301E+04  0.46999998093E+01 0.  1.
       -5    1    3    3    0  502 -0.10395512468E+04  0.71153927128E+03  0.65554550236E+03  0.14201115889E+04  0.46999998093E+01 0. -1.
</event>
<event>
 5   0  0.2401125E-07  0.2487468E+04  0.7818609E-02  0.8407464E-01
       -1   -1    0    0    0  501  0.00000000000E+00  0.00000000000E+00  0.92361608732E+03  0.92361608733E+03  0.50400001928E-02 0. -1.
        1   -1    0    0  501    0  0.00000000000E+00  0.00000000000E+00 -0.16748023628E+04  0.16748023628E+04  0.50400001928E-02 0.  1.
    10030    2    1    2    0    0  0.00000000000E+00  0.00000000000E+00 -0.75118627544E+03  0.25984184501E+04  0.24874681147E+04 0.  0.
        5    1    3    3  502    0 -0.94226799578E+02  0.59471873943E+03  0.76119455100E+03  0.97057112220E+03  0.46999998093E+01 0. -1.
       -5    1    3    3    0  502  0.94226799578E+02 -0.59471873943E+03 -0.15123808264E+04  0.16278473279E+04  0.46999998093E+01 0.  1.
</event>
<event>
 5   0  0.4449262E-07  0.3218014E+04  0.7818609E-02  0.8184076E-01
       -2   -1    0    0    0  501  0.00000000000E+00  0.00000000000E+00  0.14949924482E+04  0.14949924482E+04  0.25500000920E-02 0.  1.
        2   -1    0    0  501    0  0.00000000000E+00  0.00000000000E+00 -0.17317171076E+04  0.17317171076E+04  0.25500000920E-02 0. -1.
    10030    2    1    2    0    0  0.00000000000E+00  0.00000000000E+00 -0.23672465938E+03  0.32267095559E+04  0.32180142936E+04 0.  0.
        1    1    3    3  502    0 -0.88907312221E+03 -0.11637124492E+04 -0.78666631112E+03  0.16623843016E+04  0.50400001928E-02 0. -1.
       -1    1    3    3    0  502  0.88907312221E+03  0.11637124492E+04  0.54994165175E+03  0.15643252543E+04  0.50400001928E-02 0.  1.
</event>
<event>
 5   0  0.5161550E-07  0.3020738E+04  0.7818609E-02  0.8237834E-01
        2   -1    0    0  501    0  0.00000000000E+00  0.00000000000E+00  0.17061299328E+04  0.17061299328E+04  0.25500000920E-02 0. -1.
       -2   -1    0    0    0  501  0.00000000000E+00  0.00000000000E+00 -0.13370695211E+04  0.13370695211E+04  0.25500000920E-02 0.  1.
    10030    2    1    2    0    0  0.00000000000E+00  0.00000000000E+00  0.36906041164E+03  0.30431994539E+04  0.30207378782E+04 0.  0.
        2    1    3    3  502    0  0.93813649073E+03  0.17162350257E+03  0.13644175816E+04  0.16646891718E+04  0.25500000920E-02 0. -1.
       -2    1    3    3    0  502 -0.93813649073E+03 -0.17162350257E+03 -0.99535716996E+03  0.13785102820E+04  0.25500000920E-02 0.  1.
</event>
<event>
 5   0  0.3579559E-07  0.2423808E+04  0.7818609E-02  0.8430644E-01
       -1   -1    0    0    0  501  0.00000000000E+00  0.00000000000E+00  0.17663372406E+04  0.17663372406E+04  0.50400001928E-02 0. -1.
        1   -1    0    0  501    0  0.00000000000E+00  0.00000000000E+00 -0.83150112414E+03  0.83150112415E+03  0.50400001928E-02 0.  1.
    10030    2    1    2    0    0  0.00000000000E+00  0.00000000000E+00  0.93483611642E+03  0.25978383647E+04  0.24238080792E+04 0.  0.
        4    1    3    3  502    0  0.11052079900E+03  0.89237145968E+03 -0.40342756044E+03  0.98554405202E+03  0.12699999809E+01 0.  1.
       -4    1    3    3    0  502 -0.11052079900E+03 -0.89237145968E+03  0.13382636769E+04  0.16122943127E+04  0.12699999809E+01 0. -1.
</event>
<event>
 5   0  0.2601252E-07  0.4226747E+04  0.7818609E-02  0.7960304E-01
        1   -1    0    0  501    0  0.00000000000E+00  0.00000000000E+00  0.15963633152E+04  0.15963633152E+04  0.50400001928E-02 0.  1.
       -1   -1    0    0    0  501  0.00000000000E+00  0.00000000000E+00 -0.27978259836E+04  0.27978259836E+04  0.50400001928E-02 0. -1.
    10030    2    1    2    0    0  0.00000000000E+00  0.00000000000E+00 -0.12014626683E+04  0.43941892988E+04  0.42267466272E+04 0.  0.
        3    1    3    3  502    0 -0.19111882250E+04  0.42414208383E+03  0.22692878096E+03  0.19707951746E+04  0.10100000352E+00 0.  1.
       -3    1    3    3    0  502  0.19111882250E+04 -0.42414208383E+03 -0.14283914493E+04  0.24233941242E+04  0.10100000352E+00 0. -1.
</event>
<event>
 5   0  0.2647879E-07  0.3860839E+04  0.7818609E-02  0.8033224E-01
       -1   -1    0    0    0  501  0.00000000000E+00  0.00000000000E+00  0.22002523668E+04  0.22002523668E+04  0.50400001928E-02 0. -1.
        1   -1    0    0  501    0  0.00000000000E+00  0.00000000000E+00 -0.16936780413E+04  0.16936780413E+04  0.50400001928E-02 0.  1.
    10030    2    1    2    0    0  0.00000000000E+00  0.00000000000E+00  0.50657432558E+03  0.38939304081E+04  0.38608388306E+04 0.  0.
        2    1    3    3  502    0 -0.12675546885E+02  0.14464293055E+04 -0.10360283587E+04  0.17792338703E+04  0.25500000920E-02 0.  1.
       -2    1    3    3    0  502  0.12675546885E+02 -0.14464293055E+04  0.15426026843E+04  0.21146965378E+04  0.25500000920E-02 0. -1.
</event>
<event>
 5   0  0.2401125E-07  0.4031757E+04  0.7818609E-02  0.7998171E-01
       -1   -1    0    0    0  501  0.00000000000E+00  0.00000000000E+00  0.17497633984E+04  0.17497633984E+04  0.50400001928E-02 0. -1.
        1   -1    0    0  501    0  0.00000000000E+00  0.00000000000E+00 -0.23224663897E+04  0.23224663897E+04  0.50400001928E-02 0.  1.
    10030    2    1    2    0    0  0.00000000000E+00  0.00000000000E+00 -0.57270299134E+03  0.40722297881E+04  0.40317572758E+04 0.  0.
        5    1    3    3  502    0 -0.11062142713E+04 -0.89571508344E+02 -0.19861028902E+04  0.22751614997E+04  0.46999998093E+01 0.  1.
       -5    1    3    3    0  502  0.11062142713E+04  0.89571508344E+02  0.14133998989E+04  0.17970682884E+04  0.46999998093E+01 0. -1.
</event>
<event>
 5   0  0.2713405E-07  0.4008463E+04  0.7818609E-02  0.8002841E-01
        1   -1    0    0  501    0  0.00000000000E+00  0.00000000000E+00  0.16222847643E+04  0.16222847643E+04  0.50400001928E-02 0. -1.
       -1   -1    0    0    0  501  0.00000000000E+00  0.00000000000E+00 -0.24761030285E+04  0.24761030285E+04  0.50400001928E-02 0.  1.
    10030    2    1    2    0    0  0.00000000000E+00  0.00000000000E+00 -0.85381826419E+03  0.40983877928E+04  0.40084631558E+04 0.  0.
        1    1    3    3  502    0  0.92439062194E+02 -0.19019608688E+01 -0.24739213870E+04  0.24756485265E+04  0.50400001928E-02 0.  1.
       -1    1    3    3    0  502 -0.92439062194E+02  0.19019608688E+01  0.16201031228E+04  0.16227392663E+04  0.50400001928E-02 0. -1.
</event>
<event>
 5   0  0.4449262E-07  0.2347414E+04  0.7818609E-02  0.8459458E-01
        2   -1    0    0  501    0  0.00000000000E+00  0.00000000000E+00  0.21322553958E+04  0.21322553958E+04  0.25500000920E-02 0. -1.
       -2   -1    0    0    0  501  0.00000000000E+00  0.00000000000E+00 -0.64607066689E+03  0.64607066689E+03  0.25500000920E-02 0.  1.
    10030    2    1    2    0    0  0.00000000000E+00  0.00000000000E+00  0.14861847290E+04  0.27783260627E+04  0.23474136113E+04 0.  0.
        1    1    3    3  502    0 -0.18388999997E+02  0.54425367720E+03 -0.48749928333E+03  0.73089381701E+03  0.50400001928E-02 0.  1.
       -1    1    3    3    0  502  0.18388999997E+02 -0.54425367720E+03  0.19736840123E+04  0.20474322457E+04  0.50400001928E-02 0. -1.
</event>
<event>
 5   0  0.2401125E-07  0.3691636E+04  0.7818609E-02  0.8069818E-01
       -3   -1    0    0    0  501  0.00000000000E+00  0.00000000000E+00  0.19600978389E+04  0.19600978415E+04  0.10100000352E+00 0. -1.
        3   -1    0    0  501    0  0.00000000000E+00  0.00000000000E+00 -0.17382007738E+04  0.17382007768E+04  0.10100000352E+00 0.  1.
    10030    2    1    2    0    0  0.00000000000E+00  0.00000000000E+00  0.22189706510E+03  0.36982986183E+04  0.36916357299E+04 0.  0.
        1    1    3    3  502    0 -0.82710215119E+03  0.51408997203E+03  0.16817891353E+04  0.19433993834E+04  0.50400001928E-02 0. -1.
       -1    1    3    3    0  502  0.82710215119E+03 -0.51408997203E+03 -0.14598920702E+04  0.17548992349E+04  0.50400001928E-02 0.  1.
</event>
<event>
 5   0  0.7570277E-07  0.3422801E+04  0.7818609E-02  0.8132333E-01
       -2   -1    0    0    0  501  0.00000000000E+00  0.00000000000E+00  0.20344153789E+04  0.20344153789E+04  0.25500000920E-02 0.  1.
        2   -1    0    0  501    0  0.00000000000E+00  0.00000000000E+00 -0.14396721017E+04  0.14396721017E+04  0.25500000920E-02 0. -1.
    10030    2    1    2    0    0  0.00000000000E+00  0.00000000000E+00  0.59474327720E+03  0.34740874807E+04  0.34228006453E+04 0.  0.
        5    1    3    3  502    0 -0.12540862358E+04  0.65447842481E+03 -0.68028214124E+03  0.15696751820E+04  0.46999998093E+01 0. -1.
       -5    1    3    3    0  502  0.12540862358E+04 -0.65447842481E+03  0.12750254184E+04  0.19044122986E+04  0.46999998093E+01 0.  1.
</event>
<event>
 5   0  0.2401125E-07  0.3983915E+04  0.7818609E-02  0.8007799E-01
        1   -1    0    0  501    0  0.00000000000E+00  0.00000000000E+00  0.26025738802E+04  0.26025738803E+04  0.50400001928E-02 0.  1.
       -1   -1    0    0    0  501  0.00000000000E+00  0.00000000000E+00 -0.15246043263E+04  0.15246043263E+04  0.50400001928E-02 0. -1.
    10030    2    1    2    0    0  0.00000000000E+00  0.00000000000E+00  0.10779695539E+04  0.41271782066E+04  0.39839153592E+04 0.  0.
        5    1    3    3  502    0  0.14744233185E+04 -0.81169059660E+03 -0.56474212178E+03  0.17753088466E+04  0.46999998093E+01 0. -1.
       -5    1    3    3    0  502 -0.14744233185E+04  0.81169059660E+03  0.16427116757E+04  0.23518693600E+04  0.46999998093E+01 0.  1.
</event>
<event>
 5   0  0.4449262E-07  0.3136690E+04  0.7818609E-02  0.8205740E-01
        2   -1    0    0  501    0  0.00000000000E+00  0.00000000000E+00  0.13636373479E+04  0.13636373479E+04  0.25500000920E-02 0.  1.
       -2   -1    0    0    0  501  0.00000000000E+00  0.00000000000E+00 -0.18037833604E+04  0.18037833604E+04  0.25500000920E-02 0. -1.
    10030    2    1    2    0    0  0.00000000000E+00  0.00000000000E+00 -0.44014601248E+03  0.31674207083E+04  0.31366902032E+04 0.  0.
        1    1    3    3  502    0 -0.34633220608E+03  0.13796244118E+03 -0.17583910214E+04  0.17974756233E+04  0.50400001928E-02 0. -1.
       -1    1    3    3    0  502  0.34633220608E+03 -0.13796244118E+03  0.13182450089E+04  0.13699450850E+04  0.50400001928E-02 0.  1.
</event>
<event>
 5   0  0.7570277E-07  0.2657392E+04  0.7818609E-02  0.8348964E-01
       -2   -1    0    0    0  501  0.00000000000E+00  0.00000000000E+00  0.88426397871E+03  0.88426397871E+03  0.25500000920E-02 0. -1.
        2   -1    0    0  501    0  0.00000000000E+00  0.00000000000E+00 -0.19965004770E+04  0.19965004770E+04  0.25500000920E-02 0.  1.
    10030    2    1    2    0    0  0.00000000000E+00  0.00000000000E+00 -0.11122364983E+04  0.28807644557E+04  0.26573922972E+04 0.  0.
        5    1    3    3  502    0 -0.10577446003E+04 -0.52820498854E+03  0.10113429741E+03  0.11866231017E+04  0.46999998093E+01 0. -1.
       -5    1    3    3    0  502  0.10577446003E+04  0.52820498854E+03 -0.12133707957E+04  0.16941413540E+04  0.46999998093E+01 0.  1.
</event>
<event>
 5   0  0.2713405E-07  0.3907239E+04  0.7818609E-02  0.8023525E-01
        1   -1    0    0  501    0  0.00000000000E+00  0.00000000000E+00  0.27985039028E+04  0.27985039028E+04  0.50400001928E-02 0.  1.
       -1   -1    0    0    0  501  0.00000000000E+00  0.00000000000E+00 -0.13638108087E+04  0.13638108087E+04  0.50400001928E-02 0. -1.
    10030    2    1    2    0    0  0.00000000000E+00  0.00000000000E+00  0.14346930940E+04  0.41623147115E+04  0.39072393686E+04 0.  0.
        1    1    3    3  502    0 -0.17604206750E+03  0.13848232240E+04 -0.73858895779E+03  0.15793162508E+04  0.50400001928E-02 0. -1.
       -1    1    3    3    0  502  0.17604206750E+03 -0.13848232240E+04  0.21732820518E+04  0.25829984607E+04  0.50400001928E-02 0.  1.
</event>
<event>
 5   0  0.7256473E-07  0.3717614E+04  0.7818609E-02  0.8064070E-01
        2   -1    0    0  501    0  0.00000000000E+00  0.00000000000E+00  0.22607826520E+04  0.22607826520E+04  0.25500000920E-02 0.  1.
       -2   -1    0    0    0  501  0.00000000000E+00  0.00000000000E+00 -0.15283042180E+04  0.15283042180E+04  0.25500000920E-02 0. -1.
    10030    2    1    2    0    0  0.00000000000E+00  0.00000000000E+00  0.73247843401E+03  0.37890868699E+04  0.37176141074E+04 0.  0.
        4    1    3    3  502    0  0.14496814714E+04 -0.11436992123E+04  0.14874072740E+03  0.18524982250E+04  0.12699999809E+01 0.  1.
       -4    1    3    3    0  502 -0.14496814714E+04  0.11436992123E+04  0.58373770660E+03  0.19365886449E+04  0.12699999809E+01 0. -1.
</event>
<event>
 5   0  0.2647879E-07  0.3927183E+04  0.7818609E-02  0.8019399E-01
       -1   -1    0    0    0  501  0.00000000000E+00  0.00000000000E+00  0.26601586190E+04  0.26601586190E+04  0.50400001928E-02 0.  1.
        1   -1    0    0  501    0  0.00000000000E+00  0.00000000000E+00 -0.14494219731E+04  0.14494219731E+04  0.50400001928E-02 0. -1.
    10030    2    1    2    0    0  0.00000000000E+00  0.00000000000E+00  0.12107366459E+04  0.41095805921E+04  0.39271833950E+04 0.  0.
        2    1    3    3  502    0 -0.10833586029E+04 -0.17711223190E+02 -0.11082829652E+04  0.15499260243E+04  0.25500000920E-02 0. -1.
       -2    1    3    3    0  502  0.10833586029E+04  0.17711223190E+02  0.23190196111E+04  0.25596545678E+04  0.25500000920E-02 0.  1.
</event>
<event>
 5   0  0.5161550E-07  0.2182588E+04  0.7818609E-02  0.8525710E-01
       -2   -1    0    0    0  501  0.00000000000E+00  0.00000000000E+00  0.89507729613E+03  0.89507729613E+03  0.25500000920E-02 0. -1.
        2   -1    0    0  501    0  0.00000000000E+00  0.00000000000E+00 -0.13305250140E+04  0.13305250140E+04  0.25500000920E-02 0.  1.
    10030    2    1    2    0    0  0.00000000000E+00  0.00000000000E+00 -0.43544771783E+03  0.22256023101E+04  0.21825881260E+04 0.  0.
        2    1    3    3  502    0  0.52527428927E+03  0.95626819933E+03 -0.19357628255E+03  0.11080765881E+04  0.25500000920E-02 0.  1.
       -2    1    3    3    0  502 -0.52527428927E+03 -0.95626819933E+03 -0.24187143528E+03  0.11175257220E+04  0.25500000920E-02 0. -1.
</event>
<event>
 5   0  0.2601252E-07  0.2017163E+04  0.7818609E-02  0.8598638E-01
       -1   -1    0    0    0  501  0.00000000000E+00  0.00000000000E+00  0.49832561330E+03  0.49832561333E+03  0.50400001928E-02 0. -1.
        1   -1    0    0  501    0  0.00000000000E+00  0.00000000000E+00 -0.20413098667E+04  0.20413098667E+04  0.50400001928E-02 0.  1.
    10030    2    1    2    0    0  0.00000000000E+00  0.00000000000E+00 -0.15429842534E+04  0.25396354800E+04  0.20171633462E+04 0.  0.
        3    1    3    3  502    0 -0.58367763171E+03  0.19763034345E+03  0.23374910432E+03  0.65907206311E+03  0.10100000352E+00 0. -1.
       -3    1    3    3    0  502  0.58367763171E+03 -0.19763034345E+03 -0.17767333577E+04  0.18805634169E+04  0.10100000352E+00 0.  1.
</event>
<event>
 5   0  0.4449262E-07  0.3768012E+04  0.7818609E-02  0.8053054E-01
        2   -1    0    0  501    0  0.00000000000E+00  0.00000000000E+00  0.25957640823E+04  0.25957640823E+04  0.25500000920E-02 0. -1.
       -2   -1    0    0    0  501  0.00000000000E+00  0.00000000000E+00 -0.13674119074E+04  0.13674119074E+04  0.25500000920E-02 0.  1.
    10030    2    1    2    0    0  0.00000000000E+00  0.00000000000E+00  0.12283521749E+04  0.39631759898E+04  0.37680120568E+04 0.  0.
        1    1    3    3  502    0  0.12159295380E+04  0.73623995130E+03 -0.68637368840E+03  0.15784938224E+04  0.50400001928E-02 0.  1.
       -1    1    3    3    0  502 -0.12159295380E+04 -0.73623995130E+03  0.19147258633E+04  0.23846821673E+04  0.50400001928E-02 0. -1.
</event>
<event>
 5   0  0.7570277E-07  0.2087039E+04  0.7818609E-02  0.8566974E-01
       -2   -1    0    0    0  501  0.00000000000E+00  0.00000000000E+00  0.91255711513E+03  0.91255711513E+03  0.25500000920E-02 0. -1.
        2   -1    0    0  501    0  0.00000000000E+00  0.00000000000E+00 -0.11932763078E+04  0.11932763078E+04  0.25500000920E-02 0.  1.
    10030    2    1    2    0    0  0.00000000000E+00  0.00000000000E+00 -0.28071919270E+03  0.21058334230E+04  0.20870388449E+04 0.  0.
        5    1    3    3  502    0  0.31340762980E+03 -0.11565701881E+03  0.85713283767E+03  0.91994547655E+03  0.46999998093E+01 0. -1.
       -5    1    3    3    0  502 -0.31340762980E+03  0.11565701881E+03 -0.11378520304E+04  0.11858879464E+04  0.46999998093E+01 0.  1.
</event>
<event>
 5   0  0.5161550E-07  0.2049884E+04  0.7818609E-02  0.8583647E-01
       -2   -1    0    0    0  501  0.00000000000E+00  0.00000000000E+00  0.50980565381E+03  0.50980565381E+03  0.25500000920E-02 0.  1.
        2   -1    0    0  501    0  0.00000000000E+00  0.00000000000E+00 -0.20606011785E+04  0.20606011785E+04  0.25500000920E-02 0. -1.
    10030    2    1    2    0    0  0.00000000000E+00  0.00000000000E+00 -0.15507955247E+04  0.25704068323E+04  0.20498840270E+04 0.  0.
        2    1    3    3  502    0  0.50500229281E+03  0.86980877522E+03 -0.10227475927E+04  0.14344362166E+04  0.25500000920E-02 0. -1.
       -2    1    3    3    0  502 -0.50500229281E+03 -0.86980877522E+03 -0.52804793199E+03  0.11359706157E+04  0.25500000920E-02 0.  1.
</event>
<event>
 5   0  0.4449262E-07  0.3320373E+04  0.7818609E-02  0.8157731E-01
        2   -1    0    0  501    0  0.00000000000E+00  0.00000000000E+00  0.15780820552E+04  0.15780820552E+04  0.25500000920E-02 0. -1.
       -2   -1    0    0    0  501  0.00000000000E+00  0.00000000000E+00 -0.17465628943E+04  0.17465628943E+04  0.25500000920E-02 0.  1.
    10030    2    1    2    0    0  0.00000000000E+00  0.00000000000E+00 -0.16848083907E+03  0.33246449494E+04  0.33203732089E+04 0.  0.
        1    1    3    3  502    0  0.11714758042E+04  0.11761915825E+04 -0.10518055253E+03  0.16633836440E+04  0.50400001928E-02 0. -1.
       -1    1    3    3    0  502 -0.11714758042E+04 -0.11761915825E+04 -0.63300286536E+02  0.16612613054E+04  0.50400001928E-02 0.  1.
</event>
<event>
 5   0  0.2713405E-07  0.3983083E+04  0.7818609E-02  0.8007968E-01
       -1   -1    0    0    0  501  0.00000000000E+00  0.00000000000E+00  0.23548147918E+04  0.23548147918E+04  0.50400001928E-02 0.  1.
        1   -1    0    0  501    0  0.00000000000E+00  0.00000000000E+00 -0.16843093421E+04  0.16843093422E+04  0.50400001928E-02 0. -1.
    10030    2    1    2    0    0  0.00000000000E+00  0.00000000000E+00  0.67050544969E+03  0.40391241340E+04  0.39830825013E+04 0.  0.
        1    1    3    3  502    0 -0.10579276400E+03  0.12018054005E+04  0.19420682564E+04  0.22862977589E+04  0.50400001928E-02 0.  1.
       -1    1    3    3    0  502  0.10579276400E+03 -0.12018054005E+04 -0.12715628067E+04  0.17528263751E+04  0.50400001928E-02 0. -1.
</event>
<event>
 5   0  0.7570277E-07  0.4108407E+04  0.7818609E-02  0.7983027E-01
        2   -1    0    0  501    0  0.00000000000E+00  0.00000000000E+00  0.26177059313E+04  0.26177059313E+04  0.25500000920E-02 0.  1.
       -2   -1    0    0    0  501  0.00000000000E+00  0.00000000000E+00 -0.16120039972E+04  0.16120039973E+04  0.25500000920E-02 0. -1.
    10030    2    1    2    0    0  0.00000000000E+00  0.00000000000E+00  0.10057019341E+04  0.42297099286E+04  0.41084071974E+04 0.  0.
        5    1    3    3  502    0  0.80611073624E+03 -0.17386085848E+04 -0.25868897768E+03  0.19337829267E+04  0.46999998093E+01 0. -1.
       -5    1    3    3    0  502 -0.80611073624E+03  0.17386085848E+04  0.12643909118E+04  0.22959270019E+04  0.46999998093E+01 0.  1.
</event>
<event>
 5   0  0.5161550E-07  0.2112125E+04  0.7818609E-02  0.8555921E-01
        2   -1    0    0  501    0  0.00000000000E+00  0.00000000000E+00  0.11631842920E+04  0.11631842920E+04  0.25500000920E-02 0.  1.
       -2   -1    0    0    0  501  0.00000000000E+00  0.00000000000E+00 -0.95880578097E+03  0.95880578097E+03  0.25500000920E-02 0. -1.
    10030    2    1    2    0    0  0.00000000000E+00  0.00000000000E+00  0.20437851105E+03  0.21219900730E+04  0.21121248292E+04 0.  0.
        2    1    3    3  502    0 -0.60546412104E+03 -0.78822911750E+03 -0.25637530635E+03  0.10264600534E+04  0.25500000920E-02 0. -1.
       -2    1    3    3    0  502  0.60546412104E+03  0.78822911750E+03  0.46075381740E+03  0.10955300196E+04  0.25500000920E-02 0.  1.
</event>
<event>
 5   0  0.7256473E-07  0.4084286E+04  0.7818609E-02  0.7987756E-01
       -2   -1    0    0    0  501  0.00000000000E+00  0.00000000000E+00  0.16440431286E+04  0.16440431286E+04  0.25500000920E-02 0. -1.
        2   -1    0    0  501    0  0.00000000000E+00  0.00000000000E+00 -0.25366421231E+04  0.25366421231E+04  0.25500000920E-02 0.  1.
    10030    2    1    2    0    0  0.00000000000E+00  0.00000000000E+00 -0.89259899446E+03  0.41806852517E+04  0.40842864994E+04 0.  0.
        4    1    3    3  502    0 -0.19497635863E+04 -0.52117916507E+03 -0.76533136545E+03  0.21584576615E+04  0.12699999809E+01 0. -1.
       -4    1    3    3    0  502  0.19497635863E+04  0.52117916507E+03 -0.12726762901E+03  0.20222275903E+04  0.12699999809E+01 0.  1.
</event>
<event>
 5   0  0.4449262E-07  0.3992032E+04  0.7818609E-02  0.8006156E-01
       -2   -1    0    0    0  501  0.00000000000E+00  0.00000000000E+00  0.29214992957E+04  0.29214992957E+04  0.25500000920E-02 0. -1.
        2   -1    0    0  501    0  0.00000000000E+00  0.00000000000E+00 -0.13637105288E+04  0.13637105288E+04  0.25500000920E-02 0.  1.
    10030    2    1    2    0    0  0.00000000000E+00  0.00000000000E+00  0.15577887669E+04  0.42852098245E+04  0.39920317380E+04 0.  0.
        1    1    3    3  502    0 -0.19183889589E+04 -0.33152324881E+03  0.12516417759E+04  0.23144612758E+04  0.50400001928E-02 0.  1.
       -1    1    3    3    0  502  0.19183889589E+04  0.33152324881E+03  0.30614699107E+03  0.19707485487E+04  0.50400001928E-02 0. -1.
</event>
<event>
 5   0  0.6043512E-07  0.3569608E+04  0.7818609E-02  0.8097489E-01
        2   -1    0    0  501    0  0.00000000000E+00  0.00000000000E+00  0.20547045207E+04  0.20547045207E+04  0.25500000920E-02 0. -1.
       -2   -1    0    0    0  501  0.00000000000E+00  0.00000000000E+00 -0.15503572664E+04  0.15503572664E+04  0.25500000920E-02 0.  1.
    10030    2    1    2    0    0  0.00000000000E+00  0.00000000000E+00  0.50434725430E+03  0.36050617870E+04  0.35696084288E+04 0.  0.
        3    1    3    3  502    0 -0.12869128607E+04  0.47097550023E+03  0.14070181493E+04  0.19640933572E+04  0.10100000352E+00 0. -1.
       -3    1    3    3    0  502  0.12869128607E+04 -0.47097550023E+03 -0.90267089503E+03  0.16409684299E+04  0.10100000352E+00 0.  1.
</event>
<event>
 5   0  0.2647879E-07  0.2194032E+04  0.7818609E-02  0.8520916E-01
       -1   -1    0    0    0  501  0.00000000000E+00  0.00000000000E+00  0.20014851455E+04  0.20014851455E+04  0.50400001928E-02 0. -1.
        1   -1    0    0  501    0  0.00000000000E+00  0.00000000000E+00 -0.60127566367E+03  0.60127566369E+03  0.50400001928E-02 0.  1.
    10030    2    1    2    0    0  0.00000000000E+00  0.00000000000E+00  0.14002094819E+04  0.26027608092E+04  0.21940321869E+04 0.  0.
        2    1    3    3  502    0  0.18128823459E+03 -0.60658954268E+03  0.17628970933E+04  0.18731317249E+04  0.25500000920E-02 0. -1.
       -2    1    3    3    0  502 -0.18128823459E+03  0.60658954268E+03 -0.36268761139E+03  0.72962908437E+03  0.25500000920E-02 0.  1.
</event>
<event>
 5   0  0.2601252E-07  0.2855977E+04  0.7818609E-02  0.8286097E-01
       -1   -1    0    0    0  501  0.00000000000E+00  0.00000000000E+00  0.12879503993E+04  0.12879503993E+04  0.50400001928E-02 0.  1.
        1   -1    0    0  501    0  0.00000000000E+00  0.00000000000E+00 -0.15832525745E+04  0.15832525745E+04  0.50400001928E-02 0. -1.
    10030    2    1    2    0    0  0.00000000000E+00  0.00000000000E+00 -0.29530217516E+03  0.28712029738E+04  0.28559767405E+04 0.  0.
        3    1    3    3  502    0 -0.92911052856E+03 -0.93434584136E+03  0.40564866815E+03  0.13786948095E+04  0.10100000352E+00 0. -1.
       -3    1    3    3    0  502  0.92911052856E+03  0.93434584136E+03 -0.70095084331E+03  0.14925081643E+04  0.10100000352E+00 0.  1.
</event>
<event>
 5   0  0.2647879E-07  0.3270828E+04  0.7818609E-02  0.8170358E-01
       -1   -1    0    0    0  501  0.00000000000E+00  0.00000000000E+00  0.18414377791E+04  0.18414377791E+04  0.50400001928E-02 0. -1.
        1   -1    0    0  501    0  0.00000000000E+00  0.00000000000E+00 -0.14524406694E+04  0.14524406694E+04  0.50400001928E-02 0.  1.
    10030    2    1    2    0    0  0.00000000000E+00  0.00000000000E+00  0.38899710966E+03  0.32938784485E+04  0.32708281034E+04 0.  0.
        2    1    3    3  502    0  0.15290426567E+03 -0.86136499910E+03 -0.11969950626E+04  0.14826080251E+04  0.25500000920E-02 0.  1.
       -2    1    3    3    0  502 -0.15290426567E+03  0.86136499910E+03  0.15859921723E+04  0.18112704234E+04  0.25500000920E-02 0. -1.
</event>
<event>
 5   0  0.5161550E-07  0.4046143E+04  0.7818609E-02  0.7995302E-01
        2   -1    0    0  501    0  0.00000000000E+00  0.00000000000E+00  0.16895939033E+04  0.16895939033E+04  0.25500000920E-02 0. -1.
       -2   -1    0    0    0  501  0.00000000000E+00  0.00000000000E+00 -0.24223681630E+04  0.24223681630E+04  0.25500000920E-02 0.  1.
    10030    2    1    2    0    0  0.00000000000E+00  0.00000000000E+00 -0.73277425961E+03  0.41119620663E+04  0.40461430918E+04 0.  0.
        2    1    3    3  502    0  0.13115424077E+04  0.14609995773E+04  0.12956290085E+03  0.19676000095E+04  0.25500000920E-02 0. -1.
       -2    1    3    3    0  502 -0.13115424077E+04 -0.14609995773E+04 -0.86233716046E+03  0.21443620568E+04  0.25500000920E-02 0.  1.
</event>
<event>
 5   0  0.7256473E-07  0.2220050E+04  0.7818609E-02  0.8510129E-01
       -2   -1    0    0    0  501  0.00000000000E+00  0.00000000000E+00  0.71052186453E+03  0.71052186454E+03  0.25500000920E-02 0. -1.
        2   -1    0    0  501    0  0.00000000000E+00  0.00000000000E+00 -0.17341549899E+04  0.17341549899E+04  0.25500000920E-02 0.  1.
    10030    2    1    2    0    0  0.00000000000E+00  0.00000000000E+00 -0.10236331254E+04  0.24446768545E+04  0.22200495822E+04 0.  0.
        4    1    3    3  502    0  0.80558024053E+03 -0.67151358035E+03 -0.11133857800E+03  0.10546506077E+04  0.12699999809E+01 0. -1.
       -4    1    3    3    0  502 -0.80558024053E+03  0.67151358035E+03 -0.91229454739E+03  0.13900262467E+04  0.12699999809E+01 0.  1.
</event>
<event>
 5   0  0.2401125E-07  0.2083574E+04  0.7818609E-02  0.8568514E-01
        1   -1    0    0  501    0  0.00000000000E+00  0.00000000000E+00  0.15368455481E+04  0.15368455481E+04  0.50400001928E-02 0.  1.
       -1   -1    0    0    0  501  0.00000000000E+00  0.00000000000E+00 -0.70619967937E+03  0.70619967938E+03  0.50400001928E-02 0. -1.
    10030    2    1    2    0    0  0.00000000000E+00  0.00000000000E+00  0.83064586876E+03  0.22430452275E+04  0.20835736928E+04 0.  0.
        5    1    3    3  502    0  0.13007712411E+03 -0.45422511485E+03  0.14148561125E+04  0.14916703464E+04  0.46999998093E+01 0.  1.
       -5    1    3    3    0  502 -0.13007712411E+03  0.45422511485E+03 -0.58421024372E+03  0.75137488116E+03  0.46999998093E+01 0. -1.
</event>
<event>
 5   0  0.5161550E-07  0.1995172E+04  0.7818609E-02  0.8608881E-01
       -2   -1    0    0    0  501  0.00000000000E+00  0.00000000000E+00  0.45710563445E+03  0.45710563446E+03  0.25500000920E-02 0.  1.
        2   -1    0    0  501    0  0.00000000000E+00  0.00000000000E+00 -0.21771294197E+04  0.21771294197E+04  0.25500000920E-02 0. -1.
    10030    2    1    2    0    0  0.00000000000E+00  0.00000000000E+00 -0.17200237852E+04  0.26342350541E+04  0.19951722980E+04 0.  0.
        2    1    3    3  502    0 -0.43335760978E+03  0.54985385677E+03 -0.17983017571E+04  0.19297738965E+04  0.25500000920E-02 0. -1.
       -2    1    3    3    0  502  0.43335760978E+03 -0.54985385677E+03  0.78277971922E+02  0.70446115766E+03  0.25500000920E-02 0.  1.
</event>
<event>
 5   0  0.7570277E-07  0.3894556E+04  0.7818609E-02  0.8026162E-01
        2   -1    0    0  501    0  0.00000000000E+00  0.00000000000E+00  0.28136100894E+04  0.28136100894E+04  0.25500000920E-02 0.  1.
       -2   -1    0    0    0  501  0.00000000000E+00  0.00000000000E+00 -0.13476963293E+04  0.13476963293E+04  0.25500000920E-02 0. -1.
    10030    2    1    2    0    0  0.00000000000E+00  0.00000000000E+00  0.14659137600E+04  0.41613064187E+04  0.38945561953E+04 0.  0.
        5    1    3    3  502    0 -0.95364754580E+03  0.13243689238E+04 -0.40209927645E+03  0.16808041546E+04  0.46999998093E+01 0.  1.
       -5    1    3    3    0  502  0.95364754580E+03 -0.13243689238E+04  0.18680130365E+04  0.24805022641E+04  0.46999998093E+01 0. -1.
</event>
<event>
 5   0  0.2713405E-07  0.3303355E+04  0.7818609E-02  0.8162042E-01
        1   -1    0    0  501    0  0.00000000000E+00  0.00000000000E+00  0.91966699719E+03  0.91966699721E+03  0.50400001928E-02 0. -1.
       -1   -1    0    0    0  501  0.00000000000E+00  0.00000000000E+00 -0.29663321368E+04  0.29663321368E+04  0.50400001928E-02 0.  1.
    10030    2    1    2    0    0  0.00000000000E+00  0.00000000000E+00 -0.20466651396E+04  0.38859991340E+04  0.33033545187E+04 0.  0.
        1    1    3    3  502    0  0.89313529063E+03  0.22863211944E+01  0.61109106034E+03  0.10821867485E+04  0.50400001928E-02 0. -1.
       -1    1    3    3    0  502 -0.89313529063E+03 -0.22863211944E+01 -0.26577562000E+04  0.28038123855E+04  0.50400001928E-02 0.  1.
</event>
<event>
 5   0  0.4449262E-07  0.3217189E+04  0.7818609E-02  0.8184292E-01
        2   -1    0    0  501    0  0.00000000000E+00  0.00000000000E+00  0.20769609215E+04  0.20769609215E+04  0.25500000920E-02 0. -1.
       -2   -1    0    0    0  501  0.00000000000E+00  0.00000000000E+00 -0.12458472575E+04  0.12458472575E+04  0.25500000920E-02 0.  1.
    10030    2    1    2    0    0  0.00000000000E+00  0.00000000000E+00  0.83111366394E+03  0.33228081790E+04  0.32171888773E+04 0.  0.
        1    1    3    3  502    0  0.52477229482E+03 -0.94293276674E+03  0.16476442541E+04  0.19695785722E+04  0.50400001928E-02 0. -1.
       -1    1    3    3    0  502 -0.52477229482E+03  0.94293276674E+03 -0.81653059017E+03  0.13532296068E+04  0.50400001928E-02 0.  1.
</event>
<event>
 5   0  0.4449262E-07  0.4089247E+04  0.7818609E-02  0.7986781E-01
       -2   -1    0    0    0  501  0.00000000000E+00  0.00000000000E+00  0.21839337067E+04  0.21839337067E+04  0.25500000920E-02 0.  1.
        2   -1    0    0  501    0  0.00000000000E+00  0.00000000000E+00 -0.19141995947E+04  0.19141995947E+04  0.25500000920E-02 0. -1.
    10030    2    1    2    0    0  0.00000000000E+00  0.00000000000E+00  0.26973411200E+03  0.40981333014E+04  0.40892468824E+04 0.  0.
        1    1    3    3  502    0 -0.19968062530E+04 -0.33282051165E+03 -0.15295090676E+03  0.20301228251E+04  0.50400001928E-02 0. -1.
       -1    1    3    3    0  502  0.19968062530E+04  0.33282051165E+03  0.42268501876E+03  0.20680104763E+04  0.50400001928E-02 0.  1.
</event>
<event>
 5   0  0.2647879E-07  0.4039172E+04  0.7818609E-02  0.7996691E-01
        1   -1    0    0  501    0  0.00000000000E+00  0.00000000000E+00  0.18426373478E+04  0.18426373478E+04  0.50400001928E-02 0. -1.
       -1   -1    0    0    0  501  0.00000000000E+00  0.00000000000E+00 -0.22135266289E+04  0.22135266289E+04  0.50400001928E-02 0.  1.
    10030    2    1    2    0    0  0.00000000000E+00  0.00000000000E+00 -0.37088928116E+03  0.40561639767E+04  0.40391716164E+04 0.  0.
        2    1    3    3  502    0 -0.65009603534E+03  0.81151325879E+03  0.15531818254E+04  0.18691047074E+04  0.25500000920E-02 0. -1.
       -2    1    3    3    0  502  0.65009603534E+03 -0.81151325879E+03 -0.19240711066E+04  0.21870592693E+04  0.25500000920E-02 0.  1.
</event>
<event>
 5   0  0.2647879E-07  0.2566822E+04  0.7818609E-02  0.8379559E-01
        1   -1    0    0  501    0  0.00000000000E+00  0.00000000000E+00  0.10938341668E+04  0.10938341668E+04  0.50400001928E-02 0. -1.
       -1   -1    0    0    0  501  0.00000000000E+00  0.00000000000E+00 -0.15058438986E+04  0.15058438986E+04  0.50400001928E-02 0.  1.
    10030    2    1    2    0    0  0.00000000000E+00  0.00000000000E+00 -0.41200973184E+03  0.25996780654E+04  0.25668217750E+04 0.  0.
        2    1    3    3  502    0 -0.10123054240E+04 -0.37699770961E+03  0.49586942210E+03  0.11886025527E+04  0.25500000920E-02 0.  1.
       -2    1    3    3    0  502  0.10123054240E+04  0.37699770961E+03 -0.90787915394E+03  0.14110755127E+04  0.25500000920E-02 0. -1.
</event>
<event>
 5   0  0.2601252E-07  0.2005106E+04  0.7818609E-02  0.8604237E-01
        1   -1    0    0  501    0  0.00000000000E+00  0.00000000000E+00  0.99878480782E+03  0.99878480784E+03  0.50400001928E-02 0. -1.
       -1   -1    0    0    0  501  0.00000000000E+00  0.00000000000E+00 -0.10063349514E+04  0.10063349514E+04  0.50400001928E-02 0.  1.
    10030    2    1    2    0    0  0.00000000000E+00  0.00000000000E+00 -0.75501435931E+01  0.20051197593E+04  0.20051055444E+04 0.  0.
        3    1    3    3  502    0 -0.42495979828E+03 -0.19966066156E+03 -0.88958993189E+03  0.10058953559E+04  0.10100000352E+00 0.  1.
       -3    1    3    3    0  502  0.42495979828E+03  0.19966066156E+03  0.88203978829E+03  0.99922440336E+03  0.10100000352E+00 0. -1.
</event>
<event>
 5   0  0.5161550E-07  0.4165371E+04  0.7818609E-02  0.7971992E-01
       -2   -1    0    0    0  501  0.00000000000E+00  0.00000000000E+00  0.18452965867E+04  0.18452965867E+04  0.25500000920E-02 0. -1.
        2   -1    0    0  501    0  0.00000000000E+00  0.00000000000E+00 -0.23506136196E+04  0.23506136196E+04  0.25500000920E-02 0.  1.
    10030    2    1    2    0    0  0.00000000000E+00  0.00000000000E+00 -0.50531703294E+03  0.41959102063E+04  0.41653711906E+04 0.  0.
        2    1    3    3  502    0 -0.20239588592E+04 -0.39539219714E+03  0.40741131415E+02  0.20626207341E+04  0.25500000920E-02 0.  1.
       -2    1    3    3    0  502  0.20239588592E+04  0.39539219714E+03 -0.54605816436E+03  0.21332894721E+04  0.25500000920E-02 0. -1.
</event>
<event>
 5   0  0.2401125E-07  0.3787968E+04  0.7818609E-02  0.8048742E-01
       -1   -1    0    0    0  501  0.00000000000E+00  0.00000000000E+00  0.26578385328E+04  0.26578385328E+04  0.50400001928E-02 0. -1.
        1   -1    0    0  501    0  0.00000000000E+00  0.00000000000E+00 -0.13496590622E+04  0.13496590622E+04  0.50400001928E-02 0.  1.
    10030    2    1    2    0    0  0.00000000000E+00  0.00000000000E+00  0.13081794707E+04  0.40074975950E+04  0.37879682478E+04 0.  0.
        5    1    3    3  502    0  0.25933071314E+03  0.14593535495E+04  0.19014841561E+04  0.24109395030E+04  0.46999998093E+01 0. -1.
       -5    1    3    3    0  502 -0.25933071314E+03 -0.14593535495E+04 -0.59330468544E+03  0.15965580920E+04  0.46999998093E+01 0.  1.
</event>
<event>
 5   0  0.4449262E-07  0.4003204E+04  0.7818609E-02  0.8003901E-01
       -2   -1    0    0    0  501  0.00000000000E+00  0.00000000000E+00  0.16130108625E+04  0.16130108625E+04  0.25500000920E-02 0. -1.
        2   -1    0    0  501    0  0.00000000000E+00  0.00000000000E+00 -0.24838081834E+04  0.24838081834E+04  0.25500000920E-02 0.  1.
    10030    2    1    2    0    0  0.00000000000E+00  0.00000000000E+00 -0.87079732095E+03  0.40968190459E+04  0.40032035073E+04 0.  0.
        1    1    3    3  502    0 -0.95332467049E+03  0.44828492450E+03  0.13063482414E+04  0.16781933824E+04  0.50400001928E-02 0. -1.
       -1    1    3    3    0  502  0.95332467049E+03 -0.44828492450E+03 -0.21771455623E+04  0.24186256636E+04  0.50400001928E-02 0.  1.
</event>
<event>
 5   0  0.4449262E-07  0.2605166E+04  0.7818609E-02  0.8366449E-01
        2   -1    0    0  501    0  0.00000000000E+00  0.00000000000E+00  0.14448668212E+04  0.14448668212E+04  0.25500000920E-02 0. -1.
       -2   -1    0    0    0  501  0.00000000000E+00  0.00000000000E+00 -0.11743106726E+04  0.11743106726E+04  0.25500000920E-02 0.  1.
    10030    2    1    2    0    0  0.00000000000E+00  0.00000000000E+00  0.27055614860E+03  0.26191774937E+04  0.26051660435E+04 0.  0.
        1    1    3    3  502    0 -0.17147198940E+03  0.76557487986E+03 -0.91012927821E+03  0.12016001177E+04  0.50400001928E-02 0.  1.
       -1    1    3    3    0  502  0.17147198940E+03 -0.76557487986E+03  0.11806854268E+04  0.14175773760E+04  0.50400001928E-02 0. -1.
</event>
<event>
 5   0  0.2401125E-07  0.3919240E+04  0.7818609E-02  0.8021040E-01
       -1   -1    0    0    0  501  0.00000000000E+00  0.00000000000E+00  0.15342567629E+04  0.15342567629E+04  0.50400001928E-02 0.  1.
        1   -1    0    0  501    0  0.00000000000E+00  0.00000000000E+00 -0.25029123738E+04  0.25029123738E+04  0.50400001928E-02 0. -1.
    10030    2    1    2    0    0  0.00000000000E+00  0.00000000000E+00 -0.96865561093E+03  0.40371691367E+04  0.39192398428E+04 0.  0.
        5    1    3    3  502    0  0.93051200838E+03  0.13647552484E+04  0.60175950011E+03  0.17579949010E+04  0.46999998093E+01 0.  1.
       -5    1    3    3    0  502 -0.93051200838E+03 -0.13647552484E+04 -0.15704151110E+04  0.22791742357E+04  0.46999998093E+01 0. -1.
</event>
<event>
 5   0  0.2401125E-07  0.3977474E+04  0.7818609E-02  0.8009106E-01
        1   -1    0    0  501    0  0.00000000000E+00  0.00000000000E+00  0.16452558423E+04  0.16452558423E+04  0.50400001928E-02 0. -1.
       -1   -1    0    0    0  501  0.00000000000E+00  0.00000000000E+00 -0.24039275482E+04  0.24039275482E+04  0.50400001928E-02 0.  1.
    10030    2    1    2    0    0  0.00000000000E+00  0.00000000000E+00 -0.75867170584E+03  0.40491833905E+04  0.39774744968E+04 0.  0.
        5    1    3    3  502    0 -0.16420730604E+04  0.46414564431E+03  0.66045911622E+03  0.18297714199E+04  0.46999998093E+01 0. -1.
       -5    1    3    3    0  502  0.16420730604E+04 -0.46414564431E+03 -0.14191308221E+04  0.22194119706E+04  0.46999998093E+01 0.  1.
</event>
<event>
 5   0  0.2401125E-07  0.3112259E+04  0.7818609E-02  0.8212382E-01
       -1   -1    0    0    0  501  0.00000000000E+00  0.00000000000E+00  0.32066481012E+04  0.32066481012E+04  0.50400001928E-02 0.  1.
        1   -1    0    0  501    0  0.00000000000E+00  0.00000000000E+00 -0.75516202617E+03  0.75516202619E+03  0.50400001928E-02 0. -1.
    10030    2    1    2    0    0  0.00000000000E+00  0.00000000000E+00  0.24514860750E+04  0.39618101274E+04  0.31122589078E+04 0.  0.
        5    1    3    3  502    0  0.24457734924E+03  0.14517412695E+04  0.18674837224E+04  0.23780009119E+04  0.46999998093E+01 0.  1.
       -5    1    3    3    0  502 -0.24457734924E+03 -0.14517412695E+04  0.58400235259E+03  0.15838092155E+04  0.46999998093E+01 0. -1.
</event>
<event>
 5   0  0.2601252E-07  0.2031993E+04  0.7818609E-02  0.8591807E-01
       -1   -1    0    0    0  501  0.00000000000E+00  0.00000000000E+00  0.10465063589E+04  0.10465063589E+04  0.50400001928E-02 0. -1.
        1   -1    0    0  501    0  0.00000000000E+00  0.00000000000E+00 -0.98637570270E+03  0.98637570271E+03  0.50400001928E-02 0.  1.
    10030    2    1    2    0    0  0.00000000000E+00  0.00000000000E+00  0.60130656208E+02  0.20328820616E+04  0.20319925641E+04 0.  0.
        3    1    3    3  502    0  0.27343109340E+01 -0.10061305259E+04 -0.11121378078E+03  0.10122621334E+04  0.10100000352E+00 0.  1.
       -3    1    3    3    0  502 -0.27343109340E+01  0.10061305259E+04  0.17134443699E+03  0.10206199282E+04  0.10100000352E+00 0. -1.
</event>
<event>
 5   0  0.4449262E-07  0.4066972E+04  0.7818609E-02  0.7991171E-01
       -2   -1    0    0    0  501  0.00000000000E+00  0.00000000000E+00  0.17500882556E+04  0.17500882556E+04  0.25500000920E-02 0.  1.
        2   -1    0    0  501    0  0.00000000000E+00  0.00000000000E+00 -0.23627755541E+04  0.23627755541E+04  0.25500000920E-02 0. -1.
    10030    2    1    2    0    0  0.00000000000E+00  0.00000000000E+00 -0.61268729854E+03  0.41128638097E+04  0.40669722143E+04 0.  0.
        1    1    3    3  502    0  0.41499647150E+03  0.66297567955E+03 -0.22045715926E+04  0.23392081417E+04  0.50400001928E-02 0. -1.
       -1    1    3    3    0  502 -0.41499647150E+03 -0.66297567955E+03  0.15918842941E+04  0.17736556681E+04  0.50400001928E-02 0.  1.
</event>
<event>
 5   0  0.2401125E-07  0.3432302E+04  0.7818609E-02  0.8130024E-01
       -1   -1    0    0    0  501  0.00000000000E+00  0.00000000000E+00  0.16771711479E+04  0.16771711479E+04  0.50400001928E-02 0.  1.
        1   -1    0    0  501    0  0.00000000000E+00  0.00000000000E+00 -0.17560368102E+04  0.17560368102E+04  0.50400001928E-02 0. -1.
    10030    2    1    2    0    0  0.00000000000E+00  0.00000000000E+00 -0.78865662255E+02  0.34332079581E+04  0.34323020104E+04 0.  0.
        5    1    3    3  502    0  0.11037864842E+03  0.12907183304E+04  0.10864818493E+04  0.16907401199E+04  0.46999998093E+01 0.  1.
       -5    1    3    3    0  502 -0.11037864842E+03 -0.12907183304E+04 -0.11653475116E+04  0.17424678382E+04  0.46999998093E+01 0. -1.
</event>
<event>
 5   0  0.5161550E-07  0.4018140E+04  0.7818609E-02  0.8000897E-01
       -2   -1    0    0    0  501  0.00000000000E+00  0.00000000000E+00  0.26021446956E+04  0.26021446956E+04  0.25500000920E-02 0. -1.
        2   -1    0    0  501    0  0.00000000000E+00  0.00000000000E+00 -0.15511676800E+04  0.15511676800E+04  0.25500000920E-02 0.  1.
    10030    2    1    2    0    0  0.00000000000E+00  0.00000000000E+00  0.10509770156E+04  0.41533123755E+04  0.40181402416E+04 0.  0.
        2    1    3    3  502    0 -0.57679521175E+03  0.13134671745E+04 -0.92841197600E+03  0.17087532098E+04  0.25500000920E-02 0.  1.
       -2    1    3    3    0  502  0.57679521175E+03 -0.13134671745E+04  0.19793889916E+04  0.24445591657E+04  0.25500000920E-02 0. -1.
</event>
<event>
 5   0  0.4449262E-07  0.3984196E+04  0.7818609E-02  0.8007742E-01
       -2   -1    0    0    0  501  0.00000000000E+00  0.00000000000E+00  0.18804252851E+04  0.18804252851E+04  0.25500000920E-02 0. -1.
        2   -1    0    0  501    0  0.00000000000E+00  0.00000000000E+00 -0.21104027825E+04  0.21104027825E+04  0.25500000920E-02 0.  1.
    10030    2    1    2    0    0  0.00000000000E+00  0.00000000000E+00 -0.22997749746E+03  0.39908280676E+04  0.39841961568E+04 0.  0.
        1    1    3    3  502    0 -0.19583346150E+04  0.34583555264E+03  0.25866186895E+01  0.19886385756E+04  0.50400001928E-02 0. -1.
       -1    1    3    3    0  502  0.19583346150E+04 -0.34583555264E+03 -0.23256411615E+03  0.20021894920E+04  0.50400001928E-02 0.  1.
</event>
<event>
 5   0  0.3579559E-07  0.4148129E+04  0.7818609E-02  0.7975313E-01
       -1   -1    0    0    0  501  0.00000000000E+00  0.00000000000E+00  0.20893888957E+04  0.20893888957E+04  0.50400001928E-02 0. -1.
        1   -1    0    0  501    0  0.00000000000E+00  0.00000000000E+00 -0.20588527018E+04  0.20588527018E+04  0.50400001928E-02 0.  1.
    10030    2    1    2    0    0  0.00000000000E+00  0.00000000000E+00  0.30536193906E+02  0.41482415975E+04  0.41481292039E+04 0.  0.
        4    1    3    3  502    0  0.10197575893E+04  0.82142394199E+03 -0.15932217922E+04  0.20622803218E+04  0.12699999809E+01 0.  1.
       -4    1    3    3    0  502 -0.10197575893E+04 -0.82142394199E+03  0.16237579862E+04  0.20859612757E+04  0.12699999809E+01 0. -1.
</event>
<event>
 5   0  0.5161550E-07  0.2276749E+04  0.7818609E-02  0.8487145E-01
        2   -1    0    0  501    0  0.00000000000E+00  0.00000000000E+00  0.14752117136E+04  0.14752117136E+04  0.25500000920E-02 0. -1.
       -2   -1    0    0    0  501  0.00000000000E+00  0.00000000000E+00 -0.87844802587E+03  0.87844802587E+03  0.25500000920E-02 0.  1.
    10030    2    1    2    0    0  0.00000000000E+00  0.00000000000E+00  0.59676368777E+03  0.23536597395E+04  0.22767492770E+04 0.  0.
        2    1    3    3  502    0  0.16814570138E+03 -0.92446861410E+03  0.96272709389E+03  0.13452727057E+04  0.25500000920E-02 0. -1.
       -2    1    3    3    0  502 -0.16814570138E+03  0.92446861410E+03 -0.36596340612E+03  0.10083870338E+04  0.25500000920E-02 0.  1.
</event>
<event>
 5   0  0.7256473E-07  0.4026987E+04  0.7818609E-02  0.7999124E-01
       -2   -1    0    0    0  501  0.00000000000E+00  0.00000000000E+00  0.14809487631E+04  0.14809487631E+04  0.25500000920E-02 0.  1.
        2   -1    0    0  501    0  0.00000000000E+00  0.00000000000E+00 -0.27375400374E+04  0.27375400374E+04  0.25500000920E-02 0. -1.
    10030    2    1    2    0    0  0.00000000000E+00  0.00000000000E+00 -0.12565912743E+04  0.42184888006E+04  0.40269872274E+04 0.  0.
        4    1    3    3  502    0  0.42460097572E+02  0.13289939758E+04  0.95560098125E+03  0.16374378449E+04  0.12699999809E+01 0.  1.
       -4    1    3    3    0  502 -0.42460097572E+02 -0.13289939758E+04 -0.22121922556E+04  0.25810509557E+04  0.12699999809E+01 0. -1.
</event>
<event>
 5   0  0.4449262E-07  0.3548657E+04  0.7818609E-02  0.8102355E-01
        2   -1    0    0  501    0  0.00000000000E+00  0.00000000000E+00  0.19777911314E+04  0.19777911314E+04  0.25500000920E-02 0.  1.
       -2   -1    0    0    0  501  0.00000000000E+00  0.00000000000E+00 -0.15917968670E+04  0.15917968670E+04  0.25500000920E-02 0. -1.
    10030    2    1    2    0    0  0.00000000000E+00  0.00000000000E+00  0.38599426442E+03  0.35695879984E+04  0.35486570567E+04 0.  0.
        1    1    3    3  502    0  0.32863381455E+03  0.19961683593E+03  0.19353786423E+04  0.19732048941E+04  0.50400001928E-02 0.  1.
       -1    1    3    3    0  502 -0.32863381455E+03 -0.19961683593E+03 -0.15493843779E+04  0.15963831043E+04  0.50400001928E-02 0. -1.
</event>
<event>
 5   0  0.2401125E-07  0.4130960E+04  0.7818609E-02  0.7978637E-01
       -1   -1    0    0    0  501  0.00000000000E+00  0.00000000000E+00  0.18024020623E+04  0.18024020623E+04  0.50400001928E-02 0.  1.
        1   -1    0    0  501    0  0.00000000000E+00  0.00000000000E+00 -0.23669564978E+04  0.23669564978E+04  0.50400001928E-02 0. -1.
    10030    2    1    2    0    0  0.00000000000E+00  0.00000000000E+00 -0.56455443545E+03  0.41693585601E+04  0.41309598270E+04 0.  0.
        5    1    3    3  502    0  0.51631432493E+02  0.17739973619E+04  0.78416774101E+03  0.19402766764E+04  0.46999998093E+01 0.  1.
       -5    1    3    3    0  502 -0.51631432493E+02 -0.17739973619E+04 -0.13487221765E+04  0.22290818837E+04  0.46999998093E+01 0. -1.
</event>
<event>
 5   0  0.2647879E-07  0.2976554E+04  0.7818609E-02  0.8250458E-01
        1   -1    0    0  501    0  0.00000000000E+00  0.00000000000E+00  0.24860927205E+04  0.24860927205E+04  0.50400001928E-02 0.  1.
       -1   -1    0    0    0  501  0.00000000000E+00  0.00000000000E+00 -0.89094357526E+03  0.89094357528E+03  0.50400001928E-02 0. -1.
    10030    2    1    2    0    0  0.00000000000E+00  0.00000000000E+00  0.15951491453E+04  0.33770362958E+04  0.29765539383E+04 0.  0.
        2    1    3    3  502    0  0.85875365058E+03  0.49958748355E+03 -0.45963451677E+03  0.10946731819E+04  0.25500000920E-02 0. -1.
       -2    1    3    3    0  502 -0.85875365058E+03 -0.49958748355E+03  0.20547836621E+04  0.22823631140E+04  0.25500000920E-02 0.  1.
</event>
<event>
 5   0  0.7570277E-07  0.3008799E+04  0.7818609E-02  0.8241223E-01
        2   -1    0    0  501    0  0.00000000000E+00  0.00000000000E+00  0.21017582422E+04  0.21017582422E+04  0.25500000920E-02 0.  1.
       -2   -1    0    0    0  501  0.00000000000E+00  0.00000000000E+00 -0.10768215654E+04  0.10768215654E+04  0.25500000920E-02 0. -1.
    10030    2    1    2    0    0  0.00000000000E+00  0.00000000000E+00  0.10249366767E+04  0.31785798076E+04  0.30087994952E+04 0.  0.
        5    1    3    3  502    0  0.18858959416E+03  0.96167291263E+03 -0.69334854892E+03  0.12004728761E+04  0.46999998093E+01 0. -1.
       -5    1    3    3    0  502 -0.18858959416E+03 -0.96167291263E+03  0.17182852256E+04  0.19781069315E+04  0.46999998093E+01 0.  1.
</event>
<event>
 5   0  0.4449262E-07  0.4003668E+04  0.7818609E-02  0.8003807E-01
        2   -1    0    0  501    0  0.00000000000E+00  0.00000000000E+00  0.24282474200E+04  0.24282474200E+04  0.25500000920E-02 0. -1.
       -2   -1    0    0    0  501  0.00000000000E+00  0.00000000000E+00 -0.16503009603E+04  0.16503009603E+04  0.25500000920E-02 0.  1.
    10030    2    1    2    0    0  0.00000000000E+00  0.00000000000E+00  0.77794645973E+03  0.40785483803E+04  0.40036678429E+04 0.  0.
        1    1    3    3  502    0  0.11532352433E+04  0.49494188306E+03 -0.11998181185E+04  0.17362265150E+04  0.50400001928E-02 0.  1.
       -1    1    3    3    0  502 -0.11532352433E+04 -0.49494188306E+03  0.19777645782E+04  0.23423218653E+04  0.50400001928E-02 0. -1.
</event>
<event>
 5   0  0.7256473E-07  0.3948732E+04  0.7818609E-02  0.8014969E-01
       -2   -1    0    0    0  501  0.00000000000E+00  0.00000000000E+00  0.14868415240E+04  0.14868415240E+04  0.25500000920E-02 0. -1.
        2   -1    0    0  501    0  0.00000000000E+00  0.00000000000E+00 -0.26217468358E+04  0.26217468358E+04  0.25500000920E-02 0.  1.
    10030    2    1    2    0    0  0.00000000000E+00  0.00000000000E+00 -0.11349053118E+04  0.41085883598E+04  0.39487324857E+04 0.  0.
        4    1    3    3  502    0 -0.95709296231E+03 -0.17232710624E+04 -0.68345764962E+03  0.20863379556E+04  0.12699999809E+01 0. -1.
       -4    1    3    3    0  502  0.95709296231E+03  0.17232710624E+04 -0.45144766220E+03  0.20222504043E+04  0.12699999809E+01 0.  1.
</event>
<event>
 5   0  0.7256473E-07  0.3944381E+04  0.7818609E-02  0.8015862E-01
       -2   -1    0    0    0  501  0.00000000000E+00  0.00000000000E+00  0.24544658155E+04  0.24544658156E+04  0.25500000920E-02 0. -1.
        2   -1    0    0  501    0  0.00000000000E+00  0.00000000000E+00 -0.15846766957E+04  0.15846766957E+04  0.25500000920E-02 0.  1.
    10030    2    1    2    0    0  0.00000000000E+00  0.00000000000E+00  0.86978911987E+03  0.40391425112E+04  0.39443807008E+04 0.  0.
        4    1    3    3  502    0 -0.84646344334E+03 -0.17804819290E+04  0.49020046481E+03  0.20314808315E+04  0.12699999809E+01 0.  1.
       -4    1    3    3    0  502  0.84646344334E+03  0.17804819290E+04  0.37958865506E+03  0.20076616797E+04  0.12699999809E+01 0. -1.
</event>
<event>
 5   0  0.2713405E-07  0.4018852E+04  0.7818609E-02  0.8000754E-01
       -1   -1    0    0    0  501  0.00000000000E+00  0.00000000000E+00  0.20391689863E+04  0.20391689863E+04  0.50400001928E-02 0. -1.
        1   -1    0    0  501    0  0.00000000000E+00  0.00000000000E+00 -0.19801169455E+04  0.19801169455E+04  0.50400001928E-02 0.  1.
    10030    2    1    2    0    0  0.00000000000E+00  0.00000000000E+00  0.59052040754E+02  0.40192859318E+04  0.40188521070E+04 0.  0.
        1    1    3    3  502    0 -0.82180486531E+03 -0.18333557842E+04  0.64692244717E+02  0.20101596341E+04  0.50400001928E-02 0.  1.
       -1    1    3    3    0  502  0.82180486531E+03  0.18333557842E+04 -0.56402039630E+01  0.20091262977E+04  0.50400001928E-02 0. -1.
</event>
<event>
 5   0  0.3579559E-07  0.3966387E+04  0.7818609E-02  0.8011362E-01
       -1   -1    0    0    0  501  0.00000000000E+00  0.00000000000E+00  0.15012482113E+04  0.15012482113E+04  0.50400001928E-02 0.  1.
        1   -1    0    0  501    0  0.00000000000E+00  0.00000000000E+00 -0.26198579992E+04  0.26198579992E+04  0.50400001928E-02 0. -1.
    10030    2    1    2    0    0  0.00000000000E+00  0.00000000000E+00 -0.11186097879E+04  0.41211062105E+04  0.39663873413E+04 0.  0.
        4    1    3    3  502    0 -0.10751356965E+04  0.74356665766E+03 -0.21088714271E+04  0.24811586909E+04  0.12699999809E+01 0. -1.
       -4    1    3    3    0  502  0.10751356965E+04 -0.74356665766E+03  0.99026163923E+03  0.16399475197E+04  0.12699999809E+01 0.  1.
</event>
<event>
 5   0  0.7570277E-07  0.3886339E+04  0.7818609E-02  0.8027876E-01
       -2   -1    0    0    0  501  0.00000000000E+00  0.00000000000E+00  0.15750359317E+04  0.15750359317E+04  0.25500000920E-02 0. -1.
        2   -1    0    0  501    0  0.00000000000E+00  0.00000000000E+00 -0.23973472795E+04  0.23973472795E+04  0.25500000920E-02 0.  1.
    10030    2    1    2    0    0  0.00000000000E+00  0.00000000000E+00 -0.82231134776E+03  0.39723832112E+04  0.38863392060E+04 0.  0.
        5    1    3    3  502    0 -0.12907879987E+04  0.14283786076E+04 -0.68059559257E+03  0.20419675695E+04  0.46999998093E+01 0.  1.
       -5    1    3    3    0  502  0.12907879987E+04 -0.14283786076E+04 -0.14171575520E+03  0.19304156417E+04  0.46999998093E+01 0. -1.
</event>
<event>
 5   0  0.7256473E-07  0.4020909E+04  0.7818609E-02  0.8000342E-01
        2   -1    0    0  501    0  0.00000000000E+00  0.00000000000E+00  0.21387514221E+04  0.21387514221E+04  0.25500000920E-02 0.  1.
       -2   -1    0    0    0  501  0.00000000000E+00  0.00000000000E+00 -0.18898535213E+04  0.18898535213E+04  0.25500000920E-02 0. -1.
    10030    2    1    2    0    0  0.00000000000E+00  0.00000000000E+00  0.24889790080E+03  0.40286049434E+04  0.40209088058E+04 0.  0.
        4    1    3    3  502    0 -0.80021603243E+03 -0.15084021908E+03 -0.17172278804E+04  0.19005187913E+04  0.12699999809E+01 0. -1.
       -4    1    3    3    0  502  0.80021603243E+03  0.15084021908E+03  0.19661257811E+04  0.21280861520E+04  0.12699999809E+01 0.  1.
</event>
<event>
 5   0  0.7256473E-07  0.3990330E+04  0.7818609E-02  0.8006500E-01
        2   -1    0    0  501    0  0.00000000000E+00  0.00000000000E+00  0.26926217598E+04  0.26926217598E+04  0.25500000920E-02 0. -1.
       -2   -1    0    0    0  501  0.00000000000E+00  0.00000000000E+00 -0.14783668203E+04  0.14783668203E+04  0.25500000920E-02 0.  1.
    10030    2    1    2    0    0  0.00000000000E+00  0.00000000000E+00  0.12142549395E+04  0.41709885801E+04  0.39903296451E+04 0.  0.
        4    1    3    3  502    0  0.68832857876E+03  0.17647998821E+04 -0.47623304110E+02  0.18948837558E+04  0.12699999809E+01 0.  1.
       -4    1    3    3    0  502 -0.68832857876E+03 -0.17647998821E+04  0.12618782436E+04  0.22761048242E+04  0.12699999809E+01 0. -1.
</event>
<event>
 5   0  0.2601252E-07  0.2936429E+04  0.7818609E-02  0.8262121E-01
       -1   -1    0    0    0  501  0.00000000000E+00  0.00000000000E+00  0.23485016506E+04  0.23485016507E+04  0.50400001928E-02 0.  1.
        1   -1    0    0  501    0  0.00000000000E+00  0.00000000000E+00 -0.91788455357E+03  0.91788455358E+03  0.50400001928E-02 0. -1.
    10030    2    1    2    0    0  0.00000000000E+00  0.00000000000E+00  0.14306170971E+04  0.32663862042E+04  0.29364287079E+04 0.  0.
        3    1    3    3  502    0 -0.73458057178E+03  0.96074214950E+03  0.16413293263E+04  0.20387731756E+04  0.10100000352E+00 0.  1.
       -3    1    3    3    0  502  0.73458057178E+03 -0.96074214950E+03 -0.21071222918E+03  0.12276130286E+04  0.10100000352E+00 0. -1.
</event>
<event>
 5   0  0.7256473E-07  0.3579018E+04  0.7818609E-02  0.8095315E-01
       -2   -1    0    0    0  501  0.00000000000E+00  0.00000000000E+00  0.14063166409E+04  0.14063166409E+04  0.25500000920E-02 0. -1.
        2   -1    0    0  501    0  0.00000000000E+00  0.00000000000E+00 -0.22771137658E+04  0.22771137658E+04  0.25500000920E-02 0.  1.
    10030    2    1    2    0    0  0.00000000000E+00  0.00000000000E+00 -0.87079712491E+03  0.36834304066E+04  0.35790182911E+04 0.  0.
        4    1    3    3  502    0 -0.11479194990E+04  0.49397191831E+03  0.88283313192E+03  0.15300729995E+04  0.12699999809E+01 0. -1.
       -4    1    3    3    0  502  0.11479194990E+04 -0.49397191831E+03 -0.17536302568E+04  0.21533574071E+04  0.12699999809E+01 0.  1.
</event>
<event>
 5   0  0.2713405E-07  0.3888645E+04  0.7818609E-02  0.8027395E-01
       -1   -1    0    0    0  501  0.00000000000E+00  0.00000000000E+00  0.26384460851E+04  0.26384460851E+04  0.50400001928E-02 0.  1.
        1   -1    0    0  501    0  0.00000000000E+00  0.00000000000E+00 -0.14328094040E+04  0.14328094040E+04  0.50400001928E-02 0. -1.
    10030    2    1    2    0    0  0.00000000000E+00  0.00000000000E+00  0.12056366811E+04  0.40712554891E+04  0.38886451947E+04 0.  0.
        1    1    3    3  502    0  0.20925025078E+03 -0.16401235978E+04  0.16738942552E+04  0.23528096100E+04  0.50400001928E-02 0.  1.
       -1    1    3    3    0  502 -0.20925025078E+03  0.16401235978E+04 -0.46825757408E+03  0.17184458790E+04  0.50400001928E-02 0. -1.
</event>
<event>
 5   0  0.2401125E-07  0.2214609E+04  0.7818609E-02  0.8512372E-01
       -1   -1    0    0    0  501  0.00000000000E+00  0.00000000000E+00  0.13766029488E+04  0.13766029488E+04  0.50400001928E-02 0.  1.
        1   -1    0    0  501    0  0.00000000000E+00  0.00000000000E+00 -0.89068743325E+03  0.89068743326E+03  0.50400001928E-02 0. -1.
    10030    2    1    2    0    0  0.00000000000E+00  0.00000000000E+00  0.48591551558E+03  0.22672903821E+04  0.22146087213E+04 0.  0.
        5    1    3    3  502    0 -0.88669549937E+03 -0.54321644501E+03 -0.14660388450E+03  0.10501560854E+04  0.46999998093E+01 0. -1.
       -5    1    3    3    0  502  0.88669549937E+03  0.54321644501E+03  0.63251940008E+03  0.12171342967E+04  0.46999998093E+01 0.  1.
</event>
<event>
 5   0  0.2601252E-07  0.3920357E+04  0.7818609E-02  0.8020809E-01
       -1   -1    0    0    0  501  0.00000000000E+00  0.00000000000E+00  0.21753898815E+04  0.21753898815E+04  0.50400001928E-02 0.  1.
        1   -1    0    0  501    0  0.00000000000E+00  0.00000000000E+00 -0.17662576183E+04  0.17662576183E+04  0.50400001928E-02 0. -1.
    10030    2    1    2    0    0  0.00000000000E+00  0.00000000000E+00  0.40913226318E+03  0.39416474998E+04  0.39203565914E+04 0.  0.
        3    1    3    3  502    0  0.19370424949E+03  0.67302732258E+03  0.20453043338E+04  0.21618873563E+04  0.10100000352E+00 0.  1.
       -3    1    3    3    0  502 -0.19370424949E+03 -0.67302732258E+03 -0.16361720706E+04  0.17797601434E+04  0.10100000352E+00 0. -1.
</event>
<event>
 5   0  0.6043512E-07  0.3292069E+04  0.7818609E-02  0.8164916E-01
        2   -1    0    0  501    0  0.00000000000E+00  0.00000000000E+00  0.24879201779E+04  0.24879201779E+04  0.25500000920E-02 0. -1.
       -2   -1    0    0    0  501  0.00000000000E+00  0.00000000000E+00 -0.10890342887E+04  0.10890342887E+04  0.25500000920E-02 0.  1.
    10030    2    1    2    0    0  0.00000000000E+00  0.00000000000E+00  0.13988858892E+04  0.35769544666E+04  0.32920694897E+04 0.  0.
        3    1    3    3  502    0 -0.88568928398E+03 -0.81615024265E+03 -0.51965111086E+03  0.13117103390E+04  0.10100000352E+00 0.  1.
       -3    1    3    3    0  502  0.88568928398E+03  0.81615024265E+03  0.19185370001E+04  0.22652441275E+04  0.10100000352E+00 0. -1.
</event>
<event>
 5   0  0.6043512E-07  0.2375996E+04  0.7818609E-02  0.8448545E-01
       -2   -1    0    0    0  501  0.00000000000E+00  0.00000000000E+00  0.12043703250E+04  0.12043703250E+04  0.25500000920E-02 0.  1.
        2   -1    0    0  501    0  0.00000000000E+00  0.00000000000E+00 -0.11718479274E+04  0.11718479274E+04  0.25500000920E-02 0. -1.
    10030    2    1    2    0    0  0.00000000000E+00  0.00000000000E+00  0.32522397644E+02  0.23762182524E+04  0.23759956811E+04 0.  0.
        3    1    3    3  502    0 -0.95809596196E+03 -0.37218014141E+03  0.61202912134E+03  0.11962631757E+04  0.10100000352E+00 0.  1.
       -3    1    3    3    0  502  0.95809596196E+03  0.37218014141E+03 -0.57950672370E+03  0.11799550767E+04  0.10100000352E+00 0. -1.
</event>
<event>
 5   0  0.5161550E-07  0.4228862E+04  0.7818609E-02  0.7959905E-01
       -2   -1    0    0    0  501  0.00000000000E+00  0.00000000000E+00  0.19481304859E+04  0.19481304859E+04  0.25500000920E-02 0. -1.
        2   -1    0    0  501    0  0.00000000000E+00  0.00000000000E+00 -0.22949272656E+04  0.22949272656E+04  0.25500000920E-02 0.  1.
    10030    2    1    2    0    0  0.00000000000E+00  0.00000000000E+00 -0.34679677972E+03  0.42430577515E+04  0.42288616762E+04 0.  0.
        2    1    3    3  502    0 -0.97369460625E+02 -0.12624074832E+04  0.15257042640E+04  0.19826565428E+04  0.25500000920E-02 0. -1.
       -2    1    3    3    0  502  0.97369460625E+02  0.12624074832E+04 -0.18725010437E+04  0.22604012087E+04  0.25500000920E-02 0.  1.
</event>
<event>
 5   0  0.3579559E-07  0.2914651E+04  0.7818609E-02  0.8268532E-01
       -1   -1    0    0    0  501  0.00000000000E+00  0.00000000000E+00  0.80018324234E+03  0.80018324235E+03  0.50400001928E-02 0. -1.
        1   -1    0    0  501    0  0.00000000000E+00  0.00000000000E+00 -0.26541389230E+04  0.26541389230E+04  0.50400001928E-02 0.  1.
    10030    2    1    2    0    0  0.00000000000E+00  0.00000000000E+00 -0.18539556807E+04  0.34543221654E+04  0.29146509150E+04 0.  0.
        4    1    3    3  502    0  0.97218836415E+03 -0.85277262284E+03 -0.17232634403E+04  0.21545323992E+04  0.12699999809E+01 0.  1.
       -4    1    3    3    0  502 -0.97218836415E+03  0.85277262284E+03 -0.13069224041E+03  0.12997897662E+04  0.12699999809E+01 0. -1.
</event>
<event>
 5   0  0.6043512E-07  0.2165682E+04  0.7818609E-02  0.8532850E-01
        2   -1    0    0  501    0  0.00000000000E+00  0.00000000000E+00  0.19249986047E+04  0.19249986047E+04  0.25500000920E-02 0. -1.
       -2   -1    0    0    0  501  0.00000000000E+00  0.00000000000E+00 -0.60911426260E+03  0.60911426260E+03  0.25500000920E-02 0.  1.
    10030    2    1    2    0    0  0.00000000000E+00  0.00000000000E+00  0.13158843421E+04  0.25341128673E+04  0.21656815145E+04 0.  0.
        3    1    3    3  502    0 -0.20453095938E+03  0.74360474112E+03  0.15473609440E+04  0.17289033593E+04  0.10100000352E+00 0. -1.
       -3    1    3    3    0  502  0.20453095938E+03 -0.74360474112E+03 -0.23147660194E+03  0.80520950803E+03  0.10100000352E+00 0.  1.
</event>
<event>
 5   0  0.2601252E-07  0.2521348E+04  0.7818609E-02  0.8395420E-01
        1   -1    0    0  501    0  0.00000000000E+00  0.00000000000E+00  0.89004388424E+03  0.89004388425E+03  0.50400001928E-02 0.  1.
       -1   -1    0    0    0  501  0.00000000000E+00  0.00000000000E+00 -0.17856408239E+04  0.17856408239E+04  0.50400001928E-02 0. -1.
    10030    2    1    2    0    0  0.00000000000E+00  0.00000000000E+00 -0.89559693967E+03  0.26756847082E+04  0.25213478100E+04 0.  0.
        3    1    3    3  502    0 -0.62410617220E+03  0.10045648799E+04  0.15551037101E+02  0.11827514351E+04  0.10100000352E+00 0.  1.
       -3    1    3    3    0  502  0.62410617220E+03 -0.10045648799E+04 -0.91114797677E+03  0.14929332731E+04  0.10100000352E+00 0. -1.
</event>
<event>
 5   0  0.4705748E-07  0.1988653E+04  0.7818609E-02  0.8611944E-01
       -2   -1    0    0    0  501  0.00000000000E+00  0.00000000000E+00  0.37689343618E+03  0.37689343618E+03  0.25500000920E-02 0.  1.
        2   -1    0    0  501    0  0.00000000000E+00  0.00000000000E+00 -0.26232488008E+04  0.26232488008E+04  0.25500000920E-02 0. -1.
    10030    2    1    2    0    0  0.00000000000E+00  0.00000000000E+00 -0.22463553647E+04  0.30001422370E+04  0.19886530663E+04 0.  0.
        1    1    3    3  502    0 -0.10892962754E+03 -0.46371152813E+03 -0.24399200188E+04  0.24859814447E+04  0.50400001928E-02 0. -1.
       -1    1    3    3    0  502  0.10892962754E+03  0.46371152813E+03  0.19356465411E+03  0.51416079238E+03  0.50400001928E-02 0.  1.
</event>
<event>
 5   0  0.6043512E-07  0.2432825E+04  0.7818609E-02  0.8427316E-01
       -2   -1    0    0    0  501  0.00000000000E+00  0.00000000000E+00  0.14042220864E+04  0.14042220864E+04  0.25500000920E-02 0. -1.
        2   -1    0    0  501    0  0.00000000000E+00  0.00000000000E+00 -0.10537214832E+04  0.10537214832E+04  0.25500000920E-02 0.  1.
    10030    2    1    2    0    0  0.00000000000E+00  0.00000000000E+00  0.35050060319E+03  0.24579435697E+04  0.24328246790E+04 0.  0.
        3    1    3    3  502    0  0.79747539104E+03 -0.70512909269E+03 -0.41945700204E+03  0.11441670435E+04  0.10100000352E+00 0.  1.
       -3    1    3    3    0  502 -0.79747539104E+03  0.70512909269E+03  0.76995760522E+03  0.13137765262E+04  0.10100000352E+00 0. -1.
</event>
<event>
 5   0  0.2647879E-07  0.3134856E+04  0.7818609E-02  0.8206237E-01
        1   -1    0    0  501    0  0.00000000000E+00  0.00000000000E+00  0.20880732405E+04  0.20880732405E+04  0.50400001928E-02 0.  1.
       -1   -1    0    0    0  501  0.00000000000E+00  0.00000000000E+00 -0.11766015466E+04  0.11766015466E+04  0.50400001928E-02 0. -1.
    10030    2    1    2    0    0  0.00000000000E+00  0.00000000000E+00  0.91147169389E+03  0.32646747871E+04  0.31348557889E+04 0.  0.
        2    1    3    3  502    0  0.32504457087E+03  0.32026599596E+03 -0.11058973528E+04  0.11963416051E+04  0.25500000920E-02 0. -1.
       -2    1    3    3    0  502 -0.32504457087E+03 -0.32026599596E+03  0.20173690467E+04  0.20683331820E+04  0.25500000920E-02 0.  1.
</event>
<event>
 5   0  0.4449262E-07  0.2705460E+04  0.7818609E-02  0.8333235E-01
        2   -1    0    0  501    0  0.00000000000E+00  0.00000000000E+00  0.13246700917E+04  0.13246700917E+04  0.25500000920E-02 0.  1.
       -2   -1    0    0    0  501  0.00000000000E+00  0.00000000000E+00 -0.13813846778E+04  0.13813846778E+04  0.25500000920E-02 0. -1.
    10030    2    1    2    0    0  0.00000000000E+00  0.00000000000E+00 -0.56714586069E+02  0.27060547695E+04  0.27054603807E+04 0.  0.
        1    1    3    3  502    0 -0.12348837112E+04 -0.19124233408E+03  0.48979856255E+03  0.13421676656E+04  0.50400001928E-02 0.  1.
       -1    1    3    3    0  502  0.12348837112E+04  0.19124233408E+03 -0.54651314862E+03  0.13638871039E+04  0.50400001928E-02 0. -1.
</event>
<event>
 5   0  0.5161550E-07  0.2901166E+04  0.7818609E-02  0.8272531E-01
       -2   -1    0    0    0  501  0.00000000000E+00  0.00000000000E+00  0.14483442183E+04  0.14483442183E+04  0.25500000920E-02 0.  1.
        2   -1    0    0  501    0  0.00000000000E+00  0.00000000000E+00 -0.14528250031E+04  0.14528250031E+04  0.25500000920E-02 0. -1.
    10030    2    1    2    0    0  0.00000000000E+00  0.00000000000E+00 -0.44807847625E+01  0.29011692214E+04  0.29011657612E+04 0.  0.
        2    1    3    3  502    0 -0.50291682824E+03  0.81540086403E+03  0.10869747463E+04  0.14489023446E+04  0.25500000920E-02 0.  1.
       -2    1    3    3    0  502  0.50291682824E+03 -0.81540086403E+03 -0.10914555310E+04  0.14522668768E+04  0.25500000920E-02 0. -1.
</event>
<event>
 5   0  0.7256473E-07  0.4010343E+04  0.7818609E-02  0.8002463E-01
        2   -1    0    0  501    0  0.00000000000E+00  0.00000000000E+00  0.27109545521E+04  0.27109545521E+04  0.25500000920E-02 0.  1.
       -2   -1    0    0    0  501  0.00000000000E+00  0.00000000000E+00 -0.14831355006E+04  0.14831355006E+04  0.25500000920E-02 0. -1.
    10030    2    1    2    0    0  0.00000000000E+00  0.00000000000E+00  0.12278190514E+04  0.41940900527E+04  0.40103430959E+04 0.  0.
        4    1    3    3  502    0 -0.18193750761E+03 -0.15006259720E+04  0.19917455227E+04  0.25004062479E+04  0.12699999809E+01 0.  1.
       -4    1    3    3    0  502  0.18193750761E+03  0.15006259720E+04 -0.76392647126E+03  0.16936838048E+04  0.12699999809E+01 0. -1.
</event>
<event>
 5   0  0.4449262E-07  0.3962605E+04  0.7818609E-02  0.8012133E-01
        2   -1    0    0  501    0  0.00000000000E+00  0.00000000000E+00  0.12953013919E+04  0.12953013919E+04  0.25500000920E-02 0.  1.
       -2   -1    0    0    0  501  0.00000000000E+00  0.00000000000E+00 -0.30306151334E+04  0.30306151334E+04  0.25500000920E-02 0. -1.
    10030    2    1    2    0    0  0.00000000000E+00  0.00000000000E+00 -0.17353137416E+04  0.43259165253E+04  0.39626052040E+04 0.  0.
        1    1    3    3  502    0 -0.13299268792E+04 -0.89181020777E+03  0.40617111292E+03  0.16519703156E+04  0.50400001928E-02 0.  1.
       -1    1    3    3    0  502  0.13299268792E+04  0.89181020777E+03 -0.21414848545E+04  0.26739462097E+04  0.50400001928E-02 0. -1.
</event>
<event>
 5   0  0.4449262E-07  0.4049247E+04  0.7818609E-02  0.7994685E-01
       -2   -1    0    0    0  501  0.00000000000E+00  0.00000000000E+00  0.15065298288E+04  0.15065298288E+04  0.25500000920E-02 0.  1.
        2   -1    0    0  501    0  0.00000000000E+00  0.00000000000E+00 -0.27208887598E+04  0.27208887598E+04  0.25500000920E-02 0. -1.
    10030    2    1    2    0    0  0.00000000000E+00  0.00000000000E+00 -0.12143589309E+04  0.42274185886E+04  0.40492468819E+04 0.  0.
        1    1    3    3  502    0 -0.62869904508E+03 -0.14345157351E+04  0.73223875106E+03  0.17289509745E+04  0.50400001928E-02 0.  1.
       -1    1    3    3    0  502  0.62869904508E+03  0.14345157351E+04 -0.19465976820E+04  0.24984676142E+04  0.50400001928E-02 0. -1.
</event>
<event>
 5   0  0.7256473E-07  0.4319765E+04  0.7818609E-02  0.7942974E-01
       -2   -1    0    0    0  501  0.00000000000E+00  0.00000000000E+00  0.23701076108E+04  0.23701076108E+04  0.25500000920E-02 0. -1.
        2   -1    0    0  501    0  0.00000000000E+00  0.00000000000E+00 -0.19683037509E+04  0.19683037509E+04  0.25500000920E-02 0.  1.
    10030    2    1    2    0    0  0.00000000000E+00  0.00000000000E+00  0.40180385994E+03  0.43384113617E+04  0.43197646697E+04 0.  0.
        4    1    3    3  502    0 -0.17357795948E+04  0.17995855385E+02 -0.10898834264E+04  0.20496590323E+04  0.12699999809E+01 0.  1.
       -4    1    3    3    0  502  0.17357795948E+04 -0.17995855385E+02  0.14916872863E+04  0.22887523295E+04  0.12699999809E+01 0. -1.
</event>
<event>
 5   0  0.3579559E-07  0.3955841E+04  0.7818609E-02  0.8013514E-01
        1   -1    0    0  501    0  0.00000000000E+00  0.00000000000E+00  0.21484958195E+04  0.21484958195E+04  0.50400001928E-02 0. -1.
       -1   -1    0    0    0  501  0.00000000000E+00  0.00000000000E+00 -0.18208878023E+04  0.18208878023E+04  0.50400001928E-02 0.  1.
    10030    2    1    2    0    0  0.00000000000E+00  0.00000000000E+00  0.32760801726E+03  0.39693836218E+04  0.39558411652E+04 0.  0.
        4    1    3    3  502    0  0.92757311199E+03 -0.11515141737E+04  0.14819951362E+04  0.20934870353E+04  0.12699999809E+01 0. -1.
       -4    1    3    3    0  502 -0.92757311199E+03  0.11515141737E+04 -0.11543871189E+04  0.18758965866E+04  0.12699999809E+01 0.  1.
</event>
<event>
 5   0  0.7570277E-07  0.3854744E+04  0.7818609E-02  0.8034508E-01
       -2   -1    0    0    0  501  0.00000000000E+00  0.00000000000E+00  0.11663681287E+04  0.11663681287E+04  0.25500000920E-02 0. -1.
        2   -1    0    0  501    0  0.00000000000E+00  0.00000000000E+00 -0.31848981142E+04  0.31848981142E+04  0.25500000920E-02 0.  1.
    10030    2    1    2    0    0  0.00000000000E+00  0.00000000000E+00 -0.20185299855E+04  0.43512662429E+04  0.38547444292E+04 0.  0.
        5    1    3    3  502    0  0.87509049947E+03  0.12084303012E+03 -0.29429084838E+04  0.30726403718E+04  0.46999998093E+01 0.  1.
       -5    1    3    3    0  502 -0.87509049947E+03 -0.12084303012E+03  0.92437849830E+03  0.12786258711E+04  0.46999998093E+01 0. -1.
</event>
<event>
 5   0  0.1012605E-06  0.1970645E+04  0.7818609E-02  0.8620469E-01
       -2   -1    0    0    0  501  0.00000000000E+00  0.00000000000E+00  0.65344687586E+03  0.65344687586E+03  0.25500000920E-02 0.  1.
        2   -1    0    0  501    0  0.00000000000E+00  0.00000000000E+00 -0.14857522415E+04  0.14857522415E+04  0.25500000920E-02 0. -1.
    10030    2    1    2    0    0  0.00000000000E+00  0.00000000000E+00 -0.83230536565E+03  0.21391991174E+04  0.19706447275E+04 0.  0.
        4    1    3    3  502    0  0.61011311076E+03  0.77188713507E+03 -0.47370424369E+03  0.10919913372E+04  0.12699999809E+01 0. -1.
       -4    1    3    3    0  502 -0.61011311076E+03 -0.77188713507E+03 -0.35860112195E+03  0.10472077801E+04  0.12699999809E+01 0.  1.
</event>
<event>
 5   0  0.2601252E-07  0.3991843E+04  0.7818609E-02  0.8006194E-01
       -1   -1    0    0    0  501  0.00000000000E+00  0.00000000000E+00  0.14760343606E+04  0.14760343606E+04  0.50400001928E-02 0. -1.
        1   -1    0    0  501    0  0.00000000000E+00  0.00000000000E+00 -0.26989221267E+04  0.26989221267E+04  0.50400001928E-02 0.  1.
    10030    2    1    2    0    0  0.00000000000E+00  0.00000000000E+00 -0.12228877661E+04  0.41749564874E+04  0.39918425800E+04 0.  0.
        3    1    3    3  502    0  0.44009955452E+03 -0.19410471649E+04 -0.45508664066E+03  0.20416795966E+04  0.10100000352E+00 0.  1.
       -3    1    3    3    0  502 -0.44009955452E+03  0.19410471649E+04 -0.76780112544E+03  0.21332768908E+04  0.10100000352E+00 0. -1.
</event>
<event>
 5   0  0.6043512E-07  0.2354156E+04  0.7818609E-02  0.8456869E-01
        2   -1    0    0  501    0  0.00000000000E+00  0.00000000000E+00  0.14483373171E+04  0.14483373171E+04  0.25500000920E-02 0.  1.
       -2   -1    0    0    0  501  0.00000000000E+00  0.00000000000E+00 -0.95662308656E+03  0.95662308657E+03  0.25500000920E-02 0. -1.
    10030    2    1    2    0    0  0.00000000000E+00  0.00000000000E+00  0.49171423056E+03  0.24049604037E+04  0.23541562520E+04 0.  0.
        3    1    3    3  502    0  0.24182429573E+03  0.11095993849E+04 -0.70376328883E+02  0.11378236343E+04  0.10100000352E+00 0. -1.
       -3    1    3    3    0  502 -0.24182429573E+03 -0.11095993849E+04  0.56209055944E+03  0.12671367693E+04  0.10100000352E+00 0.  1.
</event>
<event>
 5   0  0.2713405E-07  0.4017830E+04  0.7818609E-02  0.8000959E-01
       -1   -1    0    0    0  501  0.00000000000E+00  0.00000000000E+00  0.14401204631E+04  0.14401204631E+04  0.50400001928E-02 0. -1.
        1   -1    0    0  501    0  0.00000000000E+00  0.00000000000E+00 -0.28023617974E+04  0.28023617974E+04  0.50400001928E-02 0.  1.
    10030    2    1    2    0    0  0.00000000000E+00  0.00000000000E+00 -0.13622413343E+04  0.42424822605E+04  0.40178295482E+04 0.  0.
        1    1    3    3  502    0  0.45460850588E+03 -0.18641499691E+04 -0.13093802102E+04  0.23229723493E+04  0.50400001928E-02 0.  1.
       -1    1    3    3    0  502 -0.45460850588E+03  0.18641499691E+04 -0.52861124139E+02  0.19195099112E+04  0.50400001928E-02 0. -1.
</event>
<event>
 5   0  0.5161550E-07  0.2123407E+04  0.7818609E-02  0.8551002E-01
       -2   -1    0    0    0  501  0.00000000000E+00  0.00000000000E+00  0.93703834349E+03  0.93703834349E+03  0.25500000920E-02 0.  1.
        2   -1    0    0  501    0  0.00000000000E+00  0.00000000000E+00 -0.12029539592E+04  0.12029539592E+04  0.25500000920E-02 0. -1.
    10030    2    1    2    0    0  0.00000000000E+00  0.00000000000E+00 -0.26591561568E+03  0.21399923027E+04  0.21234066829E+04 0.  0.
        2    1    3    3  502    0  0.80049725225E+03  0.56072505859E+03  0.28501714041E+03  0.10180585506E+04  0.25500000920E-02 0.  1.
       -2    1    3    3    0  502 -0.80049725225E+03 -0.56072505859E+03 -0.55093275608E+03  0.11219337520E+04  0.25500000920E-02 0. -1.
</event>
<event>
 5   0  0.2647879E-07  0.3532740E+04  0.7818609E-02  0.8106075E-01
       -1   -1    0    0    0  501  0.00000000000E+00  0.00000000000E+00  0.15577453837E+04  0.15577453837E+04  0.50400001928E-02 0. -1.
        1   -1    0    0  501    0  0.00000000000E+00  0.00000000000E+00 -0.20029351244E+04  0.20029351244E+04  0.50400001928E-02 0.  1.
    10030    2    1    2    0    0  0.00000000000E+00  0.00000000000E+00 -0.44518974071E+03  0.35606805082E+04  0.35327399814E+04 0.  0.
        2    1    3    3  502    0  0.11732500422E+04  0.79243323724E+01  0.11082590171E+04  0.16139443936E+04  0.25500000920E-02 0. -1.
       -2    1    3    3    0  502 -0.11732500422E+04 -0.79243323724E+01 -0.15534487578E+04  0.19467361146E+04  0.25500000920E-02 0.  1.
</event>
<event>
 5   0  0.2601252E-07  0.4055913E+04  0.7818609E-02  0.7993361E-01
        1   -1    0    0  501    0  0.00000000000E+00  0.00000000000E+00  0.17636956183E+04  0.17636956183E+04  0.50400001928E-02 0. -1.
       -1   -1    0    0    0  501  0.00000000000E+00  0.00000000000E+00 -0.23318120014E+04  0.23318120014E+04  0.50400001928E-02 0.  1.
    10030    2    1    2    0    0  0.00000000000E+00  0.00000000000E+00 -0.56811638310E+03  0.40955076198E+04  0.40559125285E+04 0.  0.
        3    1    3    3  502    0 -0.86979006444E+03  0.18317065087E+04 -0.25337887246E+03  0.20434980679E+04  0.10100000352E+00 0.  1.
       -3    1    3    3    0  502  0.86979006444E+03 -0.18317065087E+04 -0.31473751064E+03  0.20520095519E+04  0.10100000352E+00 0. -1.
</event>
<event>
 5   0  0.2713405E-07  0.3185404E+04  0.7818609E-02  0.8192683E-01
        1   -1    0    0  501    0  0.00000000000E+00  0.00000000000E+00  0.11088757365E+04  0.11088757365E+04  0.50400001928E-02 0. -1.
       -1   -1    0    0    0  501  0.00000000000E+00  0.00000000000E+00 -0.22876319500E+04  0.22876319500E+04  0.50400001928E-02 0.  1.
    10030    2    1    2    0    0  0.00000000000E+00  0.00000000000E+00 -0.11787562135E+04  0.33965076866E+04  0.31854039389E+04 0.  0.
        1    1    3    3  502    0  0.14501862901E+04  0.22361356944E+03 -0.12498270246E+04  0.19274622943E+04  0.50400001928E-02 0.  1.
       -1    1    3    3    0  502 -0.14501862901E+04 -0.22361356944E+03  0.71070811024E+02  0.14690453923E+04  0.50400001928E-02 0. -1.
</event>
<event>
 5   0  0.7570277E-07  0.2233625E+04  0.7818609E-02  0.8504562E-01
       -2   -1    0    0    0  501  0.00000000000E+00  0.00000000000E+00  0.16235252878E+04  0.16235252878E+04  0.25500000920E-02 0. -1.
        2   -1    0    0  501    0  0.00000000000E+00  0.00000000000E+00 -0.76824818340E+03  0.76824818340E+03  0.25500000920E-02 0.  1.
    10030    2    1    2    0    0  0.00000000000E+00  0.00000000000E+00  0.85527710438E+03  0.23917734712E+04  0.22336251727E+04 0.  0.
        5    1    3    3  502    0 -0.81058793241E+03  0.68102859209E+02 -0.39175871462E+03  0.90287749783E+03  0.46999998093E+01 0.  1.
       -5    1    3    3    0  502  0.81058793241E+03 -0.68102859209E+02  0.12470358190E+04  0.14888959734E+04  0.46999998093E+01 0. -1.
</event>
<event>
 5   0  0.4449262E-07  0.3951463E+04  0.7818609E-02  0.8014410E-01
        2   -1    0    0  501    0  0.00000000000E+00  0.00000000000E+00  0.25873371015E+04  0.25873371015E+04  0.25500000920E-02 0.  1.
       -2   -1    0    0    0  501  0.00000000000E+00  0.00000000000E+00 -0.15086997067E+04  0.15086997067E+04  0.25500000920E-02 0. -1.
    10030    2    1    2    0    0  0.00000000000E+00  0.00000000000E+00  0.10786373948E+04  0.40960368082E+04  0.39514628816E+04 0.  0.
        1    1    3    3  502    0 -0.25020228920E+03  0.66081732319E+03 -0.13732438493E+04  0.15443702243E+04  0.50400001928E-02 0. -1.
       -1    1    3    3    0  502  0.25020228920E+03 -0.66081732319E+03  0.24518812441E+04  0.25516665839E+04  0.50400001928E-02 0.  1.
</event>
<event>
 5   0  0.7256473E-07  0.2889322E+04  0.7818609E-02  0.8276062E-01
       -2   -1    0    0    0  501  0.00000000000E+00  0.00000000000E+00  0.88508825365E+03  0.88508825365E+03  0.25500000920E-02 0. -1.
        2   -1    0    0  501    0  0.00000000000E+00  0.00000000000E+00 -0.23580078789E+04  0.23580078789E+04  0.25500000920E-02 0.  1.
    10030    2    1    2    0    0  0.00000000000E+00  0.00000000000E+00 -0.14729196252E+04  0.32430961325E+04  0.28893217720E+04 0.  0.
        4    1    3    3  502    0  0.81579611776E+01 -0.51946727622E+03 -0.22495227390E+04  0.23087370941E+04  0.12699999809E+01 0.  1.
       -4    1    3    3    0  502 -0.81579611776E+01  0.51946727622E+03  0.77660311381E+03  0.93435903842E+03  0.12699999809E+01 0. -1.
</event>
<event>
 5   0  0.7570277E-07  0.2625497E+04  0.7818609E-02  0.8359592E-01
        2   -1    0    0  501    0  0.00000000000E+00  0.00000000000E+00  0.18347539452E+04  0.18347539452E+04  0.25500000920E-02 0. -1.
       -2   -1    0    0    0  501  0.00000000000E+00  0.00000000000E+00 -0.93925845980E+03  0.93925845980E+03  0.25500000920E-02 0.  1.
    10030    2    1    2    0    0  0.00000000000E+00  0.00000000000E+00  0.89549548542E+03  0.27740124050E+04  0.26254966499E+04 0.  0.
        5    1    3    3  502    0 -0.10941486787E+04  0.15121391039E+03  0.11972841752E+04  0.16289685276E+04  0.46999998093E+01 0. -1.
       -5    1    3    3    0  502  0.10941486787E+04 -0.15121391039E+03 -0.30178868979E+03  0.11450438774E+04  0.46999998093E+01 0.  1.
</event>
<event>
 5   0  0.7570277E-07  0.3015551E+04  0.7818609E-02  0.8239304E-01
       -2   -1    0    0    0  501  0.00000000000E+00  0.00000000000E+00  0.14720697681E+04  0.14720697681E+04  0.25500000920E-02 0. -1.
        2   -1    0    0  501    0  0.00000000000E+00  0.00000000000E+00 -0.15443476441E+04  0.15443476441E+04  0.25500000920E-02 0.  1.
    10030    2    1    2    0    0  0.00000000000E+00  0.00000000000E+00 -0.72277876020E+02  0.30164174122E+04  0.30155513448E+04 0.  0.
        5    1    3    3  502    0  0.18122239687E+03  0.75505994236E+03  0.12566750223E+04  0.14772309486E+04  0.46999998093E+01 0. -1.
       -5    1    3    3    0  502 -0.18122239687E+03 -0.75505994236E+03 -0.13289528984E+04  0.15391864636E+04  0.46999998093E+01 0.  1.
</event>
<event>
 5   0  0.2713405E-07  0.3941151E+04  0.7818609E-02  0.8016525E-01
        1   -1    0    0  501    0  0.00000000000E+00  0.00000000000E+00  0.24888204134E+04  0.24888204134E+04  0.50400001928E-02 0. -1.
       -1   -1    0    0    0  501  0.00000000000E+00  0.00000000000E+00 -0.15602440176E+04  0.15602440176E+04  0.50400001928E-02 0.  1.
    10030    2    1    2    0    0  0.00000000000E+00  0.00000000000E+00  0.92857639582E+03  0.40490644309E+04  0.39411506750E+04 0.  0.
        1    1    3    3  502    0 -0.16101478028E+04  0.11077592332E+04  0.20547640479E+03  0.19651786225E+04  0.50400001928E-02 0. -1.
       -1    1    3    3    0  502  0.16101478028E+04 -0.11077592332E+04  0.72309999103E+03  0.20838858084E+04  0.50400001928E-02 0.  1.
</event>
<event>
 5   0  0.2647879E-07  0.3325450E+04  0.7818609E-02  0.8156450E-01
        1   -1    0    0  501    0  0.00000000000E+00  0.00000000000E+00  0.11903723554E+04  0.11903723554E+04  0.50400001928E-02 0.  1.
       -1   -1    0    0    0  501  0.00000000000E+00  0.00000000000E+00 -0.23225117283E+04  0.23225117283E+04  0.50400001928E-02 0. -1.
    10030    2    1    2    0    0  0.00000000000E+00  0.00000000000E+00 -0.11321393729E+04  0.35128840837E+04  0.33254495976E+04 0.  0.
        2    1    3    3  502    0 -0.15054327596E+04  0.11130544502E+02 -0.13116873968E+04  0.19967412225E+04  0.25500000920E-02 0. -1.
       -2    1    3    3    0  502  0.15054327596E+04 -0.11130544502E+02  0.17954802396E+03  0.15161428612E+04  0.25500000920E-02 0.  1.
</event>
<event>
 5   0  0.5161550E-07  0.2505903E+04  0.7818609E-02  0.8400886E-01
       -2   -1    0    0    0  501  0.00000000000E+00  0.00000000000E+00  0.67946081284E+03  0.67946081285E+03  0.25500000920E-02 0. -1.
        2   -1    0    0  501    0  0.00000000000E+00  0.00000000000E+00 -0.23104891569E+04  0.23104891569E+04  0.25500000920E-02 0.  1.
    10030    2    1    2    0    0  0.00000000000E+00  0.00000000000E+00 -0.16310283440E+04  0.29899499697E+04  0.25059025046E+04 0.  0.
        2    1    3    3  502    0 -0.73310396260E+02  0.10767042528E+04 -0.15750449727E+04  0.19093017383E+04  0.25500000920E-02 0. -1.
       -2    1    3    3    0  502  0.73310396260E+02 -0.10767042528E+04 -0.55983371354E+02  0.10806482314E+04  0.25500000920E-02 0.  1.
</event>
<event>
 5   0  0.4449262E-07  0.3975258E+04  0.7818609E-02  0.8009556E-01
       -2   -1    0    0    0  501  0.00000000000E+00  0.00000000000E+00  0.16260487898E+04  0.16260487898E+04  0.25500000920E-02 0.  1.
        2   -1    0    0  501    0  0.00000000000E+00  0.00000000000E+00 -0.24296131042E+04  0.24296131042E+04  0.25500000920E-02 0. -1.
    10030    2    1    2    0    0  0.00000000000E+00  0.00000000000E+00 -0.80356431449E+03  0.40556618940E+04  0.39752582043E+04 0.  0.
        1    1    3    3  502    0 -0.85869854121E+03  0.15140800759E+04  0.57724567932E+03  0.18338522937E+04  0.50400001928E-02 0. -1.
       -1    1    3    3    0  502  0.85869854121E+03 -0.15140800759E+04 -0.13808099938E+04  0.22218096003E+04  0.50400001928E-02 0.  1.
</event>
<event>
 5   0  0.2401125E-07  0.3323855E+04  0.7818609E-02  0.8156852E-01
       -1   -1    0    0    0  501  0.00000000000E+00  0.00000000000E+00  0.11292372071E+04  0.11292372071E+04  0.50400001928E-02 0.  1.
        1   -1    0    0  501    0  0.00000000000E+00  0.00000000000E+00 -0.24459009870E+04  0.24459009870E+04  0.50400001928E-02 0. -1.
    10030    2    1    2    0    0  0.00000000000E+00  0.00000000000E+00 -0.13166637798E+04  0.35751381941E+04  0.33238546295E+04 0.  0.
        5    1    3    3  502    0  0.12628152518E+04  0.19488438463E+03 -0.18013552253E+04  0.22085255311E+04  0.46999998093E+01 0. -1.
       -5    1    3    3    0  502 -0.12628152518E+04 -0.19488438463E+03  0.48469144547E+03  0.13666126631E+04  0.46999998093E+01 0.  1.
</event>
<event>
 5   0  0.3579559E-07  0.3995355E+04  0.7818609E-02  0.8005484E-01
       -1   -1    0    0    0  501  0.00000000000E+00  0.00000000000E+00  0.11477979059E+04  0.11477979059E+04  0.50400001928E-02 0.  1.
        1   -1    0    0  501    0  0.00000000000E+00  0.00000000000E+00 -0.34768452290E+04  0.34768452290E+04  0.50400001928E-02 0. -1.
    10030    2    1    2    0    0  0.00000000000E+00  0.00000000000E+00 -0.23290473231E+04  0.46246431350E+04  0.39953551397E+04 0.  0.
        4    1    3    3  502    0  0.32740538815E+03  0.17968164264E+04 -0.21012952428E+04  0.27840953412E+04  0.12699999809E+01 0. -1.
       -4    1    3    3    0  502 -0.32740538815E+03 -0.17968164264E+04 -0.22775208029E+03  0.18405477938E+04  0.12699999809E+01 0.  1.
</event>
<event>
 5   0  0.5161550E-07  0.2866079E+04  0.7818609E-02  0.8283042E-01
        2   -1    0    0  501    0  0.00000000000E+00  0.00000000000E+00  0.19719796011E+04  0.19719796011E+04  0.25500000920E-02 0. -1.
       -2   -1    0    0    0  501  0.00000000000E+00  0.00000000000E+00 -0.10413913208E+04  0.10413913208E+04  0.25500000920E-02 0.  1.
    10030    2    1    2    0    0  0.00000000000E+00  0.00000000000E+00  0.93058828032E+03  0.30133709220E+04  0.28660791625E+04 0.  0.
        2    1    3    3  502    0  0.94378459721E+03 -0.96408944715E+03 -0.42653713457E+02  0.13498211612E+04  0.25500000920E-02 0.  1.
       -2    1    3    3    0  502 -0.94378459721E+03  0.96408944715E+03  0.97324199377E+03  0.16635497607E+04  0.25500000920E-02 0. -1.
</event>
<event>
 5   0  0.2713405E-07  0.4076589E+04  0.7818609E-02  0.7989272E-01
       -1   -1    0    0    0  501  0.00000000000E+00  0.00000000000E+00  0.13217902628E+04  0.13217902628E+04  0.50400001928E-02 0. -1.
        1   -1    0    0  501    0  0.00000000000E+00  0.00000000000E+00 -0.31431951510E+04  0.31431951510E+04  0.50400001928E-02 0.  1.
    10030    2    1    2    0    0  0.00000000000E+00  0.00000000000E+00 -0.18214048883E+04  0.44649854138E+04  0.40765891353E+04 0.  0.
        1    1    3    3  502    0  0.27895068050E+03 -0.96255279247E+03 -0.28547221827E+04  0.30255181542E+04  0.50400001928E-02 0.  1.
       -1    1    3    3    0  502 -0.27895068050E+03  0.96255279247E+03  0.10333172945E+04  0.14394672596E+04  0.50400001928E-02 0. -1.
</event>
<event>
 5   0  0.4449262E-07  0.3986226E+04  0.7818609E-02  0.8007331E-01
       -2   -1    0    0    0  501  0.00000000000E+00  0.00000000000E+00  0.23817708827E+04  0.23817708827E+04  0.25500000920E-02 0. -1.
        2   -1    0    0  501    0  0.00000000000E+00  0.00000000000E+00 -0.16678763782E+04  0.16678763782E+04  0.25500000920E-02 0.  1.
    10030    2    1    2    0    0  0.00000000000E+00  0.00000000000E+00  0.71389450451E+03  0.40496472609E+04  0.39862259813E+04 0.  0.
        1    1    3    3  502    0 -0.87805717388E+03 -0.11043835520E+04 -0.10732333599E+04  0.17727033805E+04  0.50400001928E-02 0.  1.
       -1    1    3    3    0  502  0.87805717388E+03  0.11043835520E+04  0.17871278644E+04  0.22769438804E+04  0.50400001928E-02 0. -1.
</event>
<event>
 5   0  0.2713405E-07  0.4101212E+04  0.7818609E-02  0.7984434E-01
        1   -1    0    0  501    0  0.00000000000E+00  0.00000000000E+00  0.26433059721E+04  0.26433059721E+04  0.50400001928E-02 0. -1.
       -1   -1    0    0    0  501  0.00000000000E+00  0.00000000000E+00 -0.15908051504E+04  0.15908051504E+04  0.50400001928E-02 0.  1.
    10030    2    1    2    0    0  0.00000000000E+00  0.00000000000E+00  0.10525008217E+04  0.42341111225E+04  0.41012118963E+04 0.  0.
        1    1    3    3  502    0  0.68532821833E+03 -0.34297533610E+03 -0.14374037044E+04  0.16289371558E+04  0.50400001928E-02 0.  1.
       -1    1    3    3    0  502 -0.68532821833E+03  0.34297533610E+03  0.24899045261E+04  0.26051739667E+04  0.50400001928E-02 0. -1.
</event>
<event>
 5   0  0.6609457E-07  0.2167804E+04  0.7818609E-02  0.8531949E-01
       -2   -1    0    0    0  501  0.00000000000E+00  0.00000000000E+00  0.90401224958E+03  0.90401224958E+03  0.25500000920E-02 0.  1.
        2   -1    0    0  501    0  0.00000000000E+00  0.00000000000E+00 -0.12995882542E+04  0.12995882542E+04  0.25500000920E-02 0. -1.
    10030    2    1    2    0    0  0.00000000000E+00  0.00000000000E+00 -0.39557600461E+03  0.22036005038E+04  0.21678041435E+04 0.  0.
        3    1    3    3  502    0 -0.98104650719E+03 -0.12753396920E+03  0.25238660195E+03  0.10209878401E+04  0.10100000352E+00 0.  1.
       -3    1    3    3    0  502  0.98104650719E+03  0.12753396920E+03 -0.64796260656E+03  0.11826126637E+04  0.10100000352E+00 0. -1.
</event>
<event>
 5   0  0.4449262E-07  0.2895506E+04  0.7818609E-02  0.8274216E-01
       -2   -1    0    0    0  501  0.00000000000E+00  0.00000000000E+00  0.14783530364E+04  0.14783530364E+04  0.25500000920E-02 0. -1.
        2   -1    0    0  501    0  0.00000000000E+00  0.00000000000E+00 -0.14177861335E+04  0.14177861335E+04  0.25500000920E-02 0.  1.
    10030    2    1    2    0    0  0.00000000000E+00  0.00000000000E+00  0.60566902922E+02  0.28961391699E+04  0.28955057834E+04 0.  0.
        1    1    3    3  502    0  0.11834983729E+04 -0.52913139052E+03 -0.61432630479E+03  0.14345888735E+04  0.50400001928E-02 0.  1.
       -1    1    3    3    0  502 -0.11834983729E+04  0.52913139052E+03  0.67489320771E+03  0.14615502964E+04  0.50400001928E-02 0. -1.
</event>
<event>
 5   0  0.7570277E-07  0.3955065E+04  0.7818609E-02  0.8013673E-01
       -2   -1    0    0    0  501  0.00000000000E+00  0.00000000000E+00  0.14889124942E+04  0.14889124942E+04  0.25500000920E-02 0.  1.
        2   -1    0    0  501    0  0.00000000000E+00  0.00000000000E+00 -0.26265042000E+04  0.26265042000E+04  0.25500000920E-02 0. -1.
    10030    2    1    2    0    0  0.00000000000E+00  0.00000000000E+00 -0.11375917059E+04  0.41154166942E+04  0.39550650662E+04 0.  0.
        5    1    3    3  502    0  0.11711036644E+04  0.45365297428E+03  0.10206585733E+04  0.16183481786E+04  0.46999998093E+01 0.  1.
       -5    1    3    3    0  502 -0.11711036644E+04 -0.45365297428E+03 -0.21582502792E+04  0.24970685156E+04  0.46999998093E+01 0. -1.
</event>
<event>
 5   0  0.5161550E-07  0.2390778E+04  0.7818609E-02  0.8442964E-01
       -2   -1    0    0    0  501  0.00000000000E+00  0.00000000000E+00  0.99918453847E+03  0.99918453847E+03  0.25500000920E-02 0.  1.
        2   -1    0    0  501    0  0.00000000000E+00  0.00000000000E+00 -0.14301207241E+04  0.14301207241E+04  0.25500000920E-02 0. -1.
    10030    2    1    2    0    0  0.00000000000E+00  0.00000000000E+00 -0.43093618568E+03  0.24293052626E+04  0.23907777109E+04 0.  0.
        2    1    3    3  502    0  0.11560246767E+03  0.11594867577E+04 -0.48656531580E+03  0.12627427602E+04  0.25500000920E-02 0.  1.
       -2    1    3    3    0  502 -0.11560246767E+03 -0.11594867577E+04  0.55629130120E+02  0.11665625024E+04  0.25500000920E-02 0. -1.
</event>
<event>
 5   0  0.7256473E-07  0.4018594E+04  0.7818609E-02  0.8000806E-01
        2   -1    0    0  501    0  0.00000000000E+00  0.00000000000E+00  0.18993599037E+04  0.18993599037E+04  0.25500000920E-02 0. -1.
       -2   -1    0    0    0  501  0.00000000000E+00  0.00000000000E+00 -0.21255975460E+04  0.21255975460E+04  0.25500000920E-02 0.  1.
    10030    2    1    2    0    0  0.00000000000E+00  0.00000000000E+00 -0.22623764232E+03  0.40249574496E+04  0.40185941572E+04 0.  0.
        4    1    3    3  502    0  0.94434544307E+03 -0.14014624920E+04 -0.12017565170E+04  0.20736696389E+04  0.12699999809E+01 0.  1.
       -4    1    3    3    0  502 -0.94434544307E+03  0.14014624920E+04  0.97551887470E+03  0.19512878107E+04  0.12699999809E+01 0. -1.
</event>
<event>
 5   0  0.2401125E-07  0.4005763E+04  0.7818609E-02  0.8003385E-01
        3   -1    0    0  501    0  0.00000000000E+00  0.00000000000E+00  0.23069405571E+04  0.23069405593E+04  0.10100000352E+00 0. -1.
       -3   -1    0    0    0  501  0.00000000000E+00  0.00000000000E+00 -0.17388984037E+04  0.17388984066E+04  0.10100000352E+00 0.  1.
    10030    2    1    2    0    0  0.00000000000E+00  0.00000000000E+00  0.56804215340E+03  0.40458389659E+04  0.40057634790E+04 0.  0.
        3    1    3    3  502    0 -0.47702140982E+03 -0.10045948694E+04  0.19664517385E+04  0.22591353937E+04  0.10100000352E+00 0. -1.
       -3    1    3    3    0  502  0.47702140982E+03  0.10045948694E+04 -0.13984095851E+04  0.17867035722E+04  0.10100000352E+00 0.  1.
</event>
<event>
 5   0  0.7570277E-07  0.2366903E+04  0.7818609E-02  0.8451999E-01
       -2   -1    0    0    0  501  0.00000000000E+00  0.00000000000E+00  0.67766075830E+03  0.67766075831E+03  0.25500000920E-02 0.  1.
        2   -1    0    0  501    0  0.00000000000E+00  0.00000000000E+00 -0.20667538066E+04  0.20667538066E+04  0.25500000920E-02 0. -1.
    10030    2    1    2    0    0  0.00000000000E+00  0.00000000000E+00 -0.13890930483E+04  0.27444145649E+04  0.23669034216E+04 0.  0.
        5    1    3    3  502    0 -0.66313814129E+03  0.76287742793E+03 -0.14081798718E+04  0.17334147818E+04  0.46999998093E+01 0. -1.
       -5    1    3    3    0  502  0.66313814129E+03 -0.76287742793E+03  0.19086823554E+02  0.10109997830E+04  0.46999998093E+01 0.  1.
</event>
<event>
 5   0  0.2647879E-07  0.4013798E+04  0.7818609E-02  0.8001769E-01
        1   -1    0    0  501    0  0.00000000000E+00  0.00000000000E+00  0.25182395249E+04  0.25182395249E+04  0.50400001928E-02 0.  1.
       -1   -1    0    0    0  501  0.00000000000E+00  0.00000000000E+00 -0.15993889796E+04  0.15993889796E+04  0.50400001928E-02 0. -1.
    10030    2    1    2    0    0  0.00000000000E+00  0.00000000000E+00  0.91885054529E+03  0.41176285045E+04  0.40137984723E+04 0.  0.
        2    1    3    3  502    0  0.69637596116E+03  0.16851830887E+04 -0.40063115561E+03  0.18668922959E+04  0.25500000920E-02 0. -1.
       -2    1    3    3    0  502 -0.69637596116E+03 -0.16851830887E+04  0.13194817009E+04  0.22507362086E+04  0.25500000920E-02 0.  1.
</event>
<event>
 5   0  0.6043512E-07  0.3068503E+04  0.7818609E-02  0.8224435E-01
        2   -1    0    0  501    0  0.00000000000E+00  0.00000000000E+00  0.17303974311E+04  0.17303974311E+04  0.25500000920E-02 0.  1.
       -2   -1    0    0    0  501  0.00000000000E+00  0.00000000000E+00 -0.13603394611E+04  0.13603394611E+04  0.25500000920E-02 0. -1.
    10030    2    1    2    0    0  0.00000000000E+00  0.00000000000E+00  0.37005796998E+03  0.30907368923E+04  0.30685031589E+04 0.  0.
        3    1    3    3  502    0  0.14952618360E+04 -0.61476414494E+02  0.52562195369E+03  0.15861480877E+04  0.10100000352E+00 0.  1.
       -3    1    3    3    0  502 -0.14952618360E+04  0.61476414494E+02 -0.15556398371E+03  0.15045888046E+04  0.10100000352E+00 0. -1.
</event>
<event>
 5   0  0.2601252E-07  0.3976531E+04  0.7818609E-02  0.8009298E-01
       -1   -1    0    0    0  501  0.00000000000E+00  0.00000000000E+00  0.23909569188E+04  0.23909569188E+04  0.50400001928E-02 0.  1.
        1   -1    0    0  501    0  0.00000000000E+00  0.00000000000E+00 -0.16533962819E+04  0.16533962819E+04  0.50400001928E-02 0. -1.
    10030    2    1    2    0    0  0.00000000000E+00  0.00000000000E+00  0.73756063695E+03  0.40443532007E+04  0.39765307894E+04 0.  0.
        3    1    3    3  502    0  0.80257763799E+03  0.13701732473E+04  0.15857220390E+04  0.22441078378E+04  0.10100000352E+00 0.  1.
       -3    1    3    3    0  502 -0.80257763799E+03 -0.13701732473E+04 -0.84816140203E+03  0.18002453629E+04  0.10100000352E+00 0. -1.
</event>
<event>
 5   0  0.2713405E-07  0.2693033E+04  0.7818609E-02  0.8337269E-01
       -1   -1    0    0    0  501  0.00000000000E+00  0.00000000000E+00  0.68730573407E+03  0.68730573408E+03  0.50400001928E-02 0.  1.
        1   -1    0    0  501    0  0.00000000000E+00  0.00000000000E+00 -0.26379912655E+04  0.26379912655E+04  0.50400001928E-02 0. -1.
    10030    2    1    2    0    0  0.00000000000E+00  0.00000000000E+00 -0.19506855314E+04  0.33252969996E+04  0.26930328800E+04 0.  0.
        1    1    3    3  502    0 -0.81322678933E+03  0.74165450719E+03 -0.17520264728E+02  0.11007707203E+04  0.50400001928E-02 0.  1.
       -1    1    3    3    0  502  0.81322678933E+03 -0.74165450719E+03 -0.19331652667E+04  0.22245262793E+04  0.50400001928E-02 0. -1.
</event>
<event>
 5   0  0.4449262E-07  0.2635261E+04  0.7818609E-02  0.8356322E-01
       -2   -1    0    0    0  501  0.00000000000E+00  0.00000000000E+00  0.24118953446E+04  0.24118953446E+04  0.25500000920E-02 0. -1.
        2   -1    0    0  501    0  0.00000000000E+00  0.00000000000E+00 -0.71982802846E+03  0.71982802847E+03  0.25500000920E-02 0.  1.
    10030    2    1    2    0    0  0.00000000000E+00  0.00000000000E+00  0.16920673161E+04  0.31317233731E+04  0.26352607998E+04 0.  0.
        1    1    3    3  502    0 -0.89571328367E+03  0.88659392463E+03  0.38916092292E+03  0.13190137595E+04  0.50400001928E-02 0.  1.
       -1    1    3    3    0  502  0.89571328367E+03 -0.88659392463E+03  0.13029063932E+04  0.18127096136E+04  0.50400001928E-02 0. -1.
</event>
<event>
 5   0  0.6043512E-07  0.3931586E+04  0.7818609E-02  0.8018492E-01
        2   -1    0    0  501    0  0.00000000000E+00  0.00000000000E+00  0.21209910346E+04  0.21209910346E+04  0.25500000920E-02 0.  1.
       -2   -1    0    0    0  501  0.00000000000E+00  0.00000000000E+00 -0.18219510614E+04  0.18219510614E+04  0.25500000920E-02 0. -1.
    10030    2    1    2    0    0  0.00000000000E+00  0.00000000000E+00  0.29903997325E+03  0.39429420960E+04  0.39315858717E+04 0.  0.
        3    1    3    3  502    0 -0.13620460526E+04  0.35344606544E+03  0.15261641505E+04  0.20758782708E+04  0.10100000352E+00 0.  1.
       -3    1    3    3    0  502  0.13620460526E+04 -0.35344606544E+03 -0.12271241773E+04  0.18670638252E+04  0.10100000352E+00 0. -1.
</event>
<event>
 5   0  0.2601252E-07  0.2093149E+04  0.7818609E-02  0.8564267E-01
       -1   -1    0    0    0  501  0.00000000000E+00  0.00000000000E+00  0.55097291298E+03  0.55097291301E+03  0.50400001928E-02 0. -1.
        1   -1    0    0  501    0  0.00000000000E+00  0.00000000000E+00 -0.19879706155E+04  0.19879706155E+04  0.50400001928E-02 0.  1.
    10030    2    1    2    0    0  0.00000000000E+00  0.00000000000E+00 -0.14369977026E+04  0.25389435286E+04  0.20931487869E+04 0.  0.
        3    1    3    3  502    0  0.90243607795E+03  0.21538685451E+03 -0.13106724699E+03  0.93699573388E+03  0.10100000352E+00 0.  1.
       -3    1    3    3    0  502 -0.90243607795E+03 -0.21538685451E+03 -0.13059304556E+04  0.16019477947E+04  0.10100000352E+00 0. -1.
</event>
<event>
 5   0  0.7570277E-07  0.3398235E+04  0.7818609E-02  0.8138340E-01
        2   -1    0    0  501    0  0.00000000000E+00  0.00000000000E+00  0.21164397031E+04  0.21164397031E+04  0.25500000920E-02 0. -1.
       -2   -1    0    0    0  501  0.00000000000E+00  0.00000000000E+00 -0.13640836892E+04  0.13640836892E+04  0.25500000920E-02 0.  1.
    10030    2    1    2    0    0  0.00000000000E+00  0.00000000000E+00  0.75235601390E+03  0.34805233923E+04  0.33982353528E+04 0.  0.
        5    1    3    3  502    0  0.12134285761E+04  0.11716297069E+04  0.58571373134E+03  0.17855553042E+04  0.46999998093E+01 0. -1.
       -5    1    3    3    0  502 -0.12134285761E+04 -0.11716297069E+04  0.16664228256E+03  0.16949680881E+04  0.46999998093E+01 0.  1.
</event>
<event>
 5   0  0.7256473E-07  0.2791998E+04  0.7818609E-02  0.8305757E-01
        2   -1    0    0  501    0  0.00000000000E+00  0.00000000000E+00  0.31440605046E+04  0.31440605046E+04  0.25500000920E-02 0.  1.
       -2   -1    0    0    0  501  0.00000000000E+00  0.00000000000E+00 -0.61983948132E+03  0.61983948132E+03  0.25500000920E-02 0. -1.
    10030    2    1    2    0    0  0.00000000000E+00  0.00000000000E+00  0.25242210233E+04  0.37638999859E+04  0.27919977310E+04 0.  0.
        4    1    3    3  502    0  0.13817296569E+04  0.17616116965E+02  0.15294432326E+04  0.20612339476E+04  0.12699999809E+01 0.  1.
       -4    1    3    3    0  502 -0.13817296569E+04 -0.17616116965E+02  0.99477779072E+03  0.17026660383E+04  0.12699999809E+01 0. -1.
</event>
<event>
 5   0  0.6043512E-07  0.2878232E+04  0.7818609E-02  0.8279384E-01
       -2   -1    0    0    0  501  0.00000000000E+00  0.00000000000E+00  0.15268643282E+04  0.15268643282E+04  0.25500000920E-02 0. -1.
        2   -1    0    0  501    0  0.00000000000E+00  0.00000000000E+00 -0.13564102418E+04  0.13564102418E+04  0.25500000920E-02 0.  1.
    10030    2    1    2    0    0  0.00000000000E+00  0.00000000000E+00  0.17045408642E+03  0.28832745699E+04  0.28782316880E+04 0.  0.
        3    1    3    3  502    0 -0.27541089266E+03  0.94447109866E+03  0.11373898993E+04  0.15038392897E+04  0.10100000352E+00 0. -1.
       -3    1    3    3    0  502  0.27541089266E+03 -0.94447109866E+03 -0.96693581286E+03  0.13794352802E+04  0.10100000352E+00 0.  1.
</event>
<event>
 5   0  0.2647879E-07  0.2109964E+04  0.7818609E-02  0.8556867E-01
       -1   -1    0    0    0  501  0.00000000000E+00  0.00000000000E+00  0.95518463000E+03  0.95518463001E+03  0.50400001928E-02 0. -1.
        1   -1    0    0  501    0  0.00000000000E+00  0.00000000000E+00 -0.11652056569E+04  0.11652056569E+04  0.50400001928E-02 0.  1.
    10030    2    1    2    0    0  0.00000000000E+00  0.00000000000E+00 -0.21002102692E+03  0.21203902869E+04  0.21099635393E+04 0.  0.
        2    1    3    3  502    0  0.68468925916E+03  0.23226236390E+02 -0.91125167098E+03  0.11400519495E+04  0.25500000920E-02 0.  1.
       -2    1    3    3    0  502 -0.68468925916E+03 -0.23226236390E+02  0.70123064407E+03  0.98033833744E+03  0.25500000920E-02 0. -1.
</event>
<event>
 5   0  0.5161550E-07  0.2592079E+04  0.7818609E-02  0.8370897E-01
        2   -1    0    0  501    0  0.00000000000E+00  0.00000000000E+00  0.10789814632E+04  0.10789814632E+04  0.25500000920E-02 0.  1.
       -2   -1    0    0    0  501  0.00000000000E+00  0.00000000000E+00 -0.15567629210E+04  0.15567629210E+04  0.25500000920E-02 0. -1.
    10030    2    1    2    0    0  0.00000000000E+00  0.00000000000E+00 -0.47778145777E+03  0.26357443842E+04  0.25920789605E+04 0.  0.
        2    1    3    3  502    0 -0.75818273265E+03  0.96403565205E+03  0.18710881912E+03  0.12406512422E+04  0.25500000920E-02 0.  1.
       -2    1    3    3    0  502  0.75818273265E+03 -0.96403565205E+03 -0.66489027689E+03  0.13950931420E+04  0.25500000920E-02 0. -1.
</event>
<event>
 5   0  0.2401125E-07  0.4000232E+04  0.7818609E-02  0.8004500E-01
        1   -1    0    0  501    0  0.00000000000E+00  0.00000000000E+00  0.20943157093E+04  0.20943157093E+04  0.50400001928E-02 0.  1.
       -1   -1    0    0    0  501  0.00000000000E+00  0.00000000000E+00 -0.19101535672E+04  0.19101535672E+04  0.50400001928E-02 0. -1.
    10030    2    1    2    0    0  0.00000000000E+00  0.00000000000E+00  0.18416214204E+03  0.40044692765E+04  0.40002323048E+04 0.  0.
        5    1    3    3  502    0  0.63664005220E+03  0.69772862529E+03  0.18569875136E+04  0.20834011871E+04  0.46999998093E+01 0.  1.
       -5    1    3    3    0  502 -0.63664005220E+03 -0.69772862529E+03 -0.16728253716E+04  0.19210680895E+04  0.46999998093E+01 0. -1.
</event>
<event>
 5   0  0.7570277E-07  0.4142746E+04  0.7818609E-02  0.7976353E-01
        2   -1    0    0  501    0  0.00000000000E+00  0.00000000000E+00  0.26041878968E+04  0.26041878968E+04  0.25500000920E-02 0.  1.
       -2   -1    0    0    0  501  0.00000000000E+00  0.00000000000E+00 -0.16475714783E+04  0.16475714783E+04  0.25500000920E-02 0. -1.
    10030    2    1    2    0    0  0.00000000000E+00  0.00000000000E+00  0.95661641859E+03  0.42517593751E+04  0.41427458058E+04 0.  0.
        5    1    3    3  502    0  0.61642971680E+03  0.12634726223E+04 -0.10829769770E+04  0.17746013316E+04  0.46999998093E+01 0. -1.
       -5    1    3    3    0  502 -0.61642971680E+03 -0.12634726223E+04  0.20395933956E+04  0.24771580435E+04  0.46999998093E+01 0.  1.
</event>
<event>
 5   0  0.7256473E-07  0.4080981E+04  0.7818609E-02  0.7988406E-01
        2   -1    0    0  501    0  0.00000000000E+00  0.00000000000E+00  0.25033316905E+04  0.25033316905E+04  0.25500000920E-02 0.  1.
       -2   -1    0    0    0  501  0.00000000000E+00  0.00000000000E+00 -0.16632239561E+04  0.16632239561E+04  0.25500000920E-02 0. -1.
    10030    2    1    2    0    0  0.00000000000E+00  0.00000000000E+00  0.84010773438E+03  0.41665556466E+04  0.40809808810E+04 0.  0.
        4    1    3    3  502    0 -0.48422161845E+03 -0.12628765672E+03  0.24397106171E+04  0.24905036953E+04  0.12699999809E+01 0.  1.
       -4    1    3    3    0  502  0.48422161845E+03  0.12628765672E+03 -0.15996028828E+04  0.16760519513E+04  0.12699999809E+01 0. -1.
</event>
<event>
 5   0  0.2713405E-07  0.3828556E+04  0.7818609E-02  0.8040054E-01
        1   -1    0    0  501    0  0.00000000000E+00  0.00000000000E+00  0.26641670808E+04  0.26641670808E+04  0.50400001928E-02 0.  1.
       -1   -1    0    0    0  501  0.00000000000E+00  0.00000000000E+00 -0.13754621399E+04  0.13754621399E+04  0.50400001928E-02 0. -1.
    10030    2    1    2    0    0  0.00000000000E+00  0.00000000000E+00  0.12887049409E+04  0.40396292207E+04  0.38285563618E+04 0.  0.
        1    1    3    3  502    0 -0.18984228089E+04  0.24105601896E+03  0.59327073337E+03  0.20035187368E+04  0.50400001928E-02 0.  1.
       -1    1    3    3    0  502  0.18984228089E+04 -0.24105601896E+03  0.69543420752E+03  0.20361104839E+04  0.50400001928E-02 0. -1.
</event>
<event>
 5   0  0.2713405E-07  0.3882954E+04  0.7818609E-02  0.8028584E-01
       -1   -1    0    0    0  501  0.00000000000E+00  0.00000000000E+00  0.16664984553E+04  0.16664984553E+04  0.50400001928E-02 0. -1.
        1   -1    0    0  501    0  0.00000000000E+00  0.00000000000E+00 -0.22618279087E+04  0.22618279087E+04  0.50400001928E-02 0.  1.
    10030    2    1    2    0    0  0.00000000000E+00  0.00000000000E+00 -0.59532945340E+03  0.39283263641E+04  0.38829538839E+04 0.  0.
        1    1    3    3  502    0  0.13140601953E+04 -0.11855800951E+04 -0.11050999060E+04  0.20865282555E+04  0.50400001928E-02 0.  1.
       -1    1    3    3    0  502 -0.13140601953E+04  0.11855800951E+04  0.50977045258E+03  0.18417981086E+04  0.50400001928E-02 0. -1.
</event>
<event>
 5   0  0.5161550E-07  0.2194506E+04  0.7818609E-02  0.8520718E-01
       -2   -1    0    0    0  501  0.00000000000E+00  0.00000000000E+00  0.10602816366E+04  0.10602816366E+04  0.25500000920E-02 0.  1.
        2   -1    0    0  501    0  0.00000000000E+00  0.00000000000E+00 -0.11355135244E+04  0.11355135244E+04  0.25500000920E-02 0. -1.
    10030    2    1    2    0    0  0.00000000000E+00  0.00000000000E+00 -0.75231887783E+02  0.21957951611E+04  0.21945059928E+04 0.  0.
        2    1    3    3  502    0  0.62880979029E+03 -0.84344993961E+03  0.27426346558E+03  0.10872120316E+04  0.25500000920E-02 0.  1.
       -2    1    3    3    0  502 -0.62880979029E+03  0.84344993961E+03 -0.34949535336E+03  0.11085831295E+04  0.25500000920E-02 0. -1.
</event>
<event>
 5   0  0.4449262E-07  0.4156653E+04  0.7818609E-02  0.7973669E-01
        2   -1    0    0  501    0  0.00000000000E+00  0.00000000000E+00  0.21288037868E+04  0.21288037868E+04  0.25500000920E-02 0. -1.
       -2   -1    0    0    0  501  0.00000000000E+00  0.00000000000E+00 -0.20290456791E+04  0.20290456791E+04  0.25500000920E-02 0.  1.
    10030    2    1    2    0    0  0.00000000000E+00  0.00000000000E+00  0.99758107787E+02  0.41578494659E+04  0.41566525596E+04 0.  0.
        1    1    3    3  502    0  0.72855060363E+03 -0.15908457403E+04 -0.10719892453E+04  0.20520080637E+04  0.50400001928E-02 0.  1.
       -1    1    3    3    0  502 -0.72855060363E+03  0.15908457403E+04  0.11717473531E+04  0.21058414022E+04  0.50400001928E-02 0. -1.
</event>
<event>
 5   0  0.6043512E-07  0.3926873E+04  0.7818609E-02  0.8019463E-01
        2   -1    0    0  501    0  0.00000000000E+00  0.00000000000E+00  0.24603027668E+04  0.24603027668E+04  0.25500000920E-02 0. -1.
       -2   -1    0    0    0  501  0.00000000000E+00  0.00000000000E+00 -0.15669142864E+04  0.15669142864E+04  0.25500000920E-02 0.  1.
    10030    2    1    2    0    0  0.00000000000E+00  0.00000000000E+00  0.89338848045E+03  0.40272170532E+04  0.39268733385E+04 0.  0.
        3    1    3    3  502    0  0.10353080965E+04  0.16623272783E+04  0.30206322301E+03  0.19815239176E+04  0.10100000352E+00 0.  1.
       -3    1    3    3    0  502 -0.10353080965E+04 -0.16623272783E+04  0.59132525744E+03  0.20456931356E+04  0.10100000352E+00 0. -1.
</event>
<event>
 5   0  0.2647879E-07  0.4014447E+04  0.7818609E-02  0.8001638E-01
       -1   -1    0    0    0  501  0.00000000000E+00  0.00000000000E+00  0.15445467282E+04  0.15445467282E+04  0.50400001928E-02 0.  1.
        1   -1    0    0  501    0  0.00000000000E+00  0.00000000000E+00 -0.26084978430E+04  0.26084978430E+04  0.50400001928E-02 0. -1.
    10030    2    1    2    0    0  0.00000000000E+00  0.00000000000E+00 -0.10639511148E+04  0.41530445712E+04  0.40144473139E+04 0.  0.
        2    1    3    3  502    0 -0.17619065035E+04 -0.29658141964E+03  0.41430165210E+03  0.18340994860E+04  0.25500000920E-02 0.  1.
       -2    1    3    3    0  502  0.17619065035E+04  0.29658141964E+03 -0.14782527669E+04  0.23189450852E+04  0.25500000920E-02 0. -1.
</event>
<event>
 5   0  0.2601252E-07  0.2271218E+04  0.7818609E-02  0.8489357E-01
        1   -1    0    0  501    0  0.00000000000E+00  0.00000000000E+00  0.27086550967E+04  0.27086550967E+04  0.50400001928E-02 0. -1.
       -1   -1    0    0    0  501  0.00000000000E+00  0.00000000000E+00 -0.47610636034E+03  0.47610636037E+03  0.50400001928E-02 0.  1.
    10030    2    1    2    0    0  0.00000000000E+00  0.00000000000E+00  0.22325487363E+04  0.31847614570E+04  0.22712181045E+04 0.  0.
        3    1    3    3  502    0  0.61515964680E+03 -0.19081756918E+03 -0.19521958270E+03  0.67301072163E+03  0.10100000352E+00 0.  1.
       -3    1    3    3    0  502 -0.61515964680E+03  0.19081756918E+03  0.24277683190E+04  0.25117507354E+04  0.10100000352E+00 0. -1.
</event>
<event>
 5   0  0.5161550E-07  0.3947696E+04  0.7818609E-02  0.8015182E-01
        2   -1    0    0  501    0  0.00000000000E+00  0.00000000000E+00  0.26872484797E+04  0.26872484797E+04  0.25500000920E-02 0.  1.
       -2   -1    0    0    0  501  0.00000000000E+00  0.00000000000E+00 -0.14498387181E+04  0.14498387181E+04  0.25500000920E-02 0. -1.
    10030    2    1    2    0    0  0.00000000000E+00  0.00000000000E+00  0.12374097616E+04  0.41370871978E+04  0.39476964883E+04 0.  0.
        2    1    3    3  502    0  0.18399479352E+03  0.49423470395E+03  0.26120499748E+04  0.26647564800E+04  0.25500000920E-02 0.  1.
       -2    1    3    3    0  502 -0.18399479352E+03 -0.49423470395E+03 -0.13746402133E+04  0.14723307178E+04  0.25500000920E-02 0. -1.
</event>
<event>
 5   0  0.2647879E-07  0.3074116E+04  0.7818609E-02  0.8222878E-01
        1   -1    0    0  501    0  0.00000000000E+00  0.00000000000E+00  0.18857726628E+04  0.18857726628E+04  0.50400001928E-02 0.  1.
       -1   -1    0    0    0  501  0.00000000000E+00  0.00000000000E+00 -0.12528272964E+04  0.12528272964E+04  0.50400001928E-02 0. -1.
    10030    2    1    2    0    0  0.00000000000E+00  0.00000000000E+00  0.63294536643E+03  0.31385999592E+04  0.30741161115E+04 0.  0.
        2    1    3    3  502    0 -0.45088685470E+03 -0.39373400786E+03 -0.11289291951E+04  0.12778131914E+04  0.25500000920E-02 0. -1.
       -2    1    3    3    0  502  0.45088685470E+03  0.39373400786E+03  0.17618745615E+04  0.18607867678E+04  0.25500000920E-02 0.  1.
</event>
<event>
 5   0  0.6043512E-07  0.3605814E+04  0.7818609E-02  0.8089161E-01
        2   -1    0    0  501    0  0.00000000000E+00  0.00000000000E+00  0.17118403229E+04  0.17118403229E+04  0.25500000920E-02 0. -1.
       -2   -1    0    0    0  501  0.00000000000E+00  0.00000000000E+00 -0.18988178760E+04  0.18988178760E+04  0.25500000920E-02 0.  1.
    10030    2    1    2    0    0  0.00000000000E+00  0.00000000000E+00 -0.18697755306E+03  0.36106581988E+04  0.36058136424E+04 0.  0.
        3    1    3    3  502    0  0.47729573709E+03 -0.16968054431E+04 -0.47282893186E+03  0.18249731893E+04  0.10100000352E+00 0. -1.
       -3    1    3    3    0  502 -0.47729573709E+03  0.16968054431E+04  0.28585137881E+03  0.17856850096E+04  0.10100000352E+00 0.  1.
</event>
<event>
 5   0  0.2601252E-07  0.3473684E+04  0.7818609E-02  0.8120055E-01
       -1   -1    0    0    0  501  0.00000000000E+00  0.00000000000E+00  0.32301803440E+04  0.32301803440E+04  0.50400001928E-02 0.  1.
        1   -1    0    0  501    0  0.00000000000E+00  0.00000000000E+00 -0.93388606872E+03  0.93388606874E+03  0.50400001928E-02 0. -1.
    10030    2    1    2    0    0  0.00000000000E+00  0.00000000000E+00  0.22962942753E+04  0.41640664127E+04  0.34736841669E+04 0.  0.
        3    1    3    3  502    0 -0.31592978424E+03  0.63896863305E+03  0.30467615949E+04  0.31290332004E+04  0.10100000352E+00 0.  1.
       -3    1    3    3    0  502  0.31592978424E+03 -0.63896863305E+03 -0.75046731966E+03  0.10350332123E+04  0.10100000352E+00 0. -1.
</event>
<event>
 5   0  0.2647879E-07  0.3044236E+04  0.7818609E-02  0.8231211E-01
       -1   -1    0    0    0  501  0.00000000000E+00  0.00000000000E+00  0.12044360329E+04  0.12044360329E+04  0.50400001928E-02 0. -1.
        1   -1    0    0  501    0  0.00000000000E+00  0.00000000000E+00 -0.19235912179E+04  0.19235912179E+04  0.50400001928E-02 0.  1.
    10030    2    1    2    0    0  0.00000000000E+00  0.00000000000E+00 -0.71915518495E+03  0.31280272508E+04  0.30442355857E+04 0.  0.
        2    1    3    3  502    0  0.14256132136E+04  0.17505671706E+03 -0.87725498408E+03  0.16830312523E+04  0.25500000920E-02 0.  1.
       -2    1    3    3    0  502 -0.14256132136E+04 -0.17505671706E+03  0.15809979913E+03  0.14449959985E+04  0.25500000920E-02 0. -1.
</event>
<event>
 5   0  0.5161550E-07  0.2528991E+04  0.7818609E-02  0.8392730E-01
       -2   -1    0    0    0  501  0.00000000000E+00  0.00000000000E+00  0.10636273215E+04  0.10636273215E+04  0.25500000920E-02 0.  1.
        2   -1    0    0  501    0  0.00000000000E+00  0.00000000000E+00 -0.15032979371E+04  0.15032979371E+04  0.25500000920E-02 0. -1.
    10030    2    1    2    0    0  0.00000000000E+00  0.00000000000E+00 -0.43967061560E+03  0.25669252586E+04  0.25289909120E+04 0.  0.
        2    1    3    3  502    0 -0.10654245714E+04 -0.13711019080E+03 -0.89693986579E+03  0.13994391178E+04  0.25500000920E-02 0. -1.
       -2    1    3    3    0  502  0.10654245714E+04  0.13711019080E+03  0.45726925019E+03  0.11674861408E+04  0.25500000920E-02 0.  1.
</event>
<event>
 5   0  0.2601252E-07  0.1981229E+04  0.7818609E-02  0.8615447E-01
       -1   -1    0    0    0  501  0.00000000000E+00  0.00000000000E+00  0.54015179679E+03  0.54015179682E+03  0.50400001928E-02 0. -1.
        1   -1    0    0  501    0  0.00000000000E+00  0.00000000000E+00 -0.18167437388E+04  0.18167437388E+04  0.50400001928E-02 0.  1.
    10030    2    1    2    0    0  0.00000000000E+00  0.00000000000E+00 -0.12765919420E+04  0.23568955356E+04  0.19812293102E+04 0.  0.
        3    1    3    3  502    0  0.73906041380E+03  0.50559270504E+03 -0.11422807006E+04  0.14514267077E+04  0.10100000352E+00 0.  1.
       -3    1    3    3    0  502 -0.73906041380E+03 -0.50559270504E+03 -0.13431124144E+03  0.90546882796E+03  0.10100000352E+00 0. -1.
</event>
<event>
 5   0  0.7256473E-07  0.3920686E+04  0.7818609E-02  0.8020741E-01
       -2   -1    0    0    0  501  0.00000000000E+00  0.00000000000E+00  0.19244446381E+04  0.19244446381E+04  0.25500000920E-02 0.  1.
        2   -1    0    0  501    0  0.00000000000E+00  0.00000000000E+00 -0.19969107874E+04  0.19969107874E+04  0.25500000920E-02 0. -1.
    10030    2    1    2    0    0  0.00000000000E+00  0.00000000000E+00 -0.72466149317E+02  0.39213554255E+04  0.39206857857E+04 0.  0.
        4    1    3    3  502    0 -0.52650782283E+03 -0.18426352652E+04  0.37666601527E+03  0.19530473901E+04  0.12699999809E+01 0.  1.
       -4    1    3    3    0  502  0.52650782283E+03  0.18426352652E+04 -0.44913216458E+03  0.19683080354E+04  0.12699999809E+01 0. -1.
</event>
<event>
 5   0  0.3579559E-07  0.2163883E+04  0.7818609E-02  0.8533613E-01
       -1   -1    0    0    0  501  0.00000000000E+00  0.00000000000E+00  0.14862444425E+04  0.14862444425E+04  0.50400001928E-02 0. -1.
        1   -1    0    0  501    0  0.00000000000E+00  0.00000000000E+00 -0.78762133694E+03  0.78762133695E+03  0.50400001928E-02 0.  1.
    10030    2    1    2    0    0  0.00000000000E+00  0.00000000000E+00  0.69862310555E+03  0.22738657794E+04  0.21638833932E+04 0.  0.
        4    1    3    3  502    0 -0.77804845795E+03  0.65155711387E+03 -0.44867625048E+02  0.10158251780E+04  0.12699999809E+01 0.  1.
       -4    1    3    3    0  502  0.77804845795E+03 -0.65155711387E+03  0.74349073060E+03  0.12580406015E+04  0.12699999809E+01 0. -1.
</event>
<event>
 5   0  0.7570277E-07  0.3987936E+04  0.7818609E-02  0.8006985E-01
       -2   -1    0    0    0  501  0.00000000000E+00  0.00000000000E+00  0.12464237103E+04  0.12464237103E+04  0.25500000920E-02 0.  1.
        2   -1    0    0  501    0  0.00000000000E+00  0.00000000000E+00 -0.31898522364E+04  0.31898522364E+04  0.25500000920E-02 0. -1.
    10030    2    1    2    0    0  0.00000000000E+00  0.00000000000E+00 -0.19434285260E+04  0.44362759467E+04  0.39879355360E+04 0.  0.
        5    1    3    3  502    0  0.17171500579E+04  0.90870757420E+03 -0.14711067357E+04  0.24369101121E+04  0.46999998093E+01 0. -1.
       -5    1    3    3    0  502 -0.17171500579E+04 -0.90870757420E+03 -0.47232179033E+03  0.19993658346E+04  0.46999998093E+01 0.  1.
</event>
<event>
 5   0  0.8323283E-07  0.2031316E+04  0.7818609E-02  0.8592118E-01
        2   -1    0    0  501    0  0.00000000000E+00  0.00000000000E+00  0.15474666007E+04  0.15474666007E+04  0.25500000920E-02 0.  1.
       -2   -1    0    0    0  501  0.00000000000E+00  0.00000000000E+00 -0.66661266019E+03  0.66661266019E+03  0.25500000920E-02 0. -1.
    10030    2    1    2    0    0  0.00000000000E+00  0.00000000000E+00  0.88085394051E+03  0.22140792609E+04  0.20313156596E+04 0.  0.
        4    1    3    3  502    0 -0.50017701336E+03  0.61475477715E+03 -0.25190646845E+03  0.83160024198E+03  0.12699999809E+01 0. -1.
       -4    1    3    3    0  502  0.50017701336E+03 -0.61475477715E+03  0.11327604090E+04  0.13824790189E+04  0.12699999809E+01 0.  1.
</event>
<event>
 5   0  0.5161550E-07  0.2404318E+04  0.7818609E-02  0.8437889E-01
       -2   -1    0    0    0  501  0.00000000000E+00  0.00000000000E+00  0.10199378060E+04  0.10199378061E+04  0.25500000920E-02 0.  1.
        2   -1    0    0  501    0  0.00000000000E+00  0.00000000000E+00 -0.14169355003E+04  0.14169355003E+04  0.25500000920E-02 0. -1.
    10030    2    1    2    0    0  0.00000000000E+00  0.00000000000E+00 -0.39699769429E+03  0.24368733064E+04  0.24043178538E+04 0.  0.
        2    1    3    3  502    0 -0.88192155563E+03  0.26876962476E+03 -0.98041314925E+03  0.13458204504E+04  0.25500000920E-02 0. -1.
       -2    1    3    3    0  502  0.88192155563E+03 -0.26876962476E+03  0.58341545496E+03  0.10910528560E+04  0.25500000920E-02 0.  1.
</event>
<event>
 5   0  0.7256473E-07  0.2952754E+04  0.7818609E-02  0.8257352E-01
       -2   -1    0    0    0  501  0.00000000000E+00  0.00000000000E+00  0.14880728879E+04  0.14880728879E+04  0.25500000920E-02 0. -1.
        2   -1    0    0  501    0  0.00000000000E+00  0.00000000000E+00 -0.14647729590E+04  0.14647729590E+04  0.25500000920E-02 0.  1.
    10030    2    1    2    0    0  0.00000000000E+00  0.00000000000E+00  0.23299928889E+02  0.29528458468E+04  0.29527539194E+04 0.  0.
        4    1    3    3  502    0 -0.98419244980E+02 -0.73004507196E+03 -0.12678566170E+04  0.14663267606E+04  0.12699999809E+01 0.  1.
       -4    1    3    3    0  502  0.98419244980E+02  0.73004507196E+03  0.12911565458E+04  0.14865190862E+04  0.12699999809E+01 0. -1.
</event>
<event>
 5   0  0.7570277E-07  0.4092551E+04  0.7818609E-02  0.7986132E-01
       -2   -1    0    0    0  501  0.00000000000E+00  0.00000000000E+00  0.28986573602E+04  0.28986573602E+04  0.25500000920E-02 0.  1.
        2   -1    0    0  501    0  0.00000000000E+00  0.00000000000E+00 -0.14445460096E+04  0.14445460096E+04  0.25500000920E-02 0. -1.
    10030    2    1    2    0    0  0.00000000000E+00  0.00000000000E+00  0.14541113506E+04  0.43432033698E+04  0.40925512448E+04 0.  0.
        5    1    3    3  502    0  0.17544719746E+03 -0.19467968592E+04  0.84653695482E+02  0.19565244870E+04  0.46999998093E+01 0.  1.
       -5    1    3    3    0  502 -0.17544719746E+03  0.19467968592E+04  0.13694576551E+04  0.23866788827E+04  0.46999998093E+01 0. -1.
</event>
<event>
 5   0  0.7256473E-07  0.2114411E+04  0.7818609E-02  0.8554922E-01
       -2   -1    0    0    0  501  0.00000000000E+00  0.00000000000E+00  0.59399071724E+03  0.59399071724E+03  0.25500000920E-02 0.  1.
        2   -1    0    0  501    0  0.00000000000E+00  0.00000000000E+00 -0.18816519841E+04  0.18816519841E+04  0.25500000920E-02 0. -1.
    10030    2    1    2    0    0  0.00000000000E+00  0.00000000000E+00 -0.12876612668E+04  0.24756427013E+04  0.21144113239E+04 0.  0.
        4    1    3    3  502    0  0.97147581425E+03  0.40492561839E+03 -0.76063462949E+03  0.12985748598E+04  0.12699999809E+01 0.  1.
       -4    1    3    3    0  502 -0.97147581425E+03 -0.40492561839E+03 -0.52702663736E+03  0.11770678415E+04  0.12699999809E+01 0. -1.
</event>
<event>
 5   0  0.2647879E-07  0.4084586E+04  0.7818609E-02  0.7987697E-01
       -1   -1    0    0    0  501  0.00000000000E+00  0.00000000000E+00  0.32235964998E+04  0.32235964998E+04  0.50400001928E-02 0.  1.
        1   -1    0    0  501    0  0.00000000000E+00  0.00000000000E+00 -0.12938839785E+04  0.12938839785E+04  0.50400001928E-02 0. -1.
    10030    2    1    2    0    0  0.00000000000E+00  0.00000000000E+00  0.19297125212E+04  0.45174804783E+04  0.40845855918E+04 0.  0.
        2    1    3    3  502    0 -0.12318378744E+04  0.11085481095E+04 -0.35523316076E+03  0.16948433728E+04  0.25500000920E-02 0. -1.
       -2    1    3    3    0  502  0.12318378744E+04 -0.11085481095E+04  0.22849456820E+04  0.28226371055E+04  0.25500000920E-02 0.  1.
</event>
<event>
 5   0  0.7570277E-07  0.3943761E+04  0.7818609E-02  0.8015989E-01
       -2   -1    0    0    0  501  0.00000000000E+00  0.00000000000E+00  0.13622445135E+04  0.13622445135E+04  0.25500000920E-02 0.  1.
        2   -1    0    0  501    0  0.00000000000E+00  0.00000000000E+00 -0.28543420328E+04  0.28543420328E+04  0.25500000920E-02 0. -1.
    10030    2    1    2    0    0  0.00000000000E+00  0.00000000000E+00 -0.14920975192E+04  0.42165865463E+04  0.39437605272E+04 0.  0.
        5    1    3    3  502    0  0.35525472256E+03 -0.18781767152E+04 -0.22825688257E+03  0.19250654497E+04  0.46999998093E+01 0.  1.
       -5    1    3    3    0  502 -0.35525472256E+03  0.18781767152E+04 -0.12638406367E+04  0.22915210966E+04  0.46999998093E+01 0. -1.
</event>
<event>
 5   0  0.3579559E-07  0.3961393E+04  0.7818609E-02  0.8012380E-01
        1   -1    0    0  501    0  0.00000000000E+00  0.00000000000E+00  0.19888001905E+04  0.19888001905E+04  0.50400001928E-02 0. -1.
       -1   -1    0    0    0  501  0.00000000000E+00  0.00000000000E+00 -0.19726259650E+04  0.19726259650E+04  0.50400001928E-02 0.  1.
    10030    2    1    2    0    0  0.00000000000E+00  0.00000000000E+00  0.16174225427E+02  0.39614261555E+04  0.39613931363E+04 0.  0.
        4    1    3    3  502    0  0.32405024133E+03 -0.15950723348E+04  0.11367651920E+04  0.19853213913E+04  0.12699999809E+01 0. -1.
       -4    1    3    3    0  502 -0.32405024133E+03  0.15950723348E+04 -0.11205909665E+04  0.19761047642E+04  0.12699999809E+01 0.  1.
</event>
<event>
 5   0  0.7256473E-07  0.3904319E+04  0.7818609E-02  0.8024132E-01
       -2   -1    0    0    0  501  0.00000000000E+00  0.00000000000E+00  0.19756447459E+04  0.19756447459E+04  0.25500000920E-02 0.  1.
        2   -1    0    0  501    0  0.00000000000E+00  0.00000000000E+00 -0.19289535521E+04  0.19289535521E+04  0.25500000920E-02 0. -1.
    10030    2    1    2    0    0  0.00000000000E+00  0.00000000000E+00  0.46691193812E+02  0.39045982980E+04  0.39043191214E+04 0.  0.
        4    1    3    3  502    0  0.12352916544E+04  0.12783985918E+04 -0.78335754717E+03  0.19426525913E+04  0.12699999809E+01 0. -1.
       -4    1    3    3    0  502 -0.12352916544E+04 -0.12783985918E+04  0.83004874099E+03  0.19619457067E+04  0.12699999809E+01 0.  1.
</event>
<event>
 5   0  0.2713405E-07  0.4082449E+04  0.7818609E-02  0.7988117E-01
       -1   -1    0    0    0  501  0.00000000000E+00  0.00000000000E+00  0.20793216477E+04  0.20793216477E+04  0.50400001928E-02 0. -1.
        1   -1    0    0  501    0  0.00000000000E+00  0.00000000000E+00 -0.20038257302E+04  0.20038257302E+04  0.50400001928E-02 0.  1.
    10030    2    1    2    0    0  0.00000000000E+00  0.00000000000E+00  0.75495917501E+02  0.40831473778E+04  0.40824493721E+04 0.  0.
        1    1    3    3  502    0  0.10927592825E+04  0.67923303272E+03 -0.15471736853E+04  0.20122690612E+04  0.50400001928E-02 0.  1.
       -1    1    3    3    0  502 -0.10927592825E+04 -0.67923303272E+03  0.16226696028E+04  0.20708783166E+04  0.50400001928E-02 0. -1.
</event>
<event>
 5   0  0.2601252E-07  0.2516915E+04  0.7818609E-02  0.8396984E-01
        1   -1    0    0  501    0  0.00000000000E+00  0.00000000000E+00  0.15981494623E+04  0.15981494623E+04  0.50400001928E-02 0. -1.
       -1   -1    0    0    0  501  0.00000000000E+00  0.00000000000E+00 -0.99096803590E+03  0.99096803592E+03  0.50400001928E-02 0.  1.
    10030    2    1    2    0    0  0.00000000000E+00  0.00000000000E+00  0.60718142637E+03  0.25891174982E+04  0.25169148049E+04 0.  0.
        3    1    3    3  502    0  0.99216507402E+03 -0.39285045445E+03 -0.38262293413E+03  0.11336328037E+04  0.10100000352E+00 0.  1.
       -3    1    3    3    0  502 -0.99216507402E+03  0.39285045445E+03  0.98980436050E+03  0.14554846945E+04  0.10100000352E+00 0. -1.
</event>
<event>
 5   0  0.2713405E-07  0.2092197E+04  0.7818609E-02  0.8564688E-01
       -1   -1    0    0    0  501  0.00000000000E+00  0.00000000000E+00  0.10761977227E+04  0.10761977227E+04  0.50400001928E-02 0. -1.
        1   -1    0    0  501    0  0.00000000000E+00  0.00000000000E+00 -0.10168413317E+04  0.10168413317E+04  0.50400001928E-02 0.  1.
    10030    2    1    2    0    0  0.00000000000E+00  0.00000000000E+00  0.59356390998E+02  0.20930390544E+04  0.20921972426E+04 0.  0.
        1    1    3    3  502    0  0.44406734286E+02 -0.10171160270E+04 -0.21088759042E+03  0.10396973340E+04  0.50400001928E-02 0.  1.
       -1    1    3    3    0  502 -0.44406734286E+02  0.10171160270E+04  0.27024398142E+03  0.10533417204E+04  0.50400001928E-02 0. -1.
</event>
<event>
 5   0  0.5161550E-07  0.3938325E+04  0.7818609E-02  0.8017105E-01
        2   -1    0    0  501    0  0.00000000000E+00  0.00000000000E+00  0.21706260991E+04  0.21706260991E+04  0.25500000920E-02 0.  1.
       -2   -1    0    0    0  501  0.00000000000E+00  0.00000000000E+00 -0.17863974203E+04  0.17863974203E+04  0.25500000920E-02 0. -1.
    10030    2    1    2    0    0  0.00000000000E+00  0.00000000000E+00  0.38422867885E+03  0.39570235194E+04  0.39383249555E+04 0.  0.
        2    1    3    3  502    0  0.18347508550E+04  0.27509475140E+03  0.85525784529E+03  0.20429032782E+04  0.25500000920E-02 0.  1.
       -2    1    3    3    0  502 -0.18347508550E+04 -0.27509475140E+03 -0.47102916644E+03  0.19141202412E+04  0.25500000920E-02 0. -1.
</event>
<event>
 5   0  0.5161550E-07  0.2913115E+04  0.7818609E-02  0.8268986E-01
        2   -1    0    0  501    0  0.00000000000E+00  0.00000000000E+00  0.24156794216E+04  0.24156794216E+04  0.25500000920E-02 0.  1.
       -2   -1    0    0    0  501  0.00000000000E+00  0.00000000000E+00 -0.87824576577E+03  0.87824576577E+03  0.25500000920E-02 0. -1.
    10030    2    1    2    0    0  0.00000000000E+00  0.00000000000E+00  0.15374336559E+04  0.32939251874E+04  0.29131153245E+04 0.  0.
        2    1    3    3  502    0 -0.52060535346E+03  0.56511429120E+03 -0.63044719012E+03  0.99390530520E+03  0.25500000920E-02 0. -1.
       -2    1    3    3    0  502  0.52060535346E+03 -0.56511429120E+03  0.21678808460E+04  0.23000198822E+04  0.25500000920E-02 0.  1.
</event>
<event>
 5   0  0.2401125E-07  0.3761508E+04  0.7818609E-02  0.8054466E-01
        1   -1    0    0  501    0  0.00000000000E+00  0.00000000000E+00  0.27738898287E+04  0.27738898287E+04  0.50400001928E-02 0. -1.
       -1   -1    0    0    0  501  0.00000000000E+00  0.00000000000E+00 -0.12751899023E+04  0.12751899023E+04  0.50400001928E-02 0.  1.
    10030    2    1    2    0    0  0.00000000000E+00  0.00000000000E+00  0.14986999264E+04  0.40490797310E+04  0.37615083674E+04 0.  0.
        5    1    3    3  502    0 -0.12100400854E+04 -0.14343491736E+04  0.88405545921E+03  0.20743988780E+04  0.46999998093E+01 0. -1.
       -5    1    3    3    0  502  0.12100400854E+04  0.14343491736E+04  0.61464446722E+03  0.19746808530E+04  0.46999998093E+01 0.  1.
</event>
<event>
 5   0  0.7506071E-07  0.2065128E+04  0.7818609E-02  0.8576762E-01
       -2   -1    0    0    0  501  0.00000000000E+00  0.00000000000E+00  0.12469492667E+04  0.12469492667E+04  0.25500000920E-02 0. -1.
        2   -1    0    0  501    0  0.00000000000E+00  0.00000000000E+00 -0.85503763462E+03  0.85503763462E+03  0.25500000920E-02 0.  1.
    10030    2    1    2    0    0  0.00000000000E+00  0.00000000000E+00  0.39191163211E+03  0.21019869014E+04  0.20651281331E+04 0.  0.
        4    1    3    3  502    0 -0.39785402421E+03 -0.92894239404E+03 -0.19878745683E+02  0.10107514895E+04  0.12699999809E+01 0.  1.
       -4    1    3    3    0  502  0.39785402421E+03  0.92894239404E+03  0.41179037780E+03  0.10912354119E+04  0.12699999809E+01 0. -1.
</event>
<event>
 5   0  0.2401125E-07  0.3158175E+04  0.7818609E-02  0.8199951E-01
       -1   -1    0    0    0  501  0.00000000000E+00  0.00000000000E+00  0.11808846305E+04  0.11808846305E+04  0.50400001928E-02 0. -1.
        1   -1    0    0  501    0  0.00000000000E+00  0.00000000000E+00 -0.21115667523E+04  0.21115667523E+04  0.50400001928E-02 0.  1.
    10030    2    1    2    0    0  0.00000000000E+00  0.00000000000E+00 -0.93068212180E+03  0.32924513828E+04  0.31581746146E+04 0.  0.
        5    1    3    3  502    0 -0.47150008529E+03 -0.12561649735E+04  0.40266446575E+03  0.14008652802E+04  0.46999998093E+01 0. -1.
       -5    1    3    3    0  502  0.47150008529E+03  0.12561649735E+04 -0.13333465876E+04  0.18915861026E+04  0.46999998093E+01 0.  1.
</event>
<event>
 5   0  0.2401125E-07  0.2108485E+04  0.7818609E-02  0.8557515E-01
       -1   -1    0    0    0  501  0.00000000000E+00  0.00000000000E+00  0.10348040527E+04  0.10348040527E+04  0.50400001928E-02 0. -1.
        1   -1    0    0  501    0  0.00000000000E+00  0.00000000000E+00 -0.10740465801E+04  0.10740465801E+04  0.50400001928E-02 0.  1.
    10030    2    1    2    0    0  0.00000000000E+00  0.00000000000E+00 -0.39242527443E+02  0.21088506328E+04  0.21084854791E+04 0.  0.
        5    1    3    3  502    0 -0.95942395627E+03  0.35753565655E+03  0.23157873785E+03  0.10497508635E+04  0.46999998093E+01 0.  1.
       -5    1    3    3    0  502  0.95942395627E+03 -0.35753565655E+03 -0.27082126530E+03  0.10590997693E+04  0.46999998093E+01 0. -1.
</event>
<event>
 5   0  0.2713405E-07  0.3134362E+04  0.7818609E-02  0.8206370E-01
        1   -1    0    0  501    0  0.00000000000E+00  0.00000000000E+00  0.18436398785E+04  0.18436398785E+04  0.50400001928E-02 0. -1.
       -1   -1    0    0    0  501  0.00000000000E+00  0.00000000000E+00 -0.13321780694E+04  0.13321780694E+04  0.50400001928E-02 0.  1.
    10030    2    1    2    0    0  0.00000000000E+00  0.00000000000E+00  0.51146180912E+03  0.31758179478E+04  0.31343622087E+04 0.  0.
        1    1    3    3  502    0 -0.13736540484E+04  0.71880636078E+03  0.48777648645E+03  0.16252796466E+04  0.50400001928E-02 0. -1.
       -1    1    3    3    0  502  0.13736540484E+04 -0.71880636078E+03  0.23685322668E+02  0.15505383012E+04  0.50400001928E-02 0.  1.
</event>
<event>
 5   0  0.7570277E-07  0.2265287E+04  0.7818609E-02  0.8491735E-01
        2   -1    0    0  501    0  0.00000000000E+00  0.00000000000E+00  0.12245976344E+04  0.12245976344E+04  0.25500000920E-02 0.  1.
       -2   -1    0    0    0  501  0.00000000000E+00  0.00000000000E+00 -0.10475939550E+04  0.10475939550E+04  0.25500000920E-02 0. -1.
    10030    2    1    2    0    0  0.00000000000E+00  0.00000000000E+00  0.17700367933E+03  0.22721915894E+04  0.22652868066E+04 0.  0.
        5    1    3    3  502    0 -0.53668833668E+03 -0.87731126710E+03 -0.38744374547E+03  0.10990196431E+04  0.46999998093E+01 0. -1.
       -5    1    3    3    0  502  0.53668833668E+03  0.87731126710E+03  0.56444742480E+03  0.11731719462E+04  0.46999998093E+01 0.  1.
</event>
<event>
 5   0  0.6043512E-07  0.3810656E+04  0.7818609E-02  0.8043872E-01
        2   -1    0    0  501    0  0.00000000000E+00  0.00000000000E+00  0.23731945979E+04  0.23731945979E+04  0.25500000920E-02 0. -1.
       -2   -1    0    0    0  501  0.00000000000E+00  0.00000000000E+00 -0.15296998070E+04  0.15296998070E+04  0.25500000920E-02 0.  1.
    10030    2    1    2    0    0  0.00000000000E+00  0.00000000000E+00  0.84349479093E+03  0.39028944049E+04  0.38106562785E+04 0.  0.
        3    1    3    3  502    0 -0.11062778621E+04  0.39915599804E+03 -0.11135698779E+04  0.16196339407E+04  0.10100000352E+00 0.  1.
       -3    1    3    3    0  502  0.11062778621E+04 -0.39915599804E+03  0.19570646688E+04  0.22832604641E+04  0.10100000352E+00 0. -1.
</event>
<event>
 5   0  0.2601252E-07  0.2216942E+04  0.7818609E-02  0.8511409E-01
       -1   -1    0    0    0  501  0.00000000000E+00  0.00000000000E+00  0.78648842172E+03  0.78648842174E+03  0.50400001928E-02 0. -1.
        1   -1    0    0  501    0  0.00000000000E+00  0.00000000000E+00 -0.15622707939E+04  0.15622707939E+04  0.50400001928E-02 0.  1.
    10030    2    1    2    0    0  0.00000000000E+00  0.00000000000E+00 -0.77578237216E+03  0.23487592156E+04  0.22169419397E+04 0.  0.
        3    1    3    3  502    0 -0.10798615956E+04  0.21392142962E+03 -0.52539426662E+03  0.12197961262E+04  0.10100000352E+00 0. -1.
       -3    1    3    3    0  502  0.10798615956E+04 -0.21392142962E+03 -0.25038810555E+03  0.11289630895E+04  0.10100000352E+00 0.  1.
</event>
<event>
 5   0  0.7570277E-07  0.4094614E+04  0.7818609E-02  0.7985727E-01
        2   -1    0    0  501    0  0.00000000000E+00  0.00000000000E+00  0.23316763094E+04  0.23316763094E+04  0.25500000920E-02 0. -1.
       -2   -1    0    0    0  501  0.00000000000E+00  0.00000000000E+00 -0.17976189352E+04  0.17976189352E+04  0.25500000920E-02 0.  1.
    10030    2    1    2    0    0  0.00000000000E+00  0.00000000000E+00  0.53405737421E+03  0.41292952447E+04  0.40946137716E+04 0.  0.
        5    1    3    3  502    0 -0.24503577604E+03 -0.19121337080E+04 -0.42811778735E+03  0.19747416992E+04  0.46999998093E+01 0.  1.
       -5    1    3    3    0  502  0.24503577604E+03  0.19121337080E+04  0.96217516156E+03  0.21545535455E+04  0.46999998093E+01 0. -1.
</event>
<event>
 5   0  0.4449262E-07  0.3006792E+04  0.7818609E-02  0.8241794E-01
        2   -1    0    0  501    0  0.00000000000E+00  0.00000000000E+00  0.15484598599E+04  0.15484598599E+04  0.25500000920E-02 0.  1.
       -2   -1    0    0    0  501  0.00000000000E+00  0.00000000000E+00 -0.14596440822E+04  0.14596440822E+04  0.25500000920E-02 0. -1.
    10030    2    1    2    0    0  0.00000000000E+00  0.00000000000E+00  0.88815777721E+02  0.30081039421E+04  0.30067924910E+04 0.  0.
        1    1    3    3  502    0  0.12743777702E+04  0.65164674975E+03  0.50451943646E+03  0.15176369953E+04  0.50400001928E-02 0.  1.
       -1    1    3    3    0  502 -0.12743777702E+04 -0.65164674975E+03 -0.41570365874E+03  0.14904669468E+04  0.50400001928E-02 0. -1.
</event>
<event>
 5   0  0.2713405E-07  0.3955318E+04  0.7818609E-02  0.8013621E-01
        1   -1    0    0  501    0  0.00000000000E+00  0.00000000000E+00  0.19511767619E+04  0.19511767619E+04  0.50400001928E-02 0.  1.
       -1   -1    0    0    0  501  0.00000000000E+00  0.00000000000E+00 -0.20045009560E+04  0.20045009560E+04  0.50400001928E-02 0. -1.
    10030    2    1    2    0    0  0.00000000000E+00  0.00000000000E+00 -0.53324194043E+02  0.39556777179E+04  0.39553182853E+04 0.  0.
        1    1    3    3  502    0 -0.75095610207E+03 -0.17816949445E+04  0.38902425437E+03  0.19722352327E+04  0.50400001928E-02 0.  1.
       -1    1    3    3    0  502  0.75095610207E+03  0.17816949445E+04 -0.44234844841E+03  0.19834424852E+04  0.50400001928E-02 0. -1.
</event>
<event>
 5   0  0.2713405E-07  0.2137470E+04  0.7818609E-02  0.8544915E-01
       -1   -1    0    0    0  501  0.00000000000E+00  0.00000000000E+00  0.14115925086E+04  0.14115925086E+04  0.50400001928E-02 0. -1.
        1   -1    0    0  501    0  0.00000000000E+00  0.00000000000E+00 -0.80915285713E+03  0.80915285714E+03  0.50400001928E-02 0.  1.
    10030    2    1    2    0    0  0.00000000000E+00  0.00000000000E+00  0.60243965143E+03  0.22207453657E+04  0.21374696362E+04 0.  0.
        1    1    3    3  502    0 -0.49688048083E+03  0.87386394016E+03 -0.75774799439E+02  0.10081022857E+04  0.50400001928E-02 0.  1.
       -1    1    3    3    0  502  0.49688048083E+03 -0.87386394016E+03  0.67821445087E+03  0.12126430800E+04  0.50400001928E-02 0. -1.
</event>
<event>
 5   0  0.2713405E-07  0.4036183E+04  0.7818609E-02  0.7997287E-01
       -1   -1    0    0    0  501  0.00000000000E+00  0.00000000000E+00  0.32736464679E+04  0.32736464679E+04  0.50400001928E-02 0.  1.
        1   -1    0    0  501    0  0.00000000000E+00  0.00000000000E+00 -0.12440848896E+04  0.12440848896E+04  0.50400001928E-02 0. -1.
    10030    2    1    2    0    0  0.00000000000E+00  0.00000000000E+00  0.20295615783E+04  0.45177313576E+04  0.40361833976E+04 0.  0.
        1    1    3    3  502    0 -0.19363726217E+04  0.45035390381E+03  0.14030636886E+04  0.24332992588E+04  0.50400001928E-02 0. -1.
       -1    1    3    3    0  502  0.19363726217E+04 -0.45035390381E+03  0.62649788970E+03  0.20844320988E+04  0.50400001928E-02 0.  1.
</event>
<event>
 5   0  0.6043512E-07  0.3205694E+04  0.7818609E-02  0.8187315E-01
       -2   -1    0    0    0  501  0.00000000000E+00  0.00000000000E+00  0.11807471534E+04  0.11807471534E+04  0.25500000920E-02 0. -1.
        2   -1    0    0  501    0  0.00000000000E+00  0.00000000000E+00 -0.21758416856E+04  0.21758416856E+04  0.25500000920E-02 0.  1.
    10030    2    1    2    0    0  0.00000000000E+00  0.00000000000E+00 -0.99509453220E+03  0.33565888390E+04  0.32056942315E+04 0.  0.
        3    1    3    3  502    0  0.50419254755E+02 -0.10542270826E+04  0.76554393837E+03  0.13038383239E+04  0.10100000352E+00 0. -1.
       -3    1    3    3    0  502 -0.50419254755E+02  0.10542270826E+04 -0.17606384706E+04  0.20527505151E+04  0.10100000352E+00 0.  1.
</event>
<event>
 5   0  0.2647879E-07  0.2151820E+04  0.7818609E-02  0.8538754E-01
       -1   -1    0    0    0  501  0.00000000000E+00  0.00000000000E+00  0.71770939994E+03  0.71770939995E+03  0.50400001928E-02 0.  1.
        1   -1    0    0  501    0  0.00000000000E+00  0.00000000000E+00 -0.16128838940E+04  0.16128838940E+04  0.50400001928E-02 0. -1.
    10030    2    1    2    0    0  0.00000000000E+00  0.00000000000E+00 -0.89517449410E+03  0.23305932940E+04  0.21518196316E+04 0.  0.
        2    1    3    3  502    0 -0.48260289669E+03 -0.67952579305E+03  0.28932216312E+03  0.88225176304E+03  0.25500000920E-02 0.  1.
       -2    1    3    3    0  502  0.48260289669E+03  0.67952579305E+03 -0.11844966572E+04  0.14483415309E+04  0.25500000920E-02 0. -1.
</event>
<event>
 5   0  0.7570277E-07  0.3991630E+04  0.7818609E-02  0.8006237E-01
       -2   -1    0    0    0  501  0.00000000000E+00  0.00000000000E+00  0.28942891778E+04  0.28942891778E+04  0.25500000920E-02 0.  1.
        2   -1    0    0  501    0  0.00000000000E+00  0.00000000000E+00 -0.13762542059E+04  0.13762542059E+04  0.25500000920E-02 0. -1.
    10030    2    1    2    0    0  0.00000000000E+00  0.00000000000E+00  0.15180349719E+04  0.42705433837E+04  0.39916300701E+04 0.  0.
        5    1    3    3  502    0 -0.74390135202E+03 -0.14320811130E+03  0.27344815867E+04  0.28374829379E+04  0.46999998093E+01 0.  1.
       -5    1    3    3    0  502  0.74390135202E+03  0.14320811130E+03 -0.12164466148E+04  0.14330604458E+04  0.46999998093E+01 0. -1.
</event>
<event>
 5   0  0.5626480E-07  0.1988991E+04  0.7818609E-02  0.8611785E-01
       -2   -1    0    0    0  501  0.00000000000E+00  0.00000000000E+00  0.77424258191E+03  0.77424258192E+03  0.25500000920E-02 0.  1.
        2   -1    0    0  501    0  0.00000000000E+00  0.00000000000E+00 -0.12774054583E+04  0.12774054583E+04  0.25500000920E-02 0. -1.
    10030    2    1    2    0    0  0.00000000000E+00  0.00000000000E+00 -0.50316287641E+03  0.20516480402E+04  0.19889914029E+04 0.  0.
        1    1    3    3  502    0  0.83123362005E+03 -0.32673887883E+03 -0.70275476245E+03  0.11364734410E+04  0.50400001928E-02 0. -1.
       -1    1    3    3    0  502 -0.83123362005E+03  0.32673887883E+03  0.19959188604E+03  0.91517459920E+03  0.50400001928E-02 0.  1.
</event>
<event>
 5   0  0.5161550E-07  0.4005095E+04  0.7818609E-02  0.8003520E-01
        2   -1    0    0  501    0  0.00000000000E+00  0.00000000000E+00  0.22112803489E+04  0.22112803489E+04  0.25500000920E-02 0.  1.
       -2   -1    0    0    0  501  0.00000000000E+00  0.00000000000E+00 -0.18135176479E+04  0.18135176479E+04  0.25500000920E-02 0. -1.
    10030    2    1    2    0    0  0.00000000000E+00  0.00000000000E+00  0.39776270099E+03  0.40247979968E+04  0.40050947240E+04 0.  0.
        2    1    3    3  502    0  0.39043502015E+03  0.18455645684E+04 -0.47647233260E+03  0.19456551505E+04  0.25500000920E-02 0. -1.
       -2    1    3    3    0  502 -0.39043502015E+03 -0.18455645684E+04  0.87423503358E+03  0.20791428462E+04  0.25500000920E-02 0.  1.
</event>
<event>
 5   0  0.7256473E-07  0.3995023E+04  0.7818609E-02  0.8005551E-01
        2   -1    0    0  501    0  0.00000000000E+00  0.00000000000E+00  0.19587891275E+04  0.19587891275E+04  0.25500000920E-02 0.  1.
       -2   -1    0    0    0  501  0.00000000000E+00  0.00000000000E+00 -0.20369992738E+04  0.20369992738E+04  0.25500000920E-02 0. -1.
    10030    2    1    2    0    0  0.00000000000E+00  0.00000000000E+00 -0.78210146369E+02  0.39957884013E+04  0.39950229187E+04 0.  0.
        4    1    3    3  502    0 -0.12454024358E+03 -0.12857474780E+04 -0.15630090246E+04  0.20277217939E+04  0.12699999809E+01 0. -1.
       -4    1    3    3    0  502  0.12454024358E+03  0.12857474780E+04  0.14847988783E+04  0.19680666074E+04  0.12699999809E+01 0.  1.
</event>
<event>
 5   0  0.2601252E-07  0.3604761E+04  0.7818609E-02  0.8089402E-01
       -1   -1    0    0    0  501  0.00000000000E+00  0.00000000000E+00  0.17021452034E+04  0.17021452034E+04  0.50400001928E-02 0. -1.
        1   -1    0    0  501    0  0.00000000000E+00  0.00000000000E+00 -0.19085182514E+04  0.19085182515E+04  0.50400001928E-02 0.  1.
    10030    2    1    2    0    0  0.00000000000E+00  0.00000000000E+00 -0.20637304801E+03  0.36106634549E+04  0.36047608450E+04 0.  0.
        3    1    3    3  502    0  0.55063107884E+03 -0.17153424892E+04 -0.48501000210E+02  0.18022060919E+04  0.10100000352E+00 0.  1.
       -3    1    3    3    0  502 -0.55063107884E+03  0.17153424892E+04 -0.15787204780E+03  0.18084573630E+04  0.10100000352E+00 0. -1.
</event>
<event>
 5   0  0.2713405E-07  0.1983287E+04  0.7818609E-02  0.8614475E-01
        1   -1    0    0  501    0  0.00000000000E+00  0.00000000000E+00  0.14112357714E+04  0.14112357714E+04  0.50400001928E-02 0. -1.
       -1   -1    0    0    0  501  0.00000000000E+00  0.00000000000E+00 -0.69680539059E+03  0.69680539060E+03  0.50400001928E-02 0.  1.
    10030    2    1    2    0    0  0.00000000000E+00  0.00000000000E+00  0.71443038081E+03  0.21080411620E+04  0.19832868607E+04 0.  0.
        1    1    3    3  502    0  0.18736591684E+03  0.86763563424E+02 -0.67370343213E+03  0.70463481124E+03  0.50400001928E-02 0.  1.
       -1    1    3    3    0  502 -0.18736591684E+03 -0.86763563424E+02  0.13881338129E+04  0.14034063508E+04  0.50400001928E-02 0. -1.
</event>
<event>
 5   0  0.7256473E-07  0.2512708E+04  0.7818609E-02  0.8398472E-01
        2   -1    0    0  501    0  0.00000000000E+00  0.00000000000E+00  0.22775338334E+04  0.22775338334E+04  0.25500000920E-02 0.  1.
       -2   -1    0    0    0  501  0.00000000000E+00  0.00000000000E+00 -0.69304142374E+03  0.69304142374E+03  0.25500000920E-02 0. -1.
    10030    2    1    2    0    0  0.00000000000E+00  0.00000000000E+00  0.15844924097E+04  0.29705752571E+04  0.25127079341E+04 0.  0.
        4    1    3    3  502    0 -0.10905985085E+04 -0.18882281055E+03  0.89481377790E+02  0.11104358110E+04  0.12699999809E+01 0. -1.
       -4    1    3    3    0  502  0.10905985085E+04  0.18882281055E+03  0.14950110319E+04  0.18601394461E+04  0.12699999809E+01 0.  1.
</event>
<event>
 5   0  0.2401125E-07  0.3977267E+04  0.7818609E-02  0.8009148E-01
       -1   -1    0    0    0  501  0.00000000000E+00  0.00000000000E+00  0.19388532747E+04  0.19388532747E+04  0.50400001928E-02 0. -1.
        1   -1    0    0  501    0  0.00000000000E+00  0.00000000000E+00 -0.20396913901E+04  0.20396913901E+04  0.50400001928E-02 0.  1.
    10030    2    1    2    0    0  0.00000000000E+00  0.00000000000E+00 -0.10083811535E+03  0.39785446648E+04  0.39772665644E+04 0.  0.
        5    1    3    3  502    0  0.97292546968E+02 -0.19007897144E+04  0.52611054773E+03  0.19746599141E+04  0.46999998093E+01 0. -1.
       -5    1    3    3    0  502 -0.97292546968E+02  0.19007897144E+04 -0.62694866308E+03  0.20038847507E+04  0.46999998093E+01 0.  1.
</event>
<event>
 5   0  0.6043512E-07  0.3985982E+04  0.7818609E-02  0.8007380E-01
        2   -1    0    0  501    0  0.00000000000E+00  0.00000000000E+00  0.21338168331E+04  0.21338168331E+04  0.25500000920E-02 0. -1.
       -2   -1    0    0    0  501  0.00000000000E+00  0.00000000000E+00 -0.18614594157E+04  0.18614594157E+04  0.25500000920E-02 0.  1.
    10030    2    1    2    0    0  0.00000000000E+00  0.00000000000E+00  0.27235741733E+03  0.39952762488E+04  0.39859821552E+04 0.  0.
        3    1    3    3  502    0  0.15081806776E+04  0.84209341133E+03 -0.86026360164E+03  0.19297107929E+04  0.10100000352E+00 0.  1.
       -3    1    3    3    0  502 -0.15081806776E+04 -0.84209341133E+03  0.11326210190E+04  0.20655654559E+04  0.10100000352E+00 0. -1.
</event>
<event>
 5   0  0.2601252E-07  0.2706303E+04  0.7818609E-02  0.8332963E-01
       -1   -1    0    0    0  501  0.00000000000E+00  0.00000000000E+00  0.10149555187E+04  0.10149555188E+04  0.50400001928E-02 0.  1.
        1   -1    0    0  501    0  0.00000000000E+00  0.00000000000E+00 -0.18040384810E+04  0.18040384810E+04  0.50400001928E-02 0. -1.
    10030    2    1    2    0    0  0.00000000000E+00  0.00000000000E+00 -0.78908296227E+03  0.28189939998E+04  0.27063028747E+04 0.  0.
        3    1    3    3  502    0 -0.80689450292E+03 -0.10799886136E+04 -0.51585862382E+03  0.14434556711E+04  0.10100000352E+00 0. -1.
       -3    1    3    3    0  502  0.80689450292E+03  0.10799886136E+04 -0.27322433845E+03  0.13755383287E+04  0.10100000352E+00 0.  1.
</event>
<event>
 5   0  0.2713405E-07  0.2756966E+04  0.7818609E-02  0.8316754E-01
        1   -1    0    0  501    0  0.00000000000E+00  0.00000000000E+00  0.97430252614E+03  0.97430252615E+03  0.50400001928E-02 0. -1.
       -1   -1    0    0    0  501  0.00000000000E+00  0.00000000000E+00 -0.19503344970E+04  0.19503344970E+04  0.50400001928E-02 0.  1.
    10030    2    1    2    0    0  0.00000000000E+00  0.00000000000E+00 -0.97603197090E+03  0.29246370232E+04  0.27569663236E+04 0.  0.
        1    1    3    3  502    0 -0.12721376767E+04  0.82680831211E+02 -0.10443591236E+04  0.16479855483E+04  0.50400001928E-02 0.  1.
       -1    1    3    3    0  502  0.12721376767E+04 -0.82680831211E+02  0.68327152698E+02  0.12766514749E+04  0.50400001928E-02 0. -1.
</event>
<event>
 5   0  0.5161550E-07  0.2624554E+04  0.7818609E-02  0.8359908E-01
        2   -1    0    0  501    0  0.00000000000E+00  0.00000000000E+00  0.11718815311E+04  0.11718815311E+04  0.25500000920E-02 0. -1.
       -2   -1    0    0    0  501  0.00000000000E+00  0.00000000000E+00 -0.14694918721E+04  0.14694918721E+04  0.25500000920E-02 0.  1.
    10030    2    1    2    0    0  0.00000000000E+00  0.00000000000E+00 -0.29761034103E+03  0.26413734032E+04  0.26245535887E+04 0.  0.
        2    1    3    3  502    0 -0.43648555578E+03  0.12169319922E+04  0.77641851904E+02  0.12951723326E+04  0.25500000920E-02 0. -1.
       -2    1    3    3    0  502  0.43648555578E+03 -0.12169319922E+04 -0.37525219293E+03  0.13462010706E+04  0.25500000920E-02 0.  1.
</event>
<event>
 5   0  0.6043512E-07  0.3901423E+04  0.7818609E-02  0.8024733E-01
        2   -1    0    0  501    0  0.00000000000E+00  0.00000000000E+00  0.26841571225E+04  0.26841571225E+04  0.25500000920E-02 0.  1.
       -2   -1    0    0    0  501  0.00000000000E+00  0.00000000000E+00 -0.14176798661E+04  0.14176798661E+04  0.25500000920E-02 0. -1.
    10030    2    1    2    0    0  0.00000000000E+00  0.00000000000E+00  0.12664772563E+04  0.41018369886E+04  0.39014230789E+04 0.  0.
        3    1    3    3  502    0 -0.47036404285E+02  0.59023705160E+02 -0.14161442505E+04  0.14181540006E+04  0.10100000352E+00 0. -1.
       -3    1    3    3    0  502  0.47036404285E+02 -0.59023705160E+02  0.26826215068E+04  0.26836829880E+04  0.10100000352E+00 0.  1.
</event>
<event>
 5   0  0.7256473E-07  0.3980989E+04  0.7818609E-02  0.8008393E-01
       -2   -1    0    0    0  501  0.00000000000E+00  0.00000000000E+00  0.16800523619E+04  0.16800523619E+04  0.25500000920E-02 0. -1.
        2   -1    0    0  501    0  0.00000000000E+00  0.00000000000E+00 -0.23583005387E+04  0.23583005387E+04  0.25500000920E-02 0.  1.
    10030    2    1    2    0    0  0.00000000000E+00  0.00000000000E+00 -0.67824817679E+03  0.40383529006E+04  0.39809890179E+04 0.  0.
        4    1    3    3  502    0  0.17128416203E+04  0.60035725698E+03  0.48984864021E+03  0.18799490832E+04  0.12699999809E+01 0. -1.
       -4    1    3    3    0  502 -0.17128416203E+04 -0.60035725698E+03 -0.11680968170E+04  0.21584038174E+04  0.12699999809E+01 0.  1.
</event>
<event>
 5   0  0.5161550E-07  0.3218617E+04  0.7818609E-02  0.8183918E-01
        2   -1    0    0  501    0  0.00000000000E+00  0.00000000000E+00  0.11884191997E+04  0.11884191997E+04  0.25500000920E-02 0.  1.
       -2   -1    0    0    0  501  0.00000000000E+00  0.00000000000E+00 -0.21792598215E+04  0.21792598215E+04  0.25500000920E-02 0. -1.
    10030    2    1    2    0    0  0.00000000000E+00  0.00000000000E+00 -0.99084062186E+03  0.33676790212E+04  0.32186172267E+04 0.  0.
        2    1    3    3  502    0  0.80643519587E+03  0.13498998859E+04 -0.13705750537E+03  0.15784017825E+04  0.25500000920E-02 0.  1.
       -2    1    3    3    0  502 -0.80643519587E+03 -0.13498998859E+04 -0.85378311649E+03  0.17892772387E+04  0.25500000920E-02 0. -1.
</event>
<event>
 5   0  0.6043512E-07  0.2389018E+04  0.7818609E-02  0.8443626E-01
       -2   -1    0    0    0  501  0.00000000000E+00  0.00000000000E+00  0.10619966026E+04  0.10619966026E+04  0.25500000920E-02 0. -1.
        2   -1    0    0  501    0  0.00000000000E+00  0.00000000000E+00 -0.13435563222E+04  0.13435563222E+04  0.25500000920E-02 0.  1.
    10030    2    1    2    0    0  0.00000000000E+00  0.00000000000E+00 -0.28155971961E+03  0.24055529248E+04  0.23890184173E+04 0.  0.
        3    1    3    3  502    0 -0.10604753750E+04 -0.43485076375E+03 -0.47948426029E+03  0.12424203692E+04  0.10100000352E+00 0.  1.
       -3    1    3    3    0  502  0.10604753750E+04  0.43485076375E+03  0.19792454067E+03  0.11631325555E+04  0.10100000352E+00 0. -1.
</event>
<event>
 5   0  0.4449262E-07  0.1992316E+04  0.7818609E-02  0.8610222E-01
       -2   -1    0    0    0  501  0.00000000000E+00  0.00000000000E+00  0.90478114874E+03  0.90478114875E+03  0.25500000920E-02 0. -1.
        2   -1    0    0  501    0  0.00000000000E+00  0.00000000000E+00 -0.10967630162E+04  0.10967630162E+04  0.25500000920E-02 0.  1.
    10030    2    1    2    0    0  0.00000000000E+00  0.00000000000E+00 -0.19198186748E+03  0.20015441650E+04  0.19923157398E+04 0.  0.
        1    1    3    3  502    0  0.37942161667E+03  0.88736436206E+03 -0.34402362586E+03  0.10245626040E+04  0.50400001928E-02 0.  1.
       -1    1    3    3    0  502 -0.37942161667E+03 -0.88736436206E+03  0.15204175839E+03  0.97698156102E+03  0.50400001928E-02 0. -1.
</event>
<event>
 5   0  0.7570277E-07  0.3215555E+04  0.7818609E-02  0.8184721E-01
       -2   -1    0    0    0  501  0.00000000000E+00  0.00000000000E+00  0.80866210716E+03  0.80866210717E+03  0.25500000920E-02 0.  1.
        2   -1    0    0  501    0  0.00000000000E+00  0.00000000000E+00 -0.31965740887E+04  0.31965740887E+04  0.25500000920E-02 0. -1.
    10030    2    1    2    0    0  0.00000000000E+00  0.00000000000E+00 -0.23879119815E+04  0.40052361958E+04  0.32155549059E+04 0.  0.
        5    1    3    3  502    0  0.15631592861E+04 -0.36982880443E+03 -0.11086909465E+04  0.19517832880E+04  0.46999998093E+01 0.  1.
       -5    1    3    3    0  502 -0.15631592861E+04  0.36982880443E+03 -0.12792210350E+04  0.20534529079E+04  0.46999998093E+01 0. -1.
</event>
<event>
 5   0  0.6043512E-07  0.2187494E+04  0.7818609E-02  0.8523652E-01
        2   -1    0    0  501    0  0.00000000000E+00  0.00000000000E+00  0.13150164937E+04  0.13150164937E+04  0.25500000920E-02 0. -1.
       -2   -1    0    0    0  501  0.00000000000E+00  0.00000000000E+00 -0.90970894116E+03  0.90970894117E+03  0.25500000920E-02 0.  1.
    10030    2    1    2    0    0  0.00000000000E+00  0.00000000000E+00  0.40530755254E+03  0.22247254349E+04  0.21874937825E+04 0.  0.
        3    1    3    3  502    0  0.79509945714E+02  0.21040547121E+03 -0.88593322973E+03  0.91404047586E+03  0.10100000352E+00 0.  1.
       -3    1    3    3    0  502 -0.79509945714E+02 -0.21040547121E+03  0.12912407823E+04  0.13106849590E+04  0.10100000352E+00 0. -1.
</event>
<event>
 5   0  0.2601252E-07  0.3920066E+04  0.7818609E-02  0.8020869E-01
        1   -1    0    0  501    0  0.00000000000E+00  0.00000000000E+00  0.27397200436E+04  0.27397200436E+04  0.50400001928E-02 0.  1.
       -1   -1    0    0    0  501  0.00000000000E+00  0.00000000000E+00 -0.14022344394E+04  0.14022344395E+04  0.50400001928E-02 0. -1.
    10030    2    1    2    0    0  0.00000000000E+00  0.00000000000E+00  0.13374856041E+04  0.41419544831E+04  0.39200662237E+04 0.  0.
        3    1    3    3  502    0 -0.19977379112E+03  0.15621319987E+04 -0.56416591375E+03  0.16728565800E+04  0.10100000352E+00 0. -1.
       -3    1    3    3    0  502  0.19977379112E+03 -0.15621319987E+04  0.19016515179E+04  0.24690979030E+04  0.10100000352E+00 0.  1.
</event>
<event>
 5   0  0.2601252E-07  0.2207193E+04  0.7818609E-02  0.8515440E-01
       -1   -1    0    0    0  501  0.00000000000E+00  0.00000000000E+00  0.72160908809E+03  0.72160908811E+03  0.50400001928E-02 0. -1.
        1   -1    0    0  501    0  0.00000000000E+00  0.00000000000E+00 -0.16877904914E+04  0.16877904914E+04  0.50400001928E-02 0.  1.
    10030    2    1    2    0    0  0.00000000000E+00  0.00000000000E+00 -0.96618140330E+03  0.24093995795E+04  0.22071927486E+04 0.  0.
        3    1    3    3  502    0 -0.10722192355E+04 -0.22776992602E+03 -0.62285003483E+03  0.12607439884E+04  0.10100000352E+00 0.  1.
       -3    1    3    3    0  502  0.10722192355E+04  0.22776992602E+03 -0.34333136847E+03  0.11486555911E+04  0.10100000352E+00 0. -1.
</event>
<event>
 5   0  0.2601252E-07  0.2044899E+04  0.7818609E-02  0.8585912E-01
       -1   -1    0    0    0  501  0.00000000000E+00  0.00000000000E+00  0.42445694307E+03  0.42445694310E+03  0.50400001928E-02 0. -1.
        1   -1    0    0  501    0  0.00000000000E+00  0.00000000000E+00 -0.24629191304E+04  0.24629191304E+04  0.50400001928E-02 0.  1.
    10030    2    1    2    0    0  0.00000000000E+00  0.00000000000E+00 -0.20384621874E+04  0.28873760735E+04  0.20448991419E+04 0.  0.
        3    1    3    3  502    0 -0.86408012218E+03 -0.47975064251E+03 -0.13890752594E+04  0.17047947744E+04  0.10100000352E+00 0.  1.
       -3    1    3    3    0  502  0.86408012218E+03  0.47975064251E+03 -0.64938692800E+03  0.11825812991E+04  0.10100000352E+00 0. -1.
</event>
<event>
 5   0  0.2647879E-07  0.4258898E+04  0.7818609E-02  0.7954262E-01
        1   -1    0    0  501    0  0.00000000000E+00  0.00000000000E+00  0.21085563027E+04  0.21085563027E+04  0.50400001928E-02 0.  1.
       -1   -1    0    0    0  501  0.00000000000E+00  0.00000000000E+00 -0.21505489414E+04  0.21505489414E+04  0.50400001928E-02 0. -1.
    10030    2    1    2    0    0  0.00000000000E+00  0.00000000000E+00 -0.41992638701E+02  0.42591052442E+04  0.42588982260E+04 0.  0.
        2    1    3    3  502    0 -0.15965691832E+04 -0.13024696611E+04  0.51670364838E+03  0.21242511704E+04  0.25500000920E-02 0. -1.
       -2    1    3    3    0  502  0.15965691832E+04  0.13024696611E+04 -0.55869628708E+03  0.21348540737E+04  0.25500000920E-02 0.  1.
</event>
<event>
 5   0  0.4449262E-07  0.3937300E+04  0.7818609E-02  0.8017316E-01
       -2   -1    0    0    0  501  0.00000000000E+00  0.00000000000E+00  0.14216188506E+04  0.14216188506E+04  0.25500000920E-02 0.  1.
        2   -1    0    0  501    0  0.00000000000E+00  0.00000000000E+00 -0.27261751413E+04  0.27261751413E+04  0.25500000920E-02 0. -1.
    10030    2    1    2    0    0  0.00000000000E+00  0.00000000000E+00 -0.13045562908E+04  0.41477939919E+04  0.39372995674E+04 0.  0.
        1    1    3    3  502    0 -0.42553769097E+03 -0.32699109697E+02 -0.26768522587E+04  0.27106622019E+04  0.50400001928E-02 0. -1.
       -1    1    3    3    0  502  0.42553769097E+03  0.32699109697E+02  0.13722959679E+04  0.14371317900E+04  0.50400001928E-02 0.  1.
</event>
<event>
 5   0  0.6043512E-07  0.4093416E+04  0.7818609E-02  0.7985962E-01
       -2   -1    0    0    0  501  0.00000000000E+00  0.00000000000E+00  0.15286303191E+04  0.15286303191E+04  0.25500000920E-02 0. -1.
        2   -1    0    0  501    0  0.00000000000E+00  0.00000000000E+00 -0.27403702849E+04  0.27403702849E+04  0.25500000920E-02 0.  1.
    10030    2    1    2    0    0  0.00000000000E+00  0.00000000000E+00 -0.12117399658E+04  0.42690006040E+04  0.40934157390E+04 0.  0.
        3    1    3    3  502    0 -0.30061756687E+03 -0.20243730409E+04 -0.63046024746E+03  0.21414801573E+04  0.10100000352E+00 0.  1.
       -3    1    3    3    0  502  0.30061756687E+03  0.20243730409E+04 -0.58127971837E+03  0.21275204467E+04  0.10100000352E+00 0. -1.
</event>
<event>
 5   0  0.2647879E-07  0.2175650E+04  0.7818609E-02  0.8528632E-01
       -1   -1    0    0    0  501  0.00000000000E+00  0.00000000000E+00  0.87786120892E+03  0.87786120894E+03  0.50400001928E-02 0.  1.
        1   -1    0    0  501    0  0.00000000000E+00  0.00000000000E+00 -0.13480068063E+04  0.13480068063E+04  0.50400001928E-02 0. -1.
    10030    2    1    2    0    0  0.00000000000E+00  0.00000000000E+00 -0.47014559739E+03  0.22258680153E+04  0.21756496820E+04 0.  0.
        2    1    3    3  502    0  0.79930709863E+03 -0.69785880590E+03 -0.48032271817E+03  0.11647354483E+04  0.25500000920E-02 0. -1.
       -2    1    3    3    0  502 -0.79930709863E+03  0.69785880590E+03  0.10177120784E+02  0.10611325670E+04  0.25500000920E-02 0.  1.
</event>
<event>
 5   0  0.5161550E-07  0.3950182E+04  0.7818609E-02  0.8014672E-01
       -2   -1    0    0    0  501  0.00000000000E+00  0.00000000000E+00  0.17137586605E+04  0.17137586605E+04  0.25500000920E-02 0.  1.
        2   -1    0    0  501    0  0.00000000000E+00  0.00000000000E+00 -0.22762746359E+04  0.22762746359E+04  0.25500000920E-02 0. -1.
    10030    2    1    2    0    0  0.00000000000E+00  0.00000000000E+00 -0.56251597547E+03  0.39900332964E+04  0.39501824621E+04 0.  0.
        2    1    3    3  502    0 -0.17271741839E+04 -0.30661160589E+03  0.63555733598E+03  0.18657637754E+04  0.25500000920E-02 0.  1.
       -2    1    3    3    0  502  0.17271741839E+04  0.30661160589E+03 -0.11980733114E+04  0.21242695210E+04  0.25500000920E-02 0. -1.
</event>
<event>
 5   0  0.5161550E-07  0.3990714E+04  0.7818609E-02  0.8006423E-01
       -2   -1    0    0    0  501  0.00000000000E+00  0.00000000000E+00  0.14412387104E+04  0.14412387104E+04  0.25500000920E-02 0. -1.
        2   -1    0    0  501    0  0.00000000000E+00  0.00000000000E+00 -0.27625188339E+04  0.27625188339E+04  0.25500000920E-02 0.  1.
    10030    2    1    2    0    0  0.00000000000E+00  0.00000000000E+00 -0.13212801235E+04  0.42037575443E+04  0.39907137616E+04 0.  0.
        2    1    3    3  502    0  0.24208707815E+03 -0.19712096122E+04 -0.86374291898E+03  0.21657158906E+04  0.25500000920E-02 0. -1.
       -2    1    3    3    0  502 -0.24208707815E+03  0.19712096122E+04 -0.45753720456E+03  0.20380416537E+04  0.25500000920E-02 0.  1.
</event>
<event>
 5   0  0.2647879E-07  0.4045798E+04  0.7818609E-02  0.7995371E-01
       -1   -1    0    0    0  501  0.00000000000E+00  0.00000000000E+00  0.19461433341E+04  0.19461433341E+04  0.50400001928E-02 0. -1.
        1   -1    0    0  501    0  0.00000000000E+00  0.00000000000E+00 -0.21026824116E+04  0.21026824116E+04  0.50400001928E-02 0.  1.
    10030    2    1    2    0    0  0.00000000000E+00  0.00000000000E+00 -0.15653907752E+03  0.40488257457E+04  0.40457984918E+04 0.  0.
        2    1    3    3  502    0  0.96026218218E+02  0.10763627275E+04 -0.17896203209E+04  0.20905785440E+04  0.25500000920E-02 0.  1.
       -2    1    3    3    0  502 -0.96026218218E+02 -0.10763627275E+04  0.16330812434E+04  0.19582472017E+04  0.25500000920E-02 0. -1.
</event>
<event>
 5   0  0.6043512E-07  0.2499699E+04  0.7818609E-02  0.8403093E-01
        2   -1    0    0  501    0  0.00000000000E+00  0.00000000000E+00  0.15367480473E+04  0.15367480473E+04  0.25500000920E-02 0. -1.
       -2   -1    0    0    0  501  0.00000000000E+00  0.00000000000E+00 -0.10165127866E+04  0.10165127866E+04  0.25500000920E-02 0.  1.
    10030    2    1    2    0    0  0.00000000000E+00  0.00000000000E+00  0.52023526070E+03  0.25532608340E+04  0.24996992139E+04 0.  0.
        3    1    3    3  502    0  0.15719045066E+03 -0.11614981111E+04 -0.18315981485E+03  0.11863111851E+04  0.10100000352E+00 0.  1.
       -3    1    3    3    0  502 -0.15719045066E+03  0.11614981111E+04  0.70339507555E+03  0.13669496488E+04  0.10100000352E+00 0. -1.
</event>
<event>
 5   0  0.2401125E-07  0.1973275E+04  0.7818609E-02  0.8619218E-01
       -1   -1    0    0    0  501  0.00000000000E+00  0.00000000000E+00  0.93754898460E+03  0.93754898462E+03  0.50400001928E-02 0. -1.
        1   -1    0    0  501    0  0.00000000000E+00  0.00000000000E+00 -0.10382961584E+04  0.10382961584E+04  0.50400001928E-02 0.  1.
    10030    2    1    2    0    0  0.00000000000E+00  0.00000000000E+00 -0.10074717382E+03  0.19758451431E+04  0.19732749520E+04 0.  0.
        5    1    3    3  502    0 -0.31856204871E+03  0.62578284331E+03  0.64359873839E+03  0.95253733360E+03  0.46999998093E+01 0. -1.
       -5    1    3    3    0  502  0.31856204871E+03 -0.62578284331E+03 -0.74434591221E+03  0.10233078094E+04  0.46999998093E+01 0.  1.
</event>
<event>
 5   0  0.2713405E-07  0.4109426E+04  0.7818609E-02  0.7982828E-01
        1   -1    0    0  501    0  0.00000000000E+00  0.00000000000E+00  0.23410809626E+04  0.23410809626E+04  0.50400001928E-02 0. -1.
       -1   -1    0    0    0  501  0.00000000000E+00  0.00000000000E+00 -0.18033744117E+04  0.18033744117E+04  0.50400001928E-02 0.  1.
    10030    2    1    2    0    0  0.00000000000E+00  0.00000000000E+00  0.53770655096E+03  0.41444553743E+04  0.41094259958E+04 0.  0.
        1    1    3    3  502    0  0.30551345664E+03 -0.18639816054E+04 -0.54679253163E+03  0.19664048337E+04  0.50400001928E-02 0. -1.
       -1    1    3    3    0  502 -0.30551345664E+03  0.18639816054E+04  0.10844990826E+04  0.21780505406E+04  0.50400001928E-02 0.  1.
</event>
<event>
 5   0  0.5161550E-07  0.3477266E+04  0.7818609E-02  0.8119199E-01
       -2   -1    0    0    0  501  0.00000000000E+00  0.00000000000E+00  0.21442487069E+04  0.21442487069E+04  0.25500000920E-02 0. -1.
        2   -1    0    0  501    0  0.00000000000E+00  0.00000000000E+00 -0.14097455321E+04  0.14097455321E+04  0.25500000920E-02 0.  1.
    10030    2    1    2    0    0  0.00000000000E+00  0.00000000000E+00  0.73450317485E+03  0.35539942390E+04  0.34772661872E+04 0.  0.
        2    1    3    3  502    0 -0.17280505949E+04 -0.78601987282E+02  0.18873237480E+03  0.17401025947E+04  0.25500000920E-02 0.  1.
       -2    1    3    3    0  502  0.17280505949E+04  0.78601987282E+02  0.54577080005E+03  0.18138916442E+04  0.25500000920E-02 0. -1.
</event>
<event>
 5   0  0.2401125E-07  0.2275989E+04  0.7818609E-02  0.8487449E-01
       -1   -1    0    0    0  501  0.00000000000E+00  0.00000000000E+00  0.73516102418E+03  0.73516102420E+03  0.50400001928E-02 0. -1.
        1   -1    0    0  501    0  0.00000000000E+00  0.00000000000E+00 -0.17615617927E+04  0.17615617927E+04  0.50400001928E-02 0.  1.
    10030    2    1    2    0    0  0.00000000000E+00  0.00000000000E+00 -0.10264007685E+04  0.24967228169E+04  0.22759890788E+04 0.  0.
        5    1    3    3  502    0 -0.36856357036E+03 -0.13541454755E+03  0.65848563166E+03  0.76668221721E+03  0.46999998093E+01 0. -1.
       -5    1    3    3    0  502  0.36856357036E+03  0.13541454755E+03 -0.16848864002E+04  0.17300405997E+04  0.46999998093E+01 0.  1.
</event>
<event>
 5   0  0.7995138E-07  0.2082306E+04  0.7818609E-02  0.8569078E-01
        2   -1    0    0  501    0  0.00000000000E+00  0.00000000000E+00  0.15670637775E+04  0.15670637775E+04  0.25500000920E-02 0. -1.
       -2   -1    0    0    0  501  0.00000000000E+00  0.00000000000E+00 -0.69173948662E+03  0.69173948663E+03  0.25500000920E-02 0.  1.
    10030    2    1    2    0    0  0.00000000000E+00  0.00000000000E+00  0.87532429092E+03  0.22588032642E+04  0.20823063108E+04 0.  0.
        3    1    3    3  502    0  0.60400568351E+03  0.79522108271E+03  0.11807097564E+03  0.10055546736E+04  0.10100000352E+00 0.  1.
       -3    1    3    3    0  502 -0.60400568351E+03 -0.79522108271E+03  0.75725331528E+03  0.12532485906E+04  0.10100000352E+00 0. -1.
</event>
<event>
 5   0  0.2401125E-07  0.3984030E+04  0.7818609E-02  0.8007776E-01
        1   -1    0    0  501    0  0.00000000000E+00  0.00000000000E+00  0.12651536197E+04  0.12651536197E+04  0.50400001928E-02 0. -1.
       -1   -1    0    0    0  501  0.00000000000E+00  0.00000000000E+00 -0.31364756714E+04  0.31364756714E+04  0.50400001928E-02 0.  1.
    10030    2    1    2    0    0  0.00000000000E+00  0.00000000000E+00 -0.18713220517E+04  0.44016292911E+04  0.39840298938E+04 0.  0.
        5    1    3    3  502    0 -0.11293688055E+04  0.11494134573E+04 -0.22295142803E+04  0.27508873497E+04  0.46999998093E+01 0.  1.
       -5    1    3    3    0  502  0.11293688055E+04 -0.11494134573E+04  0.35819222861E+03  0.16507419414E+04  0.46999998093E+01 0. -1.
</event>
<event>
 5   0  0.2713405E-07  0.3530425E+04  0.7818609E-02  0.8106617E-01
        1   -1    0    0  501    0  0.00000000000E+00  0.00000000000E+00  0.26314315553E+04  0.26314315553E+04  0.50400001928E-02 0.  1.
       -1   -1    0    0    0  501  0.00000000000E+00  0.00000000000E+00 -0.11841372036E+04  0.11841372036E+04  0.50400001928E-02 0. -1.
    10030    2    1    2    0    0  0.00000000000E+00  0.00000000000E+00  0.14472943517E+04  0.38155687590E+04  0.35304254721E+04 0.  0.
        1    1    3    3  502    0 -0.11925038325E+04 -0.19341375937E+03 -0.66735619774E+03  0.13801588922E+04  0.50400001928E-02 0. -1.
       -1    1    3    3    0  502  0.11925038325E+04  0.19341375937E+03  0.21146505495E+04  0.24354098668E+04  0.50400001928E-02 0.  1.
</event>
<event>
 5   0  0.3579559E-07  0.2070212E+04  0.7818609E-02  0.8574480E-01
       -1   -1    0    0    0  501  0.00000000000E+00  0.00000000000E+00  0.90294680715E+03  0.90294680717E+03  0.50400001928E-02 0. -1.
        1   -1    0    0  501    0  0.00000000000E+00  0.00000000000E+00 -0.11866091038E+04  0.11866091038E+04  0.50400001928E-02 0.  1.
    10030    2    1    2    0    0  0.00000000000E+00  0.00000000000E+00 -0.28366229665E+03  0.20895559110E+04  0.20702124544E+04 0.  0.
        4    1    3    3  502    0  0.55334534035E+03  0.10679156484E+03  0.73452555041E+03  0.92581040236E+03  0.12699999809E+01 0. -1.
       -4    1    3    3    0  502 -0.55334534035E+03 -0.10679156484E+03 -0.10181878471E+04  0.11637455086E+04  0.12699999809E+01 0.  1.
</event>
<event>
 5   0  0.2713405E-07  0.3870198E+04  0.7818609E-02  0.8031256E-01
       -1   -1    0    0    0  501  0.00000000000E+00  0.00000000000E+00  0.15695139250E+04  0.15695139250E+04  0.50400001928E-02 0. -1.
        1   -1    0    0  501    0  0.00000000000E+00  0.00000000000E+00 -0.23858398800E+04  0.23858398800E+04  0.50400001928E-02 0.  1.
    10030    2    1    2    0    0  0.00000000000E+00  0.00000000000E+00 -0.81632595503E+03  0.39553538051E+04  0.38701984004E+04 0.  0.
        1    1    3    3  502    0 -0.88195058507E+03  0.31015144460E+03 -0.21397199929E+04  0.23350444110E+04  0.50400001928E-02 0.  1.
       -1    1    3    3    0  502  0.88195058507E+03 -0.31015144460E+03  0.13233940379E+04  0.16203093941E+04  0.50400001928E-02 0. -1.
</event>
<event>
 5   0  0.5161550E-07  0.4032462E+04  0.7818609E-02  0.7998030E-01
       -2   -1    0    0    0  501  0.00000000000E+00  0.00000000000E+00  0.19966479245E+04  0.19966479245E+04  0.25500000920E-02 0.  1.
        2   -1    0    0  501    0  0.00000000000E+00  0.00000000000E+00 -0.20360065520E+04  0.20360065520E+04  0.25500000920E-02 0. -1.
    10030    2    1    2    0    0  0.00000000000E+00  0.00000000000E+00 -0.39358627558E+02  0.40326544765E+04  0.40324624022E+04 0.  0.
        2    1    3    3  502    0 -0.12531474966E+04  0.14207472440E+02  0.15598286501E+04  0.20009112719E+04  0.25500000920E-02 0.  1.
       -2    1    3    3    0  502  0.12531474966E+04 -0.14207472440E+02 -0.15991872776E+04  0.20317432046E+04  0.25500000920E-02 0. -1.
</event>
<event>
 5   0  0.4449262E-07  0.2848013E+04  0.7818609E-02  0.8288515E-01
        2   -1    0    0  501    0  0.00000000000E+00  0.00000000000E+00  0.11227780521E+04  0.11227780521E+04  0.25500000920E-02 0. -1.
       -2   -1    0    0    0  501  0.00000000000E+00  0.00000000000E+00 -0.18060509706E+04  0.18060509706E+04  0.25500000920E-02 0.  1.
    10030    2    1    2    0    0  0.00000000000E+00  0.00000000000E+00 -0.68327291852E+03  0.29288290227E+04  0.28480129149E+04 0.  0.
        1    1    3    3  502    0  0.10079624904E+03  0.57143204042E+03 -0.16789606510E+04  0.17764017924E+04  0.50400001928E-02 0.  1.
       -1    1    3    3    0  502 -0.10079624904E+03 -0.57143204042E+03  0.99568773243E+03  0.11524272303E+04  0.50400001928E-02 0. -1.
</event>
<event>
 5   0  0.6043512E-07  0.2123552E+04  0.7818609E-02  0.8550939E-01
        2   -1    0    0  501    0  0.00000000000E+00  0.00000000000E+00  0.96160971125E+03  0.96160971125E+03  0.25500000920E-02 0.  1.
       -2   -1    0    0    0  501  0.00000000000E+00  0.00000000000E+00 -0.11723762978E+04  0.11723762978E+04  0.25500000920E-02 0. -1.
    10030    2    1    2    0    0  0.00000000000E+00  0.00000000000E+00 -0.21076658655E+03  0.21339860091E+04  0.21235521498E+04 0.  0.
        3    1    3    3  502    0  0.57923517582E+03 -0.85532500041E+03 -0.35209757149E+03  0.10913601400E+04  0.10100000352E+00 0.  1.
       -3    1    3    3    0  502 -0.57923517582E+03  0.85532500041E+03  0.14133098494E+03  0.10426258690E+04  0.10100000352E+00 0. -1.
</event>
<event>
 5   0  0.7570277E-07  0.3937701E+04  0.7818609E-02  0.8017234E-01
        2   -1    0    0  501    0  0.00000000000E+00  0.00000000000E+00  0.25868074012E+04  0.25868074012E+04  0.25500000920E-02 0. -1.
       -2   -1    0    0    0  501  0.00000000000E+00  0.00000000000E+00 -0.14985157887E+04  0.14985157887E+04  0.25500000920E-02 0.  1.
    10030    2    1    2    0    0  0.00000000000E+00  0.00000000000E+00  0.10882916125E+04  0.40853231899E+04  0.39377007164E+04 0.  0.
        5    1    3    3  502    0 -0.12045090615E+04  0.27268674358E+03 -0.10466844322E+04  0.16188794056E+04  0.46999998093E+01 0.  1.
       -5    1    3    3    0  502  0.12045090615E+04 -0.27268674358E+03  0.21349760447E+04  0.24664437842E+04  0.46999998093E+01 0. -1.
</event>
<event>
 5   0  0.2401125E-07  0.4052292E+04  0.7818609E-02  0.7994080E-01
       -1   -1    0    0    0  501  0.00000000000E+00  0.00000000000E+00  0.13800344230E+04  0.13800344230E+04  0.50400001928E-02 0.  1.
        1   -1    0    0  501    0  0.00000000000E+00  0.00000000000E+00 -0.29747570663E+04  0.29747570663E+04  0.50400001928E-02 0. -1.
    10030    2    1    2    0    0  0.00000000000E+00  0.00000000000E+00 -0.15947226433E+04  0.43547914893E+04  0.40522917721E+04 0.  0.
        5    1    3    3  502    0 -0.12342950764E+04  0.12549434907E+04  0.28097687489E+03  0.17825087923E+04  0.46999998093E+01 0. -1.
       -5    1    3    3    0  502  0.12342950764E+04 -0.12549434907E+04 -0.18756995182E+04  0.25722826970E+04  0.46999998093E+01 0.  1.
</event>
<event>
 5   0  0.2401125E-07  0.3929753E+04  0.7818609E-02  0.8018870E-01
        1   -1    0    0  501    0  0.00000000000E+00  0.00000000000E+00  0.21721309092E+04  0.21721309092E+04  0.50400001928E-02 0.  1.
       -1   -1    0    0    0  501  0.00000000000E+00  0.00000000000E+00 -0.17773970669E+04  0.17773970669E+04  0.50400001928E-02 0. -1.
    10030    2    1    2    0    0  0.00000000000E+00  0.00000000000E+00  0.39473384234E+03  0.39495279761E+04  0.39297527184E+04 0.  0.
        5    1    3    3  502    0 -0.16338756131E+04 -0.10736221724E+04  0.39457597723E+03  0.19944739607E+04  0.46999998093E+01 0.  1.
       -5    1    3    3    0  502  0.16338756131E+04  0.10736221724E+04  0.15786511206E+00  0.19550540154E+04  0.46999998093E+01 0. -1.
</event>
<event>
 5   0  0.5161550E-07  0.2201660E+04  0.7818609E-02  0.8517737E-01
        2   -1    0    0  501    0  0.00000000000E+00  0.00000000000E+00  0.13188974048E+04  0.13188974048E+04  0.25500000920E-02 0.  1.
       -2   -1    0    0    0  501  0.00000000000E+00  0.00000000000E+00 -0.91881813233E+03  0.91881813233E+03  0.25500000920E-02 0. -1.
    10030    2    1    2    0    0  0.00000000000E+00  0.00000000000E+00  0.40007927248E+03  0.22377155371E+04  0.22016601465E+04 0.  0.
        2    1    3    3  502    0 -0.41370569064E+03  0.90465698474E+03  0.67921580219E+03  0.12045292709E+04  0.25500000920E-02 0.  1.
       -2    1    3    3    0  502  0.41370569064E+03 -0.90465698474E+03 -0.27913652972E+03  0.10331862662E+04  0.25500000920E-02 0. -1.
</event>
<event>
 5   0  0.2713405E-07  0.3953394E+04  0.7818609E-02  0.8014015E-01
       -1   -1    0    0    0  501  0.00000000000E+00  0.00000000000E+00  0.25285986271E+04  0.25285986271E+04  0.50400001928E-02 0.  1.
        1   -1    0    0  501    0  0.00000000000E+00  0.00000000000E+00 -0.15452559004E+04  0.15452559004E+04  0.50400001928E-02 0. -1.
    10030    2    1    2    0    0  0.00000000000E+00  0.00000000000E+00  0.98334272672E+03  0.40738545276E+04  0.39533944647E+04 0.  0.
        1    1    3    3  502    0 -0.32164726945E+03 -0.19220427141E+04  0.83285933411E+03  0.21192828578E+04  0.50400001928E-02 0.  1.
       -1    1    3    3    0  502  0.32164726945E+03  0.19220427141E+04  0.15048339262E+03  0.19545716698E+04  0.50400001928E-02 0. -1.
</event>
<event>
 5   0  0.7256473E-07  0.3858206E+04  0.7818609E-02  0.8033778E-01
       -2   -1    0    0    0  501  0.00000000000E+00  0.00000000000E+00  0.25275159660E+04  0.25275159660E+04  0.25500000920E-02 0. -1.
        2   -1    0    0  501    0  0.00000000000E+00  0.00000000000E+00 -0.14723701011E+04  0.14723701011E+04  0.25500000920E-02 0.  1.
    10030    2    1    2    0    0  0.00000000000E+00  0.00000000000E+00  0.10551458649E+04  0.39998860671E+04  0.38582062871E+04 0.  0.
        4    1    3    3  502    0 -0.58684789153E+03 -0.16666691984E+04  0.13301191663E+04  0.22116498987E+04  0.12699999809E+01 0. -1.
       -4    1    3    3    0  502  0.58684789153E+03  0.16666691984E+04 -0.27497330138E+03  0.17882361685E+04  0.12699999809E+01 0.  1.
</event>
<event>
 5   0  0.2713405E-07  0.3943908E+04  0.7818609E-02  0.8015959E-01
        1   -1    0    0  501    0  0.00000000000E+00  0.00000000000E+00  0.19639309963E+04  0.19639309963E+04  0.50400001928E-02 0. -1.
       -1   -1    0    0    0  501  0.00000000000E+00  0.00000000000E+00 -0.19800093858E+04  0.19800093858E+04  0.50400001928E-02 0.  1.
    10030    2    1    2    0    0  0.00000000000E+00  0.00000000000E+00 -0.16078389513E+02  0.39439403822E+04  0.39439076084E+04 0.  0.
        1    1    3    3  502    0 -0.36375727616E+02  0.85445062602E+02 -0.19778214769E+04  0.19800004663E+04  0.50400001928E-02 0.  1.
       -1    1    3    3    0  502  0.36375727616E+02 -0.85445062602E+02  0.19617430873E+04  0.19639399158E+04  0.50400001928E-02 0. -1.
</event>
<event>
 5   0  0.2713405E-07  0.4055730E+04  0.7818609E-02  0.7993398E-01
        1   -1    0    0  501    0  0.00000000000E+00  0.00000000000E+00  0.14566857725E+04  0.14566857726E+04  0.50400001928E-02 0.  1.
       -1   -1    0    0    0  501  0.00000000000E+00  0.00000000000E+00 -0.28230080978E+04  0.28230080978E+04  0.50400001928E-02 0. -1.
    10030    2    1    2    0    0  0.00000000000E+00  0.00000000000E+00 -0.13663223252E+04  0.42796938703E+04  0.40557296418E+04 0.  0.
        1    1    3    3  502    0 -0.17844176022E+04 -0.94002639420E+03 -0.90561013074E+03  0.22108653305E+04  0.50400001928E-02 0. -1.
       -1    1    3    3    0  502  0.17844176022E+04  0.94002639420E+03 -0.46071219447E+03  0.20688285398E+04  0.50400001928E-02 0.  1.
</event>
<event>
 5   0  0.7256473E-07  0.2333948E+04  0.7818609E-02  0.8464655E-01
       -2   -1    0    0    0  501  0.00000000000E+00  0.00000000000E+00  0.92538466610E+03  0.92538466610E+03  0.25500000920E-02 0. -1.
        2   -1    0    0  501    0  0.00000000000E+00  0.00000000000E+00 -0.14716344230E+04  0.14716344230E+04  0.25500000920E-02 0.  1.
    10030    2    1    2    0    0  0.00000000000E+00  0.00000000000E+00 -0.54624975685E+03  0.23970190891E+04  0.23339476679E+04 0.  0.
        4    1    3    3  502    0 -0.83974126278E+03 -0.11122007334E+02 -0.11052910503E+04  0.13881494899E+04  0.12699999809E+01 0.  1.
       -4    1    3    3    0  502  0.83974126278E+03  0.11122007334E+02  0.55904129346E+03  0.10088695992E+04  0.12699999809E+01 0. -1.
</event>
<event>
 5   0  0.4449262E-07  0.4086554E+04  0.7818609E-02  0.7987310E-01
        2   -1    0    0  501    0  0.00000000000E+00  0.00000000000E+00  0.19810415542E+04  0.19810415542E+04  0.25500000920E-02 0. -1.
       -2   -1    0    0    0  501  0.00000000000E+00  0.00000000000E+00 -0.21074680243E+04  0.21074680243E+04  0.25500000920E-02 0.  1.
    10030    2    1    2    0    0  0.00000000000E+00  0.00000000000E+00 -0.12642647008E+03  0.40885095785E+04  0.40865544070E+04 0.  0.
        1    1    3    3  502    0 -0.70704321906E+03 -0.16999808215E+04 -0.94971663880E+03  0.20716675894E+04  0.50400001928E-02 0.  1.
       -1    1    3    3    0  502  0.70704321906E+03  0.16999808215E+04  0.82329016872E+03  0.20168419891E+04  0.50400001928E-02 0. -1.
</event>
<event>
 5   0  0.5161550E-07  0.3758634E+04  0.7818609E-02  0.8055091E-01
       -2   -1    0    0    0  501  0.00000000000E+00  0.00000000000E+00  0.19207525644E+04  0.19207525644E+04  0.25500000920E-02 0.  1.
        2   -1    0    0  501    0  0.00000000000E+00  0.00000000000E+00 -0.18387753840E+04  0.18387753840E+04  0.25500000920E-02 0. -1.
    10030    2    1    2    0    0  0.00000000000E+00  0.00000000000E+00  0.81977180331E+02  0.37595279484E+04  0.37586340786E+04 0.  0.
        2    1    3    3  502    0  0.14882748008E+04 -0.71634431682E+03 -0.85572975757E+03  0.18602108700E+04  0.25500000920E-02 0. -1.
       -2    1    3    3    0  502 -0.14882748008E+04  0.71634431682E+03  0.93770693790E+03  0.18993170784E+04  0.25500000920E-02 0.  1.
</event>
<event>
 5   0  0.5161550E-07  0.2614013E+04  0.7818609E-02  0.8363457E-01
        2   -1    0    0  501    0  0.00000000000E+00  0.00000000000E+00  0.13819267716E+04  0.13819267716E+04  0.25500000920E-02 0.  1.
       -2   -1    0    0    0  501  0.00000000000E+00  0.00000000000E+00 -0.12361478921E+04  0.12361478921E+04  0.25500000920E-02 0. -1.
    10030    2    1    2    0    0  0.00000000000E+00  0.00000000000E+00  0.14577887946E+03  0.26180746637E+04  0.26140129041E+04 0.  0.
        2    1    3    3  502    0 -0.42510157775E+03  0.23695354418E+03  0.12877901561E+04  0.13766850837E+04  0.25500000920E-02 0.  1.
       -2    1    3    3    0  502  0.42510157775E+03 -0.23695354418E+03 -0.11420112766E+04  0.12413895800E+04  0.25500000920E-02 0. -1.
</event>
<event>
 5   0  0.3579559E-07  0.2928551E+04  0.7818609E-02  0.8264433E-01
        1   -1    0    0  501    0  0.00000000000E+00  0.00000000000E+00  0.15630475297E+04  0.15630475297E+04  0.50400001928E-02 0.  1.
       -1   -1    0    0    0  501  0.00000000000E+00  0.00000000000E+00 -0.13717453147E+04  0.13717453147E+04  0.50400001928E-02 0. -1.
    10030    2    1    2    0    0  0.00000000000E+00  0.00000000000E+00  0.19130221499E+03  0.29347928444E+04  0.29285512633E+04 0.  0.
        4    1    3    3  502    0  0.76707879606E+03  0.46684734137E+03  0.12547255251E+04  0.15429497969E+04  0.12699999809E+01 0.  1.
       -4    1    3    3    0  502 -0.76707879606E+03 -0.46684734137E+03 -0.10634233101E+04  0.13918430475E+04  0.12699999809E+01 0. -1.
</event>
<event>
 5   0  0.2713405E-07  0.2033065E+04  0.7818609E-02  0.8591316E-01
       -1   -1    0    0    0  501  0.00000000000E+00  0.00000000000E+00  0.76312144836E+03  0.76312144838E+03  0.50400001928E-02 0. -1.
        1   -1    0    0  501    0  0.00000000000E+00  0.00000000000E+00 -0.13540941017E+04  0.13540941017E+04  0.50400001928E-02 0.  1.
    10030    2    1    2    0    0  0.00000000000E+00  0.00000000000E+00 -0.59097265337E+03  0.21172155501E+04  0.20330649298E+04 0.  0.
        1    1    3    3  502    0 -0.39649036905E+03  0.52815172325E+03 -0.11002527905E+04  0.12832400627E+04  0.50400001928E-02 0.  1.
       -1    1    3    3    0  502  0.39649036905E+03 -0.52815172325E+03  0.50928013711E+03  0.83397548742E+03  0.50400001928E-02 0. -1.
</event>
<event>
 5   0  0.5161550E-07  0.3815450E+04  0.7818609E-02  0.8042847E-01
       -2   -1    0    0    0  501  0.00000000000E+00  0.00000000000E+00  0.12568151254E+04  0.12568151254E+04  0.25500000920E-02 0. -1.
        2   -1    0    0  501    0  0.00000000000E+00  0.00000000000E+00 -0.28957437476E+04  0.28957437476E+04  0.25500000920E-02 0.  1.
    10030    2    1    2    0    0  0.00000000000E+00  0.00000000000E+00 -0.16389286221E+04  0.41525588730E+04  0.38154499296E+04 0.  0.
        2    1    3    3  502    0 -0.15288380676E+04  0.10095289556E+04 -0.13983620570E+04  0.23047583369E+04  0.25500000920E-02 0. -1.
       -2    1    3    3    0  502  0.15288380676E+04 -0.10095289556E+04 -0.24056656514E+03  0.18478005361E+04  0.25500000920E-02 0.  1.
</event>
<event>
 5   0  0.2401125E-07  0.2326501E+04  0.7818609E-02  0.8467545E-01
        1   -1    0    0  501    0  0.00000000000E+00  0.00000000000E+00  0.11615580044E+04  0.11615580044E+04  0.50400001928E-02 0.  1.
       -1   -1    0    0    0  501  0.00000000000E+00  0.00000000000E+00 -0.11649451731E+04  0.11649451731E+04  0.50400001928E-02 0. -1.
    10030    2    1    2    0    0  0.00000000000E+00  0.00000000000E+00 -0.33871687434E+01  0.23265031776E+04  0.23265007119E+04 0.  0.
        5    1    3    3  502    0  0.25108750605E+03  0.79477419229E+03 -0.81312426148E+03  0.11644329552E+04  0.46999998093E+01 0. -1.
       -5    1    3    3    0  502 -0.25108750605E+03 -0.79477419229E+03  0.80973709274E+03  0.11620702224E+04  0.46999998093E+01 0.  1.
</event>
<event>
 5   0  0.7570277E-07  0.3858990E+04  0.7818609E-02  0.8033613E-01
        2   -1    0    0  501    0  0.00000000000E+00  0.00000000000E+00  0.22739566509E+04  0.22739566509E+04  0.25500000920E-02 0. -1.
       -2   -1    0    0    0  501  0.00000000000E+00  0.00000000000E+00 -0.16372130765E+04  0.16372130765E+04  0.25500000920E-02 0.  1.
    10030    2    1    2    0    0  0.00000000000E+00  0.00000000000E+00  0.63674357446E+03  0.39111697274E+04  0.38589903157E+04 0.  0.
        5    1    3    3  502    0  0.16635498432E+04  0.91511010660E+03  0.66668255987E+03  0.20122903155E+04  0.46999998093E+01 0. -1.
       -5    1    3    3    0  502 -0.16635498432E+04 -0.91511010660E+03 -0.29938985406E+02  0.18988794119E+04  0.46999998093E+01 0.  1.
</event>
<event>
 5   0  0.7570277E-07  0.3378868E+04  0.7818609E-02  0.8143112E-01
       -2   -1    0    0    0  501  0.00000000000E+00  0.00000000000E+00  0.24045309344E+04  0.24045309344E+04  0.25500000920E-02 0.  1.
        2   -1    0    0  501    0  0.00000000000E+00  0.00000000000E+00 -0.11870034542E+04  0.11870034542E+04  0.25500000920E-02 0. -1.
    10030    2    1    2    0    0  0.00000000000E+00  0.00000000000E+00  0.12175274802E+04  0.35915343886E+04  0.33788675765E+04 0.  0.
        5    1    3    3  502    0 -0.21232145846E+03  0.10920608340E+04 -0.74267071901E+03  0.13376319202E+04  0.46999998093E+01 0. -1.
       -5    1    3    3    0  502  0.21232145846E+03 -0.10920608340E+04  0.19601981992E+04  0.22539024684E+04  0.46999998093E+01 0.  1.
</event>
<event>
 5   0  0.2647879E-07  0.2021819E+04  0.7818609E-02  0.8596487E-01
        1   -1    0    0  501    0  0.00000000000E+00  0.00000000000E+00  0.21235529450E+04  0.21235529450E+04  0.50400001928E-02 0. -1.
       -1   -1    0    0    0  501  0.00000000000E+00  0.00000000000E+00 -0.48123980498E+03  0.48123980500E+03  0.50400001928E-02 0.  1.
    10030    2    1    2    0    0  0.00000000000E+00  0.00000000000E+00  0.16423131401E+04  0.26047927500E+04  0.20218191859E+04 0.  0.
        2    1    3    3  502    0 -0.69483545916E+03 -0.35576984302E+03 -0.63653951079E+01  0.78064653638E+03  0.25500000920E-02 0.  1.
       -2    1    3    3    0  502  0.69483545916E+03  0.35576984302E+03  0.16486785352E+04  0.18241462137E+04  0.25500000920E-02 0. -1.
</event>
<event>
 5   0  0.5161550E-07  0.3869156E+04  0.7818609E-02  0.8031475E-01
        2   -1    0    0  501    0  0.00000000000E+00  0.00000000000E+00  0.12343182807E+04  0.12343182807E+04  0.25500000920E-02 0. -1.
       -2   -1    0    0    0  501  0.00000000000E+00  0.00000000000E+00 -0.30321129667E+04  0.30321129667E+04  0.25500000920E-02 0.  1.
    10030    2    1    2    0    0  0.00000000000E+00  0.00000000000E+00 -0.17977946861E+04  0.42664312474E+04  0.38691562201E+04 0.  0.
        2    1    3    3  502    0 -0.19134743034E+04  0.16663166790E+03 -0.11538101355E+04  0.22406311279E+04  0.25500000920E-02 0. -1.
       -2    1    3    3    0  502  0.19134743034E+04 -0.16663166790E+03 -0.64398455059E+03  0.20258001195E+04  0.25500000920E-02 0.  1.
</event>
<event>
 5   0  0.3579559E-07  0.3194033E+04  0.7818609E-02  0.8190395E-01
        1   -1    0    0  501    0  0.00000000000E+00  0.00000000000E+00  0.27013646473E+04  0.27013646473E+04  0.50400001928E-02 0.  1.
       -1   -1    0    0    0  501  0.00000000000E+00  0.00000000000E+00 -0.94413836981E+03  0.94413836983E+03  0.50400001928E-02 0. -1.
    10030    2    1    2    0    0  0.00000000000E+00  0.00000000000E+00  0.17572262775E+04  0.36455030171E+04  0.31940331961E+04 0.  0.
        4    1    3    3  502    0 -0.22303761403E+03  0.47640616902E+03 -0.84242130899E+03  0.99316861101E+03  0.12699999809E+01 0. -1.
       -4    1    3    3    0  502  0.22303761403E+03 -0.47640616902E+03  0.25996475865E+04  0.26523344061E+04  0.12699999809E+01 0.  1.
</event>
<event>
 5   0  0.5161550E-07  0.3922523E+04  0.7818609E-02  0.8020361E-01
       -2   -1    0    0    0  501  0.00000000000E+00  0.00000000000E+00  0.31685737450E+04  0.31685737450E+04  0.25500000920E-02 0. -1.
        2   -1    0    0  501    0  0.00000000000E+00  0.00000000000E+00 -0.12139678808E+04  0.12139678808E+04  0.25500000920E-02 0.  1.
    10030    2    1    2    0    0  0.00000000000E+00  0.00000000000E+00  0.19546058642E+04  0.43825416257E+04  0.39225230422E+04 0.  0.
        2    1    3    3  502    0  0.71726186428E+03 -0.62491096860E+03  0.28935434814E+04  0.30459107307E+04  0.25500000920E-02 0. -1.
       -2    1    3    3    0  502 -0.71726186428E+03  0.62491096860E+03 -0.93893761718E+03  0.13366308950E+04  0.25500000920E-02 0.  1.
</event>
<event>
 5   0  0.5161550E-07  0.2203422E+04  0.7818609E-02  0.8517005E-01
       -2   -1    0    0    0  501  0.00000000000E+00  0.00000000000E+00  0.98841692104E+03  0.98841692104E+03  0.25500000920E-02 0.  1.
        2   -1    0    0  501    0  0.00000000000E+00  0.00000000000E+00 -0.12279911999E+04  0.12279911999E+04  0.25500000920E-02 0. -1.
    10030    2    1    2    0    0  0.00000000000E+00  0.00000000000E+00 -0.23957427888E+03  0.22164081210E+04  0.22034221392E+04 0.  0.
        2    1    3    3  502    0 -0.43181457473E+03  0.94248676856E+03  0.25526704617E+03  0.10676639924E+04  0.25500000920E-02 0.  1.
       -2    1    3    3    0  502  0.43181457473E+03 -0.94248676856E+03 -0.49484132505E+03  0.11487441285E+04  0.25500000920E-02 0. -1.
</event>
<event>
 5   0  0.5161550E-07  0.3994296E+04  0.7818609E-02  0.8005698E-01
        2   -1    0    0  501    0  0.00000000000E+00  0.00000000000E+00  0.26795554378E+04  0.26795554378E+04  0.25500000920E-02 0. -1.
       -2   -1    0    0    0  501  0.00000000000E+00  0.00000000000E+00 -0.14885308786E+04  0.14885308786E+04  0.25500000920E-02 0.  1.
    10030    2    1    2    0    0  0.00000000000E+00  0.00000000000E+00  0.11910245592E+04  0.41680863164E+04  0.39942964388E+04 0.  0.
        2    1    3    3  502    0  0.14995035555E+04 -0.12478665157E+04  0.10418114961E+04  0.22115725056E+04  0.25500000920E-02 0. -1.
       -2    1    3    3    0  502 -0.14995035555E+04  0.12478665157E+04  0.14921306310E+03  0.19565138109E+04  0.25500000920E-02 0.  1.
</event>
<event>
 5   0  0.4449262E-07  0.3968134E+04  0.7818609E-02  0.8011006E-01
        2   -1    0    0  501    0  0.00000000000E+00  0.00000000000E+00  0.20469912861E+04  0.20469912861E+04  0.25500000920E-02 0. -1.
       -2   -1    0    0    0  501  0.00000000000E+00  0.00000000000E+00 -0.19230767481E+04  0.19230767481E+04  0.25500000920E-02 0.  1.
    10030    2    1    2    0    0  0.00000000000E+00  0.00000000000E+00  0.12391453808E+03  0.39700680342E+04  0.39681337406E+04 0.  0.
        1    1    3    3  502    0 -0.15034471640E+04 -0.16880543434E+03 -0.12222854751E+04  0.19449499820E+04  0.50400001928E-02 0.  1.
       -1    1    3    3    0  502  0.15034471640E+04  0.16880543434E+03  0.13462000132E+04  0.20251180522E+04  0.50400001928E-02 0. -1.
</event>
<event>
 5   0  0.7570277E-07  0.3727171E+04  0.7818609E-02  0.8061967E-01
       -2   -1    0    0    0  501  0.00000000000E+00  0.00000000000E+00  0.14218606290E+04  0.14218606290E+04  0.25500000920E-02 0.  1.
        2   -1    0    0  501    0  0.00000000000E+00  0.00000000000E+00 -0.24425397442E+04  0.24425397442E+04  0.25500000920E-02 0. -1.
    10030    2    1    2    0    0  0.00000000000E+00  0.00000000000E+00 -0.10206791152E+04  0.38644003733E+04  0.37271710973E+04 0.  0.
        5    1    3    3  502    0 -0.54869913731E+03  0.45761847427E+02  0.13355948206E+04  0.14446454599E+04  0.46999998093E+01 0.  1.
       -5    1    3    3    0  502  0.54869913731E+03 -0.45761847427E+02 -0.23562739358E+04  0.24197549133E+04  0.46999998093E+01 0. -1.
</event>
<event>
 5   0  0.7256473E-07  0.2973175E+04  0.7818609E-02  0.8251433E-01
        2   -1    0    0  501    0  0.00000000000E+00  0.00000000000E+00  0.23318708215E+04  0.23318708215E+04  0.25500000920E-02 0.  1.
       -2   -1    0    0    0  501  0.00000000000E+00  0.00000000000E+00 -0.94771209344E+03  0.94771209344E+03  0.25500000920E-02 0. -1.
    10030    2    1    2    0    0  0.00000000000E+00  0.00000000000E+00  0.13841587281E+04  0.32795829149E+04  0.29731748538E+04 0.  0.
        4    1    3    3  502    0 -0.90979210465E+03  0.11683878467E+04  0.54788341162E+03  0.15789330827E+04  0.12699999809E+01 0. -1.
       -4    1    3    3    0  502  0.90979210465E+03 -0.11683878467E+04  0.83627531645E+03  0.17006498322E+04  0.12699999809E+01 0.  1.
</event>
<event>
 5   0  0.6043512E-07  0.3937471E+04  0.7818609E-02  0.8017281E-01
        2   -1    0    0  501    0  0.00000000000E+00  0.00000000000E+00  0.20708869801E+04  0.20708869801E+04  0.25500000920E-02 0.  1.
       -2   -1    0    0    0  501  0.00000000000E+00  0.00000000000E+00 -0.18716233431E+04  0.18716233431E+04  0.25500000920E-02 0. -1.
    10030    2    1    2    0    0  0.00000000000E+00  0.00000000000E+00  0.19926363699E+03  0.39425103231E+04  0.39374714794E+04 0.  0.
        3    1    3    3  502    0  0.15166839026E+04  0.10986553594E+04 -0.50822558011E+03  0.19405326355E+04  0.10100000352E+00 0. -1.
       -3    1    3    3    0  502 -0.15166839026E+04 -0.10986553594E+04  0.70748921709E+03  0.20019776876E+04  0.10100000352E+00 0.  1.
</event>
<event>
 5   0  0.2601252E-07  0.3933640E+04  0.7818609E-02  0.8018069E-01
        1   -1    0    0  501    0  0.00000000000E+00  0.00000000000E+00  0.23565976308E+04  0.23565976308E+04  0.50400001928E-02 0. -1.
       -1   -1    0    0    0  501  0.00000000000E+00  0.00000000000E+00 -0.16415112183E+04  0.16415112184E+04  0.50400001928E-02 0.  1.
    10030    2    1    2    0    0  0.00000000000E+00  0.00000000000E+00  0.71508641242E+03  0.39981088491E+04  0.39336402723E+04 0.  0.
        3    1    3    3  502    0  0.94266417731E+03 -0.10132071493E+04 -0.10629225495E+04  0.17449953682E+04  0.10100000352E+00 0.  1.
       -3    1    3    3    0  502 -0.94266417731E+03  0.10132071493E+04  0.17780089620E+04  0.22531134809E+04  0.10100000352E+00 0. -1.
</event>
<event>
 5   0  0.6043512E-07  0.3924958E+04  0.7818609E-02  0.8019858E-01
        2   -1    0    0  501    0  0.00000000000E+00  0.00000000000E+00  0.12655600150E+04  0.12655600150E+04  0.25500000920E-02 0. -1.
       -2   -1    0    0    0  501  0.00000000000E+00  0.00000000000E+00 -0.30431782232E+04  0.30431782232E+04  0.25500000920E-02 0.  1.
    10030    2    1    2    0    0  0.00000000000E+00  0.00000000000E+00 -0.17776182081E+04  0.43087382382E+04  0.39249584344E+04 0.  0.
        3    1    3    3  502    0  0.33712100403E+03  0.47984139341E+03  0.11671256506E+04  0.13061702143E+04  0.10100000352E+00 0. -1.
       -3    1    3    3    0  502 -0.33712100403E+03 -0.47984139341E+03 -0.29447438588E+04  0.30025680239E+04  0.10100000352E+00 0.  1.
</event>
<event>
 5   0  0.2601252E-07  0.4129916E+04  0.7818609E-02  0.7978839E-01
        1   -1    0    0  501    0  0.00000000000E+00  0.00000000000E+00  0.15118823783E+04  0.15118823784E+04  0.50400001928E-02 0. -1.
       -1   -1    0    0    0  501  0.00000000000E+00  0.00000000000E+00 -0.28203586348E+04  0.28203586348E+04  0.50400001928E-02 0.  1.
    10030    2    1    2    0    0  0.00000000000E+00  0.00000000000E+00 -0.13084762565E+04  0.43322410132E+04  0.41299155055E+04 0.  0.
        3    1    3    3  502    0 -0.10886885667E+04  0.16632085809E+04 -0.67792607720E+02  0.19889950796E+04  0.10100000352E+00 0. -1.
       -3    1    3    3    0  502  0.10886885667E+04 -0.16632085809E+04 -0.12406836488E+04  0.23432459336E+04  0.10100000352E+00 0.  1.
</event>
<event>
 5   0  0.6043512E-07  0.3877824E+04  0.7818609E-02  0.8029657E-01
        2   -1    0    0  501    0  0.00000000000E+00  0.00000000000E+00  0.16712146197E+04  0.16712146197E+04  0.25500000920E-02 0.  1.
       -2   -1    0    0    0  501  0.00000000000E+00  0.00000000000E+00 -0.22494900195E+04  0.22494900195E+04  0.25500000920E-02 0. -1.
    10030    2    1    2    0    0  0.00000000000E+00  0.00000000000E+00 -0.57827539977E+03  0.39207046392E+04  0.38778244454E+04 0.  0.
        3    1    3    3  502    0  0.76972829980E+03  0.10204570681E+04  0.11849160226E+04  0.17429401235E+04  0.10100000352E+00 0.  1.
       -3    1    3    3    0  502 -0.76972829980E+03 -0.10204570681E+04 -0.17631914224E+04  0.21777645156E+04  0.10100000352E+00 0. -1.
</event>
<event>
 5   0  0.5161550E-07  0.3872970E+04  0.7818609E-02  0.8030675E-01
       -2   -1    0    0    0  501  0.00000000000E+00  0.00000000000E+00  0.15919848483E+04  0.15919848483E+04  0.25500000920E-02 0. -1.
        2   -1    0    0  501    0  0.00000000000E+00  0.00000000000E+00 -0.23555332538E+04  0.23555332538E+04  0.25500000920E-02 0.  1.
    10030    2    1    2    0    0  0.00000000000E+00  0.00000000000E+00 -0.76354840550E+03  0.39475181021E+04  0.38729695324E+04 0.  0.
        2    1    3    3  502    0 -0.12907082677E+04 -0.11315995663E+03 -0.18486565674E+04  0.22574906671E+04  0.25500000920E-02 0.  1.
       -2    1    3    3    0  502  0.12907082677E+04  0.11315995663E+03  0.10851081619E+04  0.16900274350E+04  0.25500000920E-02 0. -1.
</event>
<event>
 5   0  0.3579559E-07  0.4009839E+04  0.7818609E-02  0.8002565E-01
       -1   -1    0    0    0  501  0.00000000000E+00  0.00000000000E+00  0.17044139140E+04  0.17044139140E+04  0.50400001928E-02 0. -1.
        1   -1    0    0  501    0  0.00000000000E+00  0.00000000000E+00 -0.23584073504E+04  0.23584073504E+04  0.50400001928E-02 0.  1.
    10030    2    1    2    0    0  0.00000000000E+00  0.00000000000E+00 -0.65399343636E+03  0.40628212644E+04  0.40098390506E+04 0.  0.
        4    1    3    3  502    0 -0.36550886731E+03 -0.41098511555E+03 -0.22804744244E+04  0.23458624662E+04  0.12699999809E+01 0.  1.
       -4    1    3    3    0  502  0.36550886731E+03  0.41098511555E+03  0.16264809880E+04  0.17169587982E+04  0.12699999809E+01 0. -1.
</event>
<event>
 5   0  0.2713405E-07  0.3420408E+04  0.7818609E-02  0.8132916E-01
        1   -1    0    0  501    0  0.00000000000E+00  0.00000000000E+00  0.33143448627E+04  0.33143448627E+04  0.50400001928E-02 0.  1.
       -1   -1    0    0    0  501  0.00000000000E+00  0.00000000000E+00 -0.88246649866E+03  0.88246649868E+03  0.50400001928E-02 0. -1.
    10030    2    1    2    0    0  0.00000000000E+00  0.00000000000E+00  0.24318783641E+04  0.41968113614E+04  0.34204083420E+04 0.  0.
        1    1    3    3  502    0  0.13171597575E+04 -0.31654566525E+02  0.25538023081E+04  0.28736419518E+04  0.50400001928E-02 0.  1.
       -1    1    3    3    0  502 -0.13171597575E+04  0.31654566525E+02 -0.12192394401E+03  0.13231694096E+04  0.50400001928E-02 0. -1.
</event>
<event>
 5   0  0.5161550E-07  0.3723889E+04  0.7818609E-02  0.8062688E-01
        2   -1    0    0  501    0  0.00000000000E+00  0.00000000000E+00  0.24499168364E+04  0.24499168364E+04  0.25500000920E-02 0.  1.
       -2   -1    0    0    0  501  0.00000000000E+00  0.00000000000E+00 -0.14150837319E+04  0.14150837319E+04  0.25500000920E-02 0. -1.
    10030    2    1    2    0    0  0.00000000000E+00  0.00000000000E+00  0.10348331045E+04  0.38650005683E+04  0.37238890745E+04 0.  0.
        2    1    3    3  502    0  0.51110509127E+03  0.17797464200E+04  0.31479663498E+03  0.18782498916E+04  0.25500000920E-02 0.  1.
       -2    1    3    3    0  502 -0.51110509127E+03 -0.17797464200E+04  0.72003646953E+03  0.19867506767E+04  0.25500000920E-02 0. -1.
</event>
<event>
 5   0  0.7256473E-07  0.3772146E+04  0.7818609E-02  0.8052159E-01
        2   -1    0    0  501    0  0.00000000000E+00  0.00000000000E+00  0.25471100664E+04  0.25471100664E+04  0.25500000920E-02 0.  1.
       -2   -1    0    0    0  501  0.00000000000E+00  0.00000000000E+00 -0.13965912568E+04  0.13965912568E+04  0.25500000920E-02 0. -1.
    10030    2    1    2    0    0  0.00000000000E+00  0.00000000000E+00  0.11505188096E+04  0.39437013232E+04  0.37721461524E+04 0.  0.
        4    1    3    3  502    0  0.33563259396E+03 -0.36981753923E+03  0.24767263868E+04  0.25265766282E+04  0.12699999809E+01 0.  1.
       -4    1    3    3    0  502 -0.33563259396E+03  0.36981753923E+03 -0.13262075772E+04  0.14171246950E+04  0.12699999809E+01 0. -1.
</event>
<event>
 5   0  0.4449262E-07  0.2721921E+04  0.7818609E-02  0.8327927E-01
       -2   -1    0    0    0  501  0.00000000000E+00  0.00000000000E+00  0.11371355417E+04  0.11371355417E+04  0.25500000920E-02 0.  1.
        2   -1    0    0  501    0  0.00000000000E+00  0.00000000000E+00 -0.16288419046E+04  0.16288419046E+04  0.25500000920E-02 0. -1.
    10030    2    1    2    0    0  0.00000000000E+00  0.00000000000E+00 -0.49170636294E+03  0.27659774463E+04  0.27219213960E+04 0.  0.
        1    1    3    3  502    0 -0.41961616840E+03 -0.10817209609E+04  0.47700849985E+03  0.12544859804E+04  0.50400001928E-02 0.  1.
       -1    1    3    3    0  502  0.41961616840E+03  0.10817209609E+04 -0.96871486279E+03  0.15114914659E+04  0.50400001928E-02 0. -1.
</event>
<event>
 5   0  0.6043512E-07  0.3769698E+04  0.7818609E-02  0.8052689E-01
       -2   -1    0    0    0  501  0.00000000000E+00  0.00000000000E+00  0.23480728829E+04  0.23480728829E+04  0.25500000920E-02 0.  1.
        2   -1    0    0  501    0  0.00000000000E+00  0.00000000000E+00 -0.15130090089E+04  0.15130090089E+04  0.25500000920E-02 0. -1.
    10030    2    1    2    0    0  0.00000000000E+00  0.00000000000E+00  0.83506387396E+03  0.38610818918E+04  0.37696978263E+04 0.  0.
        3    1    3    3  502    0  0.12787888651E+04  0.66666808884E+03 -0.82552293742E+03  0.16616965525E+04  0.10100000352E+00 0. -1.
       -3    1    3    3    0  502 -0.12787888651E+04 -0.66666808884E+03  0.16605868114E+04  0.21993853393E+04  0.10100000352E+00 0.  1.
</event>
<event>
 5   0  0.2713405E-07  0.2498417E+04  0.7818609E-02  0.8403550E-01
        1   -1    0    0  501    0  0.00000000000E+00  0.00000000000E+00  0.32304638516E+04  0.32304638516E+04  0.50400001928E-02 0. -1.
       -1   -1    0    0    0  501  0.00000000000E+00  0.00000000000E+00 -0.48306414933E+03  0.48306414936E+03  0.50400001928E-02 0.  1.
    10030    2    1    2    0    0  0.00000000000E+00  0.00000000000E+00  0.27473997022E+04  0.37135280009E+04  0.24984165165E+04 0.  0.
        1    1    3    3  502    0 -0.10719125433E+04 -0.44050477941E+03  0.68054249970E+03  0.13439416115E+04  0.50400001928E-02 0.  1.
       -1    1    3    3    0  502  0.10719125433E+04  0.44050477941E+03  0.20668572025E+04  0.23695863894E+04  0.50400001928E-02 0. -1.
</event>
<event>
 5   0  0.3579559E-07  0.2902640E+04  0.7818609E-02  0.8272092E-01
        1   -1    0    0  501    0  0.00000000000E+00  0.00000000000E+00  0.15900079670E+04  0.15900079671E+04  0.50400001928E-02 0. -1.
       -1   -1    0    0    0  501  0.00000000000E+00  0.00000000000E+00 -0.13247292489E+04  0.13247292489E+04  0.50400001928E-02 0.  1.
    10030    2    1    2    0    0  0.00000000000E+00  0.00000000000E+00  0.26527871816E+03  0.29147372159E+04  0.29026402188E+04 0.  0.
        4    1    3    3  502    0 -0.52861318073E+03 -0.10429135948E+04 -0.73072743048E+03  0.13787910834E+04  0.12699999809E+01 0.  1.
       -4    1    3    3    0  502  0.52861318073E+03  0.10429135948E+04  0.99600614864E+03  0.15359461326E+04  0.12699999809E+01 0. -1.
</event>
<event>
 5   0  0.5161550E-07  0.3956439E+04  0.7818609E-02  0.8013392E-01
        2   -1    0    0  501    0  0.00000000000E+00  0.00000000000E+00  0.16766537629E+04  0.16766537629E+04  0.25500000920E-02 0. -1.
       -2   -1    0    0    0  501  0.00000000000E+00  0.00000000000E+00 -0.23340247846E+04  0.23340247846E+04  0.25500000920E-02 0.  1.
    10030    2    1    2    0    0  0.00000000000E+00  0.00000000000E+00 -0.65737102170E+03  0.40106785474E+04  0.39564385185E+04 0.  0.
        2    1    3    3  502    0  0.61402832953E+03 -0.11719118760E+04  0.11621714980E+04  0.17609800753E+04  0.25500000920E-02 0. -1.
       -2    1    3    3    0  502 -0.61402832953E+03  0.11719118760E+04 -0.18195425197E+04  0.22496984722E+04  0.25500000920E-02 0.  1.
</event>
<event>
 5   0  0.2601252E-07  0.4098275E+04  0.7818609E-02  0.7985010E-01
        1   -1    0    0  501    0  0.00000000000E+00  0.00000000000E+00  0.13237855970E+04  0.13237855970E+04  0.50400001928E-02 0. -1.
       -1   -1    0    0    0  501  0.00000000000E+00  0.00000000000E+00 -0.31719376617E+04  0.31719376617E+04  0.50400001928E-02 0.  1.
    10030    2    1    2    0    0  0.00000000000E+00  0.00000000000E+00 -0.18481520647E+04  0.44957232586E+04  0.40982754378E+04 0.  0.
        3    1    3    3  502    0 -0.16184724865E+04 -0.10247368887E+04 -0.17222568097E+04  0.25759866866E+04  0.10100000352E+00 0. -1.
       -3    1    3    3    0  502  0.16184724865E+04  0.10247368887E+04 -0.12589525495E+03  0.19197365720E+04  0.10100000352E+00 0.  1.
</event>
<event>
 5   0  0.2713405E-07  0.4100586E+04  0.7818609E-02  0.7984557E-01
       -1   -1    0    0    0  501  0.00000000000E+00  0.00000000000E+00  0.15414104121E+04  0.15414104121E+04  0.50400001928E-02 0. -1.
        1   -1    0    0  501    0  0.00000000000E+00  0.00000000000E+00 -0.27271781741E+04  0.27271781741E+04  0.50400001928E-02 0.  1.
    10030    2    1    2    0    0  0.00000000000E+00  0.00000000000E+00 -0.11857677620E+04  0.42685885861E+04  0.41005857304E+04 0.  0.
        1    1    3    3  502    0  0.87791106675E+03 -0.57441878886E+03 -0.24265928680E+04  0.26436788256E+04  0.50400001928E-02 0.  1.
       -1    1    3    3    0  502 -0.87791106675E+03  0.57441878886E+03  0.12408251060E+04  0.16249097605E+04  0.50400001928E-02 0. -1.
</event>
<event>
 5   0  0.7570277E-07  0.3705691E+04  0.7818609E-02  0.8066702E-01
        2   -1    0    0  501    0  0.00000000000E+00  0.00000000000E+00  0.25149393269E+04  0.25149393269E+04  0.25500000920E-02 0. -1.
       -2   -1    0    0    0  501  0.00000000000E+00  0.00000000000E+00 -0.13650572679E+04  0.13650572679E+04  0.25500000920E-02 0.  1.
    10030    2    1    2    0    0  0.00000000000E+00  0.00000000000E+00  0.11498820591E+04  0.38799965948E+04  0.37056908702E+04 0.  0.
        5    1    3    3  502    0  0.12565687540E+04 -0.12035482210E+04  0.12416997499E+04  0.21375999889E+04  0.46999998093E+01 0. -1.
       -5    1    3    3    0  502 -0.12565687540E+04  0.12035482210E+04 -0.91817690807E+02  0.17423966059E+04  0.46999998093E+01 0.  1.
</event>
<event>
 5   0  0.5161550E-07  0.3952109E+04  0.7818609E-02  0.8014278E-01
       -2   -1    0    0    0  501  0.00000000000E+00  0.00000000000E+00  0.24151902914E+04  0.24151902914E+04  0.25500000920E-02 0. -1.
        2   -1    0    0  501    0  0.00000000000E+00  0.00000000000E+00 -0.16167633051E+04  0.16167633051E+04  0.25500000920E-02 0.  1.
    10030    2    1    2    0    0  0.00000000000E+00  0.00000000000E+00  0.79842698623E+03  0.40319535965E+04  0.39521088234E+04 0.  0.
        2    1    3    3  502    0  0.12957641543E+04 -0.15561905160E+03  0.19129587027E+04  0.23157359588E+04  0.25500000920E-02 0. -1.
       -2    1    3    3    0  502 -0.12957641543E+04  0.15561905160E+03 -0.11145317165E+04  0.17162176377E+04  0.25500000920E-02 0.  1.
</event>
<event>
 5   0  0.4449262E-07  0.3992362E+04  0.7818609E-02  0.8006089E-01
        2   -1    0    0  501    0  0.00000000000E+00  0.00000000000E+00  0.20471985594E+04  0.20471985594E+04  0.25500000920E-02 0. -1.
       -2   -1    0    0    0  501  0.00000000000E+00  0.00000000000E+00 -0.19464343959E+04  0.19464343959E+04  0.25500000920E-02 0.  1.
    10030    2    1    2    0    0  0.00000000000E+00  0.00000000000E+00  0.10076416352E+03  0.39936329553E+04  0.39923615524E+04 0.  0.
        1    1    3    3  502    0  0.11710243583E+04 -0.12000607480E+04 -0.10331497614E+04  0.19694776658E+04  0.50400001928E-02 0.  1.
       -1    1    3    3    0  502 -0.11710243583E+04  0.12000607480E+04  0.11339139250E+04  0.20241552895E+04  0.50400001928E-02 0. -1.
</event>
<event>
 5   0  0.2601252E-07  0.4015747E+04  0.7818609E-02  0.8001377E-01
        1   -1    0    0  501    0  0.00000000000E+00  0.00000000000E+00  0.21038615979E+04  0.21038615979E+04  0.50400001928E-02 0.  1.
       -1   -1    0    0    0  501  0.00000000000E+00  0.00000000000E+00 -0.19162647598E+04  0.19162647598E+04  0.50400001928E-02 0. -1.
    10030    2    1    2    0    0  0.00000000000E+00  0.00000000000E+00  0.18759683815E+03  0.40201263577E+04  0.40157469240E+04 0.  0.
        3    1    3    3  502    0 -0.10950361866E+04  0.15088074016E+04  0.84023332492E+03  0.20448951258E+04  0.10100000352E+00 0.  1.
       -3    1    3    3    0  502  0.10950361866E+04 -0.15088074016E+04 -0.65263648677E+03  0.19752312318E+04  0.10100000352E+00 0. -1.
</event>
<event>
 5   0  0.3579559E-07  0.3876018E+04  0.7818609E-02  0.8030036E-01
        1   -1    0    0  501    0  0.00000000000E+00  0.00000000000E+00  0.15411438234E+04  0.15411438234E+04  0.50400001928E-02 0.  1.
       -1   -1    0    0    0  501  0.00000000000E+00  0.00000000000E+00 -0.24370720152E+04  0.24370720153E+04  0.50400001928E-02 0. -1.
    10030    2    1    2    0    0  0.00000000000E+00  0.00000000000E+00 -0.89592819188E+03  0.39782158386E+04  0.38760177933E+04 0.  0.
        4    1    3    3  502    0 -0.14843435603E+03 -0.15024062030E+04  0.79923822727E+03  0.17082273016E+04  0.12699999809E+01 0.  1.
       -4    1    3    3    0  502  0.14843435603E+03  0.15024062030E+04 -0.16951664191E+04  0.22699885371E+04  0.12699999809E+01 0. -1.
</event>
<event>
 5   0  0.2601252E-07  0.3825760E+04  0.7818609E-02  0.8040649E-01
        1   -1    0    0  501    0  0.00000000000E+00  0.00000000000E+00  0.20750151146E+04  0.20750151146E+04  0.50400001928E-02 0.  1.
       -1   -1    0    0    0  501  0.00000000000E+00  0.00000000000E+00 -0.17634138875E+04  0.17634138875E+04  0.50400001928E-02 0. -1.
    10030    2    1    2    0    0  0.00000000000E+00  0.00000000000E+00  0.31160122714E+03  0.38384290021E+04  0.38257603008E+04 0.  0.
        3    1    3    3  502    0 -0.79756413232E+03  0.77888289711E+03 -0.14038060360E+04  0.17926066243E+04  0.10100000352E+00 0. -1.
       -3    1    3    3    0  502  0.79756413232E+03 -0.77888289711E+03  0.17154072632E+04  0.20458223777E+04  0.10100000352E+00 0.  1.
</event>
<event>
 5   0  0.6043512E-07  0.4044510E+04  0.7818609E-02  0.7995627E-01
       -2   -1    0    0    0  501  0.00000000000E+00  0.00000000000E+00  0.15437980553E+04  0.15437980553E+04  0.25500000920E-02 0.  1.
        2   -1    0    0  501    0  0.00000000000E+00  0.00000000000E+00 -0.26489969036E+04  0.26489969036E+04  0.25500000920E-02 0. -1.
    10030    2    1    2    0    0  0.00000000000E+00  0.00000000000E+00 -0.11051988483E+04  0.41927949589E+04  0.40445104862E+04 0.  0.
        3    1    3    3  502    0 -0.18388254123E+04  0.18261414342E+03 -0.14042353504E+04  0.23208842607E+04  0.10100000352E+00 0. -1.
       -3    1    3    3    0  502  0.18388254123E+04 -0.18261414342E+03  0.29903650206E+03  0.18719106982E+04  0.10100000352E+00 0.  1.
</event>
<event>
 5   0  0.2401125E-07  0.2409529E+04  0.7818609E-02  0.8435945E-01
        1   -1    0    0  501    0  0.00000000000E+00  0.00000000000E+00  0.80389381811E+03  0.80389381813E+03  0.50400001928E-02 0.  1.
       -1   -1    0    0    0  501  0.00000000000E+00  0.00000000000E+00 -0.18055331838E+04  0.18055331838E+04  0.50400001928E-02 0. -1.
    10030    2    1    2    0    0  0.00000000000E+00  0.00000000000E+00 -0.10016393656E+04  0.26094270019E+04  0.24095285554E+04 0.  0.
        5    1    3    3  502    0  0.58365711889E+03 -0.29039963435E+03 -0.15980085740E+04  0.17258740025E+04  0.46999998093E+01 0. -1.
       -5    1    3    3    0  502 -0.58365711889E+03  0.29039963435E+03  0.59636920834E+03  0.88355299938E+03  0.46999998093E+01 0.  1.
</event>
<event>
 5   0  0.5161550E-07  0.4003476E+04  0.7818609E-02  0.8003846E-01
       -2   -1    0    0    0  501  0.00000000000E+00  0.00000000000E+00  0.24560350630E+04  0.24560350630E+04  0.25500000920E-02 0. -1.
        2   -1    0    0  501    0  0.00000000000E+00  0.00000000000E+00 -0.16314732226E+04  0.16314732226E+04  0.25500000920E-02 0.  1.
    10030    2    1    2    0    0  0.00000000000E+00  0.00000000000E+00  0.82456184038E+03  0.40875082856E+04  0.40034762090E+04 0.  0.
        2    1    3    3  502    0  0.46614143789E+03 -0.13148524936E+04 -0.10534104561E+04  0.17480842397E+04  0.25500000920E-02 0.  1.
       -2    1    3    3    0  502 -0.46614143789E+03  0.13148524936E+04  0.18779722965E+04  0.23394240459E+04  0.25500000920E-02 0. -1.
</event>
<event>
 5   0  0.5161550E-07  0.4027563E+04  0.7818609E-02  0.7999009E-01
       -2   -1    0    0    0  501  0.00000000000E+00  0.00000000000E+00  0.28358919911E+04  0.28358919911E+04  0.25500000920E-02 0.  1.
        2   -1    0    0  501    0  0.00000000000E+00  0.00000000000E+00 -0.14299968667E+04  0.14299968667E+04  0.25500000920E-02 0. -1.
    10030    2    1    2    0    0  0.00000000000E+00  0.00000000000E+00  0.14058951244E+04  0.42658888578E+04  0.40275633634E+04 0.  0.
        2    1    3    3  502    0  0.67488164108E+03  0.18970968642E+04  0.67161821652E+03  0.21226193183E+04  0.25500000920E-02 0.  1.
       -2    1    3    3    0  502 -0.67488164108E+03 -0.18970968642E+04  0.73427690787E+03  0.21432695395E+04  0.25500000920E-02 0. -1.
</event>
<event>
 5   0  0.6043512E-07  0.3547579E+04  0.7818609E-02  0.8102606E-01
        2   -1    0    0  501    0  0.00000000000E+00  0.00000000000E+00  0.19231840739E+04  0.19231840739E+04  0.25500000920E-02 0. -1.
       -2   -1    0    0    0  501  0.00000000000E+00  0.00000000000E+00 -0.16360004142E+04  0.16360004142E+04  0.25500000920E-02 0.  1.
    10030    2    1    2    0    0  0.00000000000E+00  0.00000000000E+00  0.28718365973E+03  0.35591844881E+04  0.35475794234E+04 0.  0.
        3    1    3    3  502    0  0.57482419532E+03 -0.16724988882E+04  0.65633949416E+01  0.17685356867E+04  0.10100000352E+00 0.  1.
       -3    1    3    3    0  502 -0.57482419532E+03  0.16724988882E+04  0.28062026479E+03  0.17906488014E+04  0.10100000352E+00 0. -1.
</event>
<event>
 5   0  0.7256473E-07  0.3204031E+04  0.7818609E-02  0.8187753E-01
       -2   -1    0    0    0  501  0.00000000000E+00  0.00000000000E+00  0.10814690070E+04  0.10814690070E+04  0.25500000920E-02 0.  1.
        2   -1    0    0  501    0  0.00000000000E+00  0.00000000000E+00 -0.23731178816E+04  0.23731178816E+04  0.25500000920E-02 0. -1.
    10030    2    1    2    0    0  0.00000000000E+00  0.00000000000E+00 -0.12916488746E+04  0.34545868886E+04  0.32040308606E+04 0.  0.
        4    1    3    3  502    0  0.81529073754E+03  0.65472217579E+03 -0.19544467558E+04  0.22165793125E+04  0.12699999809E+01 0. -1.
       -4    1    3    3    0  502 -0.81529073754E+03 -0.65472217579E+03  0.66279788124E+03  0.12380075761E+04  0.12699999809E+01 0.  1.
</event>
<event>
 5   0  0.5161550E-07  0.4029867E+04  0.7818609E-02  0.7998548E-01
        2   -1    0    0  501    0  0.00000000000E+00  0.00000000000E+00  0.25591948769E+04  0.25591948769E+04  0.25500000920E-02 0.  1.
       -2   -1    0    0    0  501  0.00000000000E+00  0.00000000000E+00 -0.15864197860E+04  0.15864197860E+04  0.25500000920E-02 0. -1.
    10030    2    1    2    0    0  0.00000000000E+00  0.00000000000E+00  0.97277509096E+03  0.41456146629E+04  0.40298671883E+04 0.  0.
        2    1    3    3  502    0  0.11735655447E+04 -0.70022226232E+03  0.20095881835E+04  0.24302287899E+04  0.25500000920E-02 0.  1.
       -2    1    3    3    0  502 -0.11735655447E+04  0.70022226232E+03 -0.10368130925E+04  0.17153858730E+04  0.25500000920E-02 0. -1.
</event>
<event>
 5   0  0.7256473E-07  0.3907818E+04  0.7818609E-02  0.8023405E-01
       -2   -1    0    0    0  501  0.00000000000E+00  0.00000000000E+00  0.21396483334E+04  0.21396483334E+04  0.25500000920E-02 0.  1.
        2   -1    0    0  501    0  0.00000000000E+00  0.00000000000E+00 -0.17842929923E+04  0.17842929923E+04  0.25500000920E-02 0. -1.
    10030    2    1    2    0    0  0.00000000000E+00  0.00000000000E+00  0.35535534107E+03  0.39239413257E+04  0.39078175634E+04 0.  0.
        4    1    3    3  502    0 -0.61623421870E+02  0.87578477130E+03  0.19304346610E+04  0.21207017718E+04  0.12699999809E+01 0.  1.
       -4    1    3    3    0  502  0.61623421870E+02 -0.87578477130E+03 -0.15750793199E+04  0.18032395539E+04  0.12699999809E+01 0. -1.
</event>
<event>
 5   0  0.7570277E-07  0.4622930E+04  0.7818609E-02  0.7889462E-01
       -2   -1    0    0    0  501  0.00000000000E+00  0.00000000000E+00  0.24719309195E+04  0.24719309195E+04  0.25500000920E-02 0. -1.
        2   -1    0    0  501    0  0.00000000000E+00  0.00000000000E+00 -0.21614153066E+04  0.21614153066E+04  0.25500000920E-02 0.  1.
    10030    2    1    2    0    0  0.00000000000E+00  0.00000000000E+00  0.31051561284E+03  0.46333462261E+04  0.46229295155E+04 0.  0.
        5    1    3    3  502    0  0.18401254495E+04 -0.91146907418E+03 -0.90826925906E+03  0.22453981117E+04  0.46999998093E+01 0.  1.
       -5    1    3    3    0  502 -0.18401254495E+04  0.91146907418E+03  0.12187848719E+04  0.23879481144E+04  0.46999998093E+01 0. -1.
</event>
<event>
 5   0  0.2647879E-07  0.2279527E+04  0.7818609E-02  0.8486037E-01
       -1   -1    0    0    0  501  0.00000000000E+00  0.00000000000E+00  0.95533361933E+03  0.95533361935E+03  0.50400001928E-02 0. -1.
        1   -1    0    0  501    0  0.00000000000E+00  0.00000000000E+00 -0.13597985986E+04  0.13597985986E+04  0.50400001928E-02 0.  1.
    10030    2    1    2    0    0  0.00000000000E+00  0.00000000000E+00 -0.40446497922E+03  0.23151322179E+04  0.22795274219E+04 0.  0.
        2    1    3    3  502    0 -0.50134457070E+03  0.99415662332E+03 -0.44969278569E+03  0.12007986391E+04  0.25500000920E-02 0.  1.
       -2    1    3    3    0  502  0.50134457070E+03 -0.99415662332E+03  0.45227806471E+02  0.11143335788E+04  0.25500000920E-02 0. -1.
</event>
<event>
 5   0  0.2401125E-07  0.2635416E+04  0.7818609E-02  0.8356270E-01
       -3   -1    0    0    0  501  0.00000000000E+00  0.00000000000E+00  0.84334861606E+03  0.84334862210E+03  0.10100000352E+00 0.  1.
        3   -1    0    0  501    0  0.00000000000E+00  0.00000000000E+00 -0.20588809411E+04  0.20588809436E+04  0.10100000352E+00 0. -1.
    10030    2    1    2    0    0  0.00000000000E+00  0.00000000000E+00 -0.12155323251E+04  0.29022295657E+04  0.26354160238E+04 0.  0.
        3    1    3    3  502    0  0.25413856822E+03  0.12857829661E+04 -0.75767319606E+03  0.15138999075E+04  0.10100000352E+00 0.  1.
       -3    1    3    3    0  502 -0.25413856822E+03 -0.12857829661E+04 -0.45785912900E+03  0.13883296582E+04  0.10100000352E+00 0. -1.
</event>
<event>
 5   0  0.2647879E-07  0.2819056E+04  0.7818609E-02  0.8297377E-01
        1   -1    0    0  501    0  0.00000000000E+00  0.00000000000E+00  0.18508011253E+04  0.18508011253E+04  0.50400001928E-02 0. -1.
       -1   -1    0    0    0  501  0.00000000000E+00  0.00000000000E+00 -0.10734641235E+04  0.10734641235E+04  0.50400001928E-02 0.  1.
    10030    2    1    2    0    0  0.00000000000E+00  0.00000000000E+00  0.77733700179E+03  0.29242652488E+04  0.28190555920E+04 0.  0.
        2    1    3    3  502    0  0.11903506605E+04  0.73718024654E+02 -0.39063469698E+03  0.12549758996E+04  0.25500000920E-02 0.  1.
       -2    1    3    3    0  502 -0.11903506605E+04 -0.73718024654E+02  0.11679716988E+04  0.16692893492E+04  0.25500000920E-02 0. -1.
</event>
<event>
 5   0  0.2401125E-07  0.3857562E+04  0.7818609E-02  0.8033914E-01
        3   -1    0    0  501    0  0.00000000000E+00  0.00000000000E+00  0.15901315978E+04  0.15901316010E+04  0.10100000352E+00 0.  1.
       -3   -1    0    0    0  501  0.00000000000E+00  0.00000000000E+00 -0.23395527704E+04  0.23395527726E+04  0.10100000352E+00 0. -1.
    10030    2    1    2    0    0  0.00000000000E+00  0.00000000000E+00 -0.74942117263E+03  0.39296843736E+04  0.38575623368E+04 0.  0.
        3    1    3    3  502    0  0.15186603655E+04 -0.10066112508E+04  0.27005355727E+03  0.18418806829E+04  0.10100000352E+00 0.  1.
       -3    1    3    3    0  502 -0.15186603655E+04  0.10066112508E+04 -0.10194747299E+04  0.20878036907E+04  0.10100000352E+00 0. -1.
</event>
<event>
 5   0  0.5161550E-07  0.2365034E+04  0.7818609E-02  0.8452711E-01
        2   -1    0    0  501    0  0.00000000000E+00  0.00000000000E+00  0.23908259143E+04  0.23908259143E+04  0.25500000920E-02 0.  1.
       -2   -1    0    0    0  501  0.00000000000E+00  0.00000000000E+00 -0.58488010181E+03  0.58488010182E+03  0.25500000920E-02 0. -1.
    10030    2    1    2    0    0  0.00000000000E+00  0.00000000000E+00  0.18059458124E+04  0.29757060161E+04  0.23650340413E+04 0.  0.
        2    1    3    3  502    0 -0.55089452293E+02  0.51224715400E+03 -0.43624484223E+03  0.67508633294E+03  0.25500000920E-02 0. -1.
       -2    1    3    3    0  502  0.55089452293E+02 -0.51224715400E+03  0.22421906547E+04  0.23006196831E+04  0.25500000920E-02 0.  1.
</event>
<event>
 5   0  0.2601252E-07  0.4025007E+04  0.7818609E-02  0.7999521E-01
       -1   -1    0    0    0  501  0.00000000000E+00  0.00000000000E+00  0.31802543835E+04  0.31802543835E+04  0.50400001928E-02 0. -1.
        1   -1    0    0  501    0  0.00000000000E+00  0.00000000000E+00 -0.12735366939E+04  0.12735366939E+04  0.50400001928E-02 0.  1.
    10030    2    1    2    0    0  0.00000000000E+00  0.00000000000E+00  0.19067176896E+04  0.44537910773E+04  0.40250071569E+04 0.  0.
        3    1    3    3  502    0  0.17378701927E+04  0.32479502379E+03  0.20172895922E+04  0.26823761711E+04  0.10100000352E+00 0. -1.
       -3    1    3    3    0  502 -0.17378701927E+04 -0.32479502379E+03 -0.11057190263E+03  0.17714149062E+04  0.10100000352E+00 0.  1.
</event>
<event>
 5   0  0.7570277E-07  0.3951408E+04  0.7818609E-02  0.8014422E-01
       -2   -1    0    0    0  501  0.00000000000E+00  0.00000000000E+00  0.24890760716E+04  0.24890760716E+04  0.25500000920E-02 0. -1.
        2   -1    0    0  501    0  0.00000000000E+00  0.00000000000E+00 -0.15682146459E+04  0.15682146459E+04  0.25500000920E-02 0.  1.
    10030    2    1    2    0    0  0.00000000000E+00  0.00000000000E+00  0.92086142573E+03  0.40572907175E+04  0.39514076227E+04 0.  0.
        5    1    3    3  502    0 -0.67768184864E+03  0.13559084916E+03  0.23609044262E+04  0.24599856434E+04  0.46999998093E+01 0. -1.
       -5    1    3    3    0  502  0.67768184864E+03 -0.13559084916E+03 -0.14400430004E+04  0.15973050740E+04  0.46999998093E+01 0.  1.
</event>
<event>
 5   0  0.2647879E-07  0.3482771E+04  0.7818609E-02  0.8117885E-01
        1   -1    0    0  501    0  0.00000000000E+00  0.00000000000E+00  0.10751394538E+04  0.10751394539E+04  0.50400001928E-02 0.  1.
       -1   -1    0    0    0  501  0.00000000000E+00  0.00000000000E+00 -0.28204937339E+04  0.28204937339E+04  0.50400001928E-02 0. -1.
    10030    2    1    2    0    0  0.00000000000E+00  0.00000000000E+00 -0.17453542800E+04  0.38956331877E+04  0.34827713635E+04 0.  0.
        2    1    3    3  502    0 -0.13282948322E+04 -0.81673880890E+03 -0.17398154924E+04  0.23363191971E+04  0.25500000920E-02 0. -1.
       -2    1    3    3    0  502  0.13282948322E+04  0.81673880890E+03 -0.55387876570E+01  0.15593139906E+04  0.25500000920E-02 0.  1.
</event>
<event>
 5   0  0.2647879E-07  0.2518743E+04  0.7818609E-02  0.8396338E-01
        1   -1    0    0  501    0  0.00000000000E+00  0.00000000000E+00  0.12936283251E+04  0.12936283251E+04  0.50400001928E-02 0. -1.
       -1   -1    0    0    0  501  0.00000000000E+00  0.00000000000E+00 -0.12260222749E+04  0.12260222749E+04  0.50400001928E-02 0.  1.
    10030    2    1    2    0    0  0.00000000000E+00  0.00000000000E+00  0.67606050192E+02  0.25196505999E+04  0.25187434502E+04 0.  0.
        2    1    3    3  502    0  0.11902296991E+04 -0.38017825603E+03 -0.12384465538E+03  0.12555953734E+04  0.25500000920E-02 0. -1.
       -2    1    3    3    0  502 -0.11902296991E+04  0.38017825603E+03  0.19145070557E+03  0.12640552265E+04  0.25500000920E-02 0.  1.
</event>
<event>
 5   0  0.4449262E-07  0.4187077E+04  0.7818609E-02  0.7967835E-01
       -2   -1    0    0    0  501  0.00000000000E+00  0.00000000000E+00  0.16584602929E+04  0.16584602929E+04  0.25500000920E-02 0.  1.
        2   -1    0    0  501    0  0.00000000000E+00  0.00000000000E+00 -0.26427543478E+04  0.26427543478E+04  0.25500000920E-02 0. -1.
    10030    2    1    2    0    0  0.00000000000E+00  0.00000000000E+00 -0.98429405486E+03  0.43012146407E+04  0.41870768561E+04 0.  0.
        1    1    3    3  502    0  0.80693463034E+03 -0.18267305934E+04  0.15332436668E+03  0.20028970318E+04  0.50400001928E-02 0. -1.
       -1    1    3    3    0  502 -0.80693463034E+03  0.18267305934E+04 -0.11376184215E+04  0.22983176089E+04  0.50400001928E-02 0.  1.
</event>
<event>
 5   0  0.7570277E-07  0.4057955E+04  0.7818609E-02  0.7992956E-01
        2   -1    0    0  501    0  0.00000000000E+00  0.00000000000E+00  0.22672340785E+04  0.22672340785E+04  0.25500000920E-02 0.  1.
       -2   -1    0    0    0  501  0.00000000000E+00  0.00000000000E+00 -0.18157583746E+04  0.18157583746E+04  0.25500000920E-02 0. -1.
    10030    2    1    2    0    0  0.00000000000E+00  0.00000000000E+00  0.45147570384E+03  0.40829924531E+04  0.40579547879E+04 0.  0.
        5    1    3    3  502    0 -0.16439018335E+04  0.11881139670E+04  0.17346406605E+03  0.20357160679E+04  0.46999998093E+01 0. -1.
       -5    1    3    3    0  502  0.16439018335E+04 -0.11881139670E+04  0.27801163778E+03  0.20472763852E+04  0.46999998093E+01 0.  1.
</event>
<event>
 5   0  0.4449262E-07  0.3983724E+04  0.7818609E-02  0.8007838E-01
        2   -1    0    0  501    0  0.00000000000E+00  0.00000000000E+00  0.27387172050E+04  0.27387172050E+04  0.25500000920E-02 0.  1.
       -2   -1    0    0    0  501  0.00000000000E+00  0.00000000000E+00 -0.14486761770E+04  0.14486761770E+04  0.25500000920E-02 0. -1.
    10030    2    1    2    0    0  0.00000000000E+00  0.00000000000E+00  0.12900410280E+04  0.41873933820E+04  0.39837240720E+04 0.  0.
        1    1    3    3  502    0 -0.28174018827E+03 -0.26202189863E+02  0.27174842323E+04  0.27321758072E+04  0.50400001928E-02 0.  1.
       -1    1    3    3    0  502  0.28174018827E+03  0.26202189863E+02 -0.14274432043E+04  0.14552175748E+04  0.50400001928E-02 0. -1.
</event>
<event>
 5   0  0.2401125E-07  0.2719247E+04  0.7818609E-02  0.8328787E-01
        1   -1    0    0  501    0  0.00000000000E+00  0.00000000000E+00  0.29843805555E+04  0.29843805555E+04  0.50400001928E-02 0. -1.
       -1   -1    0    0    0  501  0.00000000000E+00  0.00000000000E+00 -0.61941684155E+03  0.61941684157E+03  0.50400001928E-02 0.  1.
    10030    2    1    2    0    0  0.00000000000E+00  0.00000000000E+00  0.23649637139E+04  0.36037973971E+04  0.27192466440E+04 0.  0.
        5    1    3    3  502    0  0.22519535608E+03  0.13390330991E+04  0.12745958776E+04  0.18623478005E+04  0.46999998093E+01 0.  1.
       -5    1    3    3    0  502 -0.22519535608E+03 -0.13390330991E+04  0.10903678363E+04  0.17414495965E+04  0.46999998093E+01 0. -1.
</event>
<event>
 5   0  0.4449262E-07  0.4146555E+04  0.7818609E-02  0.7975617E-01
        2   -1    0    0  501    0  0.00000000000E+00  0.00000000000E+00  0.29002772192E+04  0.29002772192E+04  0.25500000920E-02 0.  1.
       -2   -1    0    0    0  501  0.00000000000E+00  0.00000000000E+00 -0.14820929606E+04  0.14820929606E+04  0.25500000920E-02 0. -1.
    10030    2    1    2    0    0  0.00000000000E+00  0.00000000000E+00  0.14181842586E+04  0.43823701798E+04  0.41465554140E+04 0.  0.
        1    1    3    3  502    0  0.22257145129E+02 -0.15777550529E+04  0.21304444452E+04  0.26511506787E+04  0.50400001928E-02 0.  1.
       -1    1    3    3    0  502 -0.22257145129E+02  0.15777550529E+04 -0.71226018655E+03  0.17312195010E+04  0.50400001928E-02 0. -1.
</event>
<event>
 5   0  0.2713405E-07  0.2756178E+04  0.7818609E-02  0.8317004E-01
        1   -1    0    0  501    0  0.00000000000E+00  0.00000000000E+00  0.96953267118E+03  0.96953267119E+03  0.50400001928E-02 0.  1.
       -1   -1    0    0    0  501  0.00000000000E+00  0.00000000000E+00 -0.19588092863E+04  0.19588092863E+04  0.50400001928E-02 0. -1.
    10030    2    1    2    0    0  0.00000000000E+00  0.00000000000E+00 -0.98927661516E+03  0.29283419575E+04  0.27561782234E+04 0.  0.
        1    1    3    3  502    0 -0.59728756523E+03  0.10888727020E+04 -0.11292183091E+04  0.16785500250E+04  0.50400001928E-02 0. -1.
       -1    1    3    3    0  502  0.59728756523E+03 -0.10888727020E+04  0.13994169396E+03  0.12497919325E+04  0.50400001928E-02 0.  1.
</event>
<event>
 5   0  0.2601252E-07  0.2352524E+04  0.7818609E-02  0.8457495E-01
       -1   -1    0    0    0  501  0.00000000000E+00  0.00000000000E+00  0.96248370964E+03  0.96248370966E+03  0.50400001928E-02 0.  1.
        1   -1    0    0  501    0  0.00000000000E+00  0.00000000000E+00 -0.14375232023E+04  0.14375232023E+04  0.50400001928E-02 0. -1.
    10030    2    1    2    0    0  0.00000000000E+00  0.00000000000E+00 -0.47503949261E+03  0.24000069119E+04  0.23525243161E+04 0.  0.
        3    1    3    3  502    0 -0.74666305192E+03 -0.89508510649E+03 -0.76506469111E+02  0.11681336871E+04  0.10100000352E+00 0.  1.
       -3    1    3    3    0  502  0.74666305192E+03  0.89508510649E+03 -0.39853302350E+03  0.12318732248E+04  0.10100000352E+00 0. -1.
</event>
<event>
 5   0  0.4449262E-07  0.4044573E+04  0.7818609E-02  0.7995615E-01
       -2   -1    0    0    0  501  0.00000000000E+00  0.00000000000E+00  0.18565066951E+04  0.18565066951E+04  0.25500000920E-02 0. -1.
        2   -1    0    0  501    0  0.00000000000E+00  0.00000000000E+00 -0.22028698891E+04  0.22028698891E+04  0.25500000920E-02 0.  1.
    10030    2    1    2    0    0  0.00000000000E+00  0.00000000000E+00 -0.34636319405E+03  0.40593765842E+04  0.40445730047E+04 0.  0.
        1    1    3    3  502    0 -0.15726284610E+04  0.11456440373E+04 -0.72654535549E+03  0.20769036304E+04  0.50400001928E-02 0.  1.
       -1    1    3    3    0  502  0.15726284610E+04 -0.11456440373E+04  0.38018216145E+03  0.19824729538E+04  0.50400001928E-02 0. -1.
</event>
<event>
 5   0  0.2713405E-07  0.3957334E+04  0.7818609E-02  0.8013209E-01
       -1   -1    0    0    0  501  0.00000000000E+00  0.00000000000E+00  0.31142057688E+04  0.31142057688E+04  0.50400001928E-02 0. -1.
        1   -1    0    0  501    0  0.00000000000E+00  0.00000000000E+00 -0.12571820517E+04  0.12571820517E+04  0.50400001928E-02 0.  1.
    10030    2    1    2    0    0  0.00000000000E+00  0.00000000000E+00  0.18570237172E+04  0.43713878205E+04  0.39573342532E+04 0.  0.
        1    1    3    3  502    0  0.14754618674E+04 -0.96955201491E+03  0.19153514296E+04  0.26049164921E+04  0.50400001928E-02 0. -1.
       -1    1    3    3    0  502 -0.14754618674E+04  0.96955201491E+03 -0.58327712493E+02  0.17664713284E+04  0.50400001928E-02 0.  1.
</event>
<event>
 5   0  0.7570277E-07  0.2711730E+04  0.7818609E-02  0.8331209E-01
        2   -1    0    0  501    0  0.00000000000E+00  0.00000000000E+00  0.20270117402E+04  0.20270117402E+04  0.25500000920E-02 0.  1.
       -2   -1    0    0    0  501  0.00000000000E+00  0.00000000000E+00 -0.90693587133E+03  0.90693587133E+03  0.25500000920E-02 0. -1.
    10030    2    1    2    0    0  0.00000000000E+00  0.00000000000E+00  0.11200758689E+04  0.29339476115E+04  0.27117298234E+04 0.  0.
        5    1    3    3  502    0 -0.69780292997E+03  0.36203593648E+02 -0.69712099065E+03  0.98703566038E+03  0.46999998093E+01 0. -1.
       -5    1    3    3    0  502  0.69780292997E+03 -0.36203593648E+02  0.18171968595E+04  0.19469119512E+04  0.46999998093E+01 0.  1.
</event>
<event>
 5   0  0.5161550E-07  0.2280828E+04  0.7818609E-02  0.8485519E-01
        2   -1    0    0  501    0  0.00000000000E+00  0.00000000000E+00  0.15486713286E+04  0.15486713286E+04  0.25500000920E-02 0.  1.
       -2   -1    0    0    0  501  0.00000000000E+00  0.00000000000E+00 -0.83978056259E+03  0.83978056260E+03  0.25500000920E-02 0. -1.
    10030    2    1    2    0    0  0.00000000000E+00  0.00000000000E+00  0.70889076605E+03  0.23884518912E+04  0.22808279897E+04 0.  0.
        2    1    3    3  502    0 -0.93130215920E+03  0.29764386719E+03  0.96919682581E+03  0.13766837221E+04  0.25500000920E-02 0.  1.
       -2    1    3    3    0  502  0.93130215920E+03 -0.29764386719E+03 -0.26030605976E+03  0.10117681692E+04  0.25500000920E-02 0. -1.
</event>
<event>
 5   0  0.5161550E-07  0.2295989E+04  0.7818609E-02  0.8479504E-01
       -2   -1    0    0    0  501  0.00000000000E+00  0.00000000000E+00  0.88229612022E+03  0.88229612023E+03  0.25500000920E-02 0. -1.
        2   -1    0    0  501    0  0.00000000000E+00  0.00000000000E+00 -0.14937065397E+04  0.14937065397E+04  0.25500000920E-02 0.  1.
    10030    2    1    2    0    0  0.00000000000E+00  0.00000000000E+00 -0.61141041949E+03  0.23760026599E+04  0.22959890982E+04 0.  0.
        2    1    3    3  502    0 -0.67268464005E+03  0.84575338998E+03 -0.70661824529E+03  0.12911672108E+04  0.25500000920E-02 0.  1.
       -2    1    3    3    0  502  0.67268464005E+03 -0.84575338998E+03  0.95207825809E+02  0.10848354491E+04  0.25500000920E-02 0. -1.
</event>
<event>
 5   0  0.7256473E-07  0.2527244E+04  0.7818609E-02  0.8393344E-01
       -2   -1    0    0    0  501  0.00000000000E+00  0.00000000000E+00  0.11491747790E+04  0.11491747790E+04  0.25500000920E-02 0.  1.
        2   -1    0    0  501    0  0.00000000000E+00  0.00000000000E+00 -0.13894668596E+04  0.13894668596E+04  0.25500000920E-02 0. -1.
    10030    2    1    2    0    0  0.00000000000E+00  0.00000000000E+00 -0.24029208059E+03  0.25386416386E+04  0.25272437724E+04 0.  0.
        4    1    3    3  502    0 -0.22609333905E+03 -0.12250781946E+04  0.92477852541E+02  0.12491951597E+04  0.12699999809E+01 0. -1.
       -4    1    3    3    0  502  0.22609333905E+03  0.12250781946E+04 -0.33276993313E+03  0.12894464790E+04  0.12699999809E+01 0.  1.
</event>
<event>
 5   0  0.4449262E-07  0.2919954E+04  0.7818609E-02  0.8266965E-01
        2   -1    0    0  501    0  0.00000000000E+00  0.00000000000E+00  0.15894811751E+04  0.15894811751E+04  0.25500000920E-02 0.  1.
       -2   -1    0    0    0  501  0.00000000000E+00  0.00000000000E+00 -0.13410240741E+04  0.13410240741E+04  0.25500000920E-02 0. -1.
    10030    2    1    2    0    0  0.00000000000E+00  0.00000000000E+00  0.24845710102E+03  0.29305052491E+04  0.29199537812E+04 0.  0.
        1    1    3    3  502    0 -0.14955876305E+03  0.83672710042E+03  0.13155531434E+04  0.15662567278E+04  0.50400001928E-02 0.  1.
       -1    1    3    3    0  502  0.14955876305E+03 -0.83672710042E+03 -0.10670960424E+04  0.13642485213E+04  0.50400001928E-02 0. -1.
</event>
<event>
 5   0  0.6043512E-07  0.3679952E+04  0.7818609E-02  0.8072419E-01
        2   -1    0    0  501    0  0.00000000000E+00  0.00000000000E+00  0.11323715371E+04  0.11323715371E+04  0.25500000920E-02 0. -1.
       -2   -1    0    0    0  501  0.00000000000E+00  0.00000000000E+00 -0.29897526272E+04  0.29897526272E+04  0.25500000920E-02 0.  1.
    10030    2    1    2    0    0  0.00000000000E+00  0.00000000000E+00 -0.18573810901E+04  0.41221241643E+04  0.36799515095E+04 0.  0.
        3    1    3    3  502    0  0.15022470719E+03  0.83705163338E+03 -0.27563971435E+04  0.28846053668E+04  0.10100000352E+00 0.  1.
       -3    1    3    3    0  502 -0.15022470719E+03 -0.83705163338E+03  0.89901605341E+03  0.12375187975E+04  0.10100000352E+00 0. -1.
</event>
<event>
 5   0  0.5161550E-07  0.4015741E+04  0.7818609E-02  0.8001379E-01
        2   -1    0    0  501    0  0.00000000000E+00  0.00000000000E+00  0.12472686896E+04  0.12472686896E+04  0.25500000920E-02 0. -1.
       -2   -1    0    0    0  501  0.00000000000E+00  0.00000000000E+00 -0.32322977137E+04  0.32322977137E+04  0.25500000920E-02 0.  1.
    10030    2    1    2    0    0  0.00000000000E+00  0.00000000000E+00 -0.19850290241E+04  0.44795664032E+04  0.40157408948E+04 0.  0.
        2    1    3    3  502    0  0.70524303065E+03  0.13849015996E+04  0.42563170953E+03  0.16113604578E+04  0.25500000920E-02 0. -1.
       -2    1    3    3    0  502 -0.70524303065E+03 -0.13849015996E+04 -0.24106607336E+04  0.28682059454E+04  0.25500000920E-02 0.  1.
</event>
<event>
 5   0  0.4449262E-07  0.3924312E+04  0.7818609E-02  0.8019992E-01
       -2   -1    0    0    0  501  0.00000000000E+00  0.00000000000E+00  0.16986431757E+04  0.16986431757E+04  0.25500000920E-02 0. -1.
        2   -1    0    0  501    0  0.00000000000E+00  0.00000000000E+00 -0.22665479740E+04  0.22665479740E+04  0.25500000920E-02 0.  1.
    10030    2    1    2    0    0  0.00000000000E+00  0.00000000000E+00 -0.56790479832E+03  0.39651911497E+04  0.39243120408E+04 0.  0.
        1    1    3    3  502    0 -0.79178005558E+03 -0.60561083306E+03 -0.19916394741E+04  0.22271748769E+04  0.50400001928E-02 0.  1.
       -1    1    3    3    0  502  0.79178005558E+03  0.60561083306E+03  0.14237346758E+04  0.17380162728E+04  0.50400001928E-02 0. -1.
</event>
<event>
 5   0  0.2401125E-07  0.3779229E+04  0.7818609E-02  0.8050627E-01
        1   -1    0    0  501    0  0.00000000000E+00  0.00000000000E+00  0.22591610550E+04  0.22591610550E+04  0.50400001928E-02 0. -1.
       -1   -1    0    0    0  501  0.00000000000E+00  0.00000000000E+00 -0.15805172663E+04  0.15805172663E+04  0.50400001928E-02 0.  1.
    10030    2    1    2    0    0  0.00000000000E+00  0.00000000000E+00  0.67864378874E+03  0.38396783213E+04  0.37792290509E+04 0.  0.
        5    1    3    3  502    0  0.60556660798E+03 -0.14708443978E+04 -0.69705629286E+03  0.17366645401E+04  0.46999998093E+01 0.  1.
       -5    1    3    3    0  502 -0.60556660798E+03  0.14708443978E+04  0.13757000816E+04  0.21030137812E+04  0.46999998093E+01 0. -1.
</event>
<event>
 5   0  0.2401125E-07  0.4036208E+04  0.7818609E-02  0.7997282E-01
       -1   -1    0    0    0  501  0.00000000000E+00  0.00000000000E+00  0.16344352362E+04  0.16344352362E+04  0.50400001928E-02 0.  1.
        1   -1    0    0  501    0  0.00000000000E+00  0.00000000000E+00 -0.24918350349E+04  0.24918350350E+04  0.50400001928E-02 0. -1.
    10030    2    1    2    0    0  0.00000000000E+00  0.00000000000E+00 -0.85739979878E+03  0.41262702711E+04  0.40362076180E+04 0.  0.
        5    1    3    3  502    0 -0.18863212474E+04  0.71595947601E+03 -0.47343793942E+03  0.20724312757E+04  0.46999998093E+01 0.  1.
       -5    1    3    3    0  502  0.18863212474E+04 -0.71595947601E+03 -0.38396185935E+03  0.20538389955E+04  0.46999998093E+01 0. -1.
</event>
<event>
 5   0  0.2713405E-07  0.3456570E+04  0.7818609E-02  0.8124160E-01
       -1   -1    0    0    0  501  0.00000000000E+00  0.00000000000E+00  0.12413665946E+04  0.12413665946E+04  0.50400001928E-02 0.  1.
        1   -1    0    0  501    0  0.00000000000E+00  0.00000000000E+00 -0.24061938410E+04  0.24061938410E+04  0.50400001928E-02 0. -1.
    10030    2    1    2    0    0  0.00000000000E+00  0.00000000000E+00 -0.11648272463E+04  0.36475604356E+04  0.34565697762E+04 0.  0.
        1    1    3    3  502    0 -0.10653049620E+04 -0.10952398342E+04 -0.14348499871E+04  0.20960008211E+04  0.50400001928E-02 0. -1.
       -1    1    3    3    0  502  0.10653049620E+04  0.10952398342E+04  0.27002274079E+03  0.15515596145E+04  0.50400001928E-02 0.  1.
</event>
<event>
 5   0  0.2401125E-07  0.3974979E+04  0.7818609E-02  0.8009613E-01
       -1   -1    0    0    0  501  0.00000000000E+00  0.00000000000E+00  0.20809946943E+04  0.20809946943E+04  0.50400001928E-02 0.  1.
        1   -1    0    0  501    0  0.00000000000E+00  0.00000000000E+00 -0.18981853520E+04  0.18981853520E+04  0.50400001928E-02 0. -1.
    10030    2    1    2    0    0  0.00000000000E+00  0.00000000000E+00  0.18280934225E+03  0.39791800463E+04  0.39749785641E+04 0.  0.
        5    1    3    3  502    0 -0.10869235867E+04 -0.13818037073E+04  0.10193727161E+04  0.20322222303E+04  0.46999998093E+01 0.  1.
       -5    1    3    3    0  502  0.10869235867E+04  0.13818037073E+04 -0.83656337388E+03  0.19469578160E+04  0.46999998093E+01 0. -1.
</event>
<event>
 5   0  0.6043512E-07  0.2755059E+04  0.7818609E-02  0.8317358E-01
        2   -1    0    0  501    0  0.00000000000E+00  0.00000000000E+00  0.69570295030E+03  0.69570295031E+03  0.25500000920E-02 0. -1.
       -2   -1    0    0    0  501  0.00000000000E+00  0.00000000000E+00 -0.27275833970E+04  0.27275833970E+04  0.25500000920E-02 0.  1.
    10030    2    1    2    0    0  0.00000000000E+00  0.00000000000E+00 -0.20318804467E+04  0.34232863473E+04  0.27550592128E+04 0.  0.
        3    1    3    3  502    0  0.85997687938E+03  0.99648177441E+03 -0.51113688158E+03  0.14120187965E+04  0.10100000352E+00 0. -1.
       -3    1    3    3    0  502 -0.85997687938E+03 -0.99648177441E+03 -0.15207435651E+04  0.20112675508E+04  0.10100000352E+00 0.  1.
</event>
<event>
 5   0  0.2647879E-07  0.4050972E+04  0.7818609E-02  0.7994342E-01
       -1   -1    0    0    0  501  0.00000000000E+00  0.00000000000E+00  0.14190130223E+04  0.14190130223E+04  0.50400001928E-02 0. -1.
        1   -1    0    0  501    0  0.00000000000E+00  0.00000000000E+00 -0.28911605734E+04  0.28911605734E+04  0.50400001928E-02 0.  1.
    10030    2    1    2    0    0  0.00000000000E+00  0.00000000000E+00 -0.14721475511E+04  0.43101735957E+04  0.40509724774E+04 0.  0.
        2    1    3    3  502    0 -0.13848270799E+03 -0.19108944955E+04 -0.36833066851E+02  0.19162598749E+04  0.25500000920E-02 0. -1.
       -2    1    3    3    0  502  0.13848270799E+03  0.19108944955E+04 -0.14353144842E+04  0.23939137207E+04  0.25500000920E-02 0.  1.
</event>
<event>
 5   0  0.4449262E-07  0.3356579E+04  0.7818609E-02  0.8148646E-01
        2   -1    0    0  501    0  0.00000000000E+00  0.00000000000E+00  0.18067553527E+04  0.18067553527E+04  0.25500000920E-02 0.  1.
       -2   -1    0    0    0  501  0.00000000000E+00  0.00000000000E+00 -0.15589583739E+04  0.15589583739E+04  0.25500000920E-02 0. -1.
    10030    2    1    2    0    0  0.00000000000E+00  0.00000000000E+00  0.24779697886E+03  0.33657137266E+04  0.33565794414E+04 0.  0.
        1    1    3    3  502    0  0.10847419414E+04  0.12748822537E+04  0.24634061978E+01  0.16739163386E+04  0.50400001928E-02 0.  1.
       -1    1    3    3    0  502 -0.10847419414E+04 -0.12748822537E+04  0.24533357266E+03  0.16917973880E+04  0.50400001928E-02 0. -1.
</event>
<event>
 5   0  0.2401125E-07  0.3996620E+04  0.7818609E-02  0.8005229E-01
        1   -1    0    0  501    0  0.00000000000E+00  0.00000000000E+00  0.14689636828E+04  0.14689636828E+04  0.50400001928E-02 0. -1.
       -1   -1    0    0    0  501  0.00000000000E+00  0.00000000000E+00 -0.27184081185E+04  0.27184081185E+04  0.50400001928E-02 0.  1.
    10030    2    1    2    0    0  0.00000000000E+00  0.00000000000E+00 -0.12494444357E+04  0.41873718013E+04  0.39966199725E+04 0.  0.
        5    1    3    3  502    0  0.10248464178E+04  0.13161922015E+04 -0.17774845798E+04  0.24376516594E+04  0.46999998093E+01 0.  1.
       -5    1    3    3    0  502 -0.10248464178E+04 -0.13161922015E+04  0.52804014405E+03  0.17497201419E+04  0.46999998093E+01 0. -1.
</event>
<event>
 5   0  0.5161550E-07  0.3943297E+04  0.7818609E-02  0.8016084E-01
       -2   -1    0    0    0  501  0.00000000000E+00  0.00000000000E+00  0.14313469951E+04  0.14313469951E+04  0.25500000920E-02 0. -1.
        2   -1    0    0  501    0  0.00000000000E+00  0.00000000000E+00 -0.27159020179E+04  0.27159020179E+04  0.25500000920E-02 0.  1.
    10030    2    1    2    0    0  0.00000000000E+00  0.00000000000E+00 -0.12845550228E+04  0.41472490129E+04  0.39432971951E+04 0.  0.
        2    1    3    3  502    0  0.18882864183E+04  0.28538702063E+03 -0.11578642562E+04  0.22333206184E+04  0.25500000920E-02 0. -1.
       -2    1    3    3    0  502 -0.18882864183E+04 -0.28538702063E+03 -0.12669076658E+03  0.19139283945E+04  0.25500000920E-02 0.  1.
</event>
<event>
 5   0  0.2601252E-07  0.4014514E+04  0.7818609E-02  0.8001625E-01
        1   -1    0    0  501    0  0.00000000000E+00  0.00000000000E+00  0.22867400807E+04  0.22867400807E+04  0.50400001928E-02 0.  1.
       -1   -1    0    0    0  501  0.00000000000E+00  0.00000000000E+00 -0.17619317747E+04  0.17619317747E+04  0.50400001928E-02 0. -1.
    10030    2    1    2    0    0  0.00000000000E+00  0.00000000000E+00  0.52480830600E+03  0.40486718554E+04  0.40145136735E+04 0.  0.
        3    1    3    3  502    0 -0.59800491065E+03  0.11632393870E+04 -0.12731622442E+04  0.18252884306E+04  0.10100000352E+00 0. -1.
       -3    1    3    3    0  502  0.59800491065E+03 -0.11632393870E+04  0.17979705502E+04  0.22233834249E+04  0.10100000352E+00 0.  1.
</event>
<event>
 5   0  0.5161550E-07  0.3456687E+04  0.7818609E-02  0.8124132E-01
        2   -1    0    0  501    0  0.00000000000E+00  0.00000000000E+00  0.21671374697E+04  0.21671374697E+04  0.25500000920E-02 0.  1.
       -2   -1    0    0    0  501  0.00000000000E+00  0.00000000000E+00 -0.13783945560E+04  0.13783945560E+04  0.25500000920E-02 0. -1.
    10030    2    1    2    0    0  0.00000000000E+00  0.00000000000E+00  0.78874291372E+03  0.35455320257E+04  0.34566865582E+04 0.  0.
        2    1    3    3  502    0  0.14395241763E+04  0.94974897043E+03  0.51094799191E+03  0.17986997558E+04  0.25500000920E-02 0. -1.
       -2    1    3    3    0  502 -0.14395241763E+04 -0.94974897043E+03  0.27779492180E+03  0.17468322700E+04  0.25500000920E-02 0.  1.
</event>
<event>
 5   0  0.6043512E-07  0.3842228E+04  0.7818609E-02  0.8037153E-01
        2   -1    0    0  501    0  0.00000000000E+00  0.00000000000E+00  0.17205849154E+04  0.17205849154E+04  0.25500000920E-02 0.  1.
       -2   -1    0    0    0  501  0.00000000000E+00  0.00000000000E+00 -0.21450141403E+04  0.21450141403E+04  0.25500000920E-02 0. -1.
    10030    2    1    2    0    0  0.00000000000E+00  0.00000000000E+00 -0.42442922492E+03  0.38655990557E+04  0.38422279855E+04 0.  0.
        3    1    3    3  502    0  0.10725900663E+02 -0.16177593812E+04  0.83014653204E+03  0.18183519283E+04  0.10100000352E+00 0.  1.
       -3    1    3    3    0  502 -0.10725900663E+02  0.16177593812E+04 -0.12545757570E+04  0.20472471274E+04  0.10100000352E+00 0. -1.
</event>
<event>
 5   0  0.2647879E-07  0.3750294E+04  0.7818609E-02  0.8056907E-01
        1   -1    0    0  501    0  0.00000000000E+00  0.00000000000E+00  0.17219915350E+04  0.17219915350E+04  0.50400001928E-02 0.  1.
       -1   -1    0    0    0  501  0.00000000000E+00  0.00000000000E+00 -0.20419242645E+04  0.20419242645E+04  0.50400001928E-02 0. -1.
    10030    2    1    2    0    0  0.00000000000E+00  0.00000000000E+00 -0.31993272945E+03  0.37639157995E+04  0.37502940144E+04 0.  0.
        2    1    3    3  502    0  0.17790806040E+04  0.30080501784E+03  0.35234323348E+03  0.18384115993E+04  0.25500000920E-02 0.  1.
       -2    1    3    3    0  502 -0.17790806040E+04 -0.30080501784E+03 -0.67227596294E+03  0.19255042001E+04  0.25500000920E-02 0. -1.
</event>
<event>
 5   0  0.4449262E-07  0.3803809E+04  0.7818609E-02  0.8045338E-01
       -2   -1    0    0    0  501  0.00000000000E+00  0.00000000000E+00  0.13102698065E+04  0.13102698065E+04  0.25500000920E-02 0.  1.
        2   -1    0    0  501    0  0.00000000000E+00  0.00000000000E+00 -0.27606840946E+04  0.27606840946E+04  0.25500000920E-02 0. -1.
    10030    2    1    2    0    0  0.00000000000E+00  0.00000000000E+00 -0.14504142881E+04  0.40709539011E+04  0.38038091511E+04 0.  0.
        1    1    3    3  502    0  0.75701223362E+02  0.18889414667E+04 -0.94819167360E+03  0.21149226912E+04  0.50400001928E-02 0. -1.
       -1    1    3    3    0  502 -0.75701223362E+02 -0.18889414667E+04 -0.50222261446E+03  0.19560312099E+04  0.50400001928E-02 0.  1.
</event>
<event>
 5   0  0.2401125E-07  0.4025072E+04  0.7818609E-02  0.7999508E-01
        1   -1    0    0  501    0  0.00000000000E+00  0.00000000000E+00  0.14991225196E+04  0.14991225196E+04  0.50400001928E-02 0. -1.
       -1   -1    0    0    0  501  0.00000000000E+00  0.00000000000E+00 -0.27017814448E+04  0.27017814448E+04  0.50400001928E-02 0.  1.
    10030    2    1    2    0    0  0.00000000000E+00  0.00000000000E+00 -0.12026589252E+04  0.42009039645E+04  0.40250721271E+04 0.  0.
        5    1    3    3  502    0 -0.15765169930E+04  0.21336237994E+03  0.68513560776E+03  0.17321553699E+04  0.46999998093E+01 0.  1.
       -5    1    3    3    0  502  0.15765169930E+04 -0.21336237994E+03 -0.18877945329E+04  0.24687485946E+04  0.46999998093E+01 0. -1.
</event>
<event>
 5   0  0.2713405E-07  0.3910972E+04  0.7818609E-02  0.8022751E-01
       -1   -1    0    0    0  501  0.00000000000E+00  0.00000000000E+00  0.20508030822E+04  0.20508030823E+04  0.50400001928E-02 0. -1.
        1   -1    0    0  501    0  0.00000000000E+00  0.00000000000E+00 -0.18645986017E+04  0.18645986017E+04  0.50400001928E-02 0.  1.
    10030    2    1    2    0    0  0.00000000000E+00  0.00000000000E+00  0.18620448059E+03  0.39154016839E+04  0.39109715210E+04 0.  0.
        1    1    3    3  502    0  0.15794880793E+04 -0.10469184422E+04 -0.39025284564E+03  0.19347139584E+04  0.50400001928E-02 0.  1.
       -1    1    3    3    0  502 -0.15794880793E+04  0.10469184422E+04  0.57645732623E+03  0.19806877255E+04  0.50400001928E-02 0. -1.
</event>
<event>
 5   0  0.2713405E-07  0.3294670E+04  0.7818609E-02  0.8164253E-01
       -1   -1    0    0    0  501  0.00000000000E+00  0.00000000000E+00  0.11620913443E+04  0.11620913443E+04  0.50400001928E-02 0.  1.
        1   -1    0    0  501    0  0.00000000000E+00  0.00000000000E+00 -0.23351979619E+04  0.23351979619E+04  0.50400001928E-02 0. -1.
    10030    2    1    2    0    0  0.00000000000E+00  0.00000000000E+00 -0.11731066176E+04  0.34972893063E+04  0.32946704472E+04 0.  0.
        1    1    3    3  502    0  0.29803933239E+03  0.15947054370E+04 -0.28295631663E+03  0.16468081708E+04  0.50400001928E-02 0. -1.
       -1    1    3    3    0  502 -0.29803933239E+03 -0.15947054370E+04 -0.89015030098E+03  0.18504811355E+04  0.50400001928E-02 0.  1.
</event>
<event>
 5   0  0.2647879E-07  0.3816815E+04  0.7818609E-02  0.8042556E-01
       -1   -1    0    0    0  501  0.00000000000E+00  0.00000000000E+00  0.17926549340E+04  0.17926549340E+04  0.50400001928E-02 0.  1.
        1   -1    0    0  501    0  0.00000000000E+00  0.00000000000E+00 -0.20316337798E+04  0.20316337798E+04  0.50400001928E-02 0. -1.
    10030    2    1    2    0    0  0.00000000000E+00  0.00000000000E+00 -0.23897884583E+03  0.38242887138E+04  0.38168145459E+04 0.  0.
        2    1    3    3  502    0  0.18380868408E+03 -0.55639738612E+02 -0.20219273439E+04  0.20310272271E+04  0.25500000920E-02 0. -1.
       -2    1    3    3    0  502 -0.18380868408E+03  0.55639738612E+02  0.17829484981E+04  0.17932614867E+04  0.25500000920E-02 0.  1.
</event>
<event>
 5   0  0.4449262E-07  0.4005122E+04  0.7818609E-02  0.8003514E-01
        2   -1    0    0  501    0  0.00000000000E+00  0.00000000000E+00  0.20288788923E+04  0.20288788923E+04  0.25500000920E-02 0.  1.
       -2   -1    0    0    0  501  0.00000000000E+00  0.00000000000E+00 -0.19765846848E+04  0.19765846848E+04  0.25500000920E-02 0. -1.
    10030    2    1    2    0    0  0.00000000000E+00  0.00000000000E+00  0.52294207458E+02  0.40054635771E+04  0.40051221934E+04 0.  0.
        1    1    3    3  502    0 -0.81132573449E+02 -0.92446852387E+03  0.18008479936E+04  0.20259017849E+04  0.50400001928E-02 0.  1.
       -1    1    3    3    0  502  0.81132573449E+02  0.92446852387E+03 -0.17485537861E+04  0.19795617922E+04  0.50400001928E-02 0. -1.
</event>
<event>
 5   0  0.2401125E-07  0.4037617E+04  0.7818609E-02  0.7997001E-01
       -1   -1    0    0    0  501  0.00000000000E+00  0.00000000000E+00  0.20007607062E+04  0.20007607062E+04  0.50400001928E-02 0.  1.
        1   -1    0    0  501    0  0.00000000000E+00  0.00000000000E+00 -0.20370192624E+04  0.20370192625E+04  0.50400001928E-02 0. -1.
    10030    2    1    2    0    0  0.00000000000E+00  0.00000000000E+00 -0.36258556268E+02  0.40377799686E+04  0.40376171676E+04 0.  0.
        5    1    3    3  502    0 -0.66847811517E+03 -0.12475248308E+04 -0.14577653221E+04  0.20318176636E+04  0.46999998093E+01 0. -1.
       -5    1    3    3    0  502  0.66847811517E+03  0.12475248308E+04  0.14215067659E+04  0.20059623050E+04  0.46999998093E+01 0.  1.
</event>
<event>
 5   0  0.4449262E-07  0.4048798E+04  0.7818609E-02  0.7994774E-01
        2   -1    0    0  501    0  0.00000000000E+00  0.00000000000E+00  0.24640069603E+04  0.24640069603E+04  0.25500000920E-02 0.  1.
       -2   -1    0    0    0  501  0.00000000000E+00  0.00000000000E+00 -0.16632219971E+04  0.16632219971E+04  0.25500000920E-02 0. -1.
    10030    2    1    2    0    0  0.00000000000E+00  0.00000000000E+00  0.80078496319E+03  0.41272289574E+04  0.40487976375E+04 0.  0.
        1    1    3    3  502    0 -0.19324344479E+04  0.58711486667E+03  0.54158119515E+03  0.20910085971E+04  0.50400001928E-02 0.  1.
       -1    1    3    3    0  502  0.19324344479E+04 -0.58711486667E+03  0.25920376804E+03  0.20362203603E+04  0.50400001928E-02 0. -1.
</event>
<event>
 5   0  0.6096132E-07  0.2185286E+04  0.7818609E-02  0.8524578E-01
        2   -1    0    0  501    0  0.00000000000E+00  0.00000000000E+00  0.12715616325E+04  0.12715616325E+04  0.25500000920E-02 0. -1.
       -2   -1    0    0    0  501  0.00000000000E+00  0.00000000000E+00 -0.93889918617E+03  0.93889918617E+03  0.25500000920E-02 0.  1.
    10030    2    1    2    0    0  0.00000000000E+00  0.00000000000E+00  0.33266244629E+03  0.22104608186E+04  0.21852855025E+04 0.  0.
        3    1    3    3  502    0  0.59024817930E+03  0.24693875791E+03 -0.72959065931E+03  0.97039899200E+03  0.10100000352E+00 0.  1.
       -3    1    3    3    0  502 -0.59024817930E+03 -0.24693875791E+03  0.10622531056E+04  0.12400618266E+04  0.10100000352E+00 0. -1.
</event>
<event>
 5   0  0.7570277E-07  0.4028582E+04  0.7818609E-02  0.7998805E-01
        2   -1    0    0  501    0  0.00000000000E+00  0.00000000000E+00  0.13193808647E+04  0.13193808647E+04  0.25500000920E-02 0.  1.
       -2   -1    0    0    0  501  0.00000000000E+00  0.00000000000E+00 -0.30752064110E+04  0.30752064110E+04  0.25500000920E-02 0. -1.
    10030    2    1    2    0    0  0.00000000000E+00  0.00000000000E+00 -0.17558255463E+04  0.43945872757E+04  0.40285821296E+04 0.  0.
        5    1    3    3  502    0 -0.14205928281E+04 -0.14175452096E+04 -0.68951405960E+03  0.21220202951E+04  0.46999998093E+01 0. -1.
       -5    1    3    3    0  502  0.14205928281E+04  0.14175452096E+04 -0.10663114867E+04  0.22725669806E+04  0.46999998093E+01 0.  1.
</event>
<event>
 5   0  0.2647879E-07  0.2326157E+04  0.7818609E-02  0.8467678E-01
       -1   -1    0    0    0  501  0.00000000000E+00  0.00000000000E+00  0.13750383639E+04  0.13750383639E+04  0.50400001928E-02 0. -1.
        1   -1    0    0  501    0  0.00000000000E+00  0.00000000000E+00 -0.98379221181E+03  0.98379221183E+03  0.50400001928E-02 0.  1.
    10030    2    1    2    0    0  0.00000000000E+00  0.00000000000E+00  0.39124615209E+03  0.23588305757E+04  0.23261573751E+04 0.  0.
        2    1    3    3  502    0 -0.34477728365E+03 -0.30619889200E+03  0.12783862811E+04  0.13590072187E+04  0.25500000920E-02 0. -1.
       -2    1    3    3    0  502  0.34477728365E+03  0.30619889200E+03 -0.88714012900E+03  0.99982335704E+03  0.25500000920E-02 0.  1.
</event>
<event>
 5   0  0.5161550E-07  0.3987642E+04  0.7818609E-02  0.8007044E-01
        2   -1    0    0  501    0  0.00000000000E+00  0.00000000000E+00  0.31448524997E+04  0.31448524997E+04  0.25500000920E-02 0.  1.
       -2   -1    0    0    0  501  0.00000000000E+00  0.00000000000E+00 -0.12640725106E+04  0.12640725106E+04  0.25500000920E-02 0. -1.
    10030    2    1    2    0    0  0.00000000000E+00  0.00000000000E+00  0.18807799891E+04  0.44089250104E+04  0.39876417065E+04 0.  0.
        2    1    3    3  502    0 -0.93374775640E+03  0.39925971628E+03 -0.95669845666E+03  0.13951935818E+04  0.25500000920E-02 0. -1.
       -2    1    3    3    0  502  0.93374775640E+03 -0.39925971628E+03  0.28374784457E+04  0.30137314286E+04  0.25500000920E-02 0.  1.
</event>
<event>
 5   0  0.4449262E-07  0.3759642E+04  0.7818609E-02  0.8054871E-01
        2   -1    0    0  501    0  0.00000000000E+00  0.00000000000E+00  0.11601133302E+04  0.11601133302E+04  0.25500000920E-02 0.  1.
       -2   -1    0    0    0  501  0.00000000000E+00  0.00000000000E+00 -0.30460191035E+04  0.30460191035E+04  0.25500000920E-02 0. -1.
    10030    2    1    2    0    0  0.00000000000E+00  0.00000000000E+00 -0.18859057733E+04  0.42061324338E+04  0.37596421990E+04 0.  0.
        1    1    3    3  502    0  0.64239618381E+02 -0.14184470484E+04 -0.23211658097E+04  0.27210162575E+04  0.50400001928E-02 0. -1.
       -1    1    3    3    0  502 -0.64239618381E+02  0.14184470484E+04  0.43526003639E+03  0.14851161763E+04  0.50400001928E-02 0.  1.
</event>
<event>
 5   0  0.3579559E-07  0.2632858E+04  0.7818609E-02  0.8357125E-01
       -1   -1    0    0    0  501  0.00000000000E+00  0.00000000000E+00  0.16102621306E+04  0.16102621306E+04  0.50400001928E-02 0.  1.
        1   -1    0    0  501    0  0.00000000000E+00  0.00000000000E+00 -0.10762135375E+04  0.10762135375E+04  0.50400001928E-02 0. -1.
    10030    2    1    2    0    0  0.00000000000E+00  0.00000000000E+00  0.53404859308E+03  0.26864756682E+04  0.26328584496E+04 0.  0.
        4    1    3    3  502    0  0.12130142941E+04 -0.88585324837E+02 -0.24695318831E+03  0.12410634664E+04  0.12699999809E+01 0. -1.
       -4    1    3    3    0  502 -0.12130142941E+04  0.88585324837E+02  0.78100178139E+03  0.14454122018E+04  0.12699999809E+01 0.  1.
</event>
<event>
 5   0  0.6043512E-07  0.3464994E+04  0.7818609E-02  0.8122136E-01
        2   -1    0    0  501    0  0.00000000000E+00  0.00000000000E+00  0.20963220290E+04  0.20963220290E+04  0.25500000920E-02 0. -1.
       -2   -1    0    0    0  501  0.00000000000E+00  0.00000000000E+00 -0.14318154914E+04  0.14318154914E+04  0.25500000920E-02 0.  1.
    10030    2    1    2    0    0  0.00000000000E+00  0.00000000000E+00  0.66450653758E+03  0.35281375204E+04  0.34649942892E+04 0.  0.
        3    1    3    3  502    0  0.11320433806E+04 -0.98217833493E+03 -0.55269331062E+03  0.15973936281E+04  0.10100000352E+00 0.  1.
       -3    1    3    3    0  502 -0.11320433806E+04  0.98217833493E+03  0.12171998482E+04  0.19307438923E+04  0.10100000352E+00 0. -1.
</event>
<event>
 5   0  0.2401125E-07  0.2773716E+04  0.7818609E-02  0.8311475E-01
       -3   -1    0    0    0  501  0.00000000000E+00  0.00000000000E+00  0.23510413275E+04  0.23510413297E+04  0.10100000352E+00 0. -1.
        3   -1    0    0  501    0  0.00000000000E+00  0.00000000000E+00 -0.81809502054E+03  0.81809502677E+03  0.10100000352E+00 0.  1.
    10030    2    1    2    0    0  0.00000000000E+00  0.00000000000E+00  0.15329463069E+04  0.31691363564E+04  0.27737160752E+04 0.  0.
        4    1    3    3  502    0  0.39877199039E+03  0.21345188266E+03  0.22644002768E+04  0.23091320952E+04  0.12699999809E+01 0. -1.
       -4    1    3    3    0  502 -0.39877199039E+03 -0.21345188266E+03 -0.73145396982E+03  0.86000426127E+03  0.12699999809E+01 0.  1.
</event>
<event>
 5   0  0.2647879E-07  0.3250966E+04  0.7818609E-02  0.8175485E-01
        1   -1    0    0  501    0  0.00000000000E+00  0.00000000000E+00  0.24242077199E+04  0.24242077199E+04  0.50400001928E-02 0.  1.
       -1   -1    0    0    0  501  0.00000000000E+00  0.00000000000E+00 -0.10899210761E+04  0.10899210761E+04  0.50400001928E-02 0. -1.
    10030    2    1    2    0    0  0.00000000000E+00  0.00000000000E+00  0.13342866438E+04  0.35141287961E+04  0.32509660637E+04 0.  0.
        2    1    3    3  502    0  0.14930889028E+04 -0.63084648995E+03  0.53513770067E+03  0.17069429177E+04  0.25500000920E-02 0. -1.
       -2    1    3    3    0  502 -0.14930889028E+04  0.63084648995E+03  0.79914894311E+03  0.18071858783E+04  0.25500000920E-02 0.  1.
</event>
<event>
 5   0  0.2401125E-07  0.2098020E+04  0.7818609E-02  0.8562116E-01
       -3   -1    0    0    0  501  0.00000000000E+00  0.00000000000E+00  0.14489424014E+04  0.14489424049E+04  0.10100000352E+00 0. -1.
        3   -1    0    0  501    0  0.00000000000E+00  0.00000000000E+00 -0.75946532718E+03  0.75946533389E+03  0.10100000352E+00 0.  1.
    10030    2    1    2    0    0  0.00000000000E+00  0.00000000000E+00  0.68947707418E+03  0.22084077388E+04  0.20980195673E+04 0.  0.
        2    1    3    3  502    0  0.59245956046E+03  0.62453482714E+03  0.97575443420E+03  0.13012105122E+04  0.25500000920E-02 0. -1.
       -2    1    3    3    0  502 -0.59245956046E+03 -0.62453482714E+03 -0.28627736003E+03  0.90719722661E+03  0.25500000920E-02 0.  1.
</event>
<event>
 5   0  0.2601252E-07  0.2860237E+04  0.7818609E-02  0.8284807E-01
       -1   -1    0    0    0  501  0.00000000000E+00  0.00000000000E+00  0.15568975175E+04  0.15568975175E+04  0.50400001928E-02 0.  1.
        1   -1    0    0  501    0  0.00000000000E+00  0.00000000000E+00 -0.13136633745E+04  0.13136633745E+04  0.50400001928E-02 0. -1.
    10030    2    1    2    0    0  0.00000000000E+00  0.00000000000E+00  0.24323414297E+03  0.28705608920E+04  0.28602372256E+04 0.  0.
        3    1    3    3  502    0 -0.81292175522E+03 -0.56577401428E+02 -0.10578679676E+04  0.13353379458E+04  0.10100000352E+00 0. -1.
       -3    1    3    3    0  502  0.81292175522E+03  0.56577401428E+02  0.13011021105E+04  0.15352229463E+04  0.10100000352E+00 0.  1.
</event>
<event>
 5   0  0.5161550E-07  0.2033821E+04  0.7818609E-02  0.8590970E-01
       -2   -1    0    0    0  501  0.00000000000E+00  0.00000000000E+00  0.72547297592E+03  0.72547297592E+03  0.25500000920E-02 0. -1.
        2   -1    0    0  501    0  0.00000000000E+00  0.00000000000E+00 -0.14254244404E+04  0.14254244404E+04  0.25500000920E-02 0.  1.
    10030    2    1    2    0    0  0.00000000000E+00  0.00000000000E+00 -0.69995146448E+03  0.21508974163E+04  0.20338209466E+04 0.  0.
        2    1    3    3  502    0  0.37199254198E+03  0.24995087458E+03  0.61539789463E+03  0.76129393780E+03  0.25500000920E-02 0. -1.
       -2    1    3    3    0  502 -0.37199254198E+03 -0.24995087458E+03 -0.13153493591E+04  0.13896034785E+04  0.25500000920E-02 0.  1.
</event>
<event>
 5   0  0.3579559E-07  0.3210689E+04  0.7818609E-02  0.8186000E-01
        1   -1    0    0  501    0  0.00000000000E+00  0.00000000000E+00  0.20120678031E+04  0.20120678031E+04  0.50400001928E-02 0. -1.
       -1   -1    0    0    0  501  0.00000000000E+00  0.00000000000E+00 -0.12808371400E+04  0.12808371400E+04  0.50400001928E-02 0.  1.
    10030    2    1    2    0    0  0.00000000000E+00  0.00000000000E+00  0.73123066308E+03  0.32929049431E+04  0.32106891288E+04 0.  0.
        4    1    3    3  502    0 -0.15198647708E+04  0.75515126705E+02  0.89001858468E+03  0.17629027624E+04  0.12699999809E+01 0.  1.
       -4    1    3    3    0  502  0.15198647708E+04 -0.75515126705E+02 -0.15878792159E+03  0.15300021807E+04  0.12699999809E+01 0. -1.
</event>
<event>
 5   0  0.7570277E-07  0.3221017E+04  0.7818609E-02  0.8183289E-01
        2   -1    0    0  501    0  0.00000000000E+00  0.00000000000E+00  0.10819107712E+04  0.10819107712E+04  0.25500000920E-02 0.  1.
       -2   -1    0    0    0  501  0.00000000000E+00  0.00000000000E+00 -0.23973673392E+04  0.23973673392E+04  0.25500000920E-02 0. -1.
    10030    2    1    2    0    0  0.00000000000E+00  0.00000000000E+00 -0.13154565680E+04  0.34792781105E+04  0.32210169493E+04 0.  0.
        5    1    3    3  502    0 -0.65349556583E+03  0.14681714047E+04 -0.54376172240E+03  0.16965502140E+04  0.46999998093E+01 0. -1.
       -5    1    3    3    0  502  0.65349556583E+03 -0.14681714047E+04 -0.77169484561E+03  0.17827278964E+04  0.46999998093E+01 0.  1.
</event>
<event>
 5   0  0.6043512E-07  0.4022169E+04  0.7818609E-02  0.8000089E-01
       -2   -1    0    0    0  501  0.00000000000E+00  0.00000000000E+00  0.21047997320E+04  0.21047997320E+04  0.25500000920E-02 0.  1.
        2   -1    0    0  501    0  0.00000000000E+00  0.00000000000E+00 -0.19215419531E+04  0.19215419531E+04  0.25500000920E-02 0. -1.
    10030    2    1    2    0    0  0.00000000000E+00  0.00000000000E+00  0.18325777889E+03  0.40263416850E+04  0.40221690605E+04 0.  0.
        3    1    3    3  502    0 -0.55500390085E+03 -0.12496070363E+04  0.15679177444E+04  0.20803637034E+04  0.10100000352E+00 0.  1.
       -3    1    3    3    0  502  0.55500390085E+03  0.12496070363E+04 -0.13846599655E+04  0.19459779817E+04  0.10100000352E+00 0. -1.
</event>
<event>
 5   0  0.7256473E-07  0.3638413E+04  0.7818609E-02  0.8081749E-01
        2   -1    0    0  501    0  0.00000000000E+00  0.00000000000E+00  0.13545355258E+04  0.13545355258E+04  0.25500000920E-02 0. -1.
       -2   -1    0    0    0  501  0.00000000000E+00  0.00000000000E+00 -0.24432817560E+04  0.24432817560E+04  0.25500000920E-02 0.  1.
    10030    2    1    2    0    0  0.00000000000E+00  0.00000000000E+00 -0.10887462302E+04  0.37978172818E+04  0.36384128067E+04 0.  0.
        4    1    3    3  502    0  0.94140768401E+03 -0.27996560034E+03 -0.21427622303E+04  0.23571297701E+04  0.12699999809E+01 0. -1.
       -4    1    3    3    0  502 -0.94140768401E+03  0.27996560034E+03  0.10540160001E+04  0.14406875116E+04  0.12699999809E+01 0.  1.
</event>
<event>
 5   0  0.7570277E-07  0.4118871E+04  0.7818609E-02  0.7980987E-01
       -2   -1    0    0    0  501  0.00000000000E+00  0.00000000000E+00  0.26972988919E+04  0.26972988919E+04  0.25500000920E-02 0.  1.
        2   -1    0    0  501    0  0.00000000000E+00  0.00000000000E+00 -0.15724152090E+04  0.15724152090E+04  0.25500000920E-02 0. -1.
    10030    2    1    2    0    0  0.00000000000E+00  0.00000000000E+00  0.11248836830E+04  0.42697141009E+04  0.41188706223E+04 0.  0.
        5    1    3    3  502    0 -0.11860040417E+04  0.11387417429E+04 -0.72310107888E+03  0.17961724873E+04  0.46999998093E+01 0. -1.
       -5    1    3    3    0  502  0.11860040417E+04 -0.11387417429E+04  0.18479847619E+04  0.24735416136E+04  0.46999998093E+01 0.  1.
</event>
<event>
 5   0  0.2601252E-07  0.4019646E+04  0.7818609E-02  0.8000595E-01
        1   -1    0    0  501    0  0.00000000000E+00  0.00000000000E+00  0.20320695132E+04  0.20320695132E+04  0.50400001928E-02 0. -1.
       -1   -1    0    0    0  501  0.00000000000E+00  0.00000000000E+00 -0.19878202261E+04  0.19878202261E+04  0.50400001928E-02 0.  1.
    10030    2    1    2    0    0  0.00000000000E+00  0.00000000000E+00  0.44249287129E+02  0.40198897394E+04  0.40196461930E+04 0.  0.
        3    1    3    3  502    0  0.96256630014E+03  0.15516600294E+04 -0.81769176378E+03  0.20007005173E+04  0.10100000352E+00 0.  1.
       -3    1    3    3    0  502 -0.96256630014E+03 -0.15516600294E+04  0.86194105090E+03  0.20191892221E+04  0.10100000352E+00 0. -1.
</event>
<event>
 5   0  0.7570277E-07  0.3529811E+04  0.7818609E-02  0.8106761E-01
       -2   -1    0    0    0  501  0.00000000000E+00  0.00000000000E+00  0.15340428356E+04  0.15340428356E+04  0.25500000920E-02 0. -1.
        2   -1    0    0  501    0  0.00000000000E+00  0.00000000000E+00 -0.20305117152E+04  0.20305117152E+04  0.25500000920E-02 0.  1.
    10030    2    1    2    0    0  0.00000000000E+00  0.00000000000E+00 -0.49646887959E+03  0.35645545507E+04  0.35298112976E+04 0.  0.
        5    1    3    3  502    0  0.27632510734E+03  0.43694361846E+03 -0.19523257215E+04  0.20196220199E+04  0.46999998093E+01 0.  1.
       -5    1    3    3    0  502 -0.27632510734E+03 -0.43694361846E+03  0.14558568419E+04  0.15449325308E+04  0.46999998093E+01 0. -1.
</event>
<event>
 5   0  0.4449262E-07  0.3985964E+04  0.7818609E-02  0.8007384E-01
        2   -1    0    0  501    0  0.00000000000E+00  0.00000000000E+00  0.24117789177E+04  0.24117789177E+04  0.25500000920E-02 0. -1.
       -2   -1    0    0    0  501  0.00000000000E+00  0.00000000000E+00 -0.16469079447E+04  0.16469079447E+04  0.25500000920E-02 0.  1.
    10030    2    1    2    0    0  0.00000000000E+00  0.00000000000E+00  0.76487097303E+03  0.40586868625E+04  0.39859643052E+04 0.  0.
        1    1    3    3  502    0  0.35413528398E+03 -0.22926460565E+03 -0.16009220984E+04  0.16555741070E+04  0.50400001928E-02 0.  1.
       -1    1    3    3    0  502 -0.35413528398E+03  0.22926460565E+03  0.23657930714E+04  0.24031127555E+04  0.50400001928E-02 0. -1.
</event>
<event>
 5   0  0.2401125E-07  0.4066643E+04  0.7818609E-02  0.7991236E-01
       -1   -1    0    0    0  501  0.00000000000E+00  0.00000000000E+00  0.14299344197E+04  0.14299344197E+04  0.50400001928E-02 0.  1.
        1   -1    0    0  501    0  0.00000000000E+00  0.00000000000E+00 -0.28913188304E+04  0.28913188304E+04  0.50400001928E-02 0. -1.
    10030    2    1    2    0    0  0.00000000000E+00  0.00000000000E+00 -0.14613844107E+04  0.43212532500E+04  0.40666429958E+04 0.  0.
        5    1    3    3  502    0  0.97909102898E+03  0.11410506421E+04 -0.21852482820E+04  0.26525361364E+04  0.46999998093E+01 0. -1.
       -5    1    3    3    0  502 -0.97909102898E+03 -0.11410506421E+04  0.72386387136E+03  0.16687171136E+04  0.46999998093E+01 0.  1.
</event>
<event>
 5   0  0.2647879E-07  0.4088795E+04  0.7818609E-02  0.7986870E-01
       -1   -1    0    0    0  501  0.00000000000E+00  0.00000000000E+00  0.17566678410E+04  0.17566678410E+04  0.50400001928E-02 0. -1.
        1   -1    0    0  501    0  0.00000000000E+00  0.00000000000E+00 -0.23792548550E+04  0.23792548550E+04  0.50400001928E-02 0.  1.
    10030    2    1    2    0    0  0.00000000000E+00  0.00000000000E+00 -0.62258701403E+03  0.41359226960E+04  0.40887946827E+04 0.  0.
        2    1    3    3  502    0 -0.30495195618E+02  0.20106923804E+04 -0.68397834436E+03  0.21240621887E+04  0.25500000920E-02 0.  1.
       -2    1    3    3    0  502  0.30495195618E+02 -0.20106923804E+04  0.61391330332E+02  0.20118605074E+04  0.25500000920E-02 0. -1.
</event>
<event>
 5   0  0.2713405E-07  0.2054776E+04  0.7818609E-02  0.8581431E-01
       -1   -1    0    0    0  501  0.00000000000E+00  0.00000000000E+00  0.89188716997E+03  0.89188716999E+03  0.50400001928E-02 0. -1.
        1   -1    0    0  501    0  0.00000000000E+00  0.00000000000E+00 -0.11834745788E+04  0.11834745788E+04  0.50400001928E-02 0.  1.
    10030    2    1    2    0    0  0.00000000000E+00  0.00000000000E+00 -0.29158740886E+03  0.20753617488E+04  0.20547756986E+04 0.  0.
        1    1    3    3  502    0 -0.18327285068E+03  0.43885563234E+03  0.77401257740E+03  0.90844849817E+03  0.50400001928E-02 0. -1.
       -1    1    3    3    0  502  0.18327285068E+03 -0.43885563234E+03 -0.10655999863E+04  0.11669132507E+04  0.50400001928E-02 0.  1.
</event>
<event>
 5   0  0.7256473E-07  0.2332396E+04  0.7818609E-02  0.8465256E-01
        2   -1    0    0  501    0  0.00000000000E+00  0.00000000000E+00  0.22396121875E+04  0.22396121875E+04  0.25500000920E-02 0. -1.
       -2   -1    0    0    0  501  0.00000000000E+00  0.00000000000E+00 -0.60725615439E+03  0.60725615439E+03  0.25500000920E-02 0.  1.
    10030    2    1    2    0    0  0.00000000000E+00  0.00000000000E+00  0.16323560331E+04  0.28468683419E+04  0.23323964366E+04 0.  0.
        4    1    3    3  502    0  0.69400265946E+03  0.31298960099E+03 -0.26209236466E+03  0.80516843094E+03  0.12699999809E+01 0.  1.
       -4    1    3    3    0  502 -0.69400265946E+03 -0.31298960099E+03  0.18944483978E+04  0.20416999110E+04  0.12699999809E+01 0. -1.
</event>
<event>
 5   0  0.3579559E-07  0.2379797E+04  0.7818609E-02  0.8447106E-01
        1   -1    0    0  501    0  0.00000000000E+00  0.00000000000E+00  0.16957353866E+04  0.16957353866E+04  0.50400001928E-02 0. -1.
       -1   -1    0    0    0  501  0.00000000000E+00  0.00000000000E+00 -0.83495259520E+03  0.83495259521E+03  0.50400001928E-02 0.  1.
    10030    2    1    2    0    0  0.00000000000E+00  0.00000000000E+00  0.86078279137E+03  0.25306879818E+04  0.23797971862E+04 0.  0.
        4    1    3    3  502    0 -0.49780029032E+03 -0.37913976459E+03 -0.64585892419E+03  0.89927051158E+03  0.12699999809E+01 0.  1.
       -4    1    3    3    0  502  0.49780029032E+03  0.37913976459E+03  0.15066417156E+04  0.16314174702E+04  0.12699999809E+01 0. -1.
</event>
<event>
 5   0  0.4449262E-07  0.3018020E+04  0.7818609E-02  0.8238604E-01
        2   -1    0    0  501    0  0.00000000000E+00  0.00000000000E+00  0.14862159252E+04  0.14862159252E+04  0.25500000920E-02 0.  1.
       -2   -1    0    0    0  501  0.00000000000E+00  0.00000000000E+00 -0.15321532976E+04  0.15321532976E+04  0.25500000920E-02 0. -1.
    10030    2    1    2    0    0  0.00000000000E+00  0.00000000000E+00 -0.45937372394E+02  0.30183692229E+04  0.30180196360E+04 0.  0.
        1    1    3    3  502    0 -0.92621963143E+03  0.85908561461E+03 -0.84841253781E+03  0.15217472633E+04  0.50400001928E-02 0. -1.
       -1    1    3    3    0  502  0.92621963143E+03 -0.85908561461E+03  0.80247516542E+03  0.14966219596E+04  0.50400001928E-02 0.  1.
</event>
<event>
 5   0  0.4449262E-07  0.3988623E+04  0.7818609E-02  0.8006846E-01
        2   -1    0    0  501    0  0.00000000000E+00  0.00000000000E+00  0.25324321230E+04  0.25324321230E+04  0.25500000920E-02 0.  1.
       -2   -1    0    0    0  501  0.00000000000E+00  0.00000000000E+00 -0.15705372877E+04  0.15705372877E+04  0.25500000920E-02 0. -1.
    10030    2    1    2    0    0  0.00000000000E+00  0.00000000000E+00  0.96189483524E+03  0.41029694107E+04  0.39886233604E+04 0.  0.
        1    1    3    3  502    0 -0.11920381683E+04  0.35002222955E+03  0.20857383226E+04  0.24277098069E+04  0.50400001928E-02 0.  1.
       -1    1    3    3    0  502  0.11920381683E+04 -0.35002222955E+03 -0.11238434874E+04  0.16752596038E+04  0.50400001928E-02 0. -1.
</event>
<event>
 5   0  0.7256473E-07  0.4031843E+04  0.7818609E-02  0.7998153E-01
       -2   -1    0    0    0  501  0.00000000000E+00  0.00000000000E+00  0.21242515817E+04  0.21242515817E+04  0.25500000920E-02 0. -1.
        2   -1    0    0  501    0  0.00000000000E+00  0.00000000000E+00 -0.19131161180E+04  0.19131161180E+04  0.25500000920E-02 0.  1.
    10030    2    1    2    0    0  0.00000000000E+00  0.00000000000E+00  0.21113546374E+03  0.40373676997E+04  0.40318432210E+04 0.  0.
        4    1    3    3  502    0 -0.10171232009E+04 -0.16829828159E+04  0.54998612338E+03  0.20419248549E+04  0.12699999809E+01 0. -1.
       -4    1    3    3    0  502  0.10171232009E+04  0.16829828159E+04 -0.33885065964E+03  0.19954428448E+04  0.12699999809E+01 0.  1.
</event>
<event>
 5   0  0.2601252E-07  0.4002560E+04  0.7818609E-02  0.8004030E-01
       -1   -1    0    0    0  501  0.00000000000E+00  0.00000000000E+00  0.28179519655E+04  0.28179519656E+04  0.50400001928E-02 0. -1.
        1   -1    0    0  501    0  0.00000000000E+00  0.00000000000E+00 -0.14212878138E+04  0.14212878138E+04  0.50400001928E-02 0.  1.
    10030    2    1    2    0    0  0.00000000000E+00  0.00000000000E+00  0.13966641517E+04  0.42392397794E+04  0.40025595754E+04 0.  0.
        3    1    3    3  502    0 -0.18354644064E+04  0.21619655989E+03 -0.11482369953E+03  0.18517167796E+04  0.10100000352E+00 0.  1.
       -3    1    3    3    0  502  0.18354644064E+04 -0.21619655989E+03  0.15114878513E+04  0.23875229998E+04  0.10100000352E+00 0. -1.
</event>
<event>
 5   0  0.5161550E-07  0.2003011E+04  0.7818609E-02  0.8605214E-01
       -2   -1    0    0    0  501  0.00000000000E+00  0.00000000000E+00  0.50067604539E+03  0.50067604540E+03  0.25500000920E-02 0.  1.
        2   -1    0    0  501    0  0.00000000000E+00  0.00000000000E+00 -0.20033176474E+04  0.20033176474E+04  0.25500000920E-02 0. -1.
    10030    2    1    2    0    0  0.00000000000E+00  0.00000000000E+00 -0.15026416020E+04  0.25039936928E+04  0.20030108910E+04 0.  0.
        2    1    3    3  502    0 -0.76797869080E+02  0.17196058236E+03 -0.19809819793E+04  0.19899140577E+04  0.25500000920E-02 0. -1.
       -2    1    3    3    0  502  0.76797869080E+02 -0.17196058236E+03  0.47834037735E+03  0.51407963507E+03  0.25500000920E-02 0.  1.
</event>
<event>
 5   0  0.2601252E-07  0.3234795E+04  0.7818609E-02  0.8179688E-01
        1   -1    0    0  501    0  0.00000000000E+00  0.00000000000E+00  0.15829032481E+04  0.15829032482E+04  0.50400001928E-02 0. -1.
       -1   -1    0    0    0  501  0.00000000000E+00  0.00000000000E+00 -0.16526436481E+04  0.16526436481E+04  0.50400001928E-02 0.  1.
    10030    2    1    2    0    0  0.00000000000E+00  0.00000000000E+00 -0.69740399961E+02  0.32355468963E+04  0.32347952013E+04 0.  0.
        3    1    3    3  502    0 -0.79192237048E+03 -0.14081589219E+04 -0.11184520262E+03  0.16194326012E+04  0.10100000352E+00 0. -1.
       -3    1    3    3    0  502  0.79192237048E+03  0.14081589219E+04  0.42104802657E+02  0.16161142951E+04  0.10100000352E+00 0.  1.
</event>
<event>
 5   0  0.4449262E-07  0.4186236E+04  0.7818609E-02  0.7967996E-01
       -2   -1    0    0    0  501  0.00000000000E+00  0.00000000000E+00  0.15984998103E+04  0.15984998103E+04  0.25500000920E-02 0.  1.
        2   -1    0    0  501    0  0.00000000000E+00  0.00000000000E+00 -0.27407836117E+04  0.27407836117E+04  0.25500000920E-02 0. -1.
    10030    2    1    2    0    0  0.00000000000E+00  0.00000000000E+00 -0.11422838014E+04  0.43392834220E+04  0.41862355803E+04 0.  0.
        1    1    3    3  502    0 -0.81545765902E+03  0.19269262867E+04 -0.62909639739E+03  0.21848977974E+04  0.50400001928E-02 0. -1.
       -1    1    3    3    0  502  0.81545765902E+03 -0.19269262867E+04 -0.51318740404E+03  0.21543856246E+04  0.50400001928E-02 0.  1.
</event>
<event>
 5   0  0.7570277E-07  0.4196145E+04  0.7818609E-02  0.7966106E-01
       -2   -1    0    0    0  501  0.00000000000E+00  0.00000000000E+00  0.23707811484E+04  0.23707811484E+04  0.25500000920E-02 0.  1.
        2   -1    0    0  501    0  0.00000000000E+00  0.00000000000E+00 -0.18567336208E+04  0.18567336208E+04  0.25500000920E-02 0. -1.
    10030    2    1    2    0    0  0.00000000000E+00  0.00000000000E+00  0.51404752757E+03  0.42275147692E+04  0.41961454054E+04 0.  0.
        5    1    3    3  502    0  0.24975036546E+03  0.10764776609E+04 -0.15397627374E+04  0.18952759105E+04  0.46999998093E+01 0. -1.
       -5    1    3    3    0  502 -0.24975036546E+03 -0.10764776609E+04  0.20538102650E+04  0.23322388587E+04  0.46999998093E+01 0.  1.
</event>
<event>
 5   0  0.6043512E-07  0.3102835E+04  0.7818609E-02  0.8214960E-01
        2   -1    0    0  501    0  0.00000000000E+00  0.00000000000E+00  0.14277174230E+04  0.14277174230E+04  0.25500000920E-02 0. -1.
       -2   -1    0    0    0  501  0.00000000000E+00  0.00000000000E+00 -0.16858350986E+04  0.16858350986E+04  0.25500000920E-02 0.  1.
    10030    2    1    2    0    0  0.00000000000E+00  0.00000000000E+00 -0.25811767553E+03  0.31135525216E+04  0.31028349248E+04 0.  0.
        3    1    3    3  502    0  0.35620276318E+03  0.27692124515E+03  0.13604302750E+04  0.14332956178E+04  0.10100000352E+00 0. -1.
       -3    1    3    3    0  502 -0.35620276318E+03 -0.27692124515E+03 -0.16185479505E+04  0.16802569038E+04  0.10100000352E+00 0.  1.
</event>
<event>
 5   0  0.2713405E-07  0.3703768E+04  0.7818609E-02  0.8067127E-01
        1   -1    0    0  501    0  0.00000000000E+00  0.00000000000E+00  0.16787729926E+04  0.16787729926E+04  0.50400001928E-02 0.  1.
       -1   -1    0    0    0  501  0.00000000000E+00  0.00000000000E+00 -0.20428458821E+04  0.20428458821E+04  0.50400001928E-02 0. -1.
    10030    2    1    2    0    0  0.00000000000E+00  0.00000000000E+00 -0.36407288949E+03  0.37216188747E+04  0.37037680785E+04 0.  0.
        1    1    3    3  502    0 -0.67697082622E+02  0.27649079531E+03 -0.20207312957E+04  0.20406824899E+04  0.50400001928E-02 0. -1.
       -1    1    3    3    0  502  0.67697082622E+02 -0.27649079531E+03  0.16566584062E+04  0.16809363848E+04  0.50400001928E-02 0.  1.
</event>
<event>
 5   0  0.2713405E-07  0.3318916E+04  0.7818609E-02  0.8158099E-01
        1   -1    0    0  501    0  0.00000000000E+00  0.00000000000E+00  0.15956137586E+04  0.15956137586E+04  0.50400001928E-02 0. -1.
       -1   -1    0    0    0  501  0.00000000000E+00  0.00000000000E+00 -0.17258566161E+04  0.17258566161E+04  0.50400001928E-02 0.  1.
    10030    2    1    2    0    0  0.00000000000E+00  0.00000000000E+00 -0.13024285745E+03  0.33214703747E+04  0.33189158242E+04 0.  0.
        1    1    3    3  502    0 -0.14526486774E+04  0.44809930074E+03 -0.73108038560E+03  0.16868490429E+04  0.50400001928E-02 0.  1.
       -1    1    3    3    0  502  0.14526486774E+04 -0.44809930074E+03  0.60083752815E+03  0.16346213318E+04  0.50400001928E-02 0. -1.
</event>
<event>
 5   0  0.2401125E-07  0.2294796E+04  0.7818609E-02  0.8479976E-01
       -1   -1    0    0    0  501  0.00000000000E+00  0.00000000000E+00  0.98544453611E+03  0.98544453612E+03  0.50400001928E-02 0.  1.
        1   -1    0    0  501    0  0.00000000000E+00  0.00000000000E+00 -0.13359672537E+04  0.13359672537E+04  0.50400001928E-02 0. -1.
    10030    2    1    2    0    0  0.00000000000E+00  0.00000000000E+00 -0.35052271758E+03  0.23214117898E+04  0.22947955295E+04 0.  0.
        5    1    3    3  502    0 -0.76576215173E+03 -0.78408446335E+03 -0.51878720564E+03  0.12125767495E+04  0.46999998093E+01 0. -1.
       -5    1    3    3    0  502  0.76576215173E+03  0.78408446335E+03  0.16826448806E+03  0.11088350403E+04  0.46999998093E+01 0.  1.
</event>
<event>
 5   0  0.2401125E-07  0.4006005E+04  0.7818609E-02  0.8003336E-01
        1   -1    0    0  501    0  0.00000000000E+00  0.00000000000E+00  0.21095674051E+04  0.21095674051E+04  0.50400001928E-02 0.  1.
       -1   -1    0    0    0  501  0.00000000000E+00  0.00000000000E+00 -0.19018210912E+04  0.19018210912E+04  0.50400001928E-02 0. -1.
    10030    2    1    2    0    0  0.00000000000E+00  0.00000000000E+00  0.20774631395E+03  0.40113884963E+04  0.40060053841E+04 0.  0.
        5    1    3    3  502    0 -0.95710829949E+03  0.17202668244E+04  0.47399594114E+03  0.20248625845E+04  0.46999998093E+01 0.  1.
       -5    1    3    3    0  502  0.95710829949E+03 -0.17202668244E+04 -0.26624962720E+03  0.19865259117E+04  0.46999998093E+01 0. -1.
</event>
<event>
 5   0  0.2713405E-07  0.3503453E+04  0.7818609E-02  0.8112972E-01
        1   -1    0    0  501    0  0.00000000000E+00  0.00000000000E+00  0.23389176858E+04  0.23389176858E+04  0.50400001928E-02 0.  1.
       -1   -1    0    0    0  501  0.00000000000E+00  0.00000000000E+00 -0.13119508418E+04  0.13119508418E+04  0.50400001928E-02 0. -1.
    10030    2    1    2    0    0  0.00000000000E+00  0.00000000000E+00  0.10269668441E+04  0.36508685276E+04  0.35034525981E+04 0.  0.
        1    1    3    3  502    0 -0.49903089351E+03  0.12946958987E+04  0.16277149394E+04  0.21388607311E+04  0.50400001928E-02 0.  1.
       -1    1    3    3    0  502  0.49903089351E+03 -0.12946958987E+04 -0.60074809538E+03  0.15120077966E+04  0.50400001928E-02 0. -1.
</event>
<event>
 5   0  0.7570277E-07  0.3153912E+04  0.7818609E-02  0.8201096E-01
       -2   -1    0    0    0  501  0.00000000000E+00  0.00000000000E+00  0.25299801476E+04  0.25299801476E+04  0.25500000920E-02 0. -1.
        2   -1    0    0  501    0  0.00000000000E+00  0.00000000000E+00 -0.98292887167E+03  0.98292887168E+03  0.25500000920E-02 0.  1.
    10030    2    1    2    0    0  0.00000000000E+00  0.00000000000E+00  0.15470512759E+04  0.35129090192E+04  0.31539121940E+04 0.  0.
        5    1    3    3  502    0 -0.15233688150E+04 -0.26454330647E+03  0.11188704621E+04  0.19085410419E+04  0.46999998093E+01 0.  1.
       -5    1    3    3    0  502  0.15233688150E+04  0.26454330647E+03  0.42818081384E+03  0.16043679774E+04  0.46999998093E+01 0. -1.
</event>
<event>
 5   0  0.2601252E-07  0.2905147E+04  0.7818609E-02  0.8271348E-01
       -1   -1    0    0    0  501  0.00000000000E+00  0.00000000000E+00  0.87954739641E+03  0.87954739643E+03  0.50400001928E-02 0.  1.
        1   -1    0    0  501    0  0.00000000000E+00  0.00000000000E+00 -0.23989273676E+04  0.23989273676E+04  0.50400001928E-02 0. -1.
    10030    2    1    2    0    0  0.00000000000E+00  0.00000000000E+00 -0.15193799712E+04  0.32784747640E+04  0.29051473769E+04 0.  0.
        3    1    3    3  502    0 -0.50546821275E+03  0.43452272158E+02 -0.22956950298E+04  0.23510852588E+04  0.10100000352E+00 0. -1.
       -3    1    3    3    0  502  0.50546821275E+03 -0.43452272158E+02  0.77631505860E+03  0.92738950526E+03  0.10100000352E+00 0.  1.
</event>
<event>
 5   0  0.6043512E-07  0.4009133E+04  0.7818609E-02  0.8002707E-01
       -2   -1    0    0    0  501  0.00000000000E+00  0.00000000000E+00  0.13822190703E+04  0.13822190703E+04  0.25500000920E-02 0. -1.
        2   -1    0    0  501    0  0.00000000000E+00  0.00000000000E+00 -0.29071277463E+04  0.29071277463E+04  0.25500000920E-02 0.  1.
    10030    2    1    2    0    0  0.00000000000E+00  0.00000000000E+00 -0.15249086760E+04  0.42893468167E+04  0.40091332783E+04 0.  0.
        3    1    3    3  502    0  0.62945459321E+02  0.17076878979E+03 -0.28982698148E+04  0.29039786569E+04  0.10100000352E+00 0.  1.
       -3    1    3    3    0  502 -0.62945459321E+02 -0.17076878979E+03  0.13733611387E+04  0.13853681597E+04  0.10100000352E+00 0. -1.
</event>
<event>
 5   0  0.2401125E-07  0.2093197E+04  0.7818609E-02  0.8564246E-01
        1   -1    0    0  501    0  0.00000000000E+00  0.00000000000E+00  0.10029126275E+04  0.10029126275E+04  0.50400001928E-02 0.  1.
       -1   -1    0    0    0  501  0.00000000000E+00  0.00000000000E+00 -0.10921877299E+04  0.10921877299E+04  0.50400001928E-02 0. -1.
    10030    2    1    2    0    0  0.00000000000E+00  0.00000000000E+00 -0.89275102399E+02  0.20951003573E+04  0.20931974258E+04 0.  0.
        5    1    3    3  502    0 -0.31237749059E+03 -0.72994929985E+03 -0.72712333245E+03  0.10766318347E+04  0.46999998093E+01 0. -1.
       -5    1    3    3    0  502  0.31237749059E+03  0.72994929985E+03  0.63784823005E+03  0.10184685226E+04  0.46999998093E+01 0.  1.
</event>
<event>
 5   0  0.4449262E-07  0.3899149E+04  0.7818609E-02  0.8025206E-01
       -2   -1    0    0    0  501  0.00000000000E+00  0.00000000000E+00  0.13223190464E+04  0.13223190464E+04  0.25500000920E-02 0. -1.
        2   -1    0    0  501    0  0.00000000000E+00  0.00000000000E+00 -0.28743745411E+04  0.28743745411E+04  0.25500000920E-02 0.  1.
    10030    2    1    2    0    0  0.00000000000E+00  0.00000000000E+00 -0.15520554946E+04  0.41966935875E+04  0.38991487287E+04 0.  0.
        1    1    3    3  502    0  0.25086139412E+03  0.75290547545E+03  0.11406030602E+04  0.13895227364E+04  0.50400001928E-02 0. -1.
       -1    1    3    3    0  502 -0.25086139412E+03 -0.75290547545E+03 -0.26926585549E+04  0.28071708511E+04  0.50400001928E-02 0.  1.
</event>
<event>
 5   0  0.3579559E-07  0.1984046E+04  0.7818609E-02  0.8614116E-01
        1   -1    0    0  501    0  0.00000000000E+00  0.00000000000E+00  0.72838029876E+03  0.72838029878E+03  0.50400001928E-02 0. -1.
       -1   -1    0    0    0  501  0.00000000000E+00  0.00000000000E+00 -0.13510925729E+04  0.13510925729E+04  0.50400001928E-02 0.  1.
    10030    2    1    2    0    0  0.00000000000E+00  0.00000000000E+00 -0.62271227413E+03  0.20794728717E+04  0.19840455760E+04 0.  0.
        4    1    3    3  502    0  0.82780902756E+03  0.31014278252E+03  0.16046378755E+03  0.89844675506E+03  0.12699999809E+01 0.  1.
       -4    1    3    3    0  502 -0.82780902756E+03 -0.31014278252E+03 -0.78317606168E+03  0.11810261166E+04  0.12699999809E+01 0. -1.
</event>
<event>
 5   0  0.7256473E-07  0.3818299E+04  0.7818609E-02  0.8042239E-01
       -2   -1    0    0    0  501  0.00000000000E+00  0.00000000000E+00  0.15853152276E+04  0.15853152276E+04  0.25500000920E-02 0. -1.
        2   -1    0    0  501    0  0.00000000000E+00  0.00000000000E+00 -0.22991336541E+04  0.22991336541E+04  0.25500000920E-02 0.  1.
    10030    2    1    2    0    0  0.00000000000E+00  0.00000000000E+00 -0.71381842650E+03  0.38844488817E+04  0.38182988841E+04 0.  0.
        4    1    3    3  502    0 -0.80876217039E+03  0.13227849374E+04  0.77638921258E+03  0.17339659919E+04  0.12699999809E+01 0. -1.
       -4    1    3    3    0  502  0.80876217039E+03 -0.13227849374E+04 -0.14902076391E+04  0.21504828898E+04  0.12699999809E+01 0.  1.
</event>
<event>
 5   0  0.4449262E-07  0.4064412E+04  0.7818609E-02  0.7991677E-01
       -2   -1    0    0    0  501  0.00000000000E+00  0.00000000000E+00  0.19318037033E+04  0.19318037033E+04  0.25500000920E-02 0. -1.
        2   -1    0    0  501    0  0.00000000000E+00  0.00000000000E+00 -0.21378267495E+04  0.21378267495E+04  0.25500000920E-02 0.  1.
    10030    2    1    2    0    0  0.00000000000E+00  0.00000000000E+00 -0.20602304628E+03  0.40696304528E+04  0.40644121994E+04 0.  0.
        1    1    3    3  502    0  0.18932492460E+04  0.49769560706E+03  0.44337030299E+03  0.20071549144E+04  0.50400001928E-02 0. -1.
       -1    1    3    3    0  502 -0.18932492460E+04 -0.49769560706E+03 -0.64939334927E+03  0.20624755385E+04  0.50400001928E-02 0.  1.
</event>
<event>
 5   0  0.2713405E-07  0.2313779E+04  0.7818609E-02  0.8472508E-01
       -1   -1    0    0    0  501  0.00000000000E+00  0.00000000000E+00  0.14742066386E+04  0.14742066386E+04  0.50400001928E-02 0. -1.
        1   -1    0    0  501    0  0.00000000000E+00  0.00000000000E+00 -0.90787341887E+03  0.90787341889E+03  0.50400001928E-02 0.  1.
    10030    2    1    2    0    0  0.00000000000E+00  0.00000000000E+00  0.56633321972E+03  0.23820800575E+04  0.23137787458E+04 0.  0.
        1    1    3    3  502    0 -0.70124075820E+03 -0.37224902887E+03 -0.58315121015E+03  0.98507526330E+03  0.50400001928E-02 0.  1.
       -1    1    3    3    0  502  0.70124075820E+03  0.37224902887E+03  0.11494844299E+04  0.13970047942E+04  0.50400001928E-02 0. -1.
</event>
<event>
 5   0  0.2601252E-07  0.2400869E+04  0.7818609E-02  0.8439178E-01
       -1   -1    0    0    0  501  0.00000000000E+00  0.00000000000E+00  0.94392522168E+03  0.94392522169E+03  0.50400001928E-02 0.  1.
        1   -1    0    0  501    0  0.00000000000E+00  0.00000000000E+00 -0.15266496889E+04  0.15266496889E+04  0.50400001928E-02 0. -1.
    10030    2    1    2    0    0  0.00000000000E+00  0.00000000000E+00 -0.58272446725E+03  0.24705749106E+04  0.24008691310E+04 0.  0.
        3    1    3    3  502    0 -0.69303013358E+03 -0.56531754017E+03 -0.11153402225E+04  0.14296357961E+04  0.10100000352E+00 0. -1.
       -3    1    3    3    0  502  0.69303013358E+03  0.56531754017E+03  0.53261575526E+03  0.10409391146E+04  0.10100000352E+00 0.  1.
</event>
<event>
 5   0  0.2401125E-07  0.2042084E+04  0.7818609E-02  0.8587194E-01
        1   -1    0    0  501    0  0.00000000000E+00  0.00000000000E+00  0.15508778541E+04  0.15508778541E+04  0.50400001928E-02 0.  1.
       -1   -1    0    0    0  501  0.00000000000E+00  0.00000000000E+00 -0.67221716080E+03  0.67221716082E+03  0.50400001928E-02 0. -1.
    10030    2    1    2    0    0  0.00000000000E+00  0.00000000000E+00  0.87866069332E+03  0.22230950150E+04  0.20420839433E+04 0.  0.
        5    1    3    3  502    0  0.94733919404E+03  0.22374326984E+03  0.77485774736E+03  0.12441620546E+04  0.46999998093E+01 0. -1.
       -5    1    3    3    0  502 -0.94733919404E+03 -0.22374326984E+03  0.10380294596E+03  0.97893296040E+03  0.46999998093E+01 0.  1.
</event>
<event>
 5   0  0.7570277E-07  0.3891724E+04  0.7818609E-02  0.8026753E-01
       -2   -1    0    0    0  501  0.00000000000E+00  0.00000000000E+00  0.21771077402E+04  0.21771077402E+04  0.25500000920E-02 0.  1.
        2   -1    0    0  501    0  0.00000000000E+00  0.00000000000E+00 -0.17391788568E+04  0.17391788568E+04  0.25500000920E-02 0. -1.
    10030    2    1    2    0    0  0.00000000000E+00  0.00000000000E+00  0.43792888342E+03  0.39162865970E+04  0.38917244253E+04 0.  0.
        5    1    3    3  502    0  0.17738501017E+04 -0.14590251071E+03  0.10103923181E+04  0.20466427271E+04  0.46999998093E+01 0.  1.
       -5    1    3    3    0  502 -0.17738501017E+04  0.14590251071E+03 -0.57246343472E+03  0.18696438698E+04  0.46999998093E+01 0. -1.
</event>
<event>
 5   0  0.4449262E-07  0.4023046E+04  0.7818609E-02  0.7999914E-01
       -2   -1    0    0    0  501  0.00000000000E+00  0.00000000000E+00  0.16389535794E+04  0.16389535794E+04  0.25500000920E-02 0. -1.
        2   -1    0    0  501    0  0.00000000000E+00  0.00000000000E+00 -0.24687851466E+04  0.24687851466E+04  0.25500000920E-02 0.  1.
    10030    2    1    2    0    0  0.00000000000E+00  0.00000000000E+00 -0.82983156719E+03  0.41077387261E+04  0.40230457382E+04 0.  0.
        1    1    3    3  502    0  0.12138247348E+04  0.11374671901E+04  0.73983130603E+03  0.18205912383E+04  0.50400001928E-02 0. -1.
       -1    1    3    3    0  502 -0.12138247348E+04 -0.11374671901E+04 -0.15696628732E+04  0.22871474878E+04  0.50400001928E-02 0.  1.
</event>
<event>
 5   0  0.5161550E-07  0.4009817E+04  0.7818609E-02  0.8002569E-01
       -2   -1    0    0    0  501  0.00000000000E+00  0.00000000000E+00  0.15617519711E+04  0.15617519711E+04  0.25500000920E-02 0. -1.
        2   -1    0    0  501    0  0.00000000000E+00  0.00000000000E+00 -0.25738134126E+04  0.25738134127E+04  0.25500000920E-02 0.  1.
    10030    2    1    2    0    0  0.00000000000E+00  0.00000000000E+00 -0.10120614415E+04  0.41355653838E+04  0.40098170385E+04 0.  0.
        2    1    3    3  502    0 -0.13593295105E+04  0.30310438034E+03 -0.19934827248E+04  0.24317940615E+04  0.25500000920E-02 0.  1.
       -2    1    3    3    0  502  0.13593295105E+04 -0.30310438034E+03  0.98142128324E+03  0.17037713223E+04  0.25500000920E-02 0. -1.
</event>
<event>
 5   0  0.4449262E-07  0.4152417E+04  0.7818609E-02  0.7974486E-01
        2   -1    0    0  501    0  0.00000000000E+00  0.00000000000E+00  0.25002558960E+04  0.25002558960E+04  0.25500000920E-02 0. -1.
       -2   -1    0    0    0  501  0.00000000000E+00  0.00000000000E+00 -0.17240798608E+04  0.17240798608E+04  0.25500000920E-02 0.  1.
    10030    2    1    2    0    0  0.00000000000E+00  0.00000000000E+00  0.77617603527E+03  0.42243357568E+04  0.41524165673E+04 0.  0.
        1    1    3    3  502    0 -0.19518518381E+04  0.38370003813E+03  0.99310645567E+03  0.22233334769E+04  0.50400001928E-02 0.  1.
       -1    1    3    3    0  502  0.19518518381E+04 -0.38370003813E+03 -0.21693042040E+03  0.20010022799E+04  0.50400001928E-02 0. -1.
</event>
<event>
 5   0  0.5161550E-07  0.2243546E+04  0.7818609E-02  0.8500519E-01
        2   -1    0    0  501    0  0.00000000000E+00  0.00000000000E+00  0.38681651907E+03  0.38681651908E+03  0.25500000920E-02 0. -1.
       -2   -1    0    0    0  501  0.00000000000E+00  0.00000000000E+00 -0.32531565051E+04  0.32531565051E+04  0.25500000920E-02 0.  1.
    10030    2    1    2    0    0  0.00000000000E+00  0.00000000000E+00 -0.28663399860E+04  0.36399730242E+04  0.22435460105E+04 0.  0.
        2    1    3    3  502    0 -0.70337205413E+03  0.60147038846E+03 -0.40465858682E+03  0.10100729907E+04  0.25500000920E-02 0. -1.
       -2    1    3    3    0  502  0.70337205413E+03 -0.60147038846E+03 -0.24616813992E+04  0.26299000334E+04  0.25500000920E-02 0.  1.
</event>
<event>
 5   0  0.4536967E-07  0.1968580E+04  0.7818609E-02  0.8621453E-01
       -2   -1    0    0    0  501  0.00000000000E+00  0.00000000000E+00  0.11635317661E+04  0.11635317661E+04  0.25500000920E-02 0.  1.
        2   -1    0    0  501    0  0.00000000000E+00  0.00000000000E+00 -0.83266069678E+03  0.83266069678E+03  0.25500000920E-02 0. -1.
    10030    2    1    2    0    0  0.00000000000E+00  0.00000000000E+00  0.33087106936E+03  0.19961924629E+04  0.19685803729E+04 0.  0.
        1    1    3    3  502    0  0.90672173448E+03 -0.37162122684E+03  0.25936597222E+03  0.10136653035E+04  0.50400001928E-02 0.  1.
       -1    1    3    3    0  502 -0.90672173448E+03  0.37162122684E+03  0.71505097138E+02  0.98252715939E+03  0.50400001928E-02 0. -1.
</event>
<event>
 5   0  0.6043512E-07  0.4056125E+04  0.7818609E-02  0.7993319E-01
        2   -1    0    0  501    0  0.00000000000E+00  0.00000000000E+00  0.25764641822E+04  0.25764641822E+04  0.25500000920E-02 0. -1.
       -2   -1    0    0    0  501  0.00000000000E+00  0.00000000000E+00 -0.15963881450E+04  0.15963881450E+04  0.25500000920E-02 0.  1.
    10030    2    1    2    0    0  0.00000000000E+00  0.00000000000E+00  0.98007603723E+03  0.41728523272E+04  0.40561246907E+04 0.  0.
        3    1    3    3  502    0 -0.11043284304E+04  0.46674465762E+03 -0.11927753942E+04  0.16911844988E+04  0.10100000352E+00 0.  1.
       -3    1    3    3    0  502  0.11043284304E+04 -0.46674465762E+03  0.21728514314E+04  0.24816678285E+04  0.10100000352E+00 0. -1.
</event>
<event>
 5   0  0.5161550E-07  0.4323585E+04  0.7818609E-02  0.7942271E-01
        2   -1    0    0  501    0  0.00000000000E+00  0.00000000000E+00  0.22040840263E+04  0.22040840263E+04  0.25500000920E-02 0.  1.
       -2   -1    0    0    0  501  0.00000000000E+00  0.00000000000E+00 -0.21203122456E+04  0.21203122456E+04  0.25500000920E-02 0. -1.
    10030    2    1    2    0    0  0.00000000000E+00  0.00000000000E+00  0.83771780706E+02  0.43243962719E+04  0.43235847864E+04 0.  0.
        2    1    3    3  502    0  0.93187907931E+03  0.58903612184E+03  0.19018004978E+04  0.21982282194E+04  0.25500000920E-02 0.  1.
       -2    1    3    3    0  502 -0.93187907931E+03 -0.58903612184E+03 -0.18180287171E+04  0.21261680525E+04  0.25500000920E-02 0. -1.
</event>
<event>
 5   0  0.7256473E-07  0.2233147E+04  0.7818609E-02  0.8504757E-01
        2   -1    0    0  501    0  0.00000000000E+00  0.00000000000E+00  0.11376165537E+04  0.11376165537E+04  0.25500000920E-02 0.  1.
       -2   -1    0    0    0  501  0.00000000000E+00  0.00000000000E+00 -0.10959194451E+04  0.10959194451E+04  0.25500000920E-02 0. -1.
    10030    2    1    2    0    0  0.00000000000E+00  0.00000000000E+00  0.41697108571E+02  0.22335359988E+04  0.22331467505E+04 0.  0.
        4    1    3    3  502    0  0.86673799009E+03 -0.53612530991E+03  0.47707430905E+03  0.11252851197E+04  0.12699999809E+01 0.  1.
       -4    1    3    3    0  502 -0.86673799009E+03  0.53612530991E+03 -0.43537720048E+03  0.11082508791E+04  0.12699999809E+01 0. -1.
</event>
<event>
 5   0  0.3579559E-07  0.2322292E+04  0.7818609E-02  0.8469183E-01
        1   -1    0    0  501    0  0.00000000000E+00  0.00000000000E+00  0.15045395970E+04  0.15045395970E+04  0.50400001928E-02 0.  1.
       -1   -1    0    0    0  501  0.00000000000E+00  0.00000000000E+00 -0.89612792146E+03  0.89612792148E+03  0.50400001928E-02 0. -1.
    10030    2    1    2    0    0  0.00000000000E+00  0.00000000000E+00  0.60841167553E+03  0.24006675185E+04  0.23222919212E+04 0.  0.
        4    1    3    3  502    0 -0.93409786031E+03 -0.19817038005E+03  0.98714413476E+03  0.13734138007E+04  0.12699999809E+01 0.  1.
       -4    1    3    3    0  502  0.93409786031E+03  0.19817038005E+03 -0.37873245924E+03  0.10272537178E+04  0.12699999809E+01 0. -1.
</event>
<event>
 5   0  0.5161550E-07  0.2957186E+04  0.7818609E-02  0.8256063E-01
       -2   -1    0    0    0  501  0.00000000000E+00  0.00000000000E+00  0.13753412824E+04  0.13753412824E+04  0.25500000920E-02 0. -1.
        2   -1    0    0  501    0  0.00000000000E+00  0.00000000000E+00 -0.15895966593E+04  0.15895966593E+04  0.25500000920E-02 0.  1.
    10030    2    1    2    0    0  0.00000000000E+00  0.00000000000E+00 -0.21425537690E+03  0.29649379417E+04  0.29571864384E+04 0.  0.
        2    1    3    3  502    0 -0.43744397558E+03 -0.12787068860E+04 -0.70852442797E+03  0.15259277169E+04  0.25500000920E-02 0.  1.
       -2    1    3    3    0  502  0.43744397558E+03  0.12787068860E+04  0.49426905107E+03  0.14390102248E+04  0.25500000920E-02 0. -1.
</event>
<event>
 5   0  0.2601252E-07  0.3962844E+04  0.7818609E-02  0.8012084E-01
        1   -1    0    0  501    0  0.00000000000E+00  0.00000000000E+00  0.17363534553E+04  0.17363534553E+04  0.50400001928E-02 0.  1.
       -1   -1    0    0    0  501  0.00000000000E+00  0.00000000000E+00 -0.22610795962E+04  0.22610795962E+04  0.50400001928E-02 0. -1.
    10030    2    1    2    0    0  0.00000000000E+00  0.00000000000E+00 -0.52472614091E+03  0.39974330516E+04  0.39628441149E+04 0.  0.
        3    1    3    3  502    0 -0.60980105171E+03  0.12992590617E+04  0.11156136820E+04  0.18178353417E+04  0.10100000352E+00 0.  1.
       -3    1    3    3    0  502  0.60980105171E+03 -0.12992590617E+04 -0.16403398229E+04  0.21795977098E+04  0.10100000352E+00 0. -1.
</event>
<event>
 5   0  0.2647879E-07  0.4038202E+04  0.7818609E-02  0.7996884E-01
        1   -1    0    0  501    0  0.00000000000E+00  0.00000000000E+00  0.34229143195E+04  0.34229143195E+04  0.50400001928E-02 0. -1.
       -1   -1    0    0    0  501  0.00000000000E+00  0.00000000000E+00 -0.11910225601E+04  0.11910225601E+04  0.50400001928E-02 0.  1.
    10030    2    1    2    0    0  0.00000000000E+00  0.00000000000E+00  0.22318917594E+04  0.46139368796E+04  0.40382016670E+04 0.  0.
        2    1    3    3  502    0  0.16984625411E+04  0.66349217539E+03  0.21066101908E+04  0.27861807849E+04  0.25500000920E-02 0. -1.
       -2    1    3    3    0  502 -0.16984625411E+04 -0.66349217539E+03  0.12528156869E+03  0.18277560947E+04  0.25500000920E-02 0.  1.
</event>
<event>
 5   0  0.2601252E-07  0.2093958E+04  0.7818609E-02  0.8563910E-01
       -1   -1    0    0    0  501  0.00000000000E+00  0.00000000000E+00  0.72261605916E+03  0.72261605917E+03  0.50400001928E-02 0.  1.
        1   -1    0    0  501    0  0.00000000000E+00  0.00000000000E+00 -0.15169391898E+04  0.15169391898E+04  0.50400001928E-02 0. -1.
    10030    2    1    2    0    0  0.00000000000E+00  0.00000000000E+00 -0.79432313068E+03  0.22395552490E+04  0.20939576112E+04 0.  0.
        3    1    3    3  502    0 -0.90737356319E+02 -0.54381941090E+03  0.55477731121E+03  0.78214493205E+03  0.10100000352E+00 0.  1.
       -3    1    3    3    0  502  0.90737356319E+02  0.54381941090E+03 -0.13491004419E+04  0.14574103170E+04  0.10100000352E+00 0. -1.
</event>
<event>
 5   0  0.4449262E-07  0.3507680E+04  0.7818609E-02  0.8111972E-01
        2   -1    0    0  501    0  0.00000000000E+00  0.00000000000E+00  0.22928203817E+04  0.22928203817E+04  0.25500000920E-02 0. -1.
       -2   -1    0    0    0  501  0.00000000000E+00  0.00000000000E+00 -0.13415594116E+04  0.13415594116E+04  0.25500000920E-02 0.  1.
    10030    2    1    2    0    0  0.00000000000E+00  0.00000000000E+00  0.95126097017E+03  0.36343797933E+04  0.35076800094E+04 0.  0.
        1    1    3    3  502    0 -0.68226272962E+03  0.14545996828E+04 -0.25305934208E+03  0.16264629415E+04  0.50400001928E-02 0.  1.
       -1    1    3    3    0  502  0.68226272962E+03 -0.14545996828E+04  0.12043203123E+04  0.20079168518E+04  0.50400001928E-02 0. -1.
</event>
<event>
 5   0  0.4449262E-07  0.3971337E+04  0.7818609E-02  0.8010354E-01
       -2   -1    0    0    0  501  0.00000000000E+00  0.00000000000E+00  0.12100357803E+04  0.12100357803E+04  0.25500000920E-02 0.  1.
        2   -1    0    0  501    0  0.00000000000E+00  0.00000000000E+00 -0.32584812614E+04  0.32584812614E+04  0.25500000920E-02 0. -1.
    10030    2    1    2    0    0  0.00000000000E+00  0.00000000000E+00 -0.20484454811E+04  0.44685170416E+04  0.39713367601E+04 0.  0.
        1    1    3    3  502    0  0.77127346537E+03 -0.15145600264E+04  0.13101819783E+03  0.17046760983E+04  0.50400001928E-02 0.  1.
       -1    1    3    3    0  502 -0.77127346537E+03  0.15145600264E+04 -0.21794636789E+04  0.27638409433E+04  0.50400001928E-02 0. -1.
</event>
<event>
 5   0  0.6043512E-07  0.4042726E+04  0.7818609E-02  0.7995982E-01
       -2   -1    0    0    0  501  0.00000000000E+00  0.00000000000E+00  0.14791917816E+04  0.14791917817E+04  0.25500000920E-02 0.  1.
        2   -1    0    0  501    0  0.00000000000E+00  0.00000000000E+00 -0.27622574973E+04  0.27622574973E+04  0.25500000920E-02 0. -1.
    10030    2    1    2    0    0  0.00000000000E+00  0.00000000000E+00 -0.12830657157E+04  0.42414492790E+04  0.40427261044E+04 0.  0.
        3    1    3    3  502    0 -0.16908574693E+04 -0.86958212710E+03 -0.13613611397E+04  0.23384773294E+04  0.10100000352E+00 0.  1.
       -3    1    3    3    0  502  0.16908574693E+04  0.86958212710E+03  0.78295423968E+02  0.19029719496E+04  0.10100000352E+00 0. -1.
</event>
<event>
 5   0  0.2601252E-07  0.3996289E+04  0.7818609E-02  0.8005296E-01
        1   -1    0    0  501    0  0.00000000000E+00  0.00000000000E+00  0.20321536676E+04  0.20321536676E+04  0.50400001928E-02 0. -1.
       -1   -1    0    0    0  501  0.00000000000E+00  0.00000000000E+00 -0.19647043080E+04  0.19647043080E+04  0.50400001928E-02 0.  1.
    10030    2    1    2    0    0  0.00000000000E+00  0.00000000000E+00  0.67449359663E+02  0.39968579756E+04  0.39962888110E+04 0.  0.
        3    1    3    3  502    0  0.17920520189E+04 -0.32072490070E+03 -0.78996177151E+03  0.19845287882E+04  0.10100000352E+00 0.  1.
       -3    1    3    3    0  502 -0.17920520189E+04  0.32072490070E+03  0.85741113118E+03  0.20123291874E+04  0.10100000352E+00 0. -1.
</event>
<event>
 5   0  0.4449262E-07  0.2333979E+04  0.7818609E-02  0.8464643E-01
        2   -1    0    0  501    0  0.00000000000E+00  0.00000000000E+00  0.12750324857E+04  0.12750324857E+04  0.25500000920E-02 0. -1.
       -2   -1    0    0    0  501  0.00000000000E+00  0.00000000000E+00 -0.10681013936E+04  0.10681013936E+04  0.25500000920E-02 0.  1.
    10030    2    1    2    0    0  0.00000000000E+00  0.00000000000E+00  0.20693109211E+03  0.23431338793E+04  0.23339785559E+04 0.  0.
        1    1    3    3  502    0 -0.69872525938E+03 -0.43339690756E+03  0.93485296683E+03  0.12449899346E+04  0.50400001928E-02 0. -1.
       -1    1    3    3    0  502  0.69872525938E+03  0.43339690756E+03 -0.72792187472E+03  0.10981439447E+04  0.50400001928E-02 0.  1.
</event>
<event>
 5   0  0.7256473E-07  0.2468112E+04  0.7818609E-02  0.8414435E-01
       -2   -1    0    0    0  501  0.00000000000E+00  0.00000000000E+00  0.10725084787E+04  0.10725084787E+04  0.25500000920E-02 0.  1.
        2   -1    0    0  501    0  0.00000000000E+00  0.00000000000E+00 -0.14199362691E+04  0.14199362691E+04  0.25500000920E-02 0. -1.
    10030    2    1    2    0    0  0.00000000000E+00  0.00000000000E+00 -0.34742779038E+03  0.24924447479E+04  0.24681115760E+04 0.  0.
        4    1    3    3  502    0 -0.13765951948E+03  0.26130723467E+03 -0.13837173787E+04  0.14148876320E+04  0.12699999809E+01 0. -1.
       -4    1    3    3    0  502  0.13765951948E+03 -0.26130723467E+03  0.10362895883E+04  0.10775571159E+04  0.12699999809E+01 0.  1.
</event>
<event>
 5   0  0.6043512E-07  0.3474050E+04  0.7818609E-02  0.8119967E-01
       -2   -1    0    0    0  501  0.00000000000E+00  0.00000000000E+00  0.20166471520E+04  0.20166471520E+04  0.25500000920E-02 0.  1.
        2   -1    0    0  501    0  0.00000000000E+00  0.00000000000E+00 -0.14961743539E+04  0.14961743539E+04  0.25500000920E-02 0. -1.
    10030    2    1    2    0    0  0.00000000000E+00  0.00000000000E+00  0.52047279813E+03  0.35128215059E+04  0.34740499419E+04 0.  0.
        3    1    3    3  502    0 -0.12700642218E+04 -0.47467561203E+03 -0.83764146515E+03  0.15937450545E+04  0.10100000352E+00 0. -1.
       -3    1    3    3    0  502  0.12700642218E+04  0.47467561203E+03  0.13581142633E+04  0.19190764515E+04  0.10100000352E+00 0.  1.
</event>
<event>
 5   0  0.2601252E-07  0.3531148E+04  0.7818609E-02  0.8106448E-01
       -1   -1    0    0    0  501  0.00000000000E+00  0.00000000000E+00  0.25964187744E+04  0.25964187744E+04  0.50400001928E-02 0.  1.
        1   -1    0    0  501    0  0.00000000000E+00  0.00000000000E+00 -0.12005969265E+04  0.12005969265E+04  0.50400001928E-02 0. -1.
    10030    2    1    2    0    0  0.00000000000E+00  0.00000000000E+00  0.13958218479E+04  0.37970157009E+04  0.35311484820E+04 0.  0.
        3    1    3    3  502    0 -0.13895909392E+04  0.95263956336E+03  0.13017378126E+03  0.16898018639E+04  0.10100000352E+00 0. -1.
       -3    1    3    3    0  502  0.13895909392E+04 -0.95263956336E+03  0.12656480666E+04  0.21072138369E+04  0.10100000352E+00 0.  1.
</event>
<event>
 5   0  0.4449262E-07  0.2556676E+04  0.7818609E-02  0.8383068E-01
        2   -1    0    0  501    0  0.00000000000E+00  0.00000000000E+00  0.14010982916E+04  0.14010982916E+04  0.25500000920E-02 0.  1.
       -2   -1    0    0    0  501  0.00000000000E+00  0.00000000000E+00 -0.11663338883E+04  0.11663338883E+04  0.25500000920E-02 0. -1.
    10030    2    1    2    0    0  0.00000000000E+00  0.00000000000E+00  0.23476440329E+03  0.25674321798E+04  0.25566762941E+04 0.  0.
        1    1    3    3  502    0 -0.97063145069E+03  0.30534500690E-01 -0.71799669790E+03  0.12073295624E+04  0.50400001928E-02 0. -1.
       -1    1    3    3    0  502  0.97063145069E+03 -0.30534500690E-01  0.95276110119E+03  0.13601026174E+04  0.50400001928E-02 0.  1.
</event>
<event>
 5   0  0.4449262E-07  0.4008619E+04  0.7818609E-02  0.8002810E-01
        2   -1    0    0  501    0  0.00000000000E+00  0.00000000000E+00  0.12687746877E+04  0.12687746877E+04  0.25500000920E-02 0.  1.
       -2   -1    0    0    0  501  0.00000000000E+00  0.00000000000E+00 -0.31662493118E+04  0.31662493118E+04  0.25500000920E-02 0. -1.
    10030    2    1    2    0    0  0.00000000000E+00  0.00000000000E+00 -0.18974746241E+04  0.44350239995E+04  0.40086192046E+04 0.  0.
        1    1    3    3  502    0  0.17961623694E+04 -0.65681475408E+03 -0.16122396751E+04  0.25013839466E+04  0.50400001928E-02 0.  1.
       -1    1    3    3    0  502 -0.17961623694E+04  0.65681475408E+03 -0.28523494899E+03  0.19336400530E+04  0.50400001928E-02 0. -1.
</event>
<event>
 5   0  0.7256473E-07  0.4018843E+04  0.7818609E-02  0.8000756E-01
       -2   -1    0    0    0  501  0.00000000000E+00  0.00000000000E+00  0.22671621450E+04  0.22671621450E+04  0.25500000920E-02 0.  1.
        2   -1    0    0  501    0  0.00000000000E+00  0.00000000000E+00 -0.17809817008E+04  0.17809817008E+04  0.25500000920E-02 0. -1.
    10030    2    1    2    0    0  0.00000000000E+00  0.00000000000E+00  0.48618044425E+03  0.40481438458E+04  0.40188427652E+04 0.  0.
        4    1    3    3  502    0  0.58524158056E+03 -0.12737109523E+04  0.16933531847E+04  0.21982479201E+04  0.12699999809E+01 0.  1.
       -4    1    3    3    0  502 -0.58524158056E+03  0.12737109523E+04 -0.12071727404E+04  0.18498959256E+04  0.12699999809E+01 0. -1.
</event>
<event>
 5   0  0.7256473E-07  0.2946558E+04  0.7818609E-02  0.8259158E-01
        2   -1    0    0  501    0  0.00000000000E+00  0.00000000000E+00  0.18092097966E+04  0.18092097966E+04  0.25500000920E-02 0. -1.
       -2   -1    0    0    0  501  0.00000000000E+00  0.00000000000E+00 -0.11997232944E+04  0.11997232944E+04  0.25500000920E-02 0.  1.
    10030    2    1    2    0    0  0.00000000000E+00  0.00000000000E+00  0.60948650214E+03  0.30089330910E+04  0.29465580852E+04 0.  0.
        4    1    3    3  502    0  0.36520123576E+03 -0.13239996177E+03  0.17559702439E+04  0.17984256456E+04  0.12699999809E+01 0. -1.
       -4    1    3    3    0  502 -0.36520123576E+03  0.13239996177E+03 -0.11464837417E+04  0.12105074454E+04  0.12699999809E+01 0.  1.
</event>
<event>
 5   0  0.4449262E-07  0.3997202E+04  0.7818609E-02  0.8005111E-01
        2   -1    0    0  501    0  0.00000000000E+00  0.00000000000E+00  0.21269541866E+04  0.21269541867E+04  0.25500000920E-02 0. -1.
       -2   -1    0    0    0  501  0.00000000000E+00  0.00000000000E+00 -0.18779936021E+04  0.18779936021E+04  0.25500000920E-02 0.  1.
    10030    2    1    2    0    0  0.00000000000E+00  0.00000000000E+00  0.24896058452E+03  0.40049477888E+04  0.39972021988E+04 0.  0.
        1    1    3    3  502    0  0.12188872012E+04 -0.14981858165E+04 -0.39048023891E+03  0.19704622724E+04  0.50400001928E-02 0.  1.
       -1    1    3    3    0  502 -0.12188872012E+04  0.14981858165E+04  0.63944082344E+03  0.20344855164E+04  0.50400001928E-02 0. -1.
</event>
<event>
 5   0  0.5161550E-07  0.3989805E+04  0.7818609E-02  0.8006606E-01
       -2   -1    0    0    0  501  0.00000000000E+00  0.00000000000E+00  0.15226045406E+04  0.15226045406E+04  0.25500000920E-02 0. -1.
        2   -1    0    0  501    0  0.00000000000E+00  0.00000000000E+00 -0.26137034901E+04  0.26137034901E+04  0.25500000920E-02 0.  1.
    10030    2    1    2    0    0  0.00000000000E+00  0.00000000000E+00 -0.10910989495E+04  0.41363080307E+04  0.39898054097E+04 0.  0.
        2    1    3    3  502    0  0.72700111723E+03  0.62716442931E+03  0.12673078847E+04  0.15899481502E+04  0.25500000920E-02 0. -1.
       -2    1    3    3    0  502 -0.72700111723E+03 -0.62716442931E+03 -0.23584068341E+04  0.25463598805E+04  0.25500000920E-02 0.  1.
</event>
<event>
 5   0  0.4449262E-07  0.3853190E+04  0.7818609E-02  0.8034836E-01
       -2   -1    0    0    0  501  0.00000000000E+00  0.00000000000E+00  0.23348669872E+04  0.23348669872E+04  0.25500000920E-02 0.  1.
        2   -1    0    0  501    0  0.00000000000E+00  0.00000000000E+00 -0.15897127394E+04  0.15897127394E+04  0.25500000920E-02 0. -1.
    10030    2    1    2    0    0  0.00000000000E+00  0.00000000000E+00  0.74515424774E+03  0.39245797266E+04  0.38531897407E+04 0.  0.
        1    1    3    3  502    0  0.17067589243E+04 -0.40532410008E+03 -0.43870681739E+03  0.18082525607E+04  0.50400001928E-02 0. -1.
       -1    1    3    3    0  502 -0.17067589243E+04  0.40532410008E+03  0.11838610651E+04  0.21163271659E+04  0.50400001928E-02 0.  1.
</event>
<event>
 5   0  0.5161550E-07  0.2371139E+04  0.7818609E-02  0.8450388E-01
       -2   -1    0    0    0  501  0.00000000000E+00  0.00000000000E+00  0.92802946570E+03  0.92802946570E+03  0.25500000920E-02 0. -1.
        2   -1    0    0  501    0  0.00000000000E+00  0.00000000000E+00 -0.15145806871E+04  0.15145806871E+04  0.25500000920E-02 0.  1.
    10030    2    1    2    0    0  0.00000000000E+00  0.00000000000E+00 -0.58655122138E+03  0.24426101528E+04  0.23711393935E+04 0.  0.
        2    1    3    3  502    0 -0.55351296616E+03  0.93081027148E+02 -0.13690392012E+04  0.14796313784E+04  0.25500000920E-02 0.  1.
       -2    1    3    3    0  502  0.55351296616E+03 -0.93081027148E+02  0.78248797986E+03  0.96297877441E+03  0.25500000920E-02 0. -1.
</event>
<event>
 5   0  0.3579559E-07  0.2244912E+04  0.7818609E-02  0.8499964E-01
       -1   -1    0    0    0  501  0.00000000000E+00  0.00000000000E+00  0.10796530292E+04  0.10796530292E+04  0.50400001928E-02 0.  1.
        1   -1    0    0  501    0  0.00000000000E+00  0.00000000000E+00 -0.11669557483E+04  0.11669557483E+04  0.50400001928E-02 0. -1.
    10030    2    1    2    0    0  0.00000000000E+00  0.00000000000E+00 -0.87302719085E+02  0.22466087775E+04  0.22449118545E+04 0.  0.
        4    1    3    3  502    0  0.49420374320E+03  0.93850020007E+02  0.96053152794E+03  0.10842820644E+04  0.12699999809E+01 0.  1.
       -4    1    3    3    0  502 -0.49420374320E+03 -0.93850020007E+02 -0.10478342470E+04  0.11623267132E+04  0.12699999809E+01 0. -1.
</event>
<event>
 5   0  0.7570277E-07  0.3941169E+04  0.7818609E-02  0.8016521E-01
        2   -1    0    0  501    0  0.00000000000E+00  0.00000000000E+00  0.16081230641E+04  0.16081230641E+04  0.25500000920E-02 0.  1.
       -2   -1    0    0    0  501  0.00000000000E+00  0.00000000000E+00 -0.24147421111E+04  0.24147421111E+04  0.25500000920E-02 0. -1.
    10030    2    1    2    0    0  0.00000000000E+00  0.00000000000E+00 -0.80661904703E+03  0.40228651752E+04  0.39411685996E+04 0.  0.
        5    1    3    3  502    0 -0.33711546678E+03  0.27854538844E+03  0.15579638619E+04  0.16181804153E+04  0.46999998093E+01 0.  1.
       -5    1    3    3    0  502  0.33711546678E+03 -0.27854538844E+03 -0.23645829089E+04  0.24046847599E+04  0.46999998093E+01 0. -1.
</event>
<event>
 5   0  0.2647879E-07  0.3871339E+04  0.7818609E-02  0.8031017E-01
       -1   -1    0    0    0  501  0.00000000000E+00  0.00000000000E+00  0.10542494974E+04  0.10542494974E+04  0.50400001928E-02 0. -1.
        1   -1    0    0  501    0  0.00000000000E+00  0.00000000000E+00 -0.35540120849E+04  0.35540120849E+04  0.50400001928E-02 0.  1.
    10030    2    1    2    0    0  0.00000000000E+00  0.00000000000E+00 -0.24997625875E+04  0.46082615823E+04  0.38713385046E+04 0.  0.
        2    1    3    3  502    0  0.74530353603E+02 -0.11251710873E+04  0.62289357428E+03  0.12882395562E+04  0.25500000920E-02 0. -1.
       -2    1    3    3    0  502 -0.74530353603E+02  0.11251710873E+04 -0.31226561617E+04  0.33200220261E+04  0.25500000920E-02 0.  1.
</event>
<event>
 5   0  0.2401125E-07  0.3997697E+04  0.7818609E-02  0.8005011E-01
       -1   -1    0    0    0  501  0.00000000000E+00  0.00000000000E+00  0.18155156584E+04  0.18155156584E+04  0.50400001928E-02 0. -1.
        1   -1    0    0  501    0  0.00000000000E+00  0.00000000000E+00 -0.22006941346E+04  0.22006941346E+04  0.50400001928E-02 0.  1.
    10030    2    1    2    0    0  0.00000000000E+00  0.00000000000E+00 -0.38517847618E+03  0.40162097930E+04  0.39976966672E+04 0.  0.
        5    1    3    3  502    0 -0.11181463981E+04  0.15183051387E+04 -0.85888810446E+03  0.20720069323E+04  0.46999998093E+01 0. -1.
       -5    1    3    3    0  502  0.11181463981E+04 -0.15183051387E+04  0.47370962828E+03  0.19442028607E+04  0.46999998093E+01 0.  1.
</event>
<event>
 5   0  0.2401125E-07  0.2269790E+04  0.7818609E-02  0.8489929E-01
        1   -1    0    0  501    0  0.00000000000E+00  0.00000000000E+00  0.11345491609E+04  0.11345491609E+04  0.50400001928E-02 0. -1.
       -1   -1    0    0    0  501  0.00000000000E+00  0.00000000000E+00 -0.11352409433E+04  0.11352409433E+04  0.50400001928E-02 0.  1.
    10030    2    1    2    0    0  0.00000000000E+00  0.00000000000E+00 -0.69178244340E+00  0.22697901043E+04  0.22697899988E+04 0.  0.
        5    1    3    3  502    0 -0.92181399188E+03 -0.64558152220E+03  0.14610558287E+03  0.11348504169E+04  0.46999998093E+01 0. -1.
       -5    1    3    3    0  502  0.92181399188E+03  0.64558152220E+03 -0.14679736532E+03  0.11349396873E+04  0.46999998093E+01 0.  1.
</event>
<event>
 5   0  0.4449262E-07  0.3150313E+04  0.7818609E-02  0.8202064E-01
       -2   -1    0    0    0  501  0.00000000000E+00  0.00000000000E+00  0.13454704246E+04  0.13454704246E+04  0.25500000920E-02 0.  1.
        2   -1    0    0  501    0  0.00000000000E+00  0.00000000000E+00 -0.18440527346E+04  0.18440527346E+04  0.25500000920E-02 0. -1.
    10030    2    1    2    0    0  0.00000000000E+00  0.00000000000E+00 -0.49858231008E+03  0.31895231592E+04  0.31503132643E+04 0.  0.
        1    1    3    3  502    0 -0.10566353670E+04  0.10373820608E+04  0.29449582069E+03  0.15097574730E+04  0.50400001928E-02 0.  1.
       -1    1    3    3    0  502  0.10566353670E+04 -0.10373820608E+04 -0.79307813076E+03  0.16797656862E+04  0.50400001928E-02 0. -1.
</event>
<event>
 5   0  0.2401125E-07  0.2617716E+04  0.7818609E-02  0.8362208E-01
       -1   -1    0    0    0  501  0.00000000000E+00  0.00000000000E+00  0.10324999566E+04  0.10324999566E+04  0.50400001928E-02 0.  1.
        1   -1    0    0  501    0  0.00000000000E+00  0.00000000000E+00 -0.16591861856E+04  0.16591861856E+04  0.50400001928E-02 0. -1.
    10030    2    1    2    0    0  0.00000000000E+00  0.00000000000E+00 -0.62668622908E+03  0.26916861422E+04  0.26177163060E+04 0.  0.
        5    1    3    3  502    0 -0.34316430406E+03 -0.20788895232E+03 -0.15943834715E+04  0.16440986285E+04  0.46999998093E+01 0. -1.
       -5    1    3    3    0  502  0.34316430406E+03  0.20788895232E+03  0.96769724237E+03  0.10475875138E+04  0.46999998093E+01 0.  1.
</event>
<event>
 5   0  0.4449262E-07  0.3791985E+04  0.7818609E-02  0.8047877E-01
       -2   -1    0    0    0  501  0.00000000000E+00  0.00000000000E+00  0.17609292105E+04  0.17609292105E+04  0.25500000920E-02 0. -1.
        2   -1    0    0  501    0  0.00000000000E+00  0.00000000000E+00 -0.20414151690E+04  0.20414151690E+04  0.25500000920E-02 0.  1.
    10030    2    1    2    0    0  0.00000000000E+00  0.00000000000E+00 -0.28048595849E+03  0.38023443795E+04  0.37919850221E+04 0.  0.
        1    1    3    3  502    0 -0.57317038209E+03  0.14702603070E+04 -0.11941127580E+04  0.19789125640E+04  0.50400001928E-02 0.  1.
       -1    1    3    3    0  502  0.57317038209E+03 -0.14702603070E+04  0.91362679947E+03  0.18234318155E+04  0.50400001928E-02 0. -1.
</event>
<event>
 5   0  0.2713405E-07  0.2213341E+04  0.7818609E-02  0.8512896E-01
       -1   -1    0    0    0  501  0.00000000000E+00  0.00000000000E+00  0.13620223641E+04  0.13620223641E+04  0.50400001928E-02 0.  1.
        1   -1    0    0  501    0  0.00000000000E+00  0.00000000000E+00 -0.89919158969E+03  0.89919158970E+03  0.50400001928E-02 0. -1.
    10030    2    1    2    0    0  0.00000000000E+00  0.00000000000E+00  0.46283077443E+03  0.22612139538E+04  0.22133405114E+04 0.  0.
        1    1    3    3  502    0 -0.51556269457E+03 -0.58484631263E+03 -0.57098269165E+03  0.96637018561E+03  0.50400001928E-02 0. -1.
       -1    1    3    3    0  502  0.51556269457E+03  0.58484631263E+03  0.10338134661E+04  0.12948437682E+04  0.50400001928E-02 0.  1.
</event>
<event>
 5   0  0.1020152E-06  0.2037126E+04  0.7818609E-02  0.8589457E-01
       -2   -1    0    0    0  501  0.00000000000E+00  0.00000000000E+00  0.74713670915E+03  0.74713670916E+03  0.25500000920E-02 0. -1.
        2   -1    0    0  501    0  0.00000000000E+00  0.00000000000E+00 -0.13885956010E+04  0.13885956010E+04  0.25500000920E-02 0.  1.
    10030    2    1    2    0    0  0.00000000000E+00  0.00000000000E+00 -0.64145889183E+03  0.21357323101E+04  0.20371261597E+04 0.  0.
        5    1    3    3  502    0 -0.78014113433E+03  0.18110079843E+03 -0.98050081646E+03  0.12660259199E+04  0.46999998093E+01 0.  1.
       -5    1    3    3    0  502  0.78014113433E+03 -0.18110079843E+03  0.33904192463E+03  0.86970639029E+03  0.46999998093E+01 0. -1.
</event>
<event>
 5   0  0.2401125E-07  0.3966949E+04  0.7818609E-02  0.8011247E-01
        1   -1    0    0  501    0  0.00000000000E+00  0.00000000000E+00  0.17416724583E+04  0.17416724584E+04  0.50400001928E-02 0.  1.
       -1   -1    0    0    0  501  0.00000000000E+00  0.00000000000E+00 -0.22588464494E+04  0.22588464494E+04  0.50400001928E-02 0. -1.
    10030    2    1    2    0    0  0.00000000000E+00  0.00000000000E+00 -0.51717399107E+03  0.40005189078E+04  0.39669487764E+04 0.  0.
        5    1    3    3  502    0  0.39948909848E+03 -0.19028177630E+04 -0.65413263392E+03  0.20513942994E+04  0.46999998093E+01 0. -1.
       -5    1    3    3    0  502 -0.39948909848E+03  0.19028177630E+04  0.13695864285E+03  0.19491246083E+04  0.46999998093E+01 0.  1.
</event>
<event>
 5   0  0.5161550E-07  0.3588269E+04  0.7818609E-02  0.8093184E-01
       -2   -1    0    0    0  501  0.00000000000E+00  0.00000000000E+00  0.14544570148E+04  0.14544570148E+04  0.25500000920E-02 0. -1.
        2   -1    0    0  501    0  0.00000000000E+00  0.00000000000E+00 -0.22131405102E+04  0.22131405102E+04  0.25500000920E-02 0.  1.
    10030    2    1    2    0    0  0.00000000000E+00  0.00000000000E+00 -0.75868349533E+03  0.36675975250E+04  0.35882685183E+04 0.  0.
        2    1    3    3  502    0  0.12001051063E+04  0.49104976568E+03 -0.16467289763E+04  0.20959719606E+04  0.25500000920E-02 0.  1.
       -2    1    3    3    0  502 -0.12001051063E+04 -0.49104976568E+03  0.88804548093E+03  0.15716255644E+04  0.25500000920E-02 0. -1.
</event>
<event>
 5   0  0.5161550E-07  0.3400265E+04  0.7818609E-02  0.8137841E-01
        2   -1    0    0  501    0  0.00000000000E+00  0.00000000000E+00  0.19304682548E+04  0.19304682548E+04  0.25500000920E-02 0.  1.
       -2   -1    0    0    0  501  0.00000000000E+00  0.00000000000E+00 -0.14972794429E+04  0.14972794429E+04  0.25500000920E-02 0. -1.
    10030    2    1    2    0    0  0.00000000000E+00  0.00000000000E+00  0.43318881186E+03  0.34277476977E+04  0.34002649503E+04 0.  0.
        2    1    3    3  502    0  0.74916820707E+03 -0.10811263058E+04  0.13025025469E+04  0.18511077700E+04  0.25500000920E-02 0.  1.
       -2    1    3    3    0  502 -0.74916820707E+03  0.10811263058E+04 -0.86931373499E+03  0.15766399277E+04  0.25500000920E-02 0. -1.
</event>
<event>
 5   0  0.4449262E-07  0.2383061E+04  0.7818609E-02  0.8445873E-01
       -2   -1    0    0    0  501  0.00000000000E+00  0.00000000000E+00  0.10502942866E+04  0.10502942866E+04  0.25500000920E-02 0.  1.
        2   -1    0    0  501    0  0.00000000000E+00  0.00000000000E+00 -0.13517589067E+04  0.13517589067E+04  0.25500000920E-02 0. -1.
    10030    2    1    2    0    0  0.00000000000E+00  0.00000000000E+00 -0.30146462014E+03  0.24020531933E+04  0.23830607685E+04 0.  0.
        1    1    3    3  502    0  0.82937784775E+03 -0.35823334993E+03 -0.93380604732E+03  0.12993046145E+04  0.50400001928E-02 0. -1.
       -1    1    3    3    0  502 -0.82937784775E+03  0.35823334993E+03  0.63234142718E+03  0.11027485787E+04  0.50400001928E-02 0.  1.
</event>
<event>
 5   0  0.2401125E-07  0.4009642E+04  0.7818609E-02  0.8002604E-01
        3   -1    0    0  501    0  0.00000000000E+00  0.00000000000E+00  0.23216050363E+04  0.23216050385E+04  0.10100000352E+00 0. -1.
       -3   -1    0    0    0  501  0.00000000000E+00  0.00000000000E+00 -0.17312619627E+04  0.17312619657E+04  0.10100000352E+00 0.  1.
    10030    2    1    2    0    0  0.00000000000E+00  0.00000000000E+00  0.59034307363E+03  0.40528670042E+04  0.40096416310E+04 0.  0.
        1    1    3    3  502    0 -0.45926913604E+03  0.58185326954E+03 -0.15876562039E+04  0.17521796679E+04  0.50400001928E-02 0.  1.
       -1    1    3    3    0  502  0.45926913604E+03 -0.58185326954E+03  0.21779992775E+04  0.23006873363E+04  0.50400001928E-02 0. -1.
</event>
<event>
 5   0  0.3579559E-07  0.2039607E+04  0.7818609E-02  0.8588324E-01
       -1   -1    0    0    0  501  0.00000000000E+00  0.00000000000E+00  0.58128495130E+03  0.58128495133E+03  0.50400001928E-02 0.  1.
        1   -1    0    0  501    0  0.00000000000E+00  0.00000000000E+00 -0.17891378799E+04  0.17891378799E+04  0.50400001928E-02 0. -1.
    10030    2    1    2    0    0  0.00000000000E+00  0.00000000000E+00 -0.12078529286E+04  0.23704228312E+04  0.20396067517E+04 0.  0.
        4    1    3    3  502    0  0.97843780535E+02  0.47420329301E+03  0.43917611233E+03  0.65369674853E+03  0.12699999809E+01 0.  1.
       -4    1    3    3    0  502 -0.97843780535E+02 -0.47420329301E+03 -0.16470290409E+04  0.17167260827E+04  0.12699999809E+01 0. -1.
</event>
<event>
 5   0  0.5161550E-07  0.3926757E+04  0.7818609E-02  0.8019487E-01
        2   -1    0    0  501    0  0.00000000000E+00  0.00000000000E+00  0.17707167060E+04  0.17707167061E+04  0.25500000920E-02 0. -1.
       -2   -1    0    0    0  501  0.00000000000E+00  0.00000000000E+00 -0.21770023013E+04  0.21770023013E+04  0.25500000920E-02 0.  1.
    10030    2    1    2    0    0  0.00000000000E+00  0.00000000000E+00 -0.40628559528E+03  0.39477190074E+04  0.39267565975E+04 0.  0.
        2    1    3    3  502    0 -0.94460323651E+03 -0.67913648349E+03 -0.17931522925E+04  0.21374977852E+04  0.25500000920E-02 0.  1.
       -2    1    3    3    0  502  0.94460323651E+03  0.67913648349E+03  0.13868666972E+04  0.18102212222E+04  0.25500000920E-02 0. -1.
</event>
<event>
 5   0  0.2647879E-07  0.2765098E+04  0.7818609E-02  0.8314187E-01
       -1   -1    0    0    0  501  0.00000000000E+00  0.00000000000E+00  0.12866103007E+04  0.12866103007E+04  0.50400001928E-02 0. -1.
        1   -1    0    0  501    0  0.00000000000E+00  0.00000000000E+00 -0.14856411260E+04  0.14856411260E+04  0.50400001928E-02 0.  1.
    10030    2    1    2    0    0  0.00000000000E+00  0.00000000000E+00 -0.19903082526E+03  0.27722514267E+04  0.27650975938E+04 0.  0.
        2    1    3    3  502    0 -0.85094847459E+03 -0.87868829749E+03 -0.74556967277E+03  0.14325084878E+04  0.25500000920E-02 0.  1.
       -2    1    3    3    0  502  0.85094847459E+03  0.87868829749E+03  0.54653884751E+03  0.13397429389E+04  0.25500000920E-02 0. -1.
</event>
<event>
 5   0  0.5880654E-07  0.2020003E+04  0.7818609E-02  0.8597325E-01
        2   -1    0    0  501    0  0.00000000000E+00  0.00000000000E+00  0.10222027923E+04  0.10222027923E+04  0.25500000920E-02 0.  1.
       -2   -1    0    0    0  501  0.00000000000E+00  0.00000000000E+00 -0.99794561587E+03  0.99794561587E+03  0.25500000920E-02 0. -1.
    10030    2    1    2    0    0  0.00000000000E+00  0.00000000000E+00  0.24257176430E+02  0.20201484082E+04  0.20200027674E+04 0.  0.
        1    1    3    3  502    0 -0.72342701861E+03 -0.21971058855E+03  0.68186590545E+03  0.10181161560E+04  0.50400001928E-02 0.  1.
       -1    1    3    3    0  502  0.72342701861E+03  0.21971058855E+03 -0.65760872902E+03  0.10020322522E+04  0.50400001928E-02 0. -1.
</event>
<event>
 5   0  0.6043512E-07  0.2260336E+04  0.7818609E-02  0.8493726E-01
        2   -1    0    0  501    0  0.00000000000E+00  0.00000000000E+00  0.11976961739E+04  0.11976961739E+04  0.25500000920E-02 0. -1.
       -2   -1    0    0    0  501  0.00000000000E+00  0.00000000000E+00 -0.10664468268E+04  0.10664468268E+04  0.25500000920E-02 0.  1.
    10030    2    1    2    0    0  0.00000000000E+00  0.00000000000E+00  0.13124934706E+03  0.22641430007E+04  0.22603356248E+04 0.  0.
        3    1    3    3  502    0  0.13897660672E+03  0.11029182801E+04  0.26977190263E+03  0.11439056427E+04  0.10100000352E+00 0. -1.
       -3    1    3    3    0  502 -0.13897660672E+03 -0.11029182801E+04 -0.13852255556E+03  0.11202373580E+04  0.10100000352E+00 0.  1.
</event>
<event>
 5   0  0.2647879E-07  0.3682044E+04  0.7818609E-02  0.8071953E-01
       -1   -1    0    0    0  501  0.00000000000E+00  0.00000000000E+00  0.12267989460E+04  0.12267989460E+04  0.50400001928E-02 0. -1.
        1   -1    0    0  501    0  0.00000000000E+00  0.00000000000E+00 -0.27627685827E+04  0.27627685827E+04  0.50400001928E-02 0.  1.
    10030    2    1    2    0    0  0.00000000000E+00  0.00000000000E+00 -0.15359696367E+04  0.39895675287E+04  0.36820437723E+04 0.  0.
        2    1    3    3  502    0 -0.36899617476E+03 -0.17254062348E+04 -0.13374018034E+04  0.22140073251E+04  0.25500000920E-02 0.  1.
       -2    1    3    3    0  502  0.36899617476E+03  0.17254062348E+04 -0.19856783337E+03  0.17755602036E+04  0.25500000920E-02 0. -1.
</event>
<event>
 5   0  0.3579559E-07  0.2270000E+04  0.7818609E-02  0.8489844E-01
       -1   -1    0    0    0  501  0.00000000000E+00  0.00000000000E+00  0.15343716692E+04  0.15343716692E+04  0.50400001928E-02 0.  1.
        1   -1    0    0  501    0  0.00000000000E+00  0.00000000000E+00 -0.83957821931E+03  0.83957821933E+03  0.50400001928E-02 0. -1.
    10030    2    1    2    0    0  0.00000000000E+00  0.00000000000E+00  0.69479344989E+03  0.23739498885E+04  0.22700000298E+04 0.  0.
        4    1    3    3  502    0  0.65506402115E+03  0.64940117397E+03 -0.34424539279E+03  0.98454926739E+03  0.12699999809E+01 0. -1.
       -4    1    3    3    0  502 -0.65506402115E+03 -0.64940117397E+03  0.10390388427E+04  0.13894006211E+04  0.12699999809E+01 0.  1.
</event>
<event>
 5   0  0.2647879E-07  0.2023275E+04  0.7818609E-02  0.8595815E-01
       -1   -1    0    0    0  501  0.00000000000E+00  0.00000000000E+00  0.93940105055E+03  0.93940105056E+03  0.50400001928E-02 0.  1.
        1   -1    0    0  501    0  0.00000000000E+00  0.00000000000E+00 -0.10894290677E+04  0.10894290677E+04  0.50400001928E-02 0. -1.
    10030    2    1    2    0    0  0.00000000000E+00  0.00000000000E+00 -0.15002801711E+03  0.20288301182E+04  0.20232753749E+04 0.  0.
        2    1    3    3  502    0  0.48574216077E+03  0.56048949951E+02  0.81303801122E+03  0.94874535005E+03  0.25500000920E-02 0.  1.
       -2    1    3    3    0  502 -0.48574216077E+03 -0.56048949951E+02 -0.96306602833E+03  0.10800847682E+04  0.25500000920E-02 0. -1.
</event>
<event>
 5   0  0.5161550E-07  0.4098802E+04  0.7818609E-02  0.7984906E-01
        2   -1    0    0  501    0  0.00000000000E+00  0.00000000000E+00  0.30246429773E+04  0.30246429773E+04  0.25500000920E-02 0. -1.
       -2   -1    0    0    0  501  0.00000000000E+00  0.00000000000E+00 -0.13886082463E+04  0.13886082463E+04  0.25500000920E-02 0.  1.
    10030    2    1    2    0    0  0.00000000000E+00  0.00000000000E+00  0.16360347310E+04  0.44132512235E+04  0.40988018641E+04 0.  0.
        2    1    3    3  502    0  0.76264924206E+03 -0.18202745513E+04  0.14126645746E+04  0.24270670590E+04  0.25500000920E-02 0. -1.
       -2    1    3    3    0  502 -0.76264924206E+03  0.18202745513E+04  0.22337015639E+03  0.19861841645E+04  0.25500000920E-02 0.  1.
</event>
<event>
 5   0  0.3579559E-07  0.2239118E+04  0.7818609E-02  0.8502320E-01
       -1   -1    0    0    0  501  0.00000000000E+00  0.00000000000E+00  0.94616680434E+03  0.94616680436E+03  0.50400001928E-02 0.  1.
        1   -1    0    0  501    0  0.00000000000E+00  0.00000000000E+00 -0.13247271366E+04  0.13247271366E+04  0.50400001928E-02 0. -1.
    10030    2    1    2    0    0  0.00000000000E+00  0.00000000000E+00 -0.37856033222E+03  0.22708939409E+04  0.22391184350E+04 0.  0.
        4    1    3    3  502    0 -0.69493702445E+03 -0.87400134876E+03 -0.27164473957E+03  0.11491772287E+04  0.12699999809E+01 0. -1.
       -4    1    3    3    0  502  0.69493702445E+03  0.87400134876E+03 -0.10691559265E+03  0.11217167122E+04  0.12699999809E+01 0.  1.
</event>
<event>
 5   0  0.7256473E-07  0.3994693E+04  0.7818609E-02  0.8005618E-01
       -2   -1    0    0    0  501  0.00000000000E+00  0.00000000000E+00  0.15794640962E+04  0.15794640962E+04  0.25500000920E-02 0.  1.
        2   -1    0    0  501    0  0.00000000000E+00  0.00000000000E+00 -0.25257889354E+04  0.25257889354E+04  0.25500000920E-02 0. -1.
    10030    2    1    2    0    0  0.00000000000E+00  0.00000000000E+00 -0.94632483915E+03  0.41052530316E+04  0.39946929484E+04 0.  0.
        4    1    3    3  502    0 -0.26634124789E+03  0.14859318512E+04 -0.18172049572E+04  0.23624492791E+04  0.12699999809E+01 0. -1.
       -4    1    3    3    0  502  0.26634124789E+03 -0.14859318512E+04  0.87088011806E+03  0.17428037525E+04  0.12699999809E+01 0.  1.
</event>
<event>
 5   0  0.2401125E-07  0.2548054E+04  0.7818609E-02  0.8386063E-01
        1   -1    0    0  501    0  0.00000000000E+00  0.00000000000E+00  0.12926108958E+04  0.12926108958E+04  0.50400001928E-02 0. -1.
       -1   -1    0    0    0  501  0.00000000000E+00  0.00000000000E+00 -0.12557101197E+04  0.12557101198E+04  0.50400001928E-02 0.  1.
    10030    2    1    2    0    0  0.00000000000E+00  0.00000000000E+00  0.36900776045E+02  0.25483210156E+04  0.25480538321E+04 0.  0.
        5    1    3    3  502    0 -0.41167875277E+03  0.11980407378E+04  0.15389533808E+03  0.12761218085E+04  0.46999998093E+01 0.  1.
       -5    1    3    3    0  502  0.41167875277E+03 -0.11980407378E+04 -0.11699456203E+03  0.12721992071E+04  0.46999998093E+01 0. -1.
</event>
<event>
 5   0  0.2401125E-07  0.3807069E+04  0.7818609E-02  0.8044640E-01
        1   -1    0    0  501    0  0.00000000000E+00  0.00000000000E+00  0.15122828253E+04  0.15122828253E+04  0.50400001928E-02 0.  1.
       -1   -1    0    0    0  501  0.00000000000E+00  0.00000000000E+00 -0.23960095025E+04  0.23960095025E+04  0.50400001928E-02 0. -1.
    10030    2    1    2    0    0  0.00000000000E+00  0.00000000000E+00 -0.88372667719E+03  0.39082923279E+04  0.38070692245E+04 0.  0.
        5    1    3    3  502    0 -0.53202832305E+03  0.98019357236E+03  0.11417428264E+04  0.15960677766E+04  0.46999998093E+01 0.  1.
       -5    1    3    3    0  502  0.53202832305E+03 -0.98019357236E+03 -0.20254695036E+04  0.23122245513E+04  0.46999998093E+01 0. -1.
</event>
<event>
 5   0  0.4449262E-07  0.2095156E+04  0.7818609E-02  0.8563380E-01
        2   -1    0    0  501    0  0.00000000000E+00  0.00000000000E+00  0.91941651027E+03  0.91941651028E+03  0.25500000920E-02 0. -1.
       -2   -1    0    0    0  501  0.00000000000E+00  0.00000000000E+00 -0.11936045230E+04  0.11936045230E+04  0.25500000920E-02 0.  1.
    10030    2    1    2    0    0  0.00000000000E+00  0.00000000000E+00 -0.27418801277E+03  0.21130210333E+04  0.20951560374E+04 0.  0.
        1    1    3    3  502    0  0.83739731582E+03 -0.58415199273E+03 -0.37351104044E+03  0.10871882599E+04  0.50400001928E-02 0.  1.
       -1    1    3    3    0  502 -0.83739731582E+03  0.58415199273E+03  0.99323027670E+02  0.10258327734E+04  0.50400001928E-02 0. -1.
</event>
<event>
 5   0  0.3579559E-07  0.3872566E+04  0.7818609E-02  0.8030759E-01
       -1   -1    0    0    0  501  0.00000000000E+00  0.00000000000E+00  0.14847019116E+04  0.14847019116E+04  0.50400001928E-02 0. -1.
        1   -1    0    0  501    0  0.00000000000E+00  0.00000000000E+00 -0.25252153832E+04  0.25252153833E+04  0.50400001928E-02 0.  1.
    10030    2    1    2    0    0  0.00000000000E+00  0.00000000000E+00 -0.10405134717E+04  0.40099172948E+04  0.38725661294E+04 0.  0.
        4    1    3    3  502    0  0.43923611860E+03 -0.14515696759E+04 -0.17667842656E+04  0.23284138691E+04  0.12699999809E+01 0. -1.
       -4    1    3    3    0  502 -0.43923611860E+03  0.14515696759E+04  0.72627079391E+03  0.16815034258E+04  0.12699999809E+01 0.  1.
</event>
<event>
 5   0  0.2401125E-07  0.3995049E+04  0.7818609E-02  0.8005546E-01
        1   -1    0    0  501    0  0.00000000000E+00  0.00000000000E+00  0.14456292443E+04  0.14456292444E+04  0.50400001928E-02 0. -1.
       -1   -1    0    0    0  501  0.00000000000E+00  0.00000000000E+00 -0.27601161627E+04  0.27601161627E+04  0.50400001928E-02 0.  1.
    10030    2    1    2    0    0  0.00000000000E+00  0.00000000000E+00 -0.13144869183E+04  0.42057454070E+04  0.39950492576E+04 0.  0.
        5    1    3    3  502    0  0.62671107821E+03 -0.12390313005E+04  0.85449796879E+03  0.16303846809E+04  0.46999998093E+01 0. -1.
       -5    1    3    3    0  502 -0.62671107821E+03  0.12390313005E+04 -0.21689848871E+04  0.25753607261E+04  0.46999998093E+01 0.  1.
</event>
<event>
 5   0  0.2401125E-07  0.3880246E+04  0.7818609E-02  0.8029150E-01
       -1   -1    0    0    0  501  0.00000000000E+00  0.00000000000E+00  0.23019373700E+04  0.23019373700E+04  0.50400001928E-02 0. -1.
        1   -1    0    0  501    0  0.00000000000E+00  0.00000000000E+00 -0.16351779599E+04  0.16351779599E+04  0.50400001928E-02 0.  1.
    10030    2    1    2    0    0  0.00000000000E+00  0.00000000000E+00  0.66675941012E+03  0.39371153298E+04  0.38802459986E+04 0.  0.
        5    1    3    3  502    0  0.99631445987E+03  0.98909640949E+03  0.16920724225E+04  0.21986553580E+04  0.46999998093E+01 0. -1.
       -5    1    3    3    0  502 -0.99631445987E+03 -0.98909640949E+03 -0.10253130124E+04  0.17384599718E+04  0.46999998093E+01 0.  1.
</event>
<event>
 5   0  0.2401125E-07  0.2603110E+04  0.7818609E-02  0.8367146E-01
       -1   -1    0    0    0  501  0.00000000000E+00  0.00000000000E+00  0.77403828018E+03  0.77403828019E+03  0.50400001928E-02 0.  1.
        1   -1    0    0  501    0  0.00000000000E+00  0.00000000000E+00 -0.21885805763E+04  0.21885805763E+04  0.50400001928E-02 0. -1.
    10030    2    1    2    0    0  0.00000000000E+00  0.00000000000E+00 -0.14145422961E+04  0.29626188565E+04  0.26031097905E+04 0.  0.
        5    1    3    3  502    0  0.56008735292E+03 -0.77922461827E+03 -0.17079869128E+04  0.19591146554E+04  0.46999998093E+01 0. -1.
       -5    1    3    3    0  502 -0.56008735292E+03  0.77922461827E+03  0.29344461668E+03  0.10035042011E+04  0.46999998093E+01 0.  1.
</event>
<event>
 5   0  0.6043512E-07  0.3750796E+04  0.7818609E-02  0.8056797E-01
        2   -1    0    0  501    0  0.00000000000E+00  0.00000000000E+00  0.24794469049E+04  0.24794469049E+04  0.25500000920E-02 0. -1.
       -2   -1    0    0    0  501  0.00000000000E+00  0.00000000000E+00 -0.14185091904E+04  0.14185091904E+04  0.25500000920E-02 0.  1.
    10030    2    1    2    0    0  0.00000000000E+00  0.00000000000E+00  0.10609377145E+04  0.38979560953E+04  0.37507963003E+04 0.  0.
        3    1    3    3  502    0 -0.59634788550E+03 -0.17779926809E+04  0.51472737446E+03  0.19446935631E+04  0.10100000352E+00 0.  1.
       -3    1    3    3    0  502  0.59634788550E+03  0.17779926809E+04  0.54621034007E+03  0.19532625322E+04  0.10100000352E+00 0. -1.
</event>
<event>
 5   0  0.3579559E-07  0.3993590E+04  0.7818609E-02  0.8005841E-01
       -1   -1    0    0    0  501  0.00000000000E+00  0.00000000000E+00  0.31060312107E+04  0.31060312107E+04  0.50400001928E-02 0. -1.
        1   -1    0    0  501    0  0.00000000000E+00  0.00000000000E+00 -0.12836926688E+04  0.12836926688E+04  0.50400001928E-02 0.  1.
    10030    2    1    2    0    0  0.00000000000E+00  0.00000000000E+00  0.18223385419E+04  0.43897238795E+04  0.39935896105E+04 0.  0.
        4    1    3    3  502    0 -0.25814767537E+03 -0.72040181583E+03 -0.11161091819E+04  0.13532628412E+04  0.12699999809E+01 0.  1.
       -4    1    3    3    0  502  0.25814767537E+03  0.72040181583E+03  0.29384477238E+04  0.30364610383E+04  0.12699999809E+01 0. -1.
</event>
<event>
 5   0  0.2601252E-07  0.2902384E+04  0.7818609E-02  0.8272169E-01
        1   -1    0    0  501    0  0.00000000000E+00  0.00000000000E+00  0.14301270207E+04  0.14301270207E+04  0.50400001928E-02 0.  1.
       -1   -1    0    0    0  501  0.00000000000E+00  0.00000000000E+00 -0.14725672400E+04  0.14725672400E+04  0.50400001928E-02 0. -1.
    10030    2    1    2    0    0  0.00000000000E+00  0.00000000000E+00 -0.42440219275E+02  0.29026942607E+04  0.29023839854E+04 0.  0.
        3    1    3    3  502    0  0.11133077367E+04  0.73734149384E+03 -0.58946356261E+03  0.14596554035E+04  0.10100000352E+00 0. -1.
       -3    1    3    3    0  502 -0.11133077367E+04 -0.73734149384E+03  0.54702334333E+03  0.14430388572E+04  0.10100000352E+00 0.  1.
</event>
<event>
 5   0  0.2713405E-07  0.2049630E+04  0.7818609E-02  0.8583762E-01
        1   -1    0    0  501    0  0.00000000000E+00  0.00000000000E+00  0.16585876763E+04  0.16585876763E+04  0.50400001928E-02 0.  1.
       -1   -1    0    0    0  501  0.00000000000E+00  0.00000000000E+00 -0.63321719366E+03  0.63321719368E+03  0.50400001928E-02 0. -1.
    10030    2    1    2    0    0  0.00000000000E+00  0.00000000000E+00  0.10253704826E+04  0.22918048700E+04  0.20496304387E+04 0.  0.
        1    1    3    3  502    0  0.18795443212E+03 -0.50684787082E+03  0.14862026591E+04  0.15814613421E+04  0.50400001928E-02 0.  1.
       -1    1    3    3    0  502 -0.18795443212E+03  0.50684787082E+03 -0.46083217645E+03  0.71034352787E+03  0.50400001928E-02 0. -1.
</event>
<event>
 5   0  0.5161550E-07  0.2356220E+04  0.7818609E-02  0.8456079E-01
       -2   -1    0    0    0  501  0.00000000000E+00  0.00000000000E+00  0.45546765144E+03  0.45546765145E+03  0.25500000920E-02 0. -1.
        2   -1    0    0  501    0  0.00000000000E+00  0.00000000000E+00 -0.30472915688E+04  0.30472915688E+04  0.25500000920E-02 0.  1.
    10030    2    1    2    0    0  0.00000000000E+00  0.00000000000E+00 -0.25918239173E+04  0.35027592202E+04  0.23562196282E+04 0.  0.
        2    1    3    3  502    0  0.28117008572E+02 -0.10011096655E+04 -0.22182418868E+04  0.24338463791E+04  0.25500000920E-02 0.  1.
       -2    1    3    3    0  502 -0.28117008572E+02  0.10011096655E+04 -0.37358203048E+03  0.10689128411E+04  0.25500000920E-02 0. -1.
</event>
<event>
 5   0  0.7570277E-07  0.3825487E+04  0.7818609E-02  0.8040708E-01
        2   -1    0    0  501    0  0.00000000000E+00  0.00000000000E+00  0.21094154613E+04  0.21094154613E+04  0.25500000920E-02 0. -1.
       -2   -1    0    0    0  501  0.00000000000E+00  0.00000000000E+00 -0.17344081398E+04  0.17344081398E+04  0.25500000920E-02 0.  1.
    10030    2    1    2    0    0  0.00000000000E+00  0.00000000000E+00  0.37500732144E+03  0.38438236011E+04  0.38254868168E+04 0.  0.
        5    1    3    3  502    0 -0.79971209301E+03  0.15869557830E+04 -0.52341666836E+03  0.18525536936E+04  0.46999998093E+01 0. -1.
       -5    1    3    3    0  502  0.79971209301E+03 -0.15869557830E+04  0.89842398981E+03  0.19912699075E+04  0.46999998093E+01 0.  1.
</event>
<event>
 5   0  0.2401125E-07  0.3726334E+04  0.7818609E-02  0.8062151E-01
        1   -1    0    0  501    0  0.00000000000E+00  0.00000000000E+00  0.24913182656E+04  0.24913182656E+04  0.50400001928E-02 0.  1.
       -1   -1    0    0    0  501  0.00000000000E+00  0.00000000000E+00 -0.13933950795E+04  0.13933950795E+04  0.50400001928E-02 0. -1.
    10030    2    1    2    0    0  0.00000000000E+00  0.00000000000E+00  0.10979231861E+04  0.38847133451E+04  0.37263336473E+04 0.  0.
        5    1    3    3  502    0  0.96528319124E+03  0.12738224051E+04  0.15472490162E+04  0.22244992172E+04  0.46999998093E+01 0.  1.
       -5    1    3    3    0  502 -0.96528319124E+03 -0.12738224051E+04 -0.44932583006E+03  0.16602141279E+04  0.46999998093E+01 0. -1.
</event>
<event>
 5   0  0.7256473E-07  0.3960407E+04  0.7818609E-02  0.8012582E-01
        2   -1    0    0  501    0  0.00000000000E+00  0.00000000000E+00  0.22487925730E+04  0.22487925730E+04  0.25500000920E-02 0. -1.
       -2   -1    0    0    0  501  0.00000000000E+00  0.00000000000E+00 -0.17436941260E+04  0.17436941260E+04  0.25500000920E-02 0.  1.
    10030    2    1    2    0    0  0.00000000000E+00  0.00000000000E+00  0.50509844695E+03  0.39924866990E+04  0.39604072518E+04 0.  0.
        4    1    3    3  502    0  0.13132244565E+04 -0.49594462302E+03  0.16605316373E+04  0.21743703626E+04  0.12699999809E+01 0. -1.
       -4    1    3    3    0  502 -0.13132244565E+04  0.49594462302E+03 -0.11554331904E+04  0.18181163364E+04  0.12699999809E+01 0.  1.
</event>
<event>
 5   0  0.7256473E-07  0.2081145E+04  0.7818609E-02  0.8569595E-01
       -2   -1    0    0    0  501  0.00000000000E+00  0.00000000000E+00  0.92565504673E+03  0.92565504673E+03  0.25500000920E-02 0.  1.
        2   -1    0    0  501    0  0.00000000000E+00  0.00000000000E+00 -0.11697570874E+04  0.11697570874E+04  0.25500000920E-02 0. -1.
    10030    2    1    2    0    0  0.00000000000E+00  0.00000000000E+00 -0.24410204063E+03  0.20954121341E+04  0.20811454071E+04 0.  0.
        4    1    3    3  502    0 -0.40697083005E+03 -0.81847336190E+03 -0.62271836314E+03  0.11060305933E+04  0.12699999809E+01 0. -1.
       -4    1    3    3    0  502  0.40697083005E+03  0.81847336190E+03  0.37861632252E+03  0.98938154077E+03  0.12699999809E+01 0.  1.
</event>
<event>
 5   0  0.7256473E-07  0.3761131E+04  0.7818609E-02  0.8054548E-01
        2   -1    0    0  501    0  0.00000000000E+00  0.00000000000E+00  0.23507391185E+04  0.23507391185E+04  0.25500000920E-02 0.  1.
       -2   -1    0    0    0  501  0.00000000000E+00  0.00000000000E+00 -0.15044319561E+04  0.15044319561E+04  0.25500000920E-02 0. -1.
    10030    2    1    2    0    0  0.00000000000E+00  0.00000000000E+00  0.84630716242E+03  0.38551710746E+04  0.37611312396E+04 0.  0.
        4    1    3    3  502    0  0.84933665649E+03  0.20511461415E+03 -0.12837398980E+04  0.15528794221E+04  0.12699999809E+01 0. -1.
       -4    1    3    3    0  502 -0.84933665649E+03 -0.20511461415E+03  0.21300470604E+04  0.23022916525E+04  0.12699999809E+01 0.  1.
</event>
<event>
 5   0  0.5161550E-07  0.3751018E+04  0.7818609E-02  0.8056749E-01
       -2   -1    0    0    0  501  0.00000000000E+00  0.00000000000E+00  0.17463807084E+04  0.17463807084E+04  0.25500000920E-02 0.  1.
        2   -1    0    0  501    0  0.00000000000E+00  0.00000000000E+00 -0.20141853468E+04  0.20141853468E+04  0.25500000920E-02 0. -1.
    10030    2    1    2    0    0  0.00000000000E+00  0.00000000000E+00 -0.26780463844E+03  0.37605660552E+04  0.37510182259E+04 0.  0.
        2    1    3    3  502    0  0.10945494112E+04  0.13586567975E+04  0.55599733102E+03  0.18311525712E+04  0.25500000920E-02 0.  1.
       -2    1    3    3    0  502 -0.10945494112E+04 -0.13586567975E+04 -0.82380196947E+03  0.19294134839E+04  0.25500000920E-02 0. -1.
</event>
<event>
 5   0  0.4449262E-07  0.4002224E+04  0.7818609E-02  0.8004098E-01
       -2   -1    0    0    0  501  0.00000000000E+00  0.00000000000E+00  0.17102769070E+04  0.17102769070E+04  0.25500000920E-02 0.  1.
        2   -1    0    0  501    0  0.00000000000E+00  0.00000000000E+00 -0.23414037910E+04  0.23414037910E+04  0.25500000920E-02 0. -1.
    10030    2    1    2    0    0  0.00000000000E+00  0.00000000000E+00 -0.63112688405E+03  0.40516806980E+04  0.40022237987E+04 0.  0.
        1    1    3    3  502    0 -0.83338921409E+02  0.11660372855E+04  0.13286559093E+04  0.17697216878E+04  0.50400001928E-02 0.  1.
       -1    1    3    3    0  502  0.83338921409E+02 -0.11660372855E+04 -0.19597827934E+04  0.22819590102E+04  0.50400001928E-02 0. -1.
</event>
<event>
 5   0  0.2713405E-07  0.3049177E+04  0.7818609E-02  0.8229826E-01
        1   -1    0    0  501    0  0.00000000000E+00  0.00000000000E+00  0.22791109071E+04  0.22791109071E+04  0.50400001928E-02 0. -1.
       -1   -1    0    0    0  501  0.00000000000E+00  0.00000000000E+00 -0.10198584178E+04  0.10198584178E+04  0.50400001928E-02 0.  1.
    10030    2    1    2    0    0  0.00000000000E+00  0.00000000000E+00  0.12592524893E+04  0.32989693249E+04  0.30491772292E+04 0.  0.
        1    1    3    3  502    0  0.14967024025E+04 -0.22044932772E+03  0.42533370089E+03  0.15715039755E+04  0.50400001928E-02 0. -1.
       -1    1    3    3    0  502 -0.14967024025E+04  0.22044932772E+03  0.83391878837E+03  0.17274653494E+04  0.50400001928E-02 0.  1.
</event>
<event>
 5   0  0.2647879E-07  0.2464884E+04  0.7818609E-02  0.8415603E-01
       -1   -1    0    0    0  501  0.00000000000E+00  0.00000000000E+00  0.88360996645E+03  0.88360996647E+03  0.50400001928E-02 0.  1.
        1   -1    0    0  501    0  0.00000000000E+00  0.00000000000E+00 -0.17189867402E+04  0.17189867402E+04  0.50400001928E-02 0. -1.
    10030    2    1    2    0    0  0.00000000000E+00  0.00000000000E+00 -0.83537677370E+03  0.26025967066E+04  0.24648844320E+04 0.  0.
        2    1    3    3  502    0  0.41429106498E+03  0.11475534687E+04 -0.60177878872E+03  0.13603873568E+04  0.25500000920E-02 0. -1.
       -2    1    3    3    0  502 -0.41429106498E+03 -0.11475534687E+04 -0.23359798498E+03  0.12422093498E+04  0.25500000920E-02 0.  1.
</event>
<event>
 5   0  0.4449262E-07  0.3972638E+04  0.7818609E-02  0.8010089E-01
        2   -1    0    0  501    0  0.00000000000E+00  0.00000000000E+00  0.19111139430E+04  0.19111139430E+04  0.25500000920E-02 0. -1.
       -2   -1    0    0    0  501  0.00000000000E+00  0.00000000000E+00 -0.20644839940E+04  0.20644839940E+04  0.25500000920E-02 0.  1.
    10030    2    1    2    0    0  0.00000000000E+00  0.00000000000E+00 -0.15337005101E+03  0.39755979370E+04  0.39726384915E+04 0.  0.
        1    1    3    3  502    0 -0.10533114969E+04 -0.13718092661E+04 -0.10542127682E+04  0.20255098945E+04  0.50400001928E-02 0.  1.
       -1    1    3    3    0  502  0.10533114969E+04  0.13718092661E+04  0.90084271724E+03  0.19500880425E+04  0.50400001928E-02 0. -1.
</event>
<event>
 5   0  0.5161550E-07  0.3945482E+04  0.7818609E-02  0.8015636E-01
        2   -1    0    0  501    0  0.00000000000E+00  0.00000000000E+00  0.13704042051E+04  0.13704042052E+04  0.25500000920E-02 0.  1.
       -2   -1    0    0    0  501  0.00000000000E+00  0.00000000000E+00 -0.28398238086E+04  0.28398238086E+04  0.25500000920E-02 0. -1.
    10030    2    1    2    0    0  0.00000000000E+00  0.00000000000E+00 -0.14694196034E+04  0.42102280137E+04  0.39454817141E+04 0.  0.
        2    1    3    3  502    0 -0.13873317582E+04  0.43552345741E+03  0.68791507708E+03  0.16086010203E+04  0.25500000920E-02 0.  1.
       -2    1    3    3    0  502  0.13873317582E+04 -0.43552345741E+03 -0.21573346805E+04  0.26016269934E+04  0.25500000920E-02 0. -1.
</event>
<event>
 5   0  0.3579559E-07  0.4068658E+04  0.7818609E-02  0.7990838E-01
        1   -1    0    0  501    0  0.00000000000E+00  0.00000000000E+00  0.18128393120E+04  0.18128393120E+04  0.50400001928E-02 0.  1.
       -1   -1    0    0    0  501  0.00000000000E+00  0.00000000000E+00 -0.22828796892E+04  0.22828796892E+04  0.50400001928E-02 0. -1.
    10030    2    1    2    0    0  0.00000000000E+00  0.00000000000E+00 -0.47004037720E+03  0.40957190012E+04  0.40686577861E+04 0.  0.
        4    1    3    3  502    0 -0.15800786897E+04 -0.12625513637E+04 -0.14915921284E+02  0.20225994931E+04  0.12699999809E+01 0.  1.
       -4    1    3    3    0  502  0.15800786897E+04  0.12625513637E+04 -0.45512445591E+03  0.20731195081E+04  0.12699999809E+01 0. -1.
</event>
<event>
 5   0  0.7256473E-07  0.4001424E+04  0.7818609E-02  0.8004259E-01
        2   -1    0    0  501    0  0.00000000000E+00  0.00000000000E+00  0.21821322004E+04  0.21821322004E+04  0.25500000920E-02 0.  1.
       -2   -1    0    0    0  501  0.00000000000E+00  0.00000000000E+00 -0.18343745289E+04  0.18343745289E+04  0.25500000920E-02 0. -1.
    10030    2    1    2    0    0  0.00000000000E+00  0.00000000000E+00  0.34775767144E+03  0.40165067293E+04  0.40014236102E+04 0.  0.
        4    1    3    3  502    0  0.19904274883E+04 -0.13993344083E+03  0.26823494707E+02  0.19955210013E+04  0.12699999809E+01 0. -1.
       -4    1    3    3    0  502 -0.19904274883E+04  0.13993344083E+03  0.32093417673E+03  0.20209857280E+04  0.12699999809E+01 0.  1.
</event>
<event>
 5   0  0.7570277E-07  0.2420124E+04  0.7818609E-02  0.8432008E-01
       -2   -1    0    0    0  501  0.00000000000E+00  0.00000000000E+00  0.87311316389E+03  0.87311316389E+03  0.25500000920E-02 0. -1.
        2   -1    0    0  501    0  0.00000000000E+00  0.00000000000E+00 -0.16770448898E+04  0.16770448898E+04  0.25500000920E-02 0.  1.
    10030    2    1    2    0    0  0.00000000000E+00  0.00000000000E+00 -0.80393172595E+03  0.25501580537E+04  0.24201239388E+04 0.  0.
        5    1    3    3  502    0 -0.11314029042E+04 -0.29649949971E+03 -0.72886589057E+03  0.13781335426E+04  0.46999998093E+01 0.  1.
       -5    1    3    3    0  502  0.11314029042E+04  0.29649949971E+03 -0.75065835383E+02  0.11720245111E+04  0.46999998093E+01 0. -1.
</event>
<event>
 5   0  0.6043512E-07  0.3434410E+04  0.7818609E-02  0.8129512E-01
        2   -1    0    0  501    0  0.00000000000E+00  0.00000000000E+00  0.22111915491E+04  0.22111915491E+04  0.25500000920E-02 0.  1.
       -2   -1    0    0    0  501  0.00000000000E+00  0.00000000000E+00 -0.13335762983E+04  0.13335762983E+04  0.25500000920E-02 0. -1.
    10030    2    1    2    0    0  0.00000000000E+00  0.00000000000E+00  0.87761525077E+03  0.35447678474E+04  0.34344097838E+04 0.  0.
        3    1    3    3  502    0 -0.17144568970E+04  0.39694419089E+02  0.53028124078E+03  0.17950310034E+04  0.10100000352E+00 0.  1.
       -3    1    3    3    0  502  0.17144568970E+04 -0.39694419089E+02  0.34733400998E+03  0.17497368440E+04  0.10100000352E+00 0. -1.
</event>
<event>
 5   0  0.7570277E-07  0.3769992E+04  0.7818609E-02  0.8052625E-01
       -2   -1    0    0    0  501  0.00000000000E+00  0.00000000000E+00  0.15992990800E+04  0.15992990800E+04  0.25500000920E-02 0. -1.
        2   -1    0    0  501    0  0.00000000000E+00  0.00000000000E+00 -0.22217294158E+04  0.22217294158E+04  0.25500000920E-02 0.  1.
    10030    2    1    2    0    0  0.00000000000E+00  0.00000000000E+00 -0.62243033583E+03  0.38210284958E+04  0.37699919420E+04 0.  0.
        5    1    3    3  502    0  0.63936034993E+03 -0.17673300587E+04 -0.16451272857E+03  0.18866170044E+04  0.46999998093E+01 0. -1.
       -5    1    3    3    0  502 -0.63936034993E+03  0.17673300587E+04 -0.45791760726E+03  0.19344114915E+04  0.46999998093E+01 0.  1.
</event>
<event>
 5   0  0.2713405E-07  0.2360005E+04  0.7818609E-02  0.8454631E-01
       -1   -1    0    0    0  501  0.00000000000E+00  0.00000000000E+00  0.10218886398E+04  0.10218886398E+04  0.50400001928E-02 0. -1.
        1   -1    0    0  501    0  0.00000000000E+00  0.00000000000E+00 -0.13625810568E+04  0.13625810568E+04  0.50400001928E-02 0.  1.
    10030    2    1    2    0    0  0.00000000000E+00  0.00000000000E+00 -0.34069241702E+03  0.23844696966E+04  0.23600051718E+04 0.  0.
        1    1    3    3  502    0 -0.64332781335E+03 -0.82789265827E+03  0.37668030279E+03  0.11140758410E+04  0.50400001928E-02 0. -1.
       -1    1    3    3    0  502  0.64332781335E+03  0.82789265827E+03 -0.71737271980E+03  0.12703938555E+04  0.50400001928E-02 0.  1.
</event>
<event>
 5   0  0.2554559E-07  0.1969725E+04  0.7818609E-02  0.8620908E-01
       -1   -1    0    0    0  501  0.00000000000E+00  0.00000000000E+00  0.74075856043E+03  0.74075856044E+03  0.50400001928E-02 0.  1.
        1   -1    0    0  501    0  0.00000000000E+00  0.00000000000E+00 -0.13094062386E+04  0.13094062386E+04  0.50400001928E-02 0. -1.
    10030    2    1    2    0    0  0.00000000000E+00  0.00000000000E+00 -0.56864767818E+03  0.20501647991E+04  0.19697247324E+04 0.  0.
        5    1    3    3  502    0  0.22451505311E+03  0.68485888945E+03  0.41427409643E+03  0.83131451599E+03  0.46999998093E+01 0. -1.
       -5    1    3    3    0  502 -0.22451505311E+03 -0.68485888945E+03 -0.98292177461E+03  0.12188502831E+04  0.46999998093E+01 0.  1.
</event>
<event>
 5   0  0.7256473E-07  0.3390164E+04  0.7818609E-02  0.8140325E-01
       -2   -1    0    0    0  501  0.00000000000E+00  0.00000000000E+00  0.11496311973E+04  0.11496311973E+04  0.25500000920E-02 0.  1.
        2   -1    0    0  501    0  0.00000000000E+00  0.00000000000E+00 -0.24993256806E+04  0.24993256806E+04  0.25500000920E-02 0. -1.
    10030    2    1    2    0    0  0.00000000000E+00  0.00000000000E+00 -0.13496944833E+04  0.36489568779E+04  0.33901638749E+04 0.  0.
        4    1    3    3  502    0  0.18677810138E+03 -0.12783513564E+04  0.50629794785E+03  0.13875905283E+04  0.12699999809E+01 0.  1.
       -4    1    3    3    0  502 -0.18677810138E+03  0.12783513564E+04 -0.18559924312E+04  0.22613663496E+04  0.12699999809E+01 0. -1.
</event>
<event>
 5   0  0.2713405E-07  0.2993861E+04  0.7818609E-02  0.8245486E-01
        1   -1    0    0  501    0  0.00000000000E+00  0.00000000000E+00  0.14153343033E+04  0.14153343033E+04  0.50400001928E-02 0. -1.
       -1   -1    0    0    0  501  0.00000000000E+00  0.00000000000E+00 -0.15832310739E+04  0.15832310739E+04  0.50400001928E-02 0.  1.
    10030    2    1    2    0    0  0.00000000000E+00  0.00000000000E+00 -0.16789677059E+03  0.29985653772E+04  0.29938612185E+04 0.  0.
        1    1    3    3  502    0  0.16157784454E+03  0.44994102719E+03 -0.15047141816E+04  0.15788347273E+04  0.50400001928E-02 0.  1.
       -1    1    3    3    0  502 -0.16157784454E+03 -0.44994102719E+03  0.13368174110E+04  0.14197306499E+04  0.50400001928E-02 0. -1.
</event>
<event>
 5   0  0.5161550E-07  0.3005814E+04  0.7818609E-02  0.8242073E-01
       -2   -1    0    0    0  501  0.00000000000E+00  0.00000000000E+00  0.10229887376E+04  0.10229887376E+04  0.25500000920E-02 0. -1.
        2   -1    0    0  501    0  0.00000000000E+00  0.00000000000E+00 -0.22079709660E+04  0.22079709660E+04  0.25500000920E-02 0.  1.
    10030    2    1    2    0    0  0.00000000000E+00  0.00000000000E+00 -0.11849822285E+04  0.32309597036E+04  0.30058139870E+04 0.  0.
        2    1    3    3  502    0 -0.43148077010E+03 -0.45047796041E+03 -0.20622513929E+04  0.21545270607E+04  0.25500000920E-02 0.  1.
       -2    1    3    3    0  502  0.43148077010E+03  0.45047796041E+03  0.87726916444E+03  0.10764326429E+04  0.25500000920E-02 0. -1.
</event>
<event>
 5   0  0.2647879E-07  0.3952317E+04  0.7818609E-02  0.8014235E-01
       -1   -1    0    0    0  501  0.00000000000E+00  0.00000000000E+00  0.26431534493E+04  0.26431534493E+04  0.50400001928E-02 0.  1.
        1   -1    0    0  501    0  0.00000000000E+00  0.00000000000E+00 -0.14774786056E+04  0.14774786057E+04  0.50400001928E-02 0. -1.
    10030    2    1    2    0    0  0.00000000000E+00  0.00000000000E+00  0.11656748437E+04  0.41206320550E+04  0.39523171294E+04 0.  0.
        2    1    3    3  502    0  0.50699396060E+03  0.17878047358E+04 -0.11803659700E+03  0.18620476062E+04  0.25500000920E-02 0. -1.
       -2    1    3    3    0  502 -0.50699396060E+03 -0.17878047358E+04  0.12837114407E+04  0.22585844488E+04  0.25500000920E-02 0.  1.
</event>
<event>
 5   0  0.2601252E-07  0.4022466E+04  0.7818609E-02  0.8000030E-01
        1   -1    0    0  501    0  0.00000000000E+00  0.00000000000E+00  0.18465470485E+04  0.18465470485E+04  0.50400001928E-02 0. -1.
       -1   -1    0    0    0  501  0.00000000000E+00  0.00000000000E+00 -0.21906064646E+04  0.21906064646E+04  0.50400001928E-02 0.  1.
    10030    2    1    2    0    0  0.00000000000E+00  0.00000000000E+00 -0.34405941607E+03  0.40371535131E+04  0.40224658615E+04 0.  0.
        3    1    3    3  502    0 -0.39293098401E+03 -0.12646999695E+04 -0.16912268135E+04  0.21480476987E+04  0.10100000352E+00 0.  1.
       -3    1    3    3    0  502  0.39293098401E+03  0.12646999695E+04  0.13471673975E+04  0.18891058144E+04  0.10100000352E+00 0. -1.
</event>
<event>
 5   0  0.6043512E-07  0.4032842E+04  0.7818609E-02  0.7997954E-01
        2   -1    0    0  501    0  0.00000000000E+00  0.00000000000E+00  0.23128323160E+04  0.23128323160E+04  0.25500000920E-02 0.  1.
       -2   -1    0    0    0  501  0.00000000000E+00  0.00000000000E+00 -0.17579977760E+04  0.17579977760E+04  0.25500000920E-02 0. -1.
    10030    2    1    2    0    0  0.00000000000E+00  0.00000000000E+00  0.55483454000E+03  0.40708300920E+04  0.40328422076E+04 0.  0.
        3    1    3    3  502    0 -0.16004641052E+04  0.10975552051E+04 -0.27531835444E+03  0.19600798419E+04  0.10100000352E+00 0. -1.
       -3    1    3    3    0  502  0.16004641052E+04 -0.10975552051E+04  0.83015289444E+03  0.21107502501E+04  0.10100000352E+00 0.  1.
</event>
<event>
 5   0  0.2601252E-07  0.2433306E+04  0.7818609E-02  0.8427139E-01
       -1   -1    0    0    0  501  0.00000000000E+00  0.00000000000E+00  0.10250860298E+04  0.10250860298E+04  0.50400001928E-02 0.  1.
        1   -1    0    0  501    0  0.00000000000E+00  0.00000000000E+00 -0.14440195398E+04  0.14440195398E+04  0.50400001928E-02 0. -1.
    10030    2    1    2    0    0  0.00000000000E+00  0.00000000000E+00 -0.41893350993E+03  0.24691055696E+04  0.24333057819E+04 0.  0.
        3    1    3    3  502    0 -0.60546704155E+03 -0.59274510843E+03 -0.10954142126E+04  0.13848716220E+04  0.10100000352E+00 0. -1.
       -3    1    3    3    0  502  0.60546704155E+03  0.59274510843E+03  0.67648070266E+03  0.10842339477E+04  0.10100000352E+00 0.  1.
</event>
<event>
 5   0  0.6043512E-07  0.4028562E+04  0.7818609E-02  0.7998809E-01
       -2   -1    0    0    0  501  0.00000000000E+00  0.00000000000E+00  0.15517816182E+04  0.15517816182E+04  0.25500000920E-02 0.  1.
        2   -1    0    0  501    0  0.00000000000E+00  0.00000000000E+00 -0.26146258452E+04  0.26146258452E+04  0.25500000920E-02 0. -1.
    10030    2    1    2    0    0  0.00000000000E+00  0.00000000000E+00 -0.10628442270E+04  0.41664074633E+04  0.40285621876E+04 0.  0.
        3    1    3    3  502    0  0.19911029325E+04  0.68735956974E+02 -0.83841701150E+03  0.21615176647E+04  0.10100000352E+00 0. -1.
       -3    1    3    3    0  502 -0.19911029325E+04 -0.68735956974E+02 -0.22442721551E+03  0.20048897986E+04  0.10100000352E+00 0.  1.
</event>
<event>
 5   0  0.7256473E-07  0.4070654E+04  0.7818609E-02  0.7990443E-01
        2   -1    0    0  501    0  0.00000000000E+00  0.00000000000E+00  0.21229417240E+04  0.21229417240E+04  0.25500000920E-02 0. -1.
       -2   -1    0    0    0  501  0.00000000000E+00  0.00000000000E+00 -0.19513281613E+04  0.19513281613E+04  0.25500000920E-02 0.  1.
    10030    2    1    2    0    0  0.00000000000E+00  0.00000000000E+00  0.17161356277E+03  0.40742698853E+04  0.40706539872E+04 0.  0.
        4    1    3    3  502    0  0.95684148056E+03  0.66218432463E+03 -0.15855629736E+04  0.19667346681E+04  0.12699999809E+01 0.  1.
       -4    1    3    3    0  502 -0.95684148056E+03 -0.66218432463E+03  0.17571765364E+04  0.21075352171E+04  0.12699999809E+01 0. -1.
</event>
<event>
 5   0  0.2647879E-07  0.3923265E+04  0.7818609E-02  0.8020208E-01
       -1   -1    0    0    0  501  0.00000000000E+00  0.00000000000E+00  0.17497094252E+04  0.17497094252E+04  0.50400001928E-02 0. -1.
        1   -1    0    0  501    0  0.00000000000E+00  0.00000000000E+00 -0.21992237998E+04  0.21992237998E+04  0.50400001928E-02 0.  1.
    10030    2    1    2    0    0  0.00000000000E+00  0.00000000000E+00 -0.44951437455E+03  0.39489332250E+04  0.39232652781E+04 0.  0.
        2    1    3    3  502    0  0.83271712322E+03  0.16702608629E+04 -0.83270673259E+03  0.20436706339E+04  0.25500000920E-02 0.  1.
       -2    1    3    3    0  502 -0.83271712322E+03 -0.16702608629E+04  0.38319235804E+03  0.19052625910E+04  0.25500000920E-02 0. -1.
</event>
<event>
 5   0  0.4449262E-07  0.3957944E+04  0.7818609E-02  0.8013085E-01
       -2   -1    0    0    0  501  0.00000000000E+00  0.00000000000E+00  0.13850286357E+04  0.13850286357E+04  0.25500000920E-02 0. -1.
        2   -1    0    0  501    0  0.00000000000E+00  0.00000000000E+00 -0.28276160899E+04  0.28276160899E+04  0.25500000920E-02 0.  1.
    10030    2    1    2    0    0  0.00000000000E+00  0.00000000000E+00 -0.14425874542E+04  0.42126447256E+04  0.39579435344E+04 0.  0.
        1    1    3    3  502    0  0.13847059535E+04  0.14124387980E+04 -0.78806278366E+03  0.21291869074E+04  0.50400001928E-02 0.  1.
       -1    1    3    3    0  502 -0.13847059535E+04 -0.14124387980E+04 -0.65452467053E+03  0.20834578182E+04  0.50400001928E-02 0. -1.
</event>
<event>
 5   0  0.7256473E-07  0.2342745E+04  0.7818609E-02  0.8461255E-01
        2   -1    0    0  501    0  0.00000000000E+00  0.00000000000E+00  0.13501747353E+04  0.13501747353E+04  0.25500000920E-02 0.  1.
       -2   -1    0    0    0  501  0.00000000000E+00  0.00000000000E+00 -0.10162488908E+04  0.10162488908E+04  0.25500000920E-02 0. -1.
    10030    2    1    2    0    0  0.00000000000E+00  0.00000000000E+00  0.33392584451E+03  0.23664236261E+04  0.23427450370E+04 0.  0.
        4    1    3    3  502    0 -0.11639351372E+03 -0.15696899658E+03 -0.99966727215E+03  0.10185887216E+04  0.12699999809E+01 0. -1.
       -4    1    3    3    0  502  0.11639351372E+03  0.15696899658E+03  0.13335931167E+04  0.13478349044E+04  0.12699999809E+01 0.  1.
</event>
<event>
 5   0  0.2647879E-07  0.4005331E+04  0.7818609E-02  0.8003472E-01
        1   -1    0    0  501    0  0.00000000000E+00  0.00000000000E+00  0.12978283890E+04  0.12978283890E+04  0.50400001928E-02 0.  1.
       -1   -1    0    0    0  501  0.00000000000E+00  0.00000000000E+00 -0.30902924754E+04  0.30902924754E+04  0.50400001928E-02 0. -1.
    10030    2    1    2    0    0  0.00000000000E+00  0.00000000000E+00 -0.17924640864E+04  0.43881208644E+04  0.40053310999E+04 0.  0.
        2    1    3    3  502    0 -0.32439327415E+03 -0.18282763348E+04 -0.17181607714E+04  0.25298027174E+04  0.25500000920E-02 0. -1.
       -2    1    3    3    0  502  0.32439327415E+03  0.18282763348E+04 -0.74303314962E+02  0.18583181470E+04  0.25500000920E-02 0.  1.
</event>
<event>
 5   0  0.2601252E-07  0.3835934E+04  0.7818609E-02  0.8038487E-01
        1   -1    0    0  501    0  0.00000000000E+00  0.00000000000E+00  0.12217777413E+04  0.12217777413E+04  0.50400001928E-02 0. -1.
       -1   -1    0    0    0  501  0.00000000000E+00  0.00000000000E+00 -0.30108563306E+04  0.30108563306E+04  0.50400001928E-02 0.  1.
    10030    2    1    2    0    0  0.00000000000E+00  0.00000000000E+00 -0.17890785893E+04  0.42326340719E+04  0.38359339134E+04 0.  0.
        3    1    3    3  502    0  0.15219599323E+04  0.80007925693E+03  0.43110797926E+02  0.17199847104E+04  0.10100000352E+00 0.  1.
       -3    1    3    3    0  502 -0.15219599323E+04 -0.80007925693E+03 -0.18321893872E+04  0.25126493615E+04  0.10100000352E+00 0. -1.
</event>
<event>
 5   0  0.2401125E-07  0.3956385E+04  0.7818609E-02  0.8013403E-01
        1   -1    0    0  501    0  0.00000000000E+00  0.00000000000E+00  0.27916807633E+04  0.27916807633E+04  0.50400001928E-02 0. -1.
       -1   -1    0    0    0  501  0.00000000000E+00  0.00000000000E+00 -0.14017528805E+04  0.14017528805E+04  0.50400001928E-02 0.  1.
    10030    2    1    2    0    0  0.00000000000E+00  0.00000000000E+00  0.13899278828E+04  0.41934336438E+04  0.39563854976E+04 0.  0.
        5    1    3    3  502    0  0.13404297850E+04  0.57383285789E+03 -0.72199194841E+03  0.16270619597E+04  0.46999998093E+01 0.  1.
       -5    1    3    3    0  502 -0.13404297850E+04 -0.57383285789E+03  0.21119198312E+04  0.25663716841E+04  0.46999998093E+01 0. -1.
</event>
<event>
 5   0  0.7256473E-07  0.2432568E+04  0.7818609E-02  0.8427410E-01
       -2   -1    0    0    0  501  0.00000000000E+00  0.00000000000E+00  0.63505284529E+03  0.63505284530E+03  0.25500000920E-02 0. -1.
        2   -1    0    0  501    0  0.00000000000E+00  0.00000000000E+00 -0.23294857343E+04  0.23294857343E+04  0.25500000920E-02 0.  1.
    10030    2    1    2    0    0  0.00000000000E+00  0.00000000000E+00 -0.16944328890E+04  0.29645385796E+04  0.24325678150E+04 0.  0.
        4    1    3    3  502    0 -0.76508212182E+03 -0.46748622833E+03 -0.18488042857E+04  0.20547440051E+04  0.12699999809E+01 0.  1.
       -4    1    3    3    0  502  0.76508212182E+03  0.46748622833E+03  0.15437139666E+03  0.90979457451E+03  0.12699999809E+01 0. -1.
</event>
<event>
 5   0  0.2647879E-07  0.3743904E+04  0.7818609E-02  0.8058301E-01
       -1   -1    0    0    0  501  0.00000000000E+00  0.00000000000E+00  0.19043756312E+04  0.19043756312E+04  0.50400001928E-02 0. -1.
        1   -1    0    0  501    0  0.00000000000E+00  0.00000000000E+00 -0.18400807788E+04  0.18400807789E+04  0.50400001928E-02 0.  1.
    10030    2    1    2    0    0  0.00000000000E+00  0.00000000000E+00  0.64294852336E+02  0.37444564100E+04  0.37439043763E+04 0.  0.
        2    1    3    3  502    0 -0.12287765958E+03 -0.15459736092E+04 -0.10163733472E+04  0.18542243933E+04  0.25500000920E-02 0.  1.
       -2    1    3    3    0  502  0.12287765958E+03  0.15459736092E+04  0.10806681996E+04  0.18902320168E+04  0.25500000920E-02 0. -1.
</event>
<event>
 5   0  0.3579559E-07  0.3895064E+04  0.7818609E-02  0.8026056E-01
        1   -1    0    0  501    0  0.00000000000E+00  0.00000000000E+00  0.15079591542E+04  0.15079591542E+04  0.50400001928E-02 0. -1.
       -1   -1    0    0    0  501  0.00000000000E+00  0.00000000000E+00 -0.25152416609E+04  0.25152416609E+04  0.50400001928E-02 0.  1.
    10030    2    1    2    0    0  0.00000000000E+00  0.00000000000E+00 -0.10072825067E+04  0.40232008151E+04  0.38950644090E+04 0.  0.
        4    1    3    3  502    0 -0.64435474901E+03 -0.18573970039E+03 -0.23922302428E+04  0.24844434842E+04  0.12699999809E+01 0.  1.
       -4    1    3    3    0  502  0.64435474901E+03  0.18573970039E+03  0.13849477360E+04  0.15387573309E+04  0.12699999809E+01 0. -1.
</event>
<event>
 5   0  0.2601252E-07  0.3847535E+04  0.7818609E-02  0.8036030E-01
        1   -1    0    0  501    0  0.00000000000E+00  0.00000000000E+00  0.30558557163E+04  0.30558557163E+04  0.50400001928E-02 0.  1.
       -1   -1    0    0    0  501  0.00000000000E+00  0.00000000000E+00 -0.12110787500E+04  0.12110787500E+04  0.50400001928E-02 0. -1.
    10030    2    1    2    0    0  0.00000000000E+00  0.00000000000E+00  0.18447769663E+04  0.42669344663E+04  0.38475352739E+04 0.  0.
        3    1    3    3  502    0  0.77702764409E+03  0.11742715800E+03  0.28697326769E+04  0.29753868226E+04  0.10100000352E+00 0.  1.
       -3    1    3    3    0  502 -0.77702764409E+03 -0.11742715800E+03 -0.10249557106E+04  0.12915476437E+04  0.10100000352E+00 0. -1.
</event>
<event>
 5   0  0.7256473E-07  0.2218508E+04  0.7818609E-02  0.8510764E-01
        2   -1    0    0  501    0  0.00000000000E+00  0.00000000000E+00  0.14313150565E+04  0.14313150565E+04  0.25500000920E-02 0. -1.
       -2   -1    0    0    0  501  0.00000000000E+00  0.00000000000E+00 -0.85966043197E+03  0.85966043198E+03  0.25500000920E-02 0.  1.
    10030    2    1    2    0    0  0.00000000000E+00  0.00000000000E+00  0.57165462455E+03  0.22909754885E+04  0.22185084357E+04 0.  0.
        4    1    3    3  502    0  0.95332876925E+03 -0.40917461622E+03 -0.11966123012E+03  0.10443083988E+04  0.12699999809E+01 0. -1.
       -4    1    3    3    0  502 -0.95332876925E+03  0.40917461622E+03  0.69131585467E+03  0.12466670897E+04  0.12699999809E+01 0.  1.
</event>
<event>
 5   0  0.5161550E-07  0.4094276E+04  0.7818609E-02  0.7985794E-01
       -2   -1    0    0    0  501  0.00000000000E+00  0.00000000000E+00  0.20005667572E+04  0.20005667572E+04  0.25500000920E-02 0. -1.
        2   -1    0    0  501    0  0.00000000000E+00  0.00000000000E+00 -0.20947932379E+04  0.20947932379E+04  0.25500000920E-02 0.  1.
    10030    2    1    2    0    0  0.00000000000E+00  0.00000000000E+00 -0.94226480763E+02  0.40953599951E+04  0.40942758652E+04 0.  0.
        2    1    3    3  502    0  0.14228090264E+03 -0.19879708561E+04  0.42045222579E+03  0.20369222013E+04  0.25500000920E-02 0. -1.
       -2    1    3    3    0  502 -0.14228090264E+03  0.19879708561E+04 -0.51467870655E+03  0.20584377938E+04  0.25500000920E-02 0.  1.
</event>
<event>
 5   0  0.2601252E-07  0.2559509E+04  0.7818609E-02  0.8382087E-01
       -1   -1    0    0    0  501  0.00000000000E+00  0.00000000000E+00  0.14591525000E+04  0.14591525000E+04  0.50400001928E-02 0.  1.
        1   -1    0    0  501    0  0.00000000000E+00  0.00000000000E+00 -0.11224126140E+04  0.11224126140E+04  0.50400001928E-02 0. -1.
    10030    2    1    2    0    0  0.00000000000E+00  0.00000000000E+00  0.33673988602E+03  0.25815651139E+04  0.25595086807E+04 0.  0.
        3    1    3    3  502    0  0.43572649935E+03  0.10668610630E+04 -0.39295176659E+03  0.12175636374E+04  0.10100000352E+00 0. -1.
       -3    1    3    3    0  502 -0.43572649935E+03 -0.10668610630E+04  0.72969165261E+03  0.13640014766E+04  0.10100000352E+00 0.  1.
</event>
<event>
 5   0  0.3579559E-07  0.3417133E+04  0.7818609E-02  0.8133714E-01
        1   -1    0    0  501    0  0.00000000000E+00  0.00000000000E+00  0.16281104045E+04  0.16281104045E+04  0.50400001928E-02 0.  1.
       -1   -1    0    0    0  501  0.00000000000E+00  0.00000000000E+00 -0.17929981252E+04  0.17929981252E+04  0.50400001928E-02 0. -1.
    10030    2    1    2    0    0  0.00000000000E+00  0.00000000000E+00 -0.16488772071E+03  0.34211085296E+04  0.34171326593E+04 0.  0.
        4    1    3    3  502    0 -0.63794028925E+03  0.15846284482E+04 -0.48021326347E+02  0.17088951964E+04  0.12699999809E+01 0. -1.
       -4    1    3    3    0  502  0.63794028925E+03 -0.15846284482E+04 -0.11686639436E+03  0.17122133333E+04  0.12699999809E+01 0.  1.
</event>
<event>
 5   0  0.4449262E-07  0.4247553E+04  0.7818609E-02  0.7956388E-01
        2   -1    0    0  501    0  0.00000000000E+00  0.00000000000E+00  0.33776802966E+04  0.33776802966E+04  0.25500000920E-02 0. -1.
       -2   -1    0    0    0  501  0.00000000000E+00  0.00000000000E+00 -0.13353624596E+04  0.13353624597E+04  0.25500000920E-02 0.  1.
    10030    2    1    2    0    0  0.00000000000E+00  0.00000000000E+00  0.20423178370E+04  0.47130427563E+04  0.42475533987E+04 0.  0.
        1    1    3    3  502    0  0.15810875031E+04 -0.13311094744E+04  0.15633129740E+04  0.25914547227E+04  0.50400001928E-02 0.  1.
       -1    1    3    3    0  502 -0.15810875031E+04  0.13311094744E+04  0.47900486295E+03  0.21215880335E+04  0.50400001928E-02 0. -1.
</event>
<event>
 5   0  0.7256473E-07  0.3006400E+04  0.7818609E-02  0.8241906E-01
        2   -1    0    0  501    0  0.00000000000E+00  0.00000000000E+00  0.14073122585E+04  0.14073122585E+04  0.25500000920E-02 0.  1.
       -2   -1    0    0    0  501  0.00000000000E+00  0.00000000000E+00 -0.16056206348E+04  0.16056206349E+04  0.25500000920E-02 0. -1.
    10030    2    1    2    0    0  0.00000000000E+00  0.00000000000E+00 -0.19830837638E+03  0.30129328933E+04  0.30063995755E+04 0.  0.
        4    1    3    3  502    0  0.90412937484E+03 -0.11740108602E+04  0.15409352141E+03  0.14897979234E+04  0.12699999809E+01 0.  1.
       -4    1    3    3    0  502 -0.90412937484E+03  0.11740108602E+04 -0.35240189778E+03  0.15231349700E+04  0.12699999809E+01 0. -1.
</event>
<event>
 5   0  0.6421113E-07  0.2046359E+04  0.7818609E-02  0.8585248E-01
        2   -1    0    0  501    0  0.00000000000E+00  0.00000000000E+00  0.11246175676E+04  0.11246175676E+04  0.25500000920E-02 0.  1.
       -2   -1    0    0    0  501  0.00000000000E+00  0.00000000000E+00 -0.93089087639E+03  0.93089087640E+03  0.25500000920E-02 0. -1.
    10030    2    1    2    0    0  0.00000000000E+00  0.00000000000E+00  0.19372669118E+03  0.20555084440E+04  0.20463589451E+04 0.  0.
        2    1    3    3  502    0  0.53722310500E+03  0.30324609992E+03  0.91680307362E+03  0.11050315550E+04  0.25500000920E-02 0.  1.
       -2    1    3    3    0  502 -0.53722310500E+03 -0.30324609992E+03 -0.72307638245E+03  0.95047688900E+03  0.25500000920E-02 0. -1.
</event>
<event>
 5   0  0.2713405E-07  0.3984606E+04  0.7818609E-02  0.8007659E-01
        1   -1    0    0  501    0  0.00000000000E+00  0.00000000000E+00  0.17547912309E+04  0.17547912309E+04  0.50400001928E-02 0. -1.
       -1   -1    0    0    0  501  0.00000000000E+00  0.00000000000E+00 -0.22619625454E+04  0.22619625455E+04  0.50400001928E-02 0.  1.
    10030    2    1    2    0    0  0.00000000000E+00  0.00000000000E+00 -0.50717131460E+03  0.40167537763E+04  0.39846063993E+04 0.  0.
        1    1    3    3  502    0 -0.15736892287E+04  0.12003115084E+04 -0.48351914529E+03  0.20374092053E+04  0.50400001928E-02 0. -1.
       -1    1    3    3    0  502  0.15736892287E+04 -0.12003115084E+04 -0.23652169309E+02  0.19793445711E+04  0.50400001928E-02 0.  1.
</event>
<event>
 5   0  0.2601252E-07  0.4032109E+04  0.7818609E-02  0.7998100E-01
        1   -1    0    0  501    0  0.00000000000E+00  0.00000000000E+00  0.23873604873E+04  0.23873604873E+04  0.50400001928E-02 0. -1.
       -1   -1    0    0    0  501  0.00000000000E+00  0.00000000000E+00 -0.17024976434E+04  0.17024976434E+04  0.50400001928E-02 0.  1.
    10030    2    1    2    0    0  0.00000000000E+00  0.00000000000E+00  0.68486284386E+03  0.40898581307E+04  0.40321089289E+04 0.  0.
        3    1    3    3  502    0  0.15547548939E+04  0.99813118177E+02 -0.95544549151E+03  0.18275944671E+04  0.10100000352E+00 0.  1.
       -3    1    3    3    0  502 -0.15547548939E+04 -0.99813118177E+02  0.16403083354E+04  0.22622636636E+04  0.10100000352E+00 0. -1.
</event>
<event>
 5   0  0.2713405E-07  0.4054761E+04  0.7818609E-02  0.7993590E-01
        1   -1    0    0  501    0  0.00000000000E+00  0.00000000000E+00  0.17586635851E+04  0.17586635851E+04  0.50400001928E-02 0. -1.
       -1   -1    0    0    0  501  0.00000000000E+00  0.00000000000E+00 -0.23371561212E+04  0.23371561212E+04  0.50400001928E-02 0.  1.
    10030    2    1    2    0    0  0.00000000000E+00  0.00000000000E+00 -0.57849253614E+03  0.40958197064E+04  0.40547608379E+04 0.  0.
        1    1    3    3  502    0  0.67898298362E+03 -0.99514634199E+03 -0.19363829168E+04  0.22805510155E+04  0.50400001928E-02 0.  1.
       -1    1    3    3    0  502 -0.67898298362E+03  0.99514634199E+03  0.13578903806E+04  0.18152686908E+04  0.50400001928E-02 0. -1.
</event>
<event>
 5   0  0.6043512E-07  0.2597632E+04  0.7818609E-02  0.8369006E-01
       -2   -1    0    0    0  501  0.00000000000E+00  0.00000000000E+00  0.11038699319E+04  0.11038699319E+04  0.25500000920E-02 0. -1.
        2   -1    0    0  501    0  0.00000000000E+00  0.00000000000E+00 -0.15281901140E+04  0.15281901140E+04  0.25500000920E-02 0.  1.
    10030    2    1    2    0    0  0.00000000000E+00  0.00000000000E+00 -0.42432018210E+03  0.26320600460E+04  0.25976320888E+04 0.  0.
        3    1    3    3  502    0  0.83292554156E+03 -0.45666109494E+03  0.68536687425E+03  0.11713377292E+04  0.10100000352E+00 0. -1.
       -3    1    3    3    0  502 -0.83292554156E+03  0.45666109494E+03 -0.11096870563E+04  0.14607223167E+04  0.10100000352E+00 0.  1.
</event>
<event>
 5   0  0.4449262E-07  0.2634730E+04  0.7818609E-02  0.8356499E-01
        2   -1    0    0  501    0  0.00000000000E+00  0.00000000000E+00  0.10720462056E+04  0.10720462057E+04  0.25500000920E-02 0.  1.
       -2   -1    0    0    0  501  0.00000000000E+00  0.00000000000E+00 -0.16188204467E+04  0.16188204467E+04  0.25500000920E-02 0. -1.
    10030    2    1    2    0    0  0.00000000000E+00  0.00000000000E+00 -0.54677424106E+03  0.26908666524E+04  0.26347298287E+04 0.  0.
        1    1    3    3  502    0  0.73816591305E+03 -0.92749025832E+03 -0.86037028059E+03  0.14647061529E+04  0.50400001928E-02 0. -1.
       -1    1    3    3    0  502 -0.73816591305E+03  0.92749025832E+03  0.31359603954E+03  0.12261604995E+04  0.50400001928E-02 0.  1.
</event>
<event>
 5   0  0.4449262E-07  0.3556443E+04  0.7818609E-02  0.8100543E-01
       -2   -1    0    0    0  501  0.00000000000E+00  0.00000000000E+00  0.33067616053E+04  0.33067616053E+04  0.25500000920E-02 0. -1.
        2   -1    0    0  501    0  0.00000000000E+00  0.00000000000E+00 -0.95624397474E+03  0.95624397475E+03  0.25500000920E-02 0.  1.
    10030    2    1    2    0    0  0.00000000000E+00  0.00000000000E+00  0.23505176305E+04  0.42630055800E+04  0.35564425264E+04 0.  0.
        1    1    3    3  502    0  0.19261685709E+03  0.81984162096E+03 -0.70204157826E+03  0.10964049958E+04  0.50400001928E-02 0.  1.
       -1    1    3    3    0  502 -0.19261685709E+03 -0.81984162096E+03  0.30525592088E+04  0.31666005842E+04  0.50400001928E-02 0. -1.
</event>
<event>
 5   0  0.2401125E-07  0.3967118E+04  0.7818609E-02  0.8011213E-01
        1   -1    0    0  501    0  0.00000000000E+00  0.00000000000E+00  0.20924172197E+04  0.20924172197E+04  0.50400001928E-02 0.  1.
       -1   -1    0    0    0  501  0.00000000000E+00  0.00000000000E+00 -0.18803644422E+04  0.18803644422E+04  0.50400001928E-02 0. -1.
    10030    2    1    2    0    0  0.00000000000E+00  0.00000000000E+00  0.21205277751E+03  0.39727816619E+04  0.39671183185E+04 0.  0.
        5    1    3    3  502    0 -0.14737674216E+04 -0.93364272349E+03  0.10511988030E+04  0.20368407305E+04  0.46999998093E+01 0.  1.
       -5    1    3    3    0  502  0.14737674216E+04  0.93364272349E+03 -0.83914602545E+03  0.19359409314E+04  0.46999998093E+01 0. -1.
</event>
<event>
 5   0  0.2601252E-07  0.2154112E+04  0.7818609E-02  0.8537774E-01
       -1   -1    0    0    0  501  0.00000000000E+00  0.00000000000E+00  0.10689204710E+04  0.10689204710E+04  0.50400001928E-02 0. -1.
        1   -1    0    0  501    0  0.00000000000E+00  0.00000000000E+00 -0.10852538279E+04  0.10852538279E+04  0.50400001928E-02 0.  1.
    10030    2    1    2    0    0  0.00000000000E+00  0.00000000000E+00 -0.16333356879E+02  0.21541742989E+04  0.21541123767E+04 0.  0.
        3    1    3    3  502    0 -0.72708434433E+03 -0.67712040538E+03 -0.42399870748E+03  0.10802400665E+04  0.10100000352E+00 0.  1.
       -3    1    3    3    0  502  0.72708434433E+03  0.67712040538E+03  0.40766535061E+03  0.10739342324E+04  0.10100000352E+00 0. -1.
</event>
<event>
 5   0  0.5161550E-07  0.2234351E+04  0.7818609E-02  0.8504265E-01
       -2   -1    0    0    0  501  0.00000000000E+00  0.00000000000E+00  0.58126309706E+03  0.58126309707E+03  0.25500000920E-02 0. -1.
        2   -1    0    0  501    0  0.00000000000E+00  0.00000000000E+00 -0.21471882158E+04  0.21471882158E+04  0.25500000920E-02 0.  1.
    10030    2    1    2    0    0  0.00000000000E+00  0.00000000000E+00 -0.15659251187E+04  0.27284513128E+04  0.22343511562E+04 0.  0.
        2    1    3    3  502    0  0.87507226458E+03  0.34274307046E+03 -0.45353714059E+02  0.94089385160E+03  0.25500000920E-02 0. -1.
       -2    1    3    3    0  502 -0.87507226458E+03 -0.34274307046E+03 -0.15205714046E+04  0.17875574612E+04  0.25500000920E-02 0.  1.
</event>
<event>
 5   0  0.7256473E-07  0.3984768E+04  0.7818609E-02  0.8007626E-01
        2   -1    0    0  501    0  0.00000000000E+00  0.00000000000E+00  0.24156925199E+04  0.24156925199E+04  0.25500000920E-02 0.  1.
       -2   -1    0    0    0  501  0.00000000000E+00  0.00000000000E+00 -0.16432529636E+04  0.16432529636E+04  0.25500000920E-02 0. -1.
    10030    2    1    2    0    0  0.00000000000E+00  0.00000000000E+00  0.77243955630E+03  0.40589454836E+04  0.39847679444E+04 0.  0.
        4    1    3    3  502    0  0.11814265986E+04 -0.14591956516E+04  0.10653937018E+04  0.21587232593E+04  0.12699999809E+01 0.  1.
       -4    1    3    3    0  502 -0.11814265986E+04  0.14591956516E+04 -0.29295414548E+03  0.19002222243E+04  0.12699999809E+01 0. -1.
</event>
<event>
 5   0  0.7256473E-07  0.4010577E+04  0.7818609E-02  0.8002416E-01
       -2   -1    0    0    0  501  0.00000000000E+00  0.00000000000E+00  0.25011395660E+04  0.25011395660E+04  0.25500000920E-02 0.  1.
        2   -1    0    0  501    0  0.00000000000E+00  0.00000000000E+00 -0.16077399527E+04  0.16077399527E+04  0.25500000920E-02 0. -1.
    10030    2    1    2    0    0  0.00000000000E+00  0.00000000000E+00  0.89339961335E+03  0.41088795187E+04  0.40105770196E+04 0.  0.
        4    1    3    3  502    0  0.10890968557E+04 -0.11204932737E+04 -0.84090416601E+03  0.17744741663E+04  0.12699999809E+01 0. -1.
       -4    1    3    3    0  502 -0.10890968557E+04  0.11204932737E+04  0.17343037794E+04  0.23344053524E+04  0.12699999809E+01 0.  1.
</event>
<event>
 5   0  0.2401125E-07  0.3038888E+04  0.7818609E-02  0.8232713E-01
       -1   -1    0    0    0  501  0.00000000000E+00  0.00000000000E+00  0.12599277067E+04  0.12599277067E+04  0.50400001928E-02 0. -1.
        1   -1    0    0  501    0  0.00000000000E+00  0.00000000000E+00 -0.18324148348E+04  0.18324148348E+04  0.50400001928E-02 0.  1.
    10030    2    1    2    0    0  0.00000000000E+00  0.00000000000E+00 -0.57248712806E+03  0.30923425415E+04  0.30388880997E+04 0.  0.
        5    1    3    3  502    0 -0.61434891764E+03  0.24226712170E+03 -0.16787330932E+04  0.18039636468E+04  0.46999998093E+01 0.  1.
       -5    1    3    3    0  502  0.61434891764E+03 -0.24226712170E+03  0.11062459652E+04  0.12883788947E+04  0.46999998093E+01 0. -1.
</event>
<event>
 5   0  0.2601252E-07  0.2159351E+04  0.7818609E-02  0.8535540E-01
       -1   -1    0    0    0  501  0.00000000000E+00  0.00000000000E+00  0.11876727911E+04  0.11876727911E+04  0.50400001928E-02 0.  1.
        1   -1    0    0  501    0  0.00000000000E+00  0.00000000000E+00 -0.98149837203E+03  0.98149837204E+03  0.50400001928E-02 0. -1.
    10030    2    1    2    0    0  0.00000000000E+00  0.00000000000E+00  0.20617441909E+03  0.21691711632E+04  0.21593507460E+04 0.  0.
        3    1    3    3  502    0 -0.79024968075E+03  0.14950774907E+03 -0.62050233852E+03  0.10158101630E+04  0.10100000352E+00 0. -1.
       -3    1    3    3    0  502  0.79024968075E+03 -0.14950774907E+03  0.82667675761E+03  0.11533610002E+04  0.10100000352E+00 0.  1.
</event>
<event>
 5   0  0.4449262E-07  0.3990588E+04  0.7818609E-02  0.8006448E-01
       -2   -1    0    0    0  501  0.00000000000E+00  0.00000000000E+00  0.20646572233E+04  0.20646572233E+04  0.25500000920E-02 0. -1.
        2   -1    0    0  501    0  0.00000000000E+00  0.00000000000E+00 -0.19282615246E+04  0.19282615246E+04  0.25500000920E-02 0.  1.
    10030    2    1    2    0    0  0.00000000000E+00  0.00000000000E+00  0.13639569868E+03  0.39929187478E+04  0.39905884704E+04 0.  0.
        1    1    3    3  502    0  0.63945688514E+03  0.14081251973E+04  0.13296788350E+04  0.20395508043E+04  0.50400001928E-02 0. -1.
       -1    1    3    3    0  502 -0.63945688514E+03 -0.14081251973E+04 -0.11932831363E+04  0.19533679435E+04  0.50400001928E-02 0.  1.
</event>
<event>
 5   0  0.4449262E-07  0.2877234E+04  0.7818609E-02  0.8279683E-01
        2   -1    0    0  501    0  0.00000000000E+00  0.00000000000E+00  0.13702553068E+04  0.13702553069E+04  0.25500000920E-02 0.  1.
       -2   -1    0    0    0  501  0.00000000000E+00  0.00000000000E+00 -0.15103893601E+04  0.15103893601E+04  0.25500000920E-02 0. -1.
    10030    2    1    2    0    0  0.00000000000E+00  0.00000000000E+00 -0.14013405327E+03  0.28806446670E+04  0.28772341136E+04 0.  0.
        1    1    3    3  502    0 -0.92257129551E+03 -0.77802972999E+02 -0.11724752835E+04  0.14939509324E+04  0.50400001928E-02 0. -1.
       -1    1    3    3    0  502  0.92257129551E+03  0.77802972999E+02  0.10323412302E+04  0.13866937346E+04  0.50400001928E-02 0.  1.
</event>
<event>
 5   0  0.2647879E-07  0.2283541E+04  0.7818609E-02  0.8484439E-01
       -1   -1    0    0    0  501  0.00000000000E+00  0.00000000000E+00  0.13416289776E+04  0.13416289776E+04  0.50400001928E-02 0.  1.
        1   -1    0    0  501    0  0.00000000000E+00  0.00000000000E+00 -0.97168465879E+03  0.97168465880E+03  0.50400001928E-02 0. -1.
    10030    2    1    2    0    0  0.00000000000E+00  0.00000000000E+00  0.36994431885E+03  0.23133136364E+04  0.22835413685E+04 0.  0.
        2    1    3    3  502    0 -0.30423727352E+03 -0.69744790766E+03 -0.67738803472E+03  0.10187484734E+04  0.25500000920E-02 0. -1.
       -2    1    3    3    0  502  0.30423727352E+03  0.69744790766E+03  0.10473323536E+04  0.12945651630E+04  0.25500000920E-02 0.  1.
</event>
<event>
 5   0  0.2401125E-07  0.3937925E+04  0.7818609E-02  0.8017187E-01
       -1   -1    0    0    0  501  0.00000000000E+00  0.00000000000E+00  0.26748236790E+04  0.26748236790E+04  0.50400001928E-02 0. -1.
        1   -1    0    0  501    0  0.00000000000E+00  0.00000000000E+00 -0.14493713769E+04  0.14493713769E+04  0.50400001928E-02 0.  1.
    10030    2    1    2    0    0  0.00000000000E+00  0.00000000000E+00  0.12254523022E+04  0.41241950559E+04  0.39379247726E+04 0.  0.
        5    1    3    3  502    0 -0.76564662214E+02 -0.13380801609E+02  0.26732105016E+04  0.26743443438E+04  0.46999998093E+01 0. -1.
       -5    1    3    3    0  502  0.76564662214E+02  0.13380801609E+02 -0.14477581994E+04  0.14498507121E+04  0.46999998093E+01 0.  1.
</event>
<event>
 5   0  0.6043512E-07  0.3045540E+04  0.7818609E-02  0.8230845E-01
       -2   -1    0    0    0  501  0.00000000000E+00  0.00000000000E+00  0.14973136342E+04  0.14973136342E+04  0.25500000920E-02 0.  1.
        2   -1    0    0  501    0  0.00000000000E+00  0.00000000000E+00 -0.15486586918E+04  0.15486586919E+04  0.25500000920E-02 0. -1.
    10030    2    1    2    0    0  0.00000000000E+00  0.00000000000E+00 -0.51345057637E+02  0.30459723261E+04  0.30455395411E+04 0.  0.
        3    1    3    3  502    0  0.47417739289E+03  0.44925691419E+03  0.13500780278E+04  0.14997955414E+04  0.10100000352E+00 0.  1.
       -3    1    3    3    0  502 -0.47417739289E+03 -0.44925691419E+03 -0.14014230854E+04  0.15461767846E+04  0.10100000352E+00 0. -1.
</event>
<event>
 5   0  0.5161550E-07  0.4012832E+04  0.7818609E-02  0.8001963E-01
        2   -1    0    0  501    0  0.00000000000E+00  0.00000000000E+00  0.23339402289E+04  0.23339402289E+04  0.25500000920E-02 0. -1.
       -2   -1    0    0    0  501  0.00000000000E+00  0.00000000000E+00 -0.17248532166E+04  0.17248532166E+04  0.25500000920E-02 0.  1.
    10030    2    1    2    0    0  0.00000000000E+00  0.00000000000E+00  0.60908701234E+03  0.40587934455E+04  0.40128315744E+04 0.  0.
        2    1    3    3  502    0  0.13271698116E+04  0.47231263945E+03 -0.11405422655E+04  0.18125384403E+04  0.25500000920E-02 0.  1.
       -2    1    3    3    0  502 -0.13271698116E+04 -0.47231263945E+03  0.17496292779E+04  0.22462550052E+04  0.25500000920E-02 0. -1.
</event>
<event>
 5   0  0.5161550E-07  0.4052436E+04  0.7818609E-02  0.7994051E-01
        2   -1    0    0  501    0  0.00000000000E+00  0.00000000000E+00  0.16308801308E+04  0.16308801308E+04  0.25500000920E-02 0. -1.
       -2   -1    0    0    0  501  0.00000000000E+00  0.00000000000E+00 -0.25173888830E+04  0.25173888830E+04  0.25500000920E-02 0.  1.
    10030    2    1    2    0    0  0.00000000000E+00  0.00000000000E+00 -0.88650875220E+03  0.41482690138E+04  0.40524360628E+04 0.  0.
        2    1    3    3  502    0  0.13639510081E+03 -0.20149502451E+04 -0.27526563207E+03  0.20382343540E+04  0.25500000920E-02 0.  1.
       -2    1    3    3    0  502 -0.13639510081E+03  0.20149502451E+04 -0.61124312013E+03  0.21100346598E+04  0.25500000920E-02 0. -1.
</event>
<event>
 5   0  0.2713405E-07  0.3993498E+04  0.7818609E-02  0.8005859E-01
       -1   -1    0    0    0  501  0.00000000000E+00  0.00000000000E+00  0.16566804260E+04  0.16566804260E+04  0.50400001928E-02 0. -1.
        1   -1    0    0  501    0  0.00000000000E+00  0.00000000000E+00 -0.24066242692E+04  0.24066242692E+04  0.50400001928E-02 0.  1.
    10030    2    1    2    0    0  0.00000000000E+00  0.00000000000E+00 -0.74994384325E+03  0.40633046952E+04  0.39934983759E+04 0.  0.
        1    1    3    3  502    0  0.13472799109E+04 -0.14140946879E+04 -0.79717140964E+03  0.21095755974E+04  0.50400001928E-02 0.  1.
       -1    1    3    3    0  502 -0.13472799109E+04  0.14140946879E+04  0.47227566390E+02  0.19537290978E+04  0.50400001928E-02 0. -1.
</event>
<event>
 5   0  0.7570277E-07  0.4057900E+04  0.7818609E-02  0.7992967E-01
       -2   -1    0    0    0  501  0.00000000000E+00  0.00000000000E+00  0.24627828325E+04  0.24627828325E+04  0.25500000920E-02 0.  1.
        2   -1    0    0  501    0  0.00000000000E+00  0.00000000000E+00 -0.16715395154E+04  0.16715395154E+04  0.25500000920E-02 0. -1.
    10030    2    1    2    0    0  0.00000000000E+00  0.00000000000E+00  0.79124331704E+03  0.41343223479E+04  0.40579003548E+04 0.  0.
        5    1    3    3  502    0  0.77461392642E+03 -0.12829700603E+03  0.23017188280E+04  0.24319577525E+04  0.46999998093E+01 0.  1.
       -5    1    3    3    0  502 -0.77461392642E+03  0.12829700603E+03 -0.15104755109E+04  0.17023645955E+04  0.46999998093E+01 0. -1.
</event>
<event>
 5   0  0.7256473E-07  0.3963512E+04  0.7818609E-02  0.8011948E-01
       -2   -1    0    0    0  501  0.00000000000E+00  0.00000000000E+00  0.13124480618E+04  0.13124480618E+04  0.25500000920E-02 0.  1.
        2   -1    0    0  501    0  0.00000000000E+00  0.00000000000E+00 -0.29923909073E+04  0.29923909073E+04  0.25500000920E-02 0. -1.
    10030    2    1    2    0    0  0.00000000000E+00  0.00000000000E+00 -0.16799428455E+04  0.43048389691E+04  0.39635124052E+04 0.  0.
        4    1    3    3  502    0 -0.23769430790E+03  0.58752920522E+03 -0.28793475293E+04  0.29482762690E+04  0.12699999809E+01 0. -1.
       -4    1    3    3    0  502  0.23769430790E+03 -0.58752920522E+03  0.11994046838E+04  0.13565627002E+04  0.12699999809E+01 0.  1.
</event>
<event>
 5   0  0.6043512E-07  0.3558439E+04  0.7818609E-02  0.8100079E-01
        2   -1    0    0  501    0  0.00000000000E+00  0.00000000000E+00  0.21316795354E+04  0.21316795354E+04  0.25500000920E-02 0. -1.
       -2   -1    0    0    0  501  0.00000000000E+00  0.00000000000E+00 -0.14850364269E+04  0.14850364269E+04  0.25500000920E-02 0.  1.
    10030    2    1    2    0    0  0.00000000000E+00  0.00000000000E+00  0.64664310843E+03  0.36167159623E+04  0.35584388490E+04 0.  0.
        3    1    3    3  502    0  0.29802281542E+03 -0.16883477408E+03 -0.14512097933E+04  0.14910843886E+04  0.10100000352E+00 0.  1.
       -3    1    3    3    0  502 -0.29802281542E+03  0.16883477408E+03  0.20978529018E+04  0.21256315737E+04  0.10100000352E+00 0. -1.
</event>
<event>
 5   0  0.2601252E-07  0.3968160E+04  0.7818609E-02  0.8011001E-01
        1   -1    0    0  501    0  0.00000000000E+00  0.00000000000E+00  0.32689363605E+04  0.32689363605E+04  0.50400001928E-02 0.  1.
       -1   -1    0    0    0  501  0.00000000000E+00  0.00000000000E+00 -0.12042368365E+04  0.12042368365E+04  0.50400001928E-02 0. -1.
    10030    2    1    2    0    0  0.00000000000E+00  0.00000000000E+00  0.20646995240E+04  0.44731731971E+04  0.39681600681E+04 0.  0.
        3    1    3    3  502    0 -0.17747452919E+03  0.19404129987E+04  0.61075553788E+03  0.20419897529E+04  0.10100000352E+00 0. -1.
       -3    1    3    3    0  502  0.17747452919E+03 -0.19404129987E+04  0.14539439861E+04  0.24311834441E+04  0.10100000352E+00 0.  1.
</event>
<event>
 5   0  0.6043512E-07  0.3887945E+04  0.7818609E-02  0.8027541E-01
       -2   -1    0    0    0  501  0.00000000000E+00  0.00000000000E+00  0.15055003077E+04  0.15055003077E+04  0.25500000920E-02 0. -1.
        2   -1    0    0  501    0  0.00000000000E+00  0.00000000000E+00 -0.25101485470E+04  0.25101485470E+04  0.25500000920E-02 0.  1.
    10030    2    1    2    0    0  0.00000000000E+00  0.00000000000E+00 -0.10046482393E+04  0.40156488547E+04  0.38879451693E+04 0.  0.
        3    1    3    3  502    0  0.46295042977E+03  0.17963036580E+04 -0.11027972876E+04  0.21580527797E+04  0.10100000352E+00 0.  1.
       -3    1    3    3    0  502 -0.46295042977E+03 -0.17963036580E+04  0.98149048279E+02  0.18575960751E+04  0.10100000352E+00 0. -1.
</event>
<event>
 5   0  0.6043512E-07  0.4050260E+04  0.7818609E-02  0.7994484E-01
        2   -1    0    0  501    0  0.00000000000E+00  0.00000000000E+00  0.15485751090E+04  0.15485751090E+04  0.25500000920E-02 0.  1.
       -2   -1    0    0    0  501  0.00000000000E+00  0.00000000000E+00 -0.26483382134E+04  0.26483382134E+04  0.25500000920E-02 0. -1.
    10030    2    1    2    0    0  0.00000000000E+00  0.00000000000E+00 -0.10997631044E+04  0.41969133224E+04  0.40502595658E+04 0.  0.
        3    1    3    3  502    0 -0.11097742541E+04 -0.26285144869E+02  0.12052185177E+04  0.16385485923E+04  0.10100000352E+00 0.  1.
       -3    1    3    3    0  502  0.11097742541E+04  0.26285144869E+02 -0.23049816220E+04  0.25583647301E+04  0.10100000352E+00 0. -1.
</event>
<event>
 5   0  0.2713405E-07  0.2566213E+04  0.7818609E-02  0.8379769E-01
       -1   -1    0    0    0  501  0.00000000000E+00  0.00000000000E+00  0.12774230697E+04  0.12774230697E+04  0.50400001928E-02 0. -1.
        1   -1    0    0  501    0  0.00000000000E+00  0.00000000000E+00 -0.12888154541E+04  0.12888154542E+04  0.50400001928E-02 0.  1.
    10030    2    1    2    0    0  0.00000000000E+00  0.00000000000E+00 -0.11392384483E+02  0.25662385238E+04  0.25662132364E+04 0.  0.
        1    1    3    3  502    0  0.61070956902E+03 -0.20474885280E+03 -0.11154252552E+04  0.12880457175E+04  0.50400001928E-02 0.  1.
       -1    1    3    3    0  502 -0.61070956902E+03  0.20474885280E+03  0.11040328707E+04  0.12781928063E+04  0.50400001928E-02 0. -1.
</event>
<event>
 5   0  0.2601252E-07  0.3943830E+04  0.7818609E-02  0.8015975E-01
       -1   -1    0    0    0  501  0.00000000000E+00  0.00000000000E+00  0.12992990732E+04  0.12992990732E+04  0.50400001928E-02 0.  1.
        1   -1    0    0  501    0  0.00000000000E+00  0.00000000000E+00 -0.29927273014E+04  0.29927273014E+04  0.50400001928E-02 0. -1.
    10030    2    1    2    0    0  0.00000000000E+00  0.00000000000E+00 -0.16934282282E+04  0.42920263746E+04  0.39438295141E+04 0.  0.
        3    1    3    3  502    0 -0.91288979613E+03 -0.12873259541E+04 -0.21334160008E+04  0.26536841814E+04  0.10100000352E+00 0. -1.
       -3    1    3    3    0  502  0.91288979613E+03  0.12873259541E+04  0.43998777262E+03  0.16383421932E+04  0.10100000352E+00 0.  1.
</event>
<event>
 5   0  0.5161550E-07  0.3858660E+04  0.7818609E-02  0.8033683E-01
        2   -1    0    0  501    0  0.00000000000E+00  0.00000000000E+00  0.22985261669E+04  0.22985261669E+04  0.25500000920E-02 0. -1.
       -2   -1    0    0    0  501  0.00000000000E+00  0.00000000000E+00 -0.16194351442E+04  0.16194351442E+04  0.25500000920E-02 0.  1.
    10030    2    1    2    0    0  0.00000000000E+00  0.00000000000E+00  0.67909102272E+03  0.39179613112E+04  0.38586598993E+04 0.  0.
        2    1    3    3  502    0  0.48008505668E+03 -0.16858328101E+04 -0.47894479097E+03  0.18171136558E+04  0.25500000920E-02 0.  1.
       -2    1    3    3    0  502 -0.48008505668E+03  0.16858328101E+04  0.11580358137E+04  0.21008476554E+04  0.25500000920E-02 0. -1.
</event>
<event>
 5   0  0.4449262E-07  0.3983094E+04  0.7818609E-02  0.8007966E-01
        2   -1    0    0  501    0  0.00000000000E+00  0.00000000000E+00  0.23956680996E+04  0.23956680996E+04  0.25500000920E-02 0. -1.
       -2   -1    0    0    0  501  0.00000000000E+00  0.00000000000E+00 -0.16555966441E+04  0.16555966441E+04  0.25500000920E-02 0.  1.
    10030    2    1    2    0    0  0.00000000000E+00  0.00000000000E+00  0.74007145549E+03  0.40512647437E+04  0.39830943077E+04 0.  0.
        1    1    3    3  502    0 -0.66332130800E+03 -0.14608223744E+04  0.15701722722E+04  0.22448692906E+04  0.50400001928E-02 0. -1.
       -1    1    3    3    0  502  0.66332130800E+03  0.14608223744E+04 -0.83010081675E+03  0.18063954531E+04  0.50400001928E-02 0.  1.
</event>
<event>
 5   0  0.2713405E-07  0.2330193E+04  0.7818609E-02  0.8466111E-01
       -1   -1    0    0    0  501  0.00000000000E+00  0.00000000000E+00  0.96471101067E+03  0.96471101068E+03  0.50400001928E-02 0.  1.
        1   -1    0    0  501    0  0.00000000000E+00  0.00000000000E+00 -0.14071046721E+04  0.14071046722E+04  0.50400001928E-02 0. -1.
    10030    2    1    2    0    0  0.00000000000E+00  0.00000000000E+00 -0.44239366147E+03  0.23718156828E+04  0.23301925847E+04 0.  0.
        1    1    3    3  502    0  0.47470755546E+03 -0.99032057160E+02  0.85711057485E+03  0.98478076194E+03  0.50400001928E-02 0.  1.
       -1    1    3    3    0  502 -0.47470755546E+03  0.99032057160E+02 -0.12995042363E+04  0.13870349209E+04  0.50400001928E-02 0. -1.
</event>
<event>
 5   0  0.4449262E-07  0.2424221E+04  0.7818609E-02  0.8430491E-01
       -2   -1    0    0    0  501  0.00000000000E+00  0.00000000000E+00  0.69662607470E+03  0.69662607471E+03  0.25500000920E-02 0. -1.
        2   -1    0    0  501    0  0.00000000000E+00  0.00000000000E+00 -0.21090389226E+04  0.21090389226E+04  0.25500000920E-02 0.  1.
    10030    2    1    2    0    0  0.00000000000E+00  0.00000000000E+00 -0.14124128479E+04  0.28056649973E+04  0.24242207045E+04 0.  0.
        1    1    3    3  502    0  0.71348482495E+03  0.84113678693E+03 -0.12879271753E+04  0.16956792440E+04  0.50400001928E-02 0.  1.
       -1    1    3    3    0  502 -0.71348482495E+03 -0.84113678693E+03 -0.12448567261E+03  0.11099857533E+04  0.50400001928E-02 0. -1.
</event>
<event>
 5   0  0.4449262E-07  0.2206930E+04  0.7818609E-02  0.8515549E-01
        2   -1    0    0  501    0  0.00000000000E+00  0.00000000000E+00  0.20472847884E+04  0.20472847884E+04  0.25500000920E-02 0.  1.
       -2   -1    0    0    0  501  0.00000000000E+00  0.00000000000E+00 -0.59475599295E+03  0.59475599295E+03  0.25500000920E-02 0. -1.
    10030    2    1    2    0    0  0.00000000000E+00  0.00000000000E+00  0.14525287955E+04  0.26420407814E+04  0.22069299012E+04 0.  0.
        1    1    3    3  502    0  0.21504363927E+03 -0.84930758544E+03 -0.76873145786E+02  0.87947519694E+03  0.50400001928E-02 0. -1.
       -1    1    3    3    0  502 -0.21504363927E+03  0.84930758544E+03  0.15294019413E+04  0.17625655844E+04  0.50400001928E-02 0.  1.
</event>
<event>
 5   0  0.6043512E-07  0.3989904E+04  0.7818609E-02  0.8006586E-01
       -2   -1    0    0    0  501  0.00000000000E+00  0.00000000000E+00  0.25723928909E+04  0.25723928909E+04  0.25500000920E-02 0.  1.
        2   -1    0    0  501    0  0.00000000000E+00  0.00000000000E+00 -0.15471330281E+04  0.15471330281E+04  0.25500000920E-02 0. -1.
    10030    2    1    2    0    0  0.00000000000E+00  0.00000000000E+00  0.10252598627E+04  0.41195259190E+04  0.39899042609E+04 0.  0.
        3    1    3    3  502    0  0.69310443283E+03  0.13303948841E+04 -0.84519492192E+03  0.17218300638E+04  0.10100000352E+00 0. -1.
       -3    1    3    3    0  502 -0.69310443283E+03 -0.13303948841E+04  0.18704547847E+04  0.23976958552E+04  0.10100000352E+00 0.  1.
</event>
<event>
 5   0  0.4449262E-07  0.4078393E+04  0.7818609E-02  0.7988916E-01
       -2   -1    0    0    0  501  0.00000000000E+00  0.00000000000E+00  0.16957503365E+04  0.16957503365E+04  0.25500000920E-02 0. -1.
        2   -1    0    0  501    0  0.00000000000E+00  0.00000000000E+00 -0.24522019263E+04  0.24522019263E+04  0.25500000920E-02 0.  1.
    10030    2    1    2    0    0  0.00000000000E+00  0.00000000000E+00 -0.75645158986E+03  0.41479522628E+04  0.40783929392E+04 0.  0.
        1    1    3    3  502    0 -0.35947108911E+03  0.15324271555E+04  0.94033087576E+03  0.18335142778E+04  0.50400001928E-02 0. -1.
       -1    1    3    3    0  502  0.35947108911E+03 -0.15324271555E+04 -0.16967824656E+04  0.23144379850E+04  0.50400001928E-02 0.  1.
</event>
<event>
 5   0  0.2647879E-07  0.3470296E+04  0.7818609E-02  0.8120866E-01
        1   -1    0    0  501    0  0.00000000000E+00  0.00000000000E+00  0.24406348631E+04  0.24406348631E+04  0.50400001928E-02 0. -1.
       -1   -1    0    0    0  501  0.00000000000E+00  0.00000000000E+00 -0.12335881783E+04  0.12335881783E+04  0.50400001928E-02 0.  1.
    10030    2    1    2    0    0  0.00000000000E+00  0.00000000000E+00  0.12070466848E+04  0.36742230414E+04  0.34702958460E+04 0.  0.
        2    1    3    3  502    0  0.11785988712E+04  0.19879732398E+03  0.19352622513E+04  0.22746111000E+04  0.25500000920E-02 0. -1.
       -2    1    3    3    0  502 -0.11785988712E+04 -0.19879732398E+03 -0.72821556651E+03  0.13996119414E+04  0.25500000920E-02 0.  1.
</event>
<event>
 5   0  0.3579559E-07  0.2240791E+04  0.7818609E-02  0.8501639E-01
       -1   -1    0    0    0  501  0.00000000000E+00  0.00000000000E+00  0.10798125774E+04  0.10798125774E+04  0.50400001928E-02 0.  1.
        1   -1    0    0  501    0  0.00000000000E+00  0.00000000000E+00 -0.11625036103E+04  0.11625036103E+04  0.50400001928E-02 0. -1.
    10030    2    1    2    0    0  0.00000000000E+00  0.00000000000E+00 -0.82691032852E+02  0.22423161877E+04  0.22407909493E+04 0.  0.
        4    1    3    3  502    0  0.32308564523E+03  0.33007098783E+03  0.98011038090E+03  0.10834893460E+04  0.12699999809E+01 0.  1.
       -4    1    3    3    0  502 -0.32308564523E+03 -0.33007098783E+03 -0.10628014138E+04  0.11588268417E+04  0.12699999809E+01 0. -1.
</event>
<event>
 5   0  0.2713405E-07  0.2314887E+04  0.7818609E-02  0.8472075E-01
        1   -1    0    0  501    0  0.00000000000E+00  0.00000000000E+00  0.20933063743E+04  0.20933063743E+04  0.50400001928E-02 0. -1.
       -1   -1    0    0    0  501  0.00000000000E+00  0.00000000000E+00 -0.63998035179E+03  0.63998035181E+03  0.50400001928E-02 0.  1.
    10030    2    1    2    0    0  0.00000000000E+00  0.00000000000E+00  0.14533260225E+04  0.27332867261E+04  0.23148865630E+04 0.  0.
        1    1    3    3  502    0 -0.41137203425E+03  0.80544651008E+03 -0.12617692233E+03  0.91317667892E+03  0.50400001928E-02 0.  1.
       -1    1    3    3    0  502  0.41137203425E+03 -0.80544651008E+03  0.15795029448E+04  0.18201100472E+04  0.50400001928E-02 0. -1.
</event>
<event>
 5   0  0.6333542E-07  0.2248128E+04  0.7818609E-02  0.8498659E-01
       -2   -1    0    0    0  501  0.00000000000E+00  0.00000000000E+00  0.86635350975E+03  0.86635350975E+03  0.25500000920E-02 0. -1.
        2   -1    0    0  501    0  0.00000000000E+00  0.00000000000E+00 -0.14584344972E+04  0.14584344972E+04  0.25500000920E-02 0.  1.
    10030    2    1    2    0    0  0.00000000000E+00  0.00000000000E+00 -0.59208098743E+03  0.23247880069E+04  0.22481279727E+04 0.  0.
        3    1    3    3  502    0 -0.60965243550E+03 -0.25042873298E+03  0.64557464093E+03  0.92258184983E+03  0.10100000352E+00 0. -1.
       -3    1    3    3    0  502  0.60965243550E+03  0.25042873298E+03 -0.12376556284E+04  0.14022061571E+04  0.10100000352E+00 0.  1.
</event>
<event>
 5   0  0.7256473E-07  0.4067500E+04  0.7818609E-02  0.7991066E-01
       -2   -1    0    0    0  501  0.00000000000E+00  0.00000000000E+00  0.21900083975E+04  0.21900083975E+04  0.25500000920E-02 0. -1.
        2   -1    0    0  501    0  0.00000000000E+00  0.00000000000E+00 -0.18886411661E+04  0.18886411661E+04  0.25500000920E-02 0.  1.
    10030    2    1    2    0    0  0.00000000000E+00  0.00000000000E+00  0.30136723137E+03  0.40786495637E+04  0.40675004677E+04 0.  0.
        4    1    3    3  502    0  0.16707277834E+04  0.46401323806E+03 -0.91500828674E+03  0.19605819006E+04  0.12699999809E+01 0.  1.
       -4    1    3    3    0  502 -0.16707277834E+04 -0.46401323806E+03  0.12163755181E+04  0.21180676630E+04  0.12699999809E+01 0. -1.
</event>
<event>
 5   0  0.2401125E-07  0.4085494E+04  0.7818609E-02  0.7987518E-01
        3   -1    0    0  501    0  0.00000000000E+00  0.00000000000E+00  0.17064244579E+04  0.17064244609E+04  0.10100000352E+00 0.  1.
       -3   -1    0    0    0  501  0.00000000000E+00  0.00000000000E+00 -0.24453555353E+04  0.24453555373E+04  0.10100000352E+00 0. -1.
    10030    2    1    2    0    0  0.00000000000E+00  0.00000000000E+00 -0.73893107739E+03  0.41517799982E+04  0.40854936074E+04 0.  0.
        1    1    3    3  502    0 -0.51594424686E+03  0.16965156092E+04  0.66111411156E+03  0.18924681098E+04  0.50400001928E-02 0. -1.
       -1    1    3    3    0  502  0.51594424686E+03 -0.16965156092E+04 -0.14000451889E+04  0.22593118884E+04  0.50400001928E-02 0.  1.
</event>
<event>
 5   0  0.2601252E-07  0.2761293E+04  0.7818609E-02  0.8315387E-01
       -1   -1    0    0    0  501  0.00000000000E+00  0.00000000000E+00  0.97124965691E+03  0.97124965693E+03  0.50400001928E-02 0.  1.
        1   -1    0    0  501    0  0.00000000000E+00  0.00000000000E+00 -0.19626105816E+04  0.19626105816E+04  0.50400001928E-02 0. -1.
    10030    2    1    2    0    0  0.00000000000E+00  0.00000000000E+00 -0.99136092466E+03  0.29338602385E+04  0.27612930696E+04 0.  0.
        3    1    3    3  502    0 -0.72455452826E+03 -0.10302334659E+04  0.10519274726E+03  0.12638931058E+04  0.10100000352E+00 0.  1.
       -3    1    3    3    0  502  0.72455452826E+03  0.10302334659E+04 -0.10965536719E+04  0.16699671327E+04  0.10100000352E+00 0. -1.
</event>
<event>
 5   0  0.2601252E-07  0.4002035E+04  0.7818609E-02  0.8004136E-01
       -1   -1    0    0    0  501  0.00000000000E+00  0.00000000000E+00  0.25441631330E+04  0.25441631331E+04  0.50400001928E-02 0.  1.
        1   -1    0    0  501    0  0.00000000000E+00  0.00000000000E+00 -0.15738267509E+04  0.15738267509E+04  0.50400001928E-02 0. -1.
    10030    2    1    2    0    0  0.00000000000E+00  0.00000000000E+00  0.97033638217E+03  0.41179898839E+04  0.40020354808E+04 0.  0.
        3    1    3    3  502    0 -0.24068909925E+03  0.19138158553E+04  0.10329937340E+04  0.21880809937E+04  0.10100000352E+00 0.  1.
       -3    1    3    3    0  502  0.24068909925E+03 -0.19138158553E+04 -0.62657351809E+02  0.19299088902E+04  0.10100000352E+00 0. -1.
</event>
<event>
 5   0  0.7256473E-07  0.2473069E+04  0.7818609E-02  0.8412643E-01
        2   -1    0    0  501    0  0.00000000000E+00  0.00000000000E+00  0.18108233556E+04  0.18108233556E+04  0.25500000920E-02 0.  1.
       -2   -1    0    0    0  501  0.00000000000E+00  0.00000000000E+00 -0.84437683411E+03  0.84437683411E+03  0.25500000920E-02 0. -1.
    10030    2    1    2    0    0  0.00000000000E+00  0.00000000000E+00  0.96644652154E+03  0.26552001898E+04  0.24730687756E+04 0.  0.
        4    1    3    3  502    0 -0.75489356822E+03 -0.97628377821E+03  0.56653544666E+03  0.13579242763E+04  0.12699999809E+01 0. -1.
       -4    1    3    3    0  502  0.75489356822E+03  0.97628377821E+03  0.39991107487E+03  0.12972759135E+04  0.12699999809E+01 0.  1.
</event>
<event>
 5   0  0.2401125E-07  0.3837902E+04  0.7818609E-02  0.8038070E-01
        3   -1    0    0  501    0  0.00000000000E+00  0.00000000000E+00  0.17120112340E+04  0.17120112370E+04  0.10100000352E+00 0. -1.
       -3   -1    0    0    0  501  0.00000000000E+00  0.00000000000E+00 -0.21509049309E+04  0.21509049333E+04  0.10100000352E+00 0.  1.
    10030    2    1    2    0    0  0.00000000000E+00  0.00000000000E+00 -0.43889369690E+03  0.38629161702E+04  0.38379022475E+04 0.  0.
        2    1    3    3  502    0 -0.19184471412E+04  0.32705446920E+02 -0.18985565271E+03  0.19280960165E+04  0.25500000920E-02 0. -1.
       -2    1    3    3    0  502  0.19184471412E+04 -0.32705446920E+02 -0.24903804419E+03  0.19348201537E+04  0.25500000920E-02 0.  1.
</event>
<event>
 5   0  0.2713405E-07  0.2390726E+04  0.7818609E-02  0.8442984E-01
       -1   -1    0    0    0  501  0.00000000000E+00  0.00000000000E+00  0.11451870842E+04  0.11451870842E+04  0.50400001928E-02 0. -1.
        1   -1    0    0  501    0  0.00000000000E+00  0.00000000000E+00 -0.12477370235E+04  0.12477370235E+04  0.50400001928E-02 0.  1.
    10030    2    1    2    0    0  0.00000000000E+00  0.00000000000E+00 -0.10254993930E+03  0.23929241077E+04  0.23907256838E+04 0.  0.
        1    1    3    3  502    0 -0.10168572964E+04  0.57746826251E+03 -0.29934146640E+03  0.12070930656E+04  0.50400001928E-02 0. -1.
       -1    1    3    3    0  502  0.10168572964E+04 -0.57746826251E+03  0.19679152710E+03  0.11858310422E+04  0.50400001928E-02 0.  1.
</event>
<event>
 5   0  0.7570277E-07  0.2511669E+04  0.7818609E-02  0.8398840E-01
       -2   -1    0    0    0  501  0.00000000000E+00  0.00000000000E+00  0.61675798527E+03  0.61675798527E+03  0.25500000920E-02 0.  1.
        2   -1    0    0  501    0  0.00000000000E+00  0.00000000000E+00 -0.25571141210E+04  0.25571141210E+04  0.25500000920E-02 0. -1.
    10030    2    1    2    0    0  0.00000000000E+00  0.00000000000E+00 -0.19403561357E+04  0.31738721063E+04  0.25116692086E+04 0.  0.
        5    1    3    3  502    0  0.22582865042E+03 -0.12952998042E+03  0.58227297458E+03  0.63784049895E+03  0.46999998093E+01 0.  1.
       -5    1    3    3    0  502 -0.22582865042E+03  0.12952998042E+03 -0.25226291103E+04  0.25360316073E+04  0.46999998093E+01 0. -1.
</event>
<event>
 5   0  0.2647879E-07  0.2477284E+04  0.7818609E-02  0.8411123E-01
        1   -1    0    0  501    0  0.00000000000E+00  0.00000000000E+00  0.15595614926E+04  0.15595614926E+04  0.50400001928E-02 0. -1.
       -1   -1    0    0    0  501  0.00000000000E+00  0.00000000000E+00 -0.98375954206E+03  0.98375954208E+03  0.50400001928E-02 0.  1.
    10030    2    1    2    0    0  0.00000000000E+00  0.00000000000E+00  0.57580195058E+03  0.25433210347E+04  0.24772835928E+04 0.  0.
        2    1    3    3  502    0  0.85280239883E+03  0.35956854011E+03  0.11330537827E+04  0.14630011419E+04  0.25500000920E-02 0. -1.
       -2    1    3    3    0  502 -0.85280239883E+03 -0.35956854011E+03 -0.55725183216E+03  0.10803198929E+04  0.25500000920E-02 0.  1.
</event>
<event>
 5   0  0.7570277E-07  0.3971770E+04  0.7818609E-02  0.8010266E-01
        2   -1    0    0  501    0  0.00000000000E+00  0.00000000000E+00  0.20168779124E+04  0.20168779124E+04  0.25500000920E-02 0. -1.
       -2   -1    0    0    0  501  0.00000000000E+00  0.00000000000E+00 -0.19553684141E+04  0.19553684141E+04  0.25500000920E-02 0.  1.
    10030    2    1    2    0    0  0.00000000000E+00  0.00000000000E+00  0.61509498368E+02  0.39722463265E+04  0.39717700663E+04 0.  0.
        5    1    3    3  502    0  0.13897821251E+04  0.80669951023E+02  0.14471573485E+04  0.20080558950E+04  0.46999998093E+01 0. -1.
       -5    1    3    3    0  502 -0.13897821251E+04 -0.80669951023E+02 -0.13856478501E+04  0.19641904314E+04  0.46999998093E+01 0.  1.
</event>
<event>
 5   0  0.3579559E-07  0.2584324E+04  0.7818609E-02  0.8373546E-01
        1   -1    0    0  501    0  0.00000000000E+00  0.00000000000E+00  0.25647604559E+04  0.25647604559E+04  0.50400001928E-02 0. -1.
       -1   -1    0    0    0  501  0.00000000000E+00  0.00000000000E+00 -0.65100916246E+03  0.65100916248E+03  0.50400001928E-02 0.  1.
    10030    2    1    2    0    0  0.00000000000E+00  0.00000000000E+00  0.19137512934E+04  0.32157696184E+04  0.25843239397E+04 0.  0.
        4    1    3    3  502    0  0.12006149024E+04 -0.12989749030E+03  0.38484402780E+03  0.12674604690E+04  0.12699999809E+01 0.  1.
       -4    1    3    3    0  502 -0.12006149024E+04  0.12989749030E+03  0.15289072656E+04  0.19483091494E+04  0.12699999809E+01 0. -1.
</event>
<event>
 5   0  0.2713405E-07  0.2486361E+04  0.7818609E-02  0.8407861E-01
        1   -1    0    0  501    0  0.00000000000E+00  0.00000000000E+00  0.20520817995E+04  0.20520817995E+04  0.50400001928E-02 0. -1.
       -1   -1    0    0    0  501  0.00000000000E+00  0.00000000000E+00 -0.75313670885E+03  0.75313670887E+03  0.50400001928E-02 0.  1.
    10030    2    1    2    0    0  0.00000000000E+00  0.00000000000E+00  0.12989450907E+04  0.28052185084E+04  0.24863613034E+04 0.  0.
        1    1    3    3  502    0  0.10742864114E+04 -0.62049165394E+03  0.55923467984E+03  0.13608249754E+04  0.50400001928E-02 0. -1.
       -1    1    3    3    0  502 -0.10742864114E+04  0.62049165394E+03  0.73971041083E+03  0.14443935330E+04  0.50400001928E-02 0.  1.
</event>
<event>
 5   0  0.2647879E-07  0.4051685E+04  0.7818609E-02  0.7994200E-01
        1   -1    0    0  501    0  0.00000000000E+00  0.00000000000E+00  0.27218145739E+04  0.27218145739E+04  0.50400001928E-02 0. -1.
       -1   -1    0    0    0  501  0.00000000000E+00  0.00000000000E+00 -0.15078317688E+04  0.15078317688E+04  0.50400001928E-02 0.  1.
    10030    2    1    2    0    0  0.00000000000E+00  0.00000000000E+00  0.12139828051E+04  0.42296463427E+04  0.40516853201E+04 0.  0.
        2    1    3    3  502    0  0.60204054889E+03  0.11477259462E+04 -0.10184169877E+04  0.16483024088E+04  0.25500000920E-02 0.  1.
       -2    1    3    3    0  502 -0.60204054889E+03 -0.11477259462E+04  0.22323997928E+04  0.25813439339E+04  0.25500000920E-02 0. -1.
</event>
<event>
 5   0  0.5413841E-07  0.2030151E+04  0.7818609E-02  0.8592653E-01
        2   -1    0    0  501    0  0.00000000000E+00  0.00000000000E+00  0.12957888270E+04  0.12957888270E+04  0.25500000920E-02 0.  1.
       -2   -1    0    0    0  501  0.00000000000E+00  0.00000000000E+00 -0.79517426151E+03  0.79517426151E+03  0.25500000920E-02 0. -1.
    10030    2    1    2    0    0  0.00000000000E+00  0.00000000000E+00  0.50061456544E+03  0.20909630885E+04  0.20301506580E+04 0.  0.
        1    1    3    3  502    0 -0.59829133746E+03  0.81771509454E+03  0.18708934814E+03  0.10303460217E+04  0.50400001928E-02 0. -1.
       -1    1    3    3    0  502  0.59829133746E+03 -0.81771509454E+03  0.31352521730E+03  0.10606170667E+04  0.50400001928E-02 0.  1.
</event>
<event>
 5   0  0.7570277E-07  0.4126933E+04  0.7818609E-02  0.7979418E-01
        2   -1    0    0  501    0  0.00000000000E+00  0.00000000000E+00  0.16721996661E+04  0.16721996661E+04  0.25500000920E-02 0. -1.
       -2   -1    0    0    0  501  0.00000000000E+00  0.00000000000E+00 -0.25462835067E+04  0.25462835067E+04  0.25500000920E-02 0.  1.
    10030    2    1    2    0    0  0.00000000000E+00  0.00000000000E+00 -0.87408384056E+03  0.42184831728E+04  0.41269332099E+04 0.  0.
        5    1    3    3  502    0  0.13406416904E+04  0.14748455912E+04  0.10902099925E+03  0.19960955208E+04  0.46999998093E+01 0. -1.
       -5    1    3    3    0  502 -0.13406416904E+04 -0.14748455912E+04 -0.98310483981E+03  0.22223876520E+04  0.46999998093E+01 0.  1.
</event>
<event>
 5   0  0.2713405E-07  0.3245916E+04  0.7818609E-02  0.8176795E-01
        1   -1    0    0  501    0  0.00000000000E+00  0.00000000000E+00  0.23982786052E+04  0.23982786052E+04  0.50400001928E-02 0.  1.
       -1   -1    0    0    0  501  0.00000000000E+00  0.00000000000E+00 -0.10982843515E+04  0.10982843515E+04  0.50400001928E-02 0. -1.
    10030    2    1    2    0    0  0.00000000000E+00  0.00000000000E+00  0.12999942538E+04  0.34965629567E+04  0.32459155027E+04 0.  0.
        1    1    3    3  502    0  0.90534409568E+01 -0.12393108461E+04  0.17787762686E+04  0.21679525714E+04  0.50400001928E-02 0.  1.
       -1    1    3    3    0  502 -0.90534409568E+01  0.12393108461E+04 -0.47878201485E+03  0.13286103853E+04  0.50400001928E-02 0. -1.
</event>
<event>
 5   0  0.6043512E-07  0.3941836E+04  0.7818609E-02  0.8016384E-01
        2   -1    0    0  501    0  0.00000000000E+00  0.00000000000E+00  0.15276482620E+04  0.15276482620E+04  0.25500000920E-02 0. -1.
       -2   -1    0    0    0  501  0.00000000000E+00  0.00000000000E+00 -0.25428088317E+04  0.25428088317E+04  0.25500000920E-02 0.  1.
    10030    2    1    2    0    0  0.00000000000E+00  0.00000000000E+00 -0.10151605697E+04  0.40704570938E+04  0.39418358629E+04 0.  0.
        3    1    3    3  502    0 -0.17426728338E+04 -0.19111765687E+03 -0.14375681297E+04  0.22671649041E+04  0.10100000352E+00 0.  1.
       -3    1    3    3    0  502  0.17426728338E+04  0.19111765687E+03  0.42240755995E+03  0.18032921897E+04  0.10100000352E+00 0. -1.
</event>
<event>
 5   0  0.4449262E-07  0.3678354E+04  0.7818609E-02  0.8072776E-01
       -2   -1    0    0    0  501  0.00000000000E+00  0.00000000000E+00  0.13462032203E+04  0.13462032203E+04  0.25500000920E-02 0. -1.
        2   -1    0    0  501    0  0.00000000000E+00  0.00000000000E+00 -0.25126761457E+04  0.25126761457E+04  0.25500000920E-02 0.  1.
    10030    2    1    2    0    0  0.00000000000E+00  0.00000000000E+00 -0.11664729254E+04  0.38588793660E+04  0.36783543705E+04 0.  0.
        1    1    3    3  502    0 -0.85178078148E+03 -0.64991837660E+02 -0.22919190209E+04  0.24459450601E+04  0.50400001928E-02 0.  1.
       -1    1    3    3    0  502  0.85178078148E+03  0.64991837660E+02  0.11254460955E+04  0.14129343058E+04  0.50400001928E-02 0. -1.
</event>
<event>
 5   0  0.2401125E-07  0.2081844E+04  0.7818609E-02  0.8569284E-01
       -1   -1    0    0    0  501  0.00000000000E+00  0.00000000000E+00  0.95678136719E+03  0.95678136720E+03  0.50400001928E-02 0. -1.
        1   -1    0    0  501    0  0.00000000000E+00  0.00000000000E+00 -0.11324619680E+04  0.11324619680E+04  0.50400001928E-02 0.  1.
    10030    2    1    2    0    0  0.00000000000E+00  0.00000000000E+00 -0.17568060077E+03  0.20892433352E+04  0.20818439039E+04 0.  0.
        5    1    3    3  502    0  0.71240831310E+03  0.71258395685E+03  0.17422943731E+03  0.10225847089E+04  0.46999998093E+01 0.  1.
       -5    1    3    3    0  502 -0.71240831310E+03 -0.71258395685E+03 -0.34991003808E+03  0.10666586262E+04  0.46999998093E+01 0. -1.
</event>
<event>
 5   0  0.3579559E-07  0.3032754E+04  0.7818609E-02  0.8234439E-01
       -1   -1    0    0    0  501  0.00000000000E+00  0.00000000000E+00  0.12605658304E+04  0.12605658304E+04  0.50400001928E-02 0.  1.
        1   -1    0    0  501    0  0.00000000000E+00  0.00000000000E+00 -0.18241007724E+04  0.18241007724E+04  0.50400001928E-02 0. -1.
    10030    2    1    2    0    0  0.00000000000E+00  0.00000000000E+00 -0.56353494209E+03  0.30846666028E+04  0.30327539332E+04 0.  0.
        4    1    3    3  502    0 -0.14638916208E+04 -0.12533971038E+03 -0.66330006260E+03  0.16120351443E+04  0.12699999809E+01 0. -1.
       -4    1    3    3    0  502  0.14638916208E+04  0.12533971038E+03  0.99765120518E+02  0.14726314585E+04  0.12699999809E+01 0.  1.
</event>
<event>
 5   0  0.5161550E-07  0.3486724E+04  0.7818609E-02  0.8116943E-01
        2   -1    0    0  501    0  0.00000000000E+00  0.00000000000E+00  0.19141376065E+04  0.19141376065E+04  0.25500000920E-02 0.  1.
       -2   -1    0    0    0  501  0.00000000000E+00  0.00000000000E+00 -0.15878230705E+04  0.15878230705E+04  0.25500000920E-02 0. -1.
    10030    2    1    2    0    0  0.00000000000E+00  0.00000000000E+00  0.32631453596E+03  0.35019606770E+04  0.34867244524E+04 0.  0.
        2    1    3    3  502    0 -0.76146895672E+03  0.15420003002E+04 -0.12394487566E+03  0.17242280099E+04  0.25500000920E-02 0.  1.
       -2    1    3    3    0  502  0.76146895672E+03 -0.15420003002E+04  0.45025941162E+03  0.17777326671E+04  0.25500000920E-02 0. -1.
</event>
<event>
 5   0  0.2401125E-07  0.3997802E+04  0.7818609E-02  0.8004990E-01
        1   -1    0    0  501    0  0.00000000000E+00  0.00000000000E+00  0.15245944502E+04  0.15245944502E+04  0.50400001928E-02 0. -1.
       -1   -1    0    0    0  501  0.00000000000E+00  0.00000000000E+00 -0.26207657289E+04  0.26207657289E+04  0.50400001928E-02 0.  1.
    10030    2    1    2    0    0  0.00000000000E+00  0.00000000000E+00 -0.10961712787E+04  0.41453601791E+04  0.39978018388E+04 0.  0.
        5    1    3    3  502    0  0.61989838255E+03 -0.39303892744E+03  0.13797942287E+04  0.15628844509E+04  0.46999998093E+01 0. -1.
       -5    1    3    3    0  502 -0.61989838255E+03  0.39303892744E+03 -0.24759655074E+04  0.25824757282E+04  0.46999998093E+01 0.  1.
</event>
<event>
 5   0  0.2647879E-07  0.3216409E+04  0.7818609E-02  0.8184497E-01
       -1   -1    0    0    0  501  0.00000000000E+00  0.00000000000E+00  0.14467750550E+04  0.14467750550E+04  0.50400001928E-02 0. -1.
        1   -1    0    0  501    0  0.00000000000E+00  0.00000000000E+00 -0.17876459827E+04  0.17876459827E+04  0.50400001928E-02 0.  1.
    10030    2    1    2    0    0  0.00000000000E+00  0.00000000000E+00 -0.34087092767E+03  0.32344210377E+04  0.32164089385E+04 0.  0.
        2    1    3    3  502    0 -0.27802261034E+03  0.12938864480E+04 -0.10892716203E+04  0.17140453246E+04  0.25500000920E-02 0.  1.
       -2    1    3    3    0  502  0.27802261034E+03 -0.12938864480E+04  0.74840069262E+03  0.15203757130E+04  0.25500000920E-02 0. -1.
</event>
<event>
 5   0  0.2713405E-07  0.4009600E+04  0.7818609E-02  0.8002613E-01
       -1   -1    0    0    0  501  0.00000000000E+00  0.00000000000E+00  0.22466918988E+04  0.22466918988E+04  0.50400001928E-02 0.  1.
        1   -1    0    0  501    0  0.00000000000E+00  0.00000000000E+00 -0.17889519919E+04  0.17889519919E+04  0.50400001928E-02 0. -1.
    10030    2    1    2    0    0  0.00000000000E+00  0.00000000000E+00  0.45773990695E+03  0.40356438907E+04  0.40096004527E+04 0.  0.
        1    1    3    3  502    0 -0.10389425484E+04 -0.69405672404E+03  0.18068887880E+04  0.21968075581E+04  0.50400001928E-02 0.  1.
       -1    1    3    3    0  502  0.10389425484E+04  0.69405672404E+03 -0.13491488810E+04  0.18388363326E+04  0.50400001928E-02 0. -1.
</event>
<event>
 5   0  0.2401125E-07  0.3931524E+04  0.7818609E-02  0.8018505E-01
       -1   -1    0    0    0  501  0.00000000000E+00  0.00000000000E+00  0.25859127821E+04  0.25859127821E+04  0.50400001928E-02 0.  1.
        1   -1    0    0  501    0  0.00000000000E+00  0.00000000000E+00 -0.14943348868E+04  0.14943348868E+04  0.50400001928E-02 0. -1.
    10030    2    1    2    0    0  0.00000000000E+00  0.00000000000E+00  0.10915778953E+04  0.40802476689E+04  0.39315237171E+04 0.  0.
        5    1    3    3  502    0 -0.82127327374E+02  0.57057269819E+03  0.24962163667E+04  0.25619165367E+04  0.46999998093E+01 0.  1.
       -5    1    3    3    0  502  0.82127327374E+02 -0.57057269819E+03 -0.14046384713E+04  0.15183311322E+04  0.46999998093E+01 0. -1.
</event>
<event>
 5   0  0.4449262E-07  0.4031617E+04  0.7818609E-02  0.7998199E-01
       -2   -1    0    0    0  501  0.00000000000E+00  0.00000000000E+00  0.14236693810E+04  0.14236693810E+04  0.25500000920E-02 0. -1.
        2   -1    0    0  501    0  0.00000000000E+00  0.00000000000E+00 -0.28542328979E+04  0.28542328979E+04  0.25500000920E-02 0.  1.
    10030    2    1    2    0    0  0.00000000000E+00  0.00000000000E+00 -0.14305635168E+04  0.42779022789E+04  0.40316170369E+04 0.  0.
        1    1    3    3  502    0  0.81071648323E+03  0.76787378678E+03 -0.24960754395E+04  0.27344622814E+04  0.50400001928E-02 0.  1.
       -1    1    3    3    0  502 -0.81071648323E+03 -0.76787378678E+03  0.10655119227E+04  0.15434399975E+04  0.50400001928E-02 0. -1.
</event>
<event>
 5   0  0.5161550E-07  0.3327355E+04  0.7818609E-02  0.8155970E-01
        2   -1    0    0  501    0  0.00000000000E+00  0.00000000000E+00  0.20027472861E+04  0.20027472861E+04  0.25500000920E-02 0.  1.
       -2   -1    0    0    0  501  0.00000000000E+00  0.00000000000E+00 -0.13820131365E+04  0.13820131365E+04  0.25500000920E-02 0. -1.
    10030    2    1    2    0    0  0.00000000000E+00  0.00000000000E+00  0.62073414958E+03  0.33847604225E+04  0.33273551409E+04 0.  0.
        2    1    3    3  502    0 -0.11425851884E+04  0.10385184531E+04 -0.31983836779E+03  0.15768062886E+04  0.25500000920E-02 0. -1.
       -2    1    3    3    0  502  0.11425851884E+04 -0.10385184531E+04  0.94057251737E+03  0.18079541340E+04  0.25500000920E-02 0.  1.
</event>
<event>
 5   0  0.2647879E-07  0.1978749E+04  0.7818609E-02  0.8616621E-01
        1   -1    0    0  501    0  0.00000000000E+00  0.00000000000E+00  0.15158636733E+04  0.15158636733E+04  0.50400001928E-02 0. -1.
       -1   -1    0    0    0  501  0.00000000000E+00  0.00000000000E+00 -0.64574502030E+03  0.64574502032E+03  0.50400001928E-02 0.  1.
    10030    2    1    2    0    0  0.00000000000E+00  0.00000000000E+00  0.87011865299E+03  0.21616086936E+04  0.19787485121E+04 0.  0.
        2    1    3    3  502    0 -0.44516574819E+03 -0.64524073623E+03 -0.22433895553E+03  0.81537483284E+03  0.25500000920E-02 0.  1.
       -2    1    3    3    0  502  0.44516574819E+03  0.64524073623E+03  0.10944576085E+04  0.13462338608E+04  0.25500000920E-02 0. -1.
</event>
<event>
 5   0  0.2601252E-07  0.2219074E+04  0.7818609E-02  0.8510531E-01
        1   -1    0    0  501    0  0.00000000000E+00  0.00000000000E+00  0.11971973086E+04  0.11971973086E+04  0.50400001928E-02 0. -1.
       -1   -1    0    0    0  501  0.00000000000E+00  0.00000000000E+00 -0.10282954876E+04  0.10282954876E+04  0.50400001928E-02 0.  1.
    10030    2    1    2    0    0  0.00000000000E+00  0.00000000000E+00  0.16890182101E+03  0.22254927962E+04  0.22190742126E+04 0.  0.
        3    1    3    3  502    0 -0.58274160812E+03 -0.93760098618E+03  0.19607959428E+03  0.11212183590E+04  0.10100000352E+00 0.  1.
       -3    1    3    3    0  502  0.58274160812E+03  0.93760098618E+03 -0.27177773268E+02  0.11042744372E+04  0.10100000352E+00 0. -1.
</event>
<event>
 5   0  0.4449262E-07  0.3970541E+04  0.7818609E-02  0.8010516E-01
       -2   -1    0    0    0  501  0.00000000000E+00  0.00000000000E+00  0.15194075893E+04  0.15194075893E+04  0.25500000920E-02 0. -1.
        2   -1    0    0  501    0  0.00000000000E+00  0.00000000000E+00 -0.25939712643E+04  0.25939712643E+04  0.25500000920E-02 0.  1.
    10030    2    1    2    0    0  0.00000000000E+00  0.00000000000E+00 -0.10745636750E+04  0.41133788535E+04  0.39705413360E+04 0.  0.
        1    1    3    3  502    0 -0.72228687863E+03  0.52499647935E+03 -0.23741960561E+04  0.25365580126E+04  0.50400001928E-02 0.  1.
       -1    1    3    3    0  502  0.72228687863E+03 -0.52499647935E+03  0.12996323811E+04  0.15768208409E+04  0.50400001928E-02 0. -1.
</event>
<event>
 5   0  0.2401125E-07  0.2035019E+04  0.7818609E-02  0.8590421E-01
        4   -1    0    0  501    0  0.00000000000E+00  0.00000000000E+00  0.89928039740E+03  0.89928129418E+03  0.12699999809E+01 0.  1.
       -4   -1    0    0    0  501  0.00000000000E+00  0.00000000000E+00 -0.11512799727E+04  0.11512806732E+04  0.12699999809E+01 0. -1.
    10030    2    1    2    0    0  0.00000000000E+00  0.00000000000E+00 -0.25199957533E+03  0.20505619674E+04  0.20350185739E+04 0.  0.
        3    1    3    3  502    0 -0.19185845603E+03 -0.64036698632E+03  0.64696138413E+03  0.93028951788E+03  0.10100000352E+00 0.  1.
       -3    1    3    3    0  502  0.19185845603E+03  0.64036698632E+03 -0.89896095945E+03  0.11202724495E+04  0.10100000352E+00 0. -1.
</event>
<event>
 5   0  0.4449262E-07  0.3925661E+04  0.7818609E-02  0.8019713E-01
       -2   -1    0    0    0  501  0.00000000000E+00  0.00000000000E+00  0.25719356577E+04  0.25719356577E+04  0.25500000920E-02 0. -1.
        2   -1    0    0  501    0  0.00000000000E+00  0.00000000000E+00 -0.14979784475E+04  0.14979784475E+04  0.25500000920E-02 0.  1.
    10030    2    1    2    0    0  0.00000000000E+00  0.00000000000E+00  0.10739572102E+04  0.40699141052E+04  0.39256613118E+04 0.  0.
        1    1    3    3  502    0  0.58444086393E+03  0.30534296726E+03  0.24536691974E+04  0.25407278448E+04  0.50400001928E-02 0. -1.
       -1    1    3    3    0  502 -0.58444086393E+03 -0.30534296726E+03 -0.13797119873E+04  0.15291862604E+04  0.50400001928E-02 0.  1.
</event>
<event>
 5   0  0.2488945E-07  0.1971918E+04  0.7818609E-02  0.8619864E-01
       -1   -1    0    0    0  501  0.00000000000E+00  0.00000000000E+00  0.12106256061E+04  0.12106256061E+04  0.50400001928E-02 0.  1.
        1   -1    0    0  501    0  0.00000000000E+00  0.00000000000E+00 -0.80298567965E+03  0.80298567966E+03  0.50400001928E-02 0. -1.
    10030    2    1    2    0    0  0.00000000000E+00  0.00000000000E+00  0.40763992647E+03  0.20136112858E+04  0.19719178737E+04 0.  0.
        5    1    3    3  502    0 -0.80632877157E+03  0.11018557319E+03 -0.36453243561E+03  0.89174712504E+03  0.46999998093E+01 0. -1.
       -5    1    3    3    0  502  0.80632877157E+03 -0.11018557319E+03  0.77217236208E+03  0.11218641607E+04  0.46999998093E+01 0.  1.
</event>
<event>
 5   0  0.7570277E-07  0.4105244E+04  0.7818609E-02  0.7983646E-01
       -2   -1    0    0    0  501  0.00000000000E+00  0.00000000000E+00  0.22013609303E+04  0.22013609303E+04  0.25500000920E-02 0.  1.
        2   -1    0    0  501    0  0.00000000000E+00  0.00000000000E+00 -0.19139333129E+04  0.19139333129E+04  0.25500000920E-02 0. -1.
    10030    2    1    2    0    0  0.00000000000E+00  0.00000000000E+00  0.28742761736E+03  0.41152942432E+04  0.41052444596E+04 0.  0.
        5    1    3    3  502    0 -0.13210245708E+04 -0.22027392545E+03  0.17030311236E+04  0.21665557036E+04  0.46999998093E+01 0.  1.
       -5    1    3    3    0  502  0.13210245708E+04  0.22027392545E+03 -0.14156035062E+04  0.19487385396E+04  0.46999998093E+01 0. -1.
</event>
<event>
 5   0  0.6043512E-07  0.4017701E+04  0.7818609E-02  0.8000985E-01
       -2   -1    0    0    0  501  0.00000000000E+00  0.00000000000E+00  0.20505590154E+04  0.20505590154E+04  0.25500000920E-02 0. -1.
        2   -1    0    0  501    0  0.00000000000E+00  0.00000000000E+00 -0.19679905754E+04  0.19679905754E+04  0.25500000920E-02 0.  1.
    10030    2    1    2    0    0  0.00000000000E+00  0.00000000000E+00  0.82568439985E+02  0.40185495907E+04  0.40177012415E+04 0.  0.
        3    1    3    3  502    0 -0.14274625736E+04 -0.14051382029E+04  0.19434606594E+03  0.20124197305E+04  0.10100000352E+00 0.  1.
       -3    1    3    3    0  502  0.14274625736E+04  0.14051382029E+04 -0.11177762595E+03  0.20061298602E+04  0.10100000352E+00 0. -1.
</event>
<event>
 5   0  0.3579559E-07  0.3986845E+04  0.7818609E-02  0.8007206E-01
        1   -1    0    0  501    0  0.00000000000E+00  0.00000000000E+00  0.22594219140E+04  0.22594219140E+04  0.50400001928E-02 0.  1.
       -1   -1    0    0    0  501  0.00000000000E+00  0.00000000000E+00 -0.17587390003E+04  0.17587390003E+04  0.50400001928E-02 0. -1.
    10030    2    1    2    0    0  0.00000000000E+00  0.00000000000E+00  0.50068291371E+03  0.40181609144E+04  0.39868450877E+04 0.  0.
        4    1    3    3  502    0 -0.56261329774E+03 -0.13823886688E+04 -0.10814766491E+04  0.18431292710E+04  0.12699999809E+01 0. -1.
       -4    1    3    3    0  502  0.56261329774E+03  0.13823886688E+04  0.15821595628E+04  0.21750316433E+04  0.12699999809E+01 0.  1.
</event>
<event>
 5   0  0.3579559E-07  0.1965320E+04  0.7818609E-02  0.8623009E-01
        1   -1    0    0  501    0  0.00000000000E+00  0.00000000000E+00  0.17869556594E+04  0.17869556594E+04  0.50400001928E-02 0. -1.
       -1   -1    0    0    0  501  0.00000000000E+00  0.00000000000E+00 -0.54037188699E+03  0.54037188702E+03  0.50400001928E-02 0.  1.
    10030    2    1    2    0    0  0.00000000000E+00  0.00000000000E+00  0.12465837724E+04  0.23273275465E+04  0.19653199248E+04 0.  0.
        4    1    3    3  502    0 -0.62728137951E+03  0.75408355161E+03  0.55328328861E+03  0.11261651487E+04  0.12699999809E+01 0.  1.
       -4    1    3    3    0  502  0.62728137951E+03 -0.75408355161E+03  0.69330048384E+03  0.12011623977E+04  0.12699999809E+01 0. -1.
</event>
<event>
 5   0  0.4449262E-07  0.3879773E+04  0.7818609E-02  0.8029249E-01
        2   -1    0    0  501    0  0.00000000000E+00  0.00000000000E+00  0.19455175057E+04  0.19455175057E+04  0.25500000920E-02 0.  1.
       -2   -1    0    0    0  501  0.00000000000E+00  0.00000000000E+00 -0.19342713764E+04  0.19342713764E+04  0.25500000920E-02 0. -1.
    10030    2    1    2    0    0  0.00000000000E+00  0.00000000000E+00  0.11246129317E+02  0.38797888820E+04  0.38797725827E+04 0.  0.
        1    1    3    3  502    0 -0.10680033509E+03  0.11388645137E+04  0.15723906788E+04  0.19444359436E+04  0.50400001928E-02 0.  1.
       -1    1    3    3    0  502  0.10680033509E+03 -0.11388645137E+04 -0.15611445495E+04  0.19353529384E+04  0.50400001928E-02 0. -1.
</event>
<event>
 5   0  0.2401125E-07  0.1991487E+04  0.7818609E-02  0.8610611E-01
        4   -1    0    0  501    0  0.00000000000E+00  0.00000000000E+00  0.13083292608E+04  0.13083298772E+04  0.12699999809E+01 0.  1.
       -4   -1    0    0    0  501  0.00000000000E+00  0.00000000000E+00 -0.75783924075E+03  0.75784030489E+03  0.12699999809E+01 0. -1.
    10030    2    1    2    0    0  0.00000000000E+00  0.00000000000E+00  0.55049002000E+03  0.20661701820E+04  0.19914868714E+04 0.  0.
        1    1    3    3  502    0 -0.46003320646E+02  0.96105080573E+03  0.91708669974E+01  0.96219491867E+03  0.50400001928E-02 0. -1.
       -1    1    3    3    0  502  0.46003320646E+02 -0.96105080573E+03  0.54131915301E+03  0.11039752634E+04  0.50400001928E-02 0.  1.
</event>
<event>
 5   0  0.3579559E-07  0.2288825E+04  0.7818609E-02  0.8482340E-01
       -1   -1    0    0    0  501  0.00000000000E+00  0.00000000000E+00  0.71435136895E+03  0.71435136897E+03  0.50400001928E-02 0. -1.
        1   -1    0    0  501    0  0.00000000000E+00  0.00000000000E+00 -0.18333832729E+04  0.18333832729E+04  0.50400001928E-02 0.  1.
    10030    2    1    2    0    0  0.00000000000E+00  0.00000000000E+00 -0.11190319039E+04  0.25477346418E+04  0.22888248957E+04 0.  0.
        4    1    3    3  502    0 -0.88885564767E+03 -0.22711672268E+03  0.20200058159E+03  0.93938927819E+03  0.12699999809E+01 0. -1.
       -4    1    3    3    0  502  0.88885564767E+03  0.22711672268E+03 -0.13210324855E+04  0.16083453637E+04  0.12699999809E+01 0.  1.
</event>
<event>
 5   0  0.6043512E-07  0.4006510E+04  0.7818609E-02  0.8003235E-01
       -2   -1    0    0    0  501  0.00000000000E+00  0.00000000000E+00  0.17712696492E+04  0.17712696492E+04  0.25500000920E-02 0.  1.
        2   -1    0    0  501    0  0.00000000000E+00  0.00000000000E+00 -0.22656232811E+04  0.22656232811E+04  0.25500000920E-02 0. -1.
    10030    2    1    2    0    0  0.00000000000E+00  0.00000000000E+00 -0.49435363190E+03  0.40368929304E+04  0.40065095804E+04 0.  0.
        3    1    3    3  502    0 -0.82719991046E+03  0.12700152627E+04 -0.15670078510E+04  0.21800715756E+04  0.10100000352E+00 0. -1.
       -3    1    3    3    0  502  0.82719991046E+03 -0.12700152627E+04  0.10726542191E+04  0.18568213547E+04  0.10100000352E+00 0.  1.
</event>
<event>
 5   0  0.2601252E-07  0.3992675E+04  0.7818609E-02  0.8006026E-01
       -1   -1    0    0    0  501  0.00000000000E+00  0.00000000000E+00  0.24349121267E+04  0.24349121267E+04  0.50400001928E-02 0. -1.
        1   -1    0    0  501    0  0.00000000000E+00  0.00000000000E+00 -0.16367582268E+04  0.16367582268E+04  0.50400001928E-02 0.  1.
    10030    2    1    2    0    0  0.00000000000E+00  0.00000000000E+00  0.79815389993E+03  0.40716703535E+04  0.39926745197E+04 0.  0.
        3    1    3    3  502    0  0.13529096110E+04 -0.88257718520E+03  0.15953399859E+04  0.22703340248E+04  0.10100000352E+00 0. -1.
       -3    1    3    3    0  502 -0.13529096110E+04  0.88257718520E+03 -0.79718608601E+03  0.18013363287E+04  0.10100000352E+00 0.  1.
</event>
<event>
 5   0  0.4449262E-07  0.3997233E+04  0.7818609E-02  0.8005105E-01
        2   -1    0    0  501    0  0.00000000000E+00  0.00000000000E+00  0.29819557508E+04  0.29819557508E+04  0.25500000920E-02 0.  1.
       -2   -1    0    0    0  501  0.00000000000E+00  0.00000000000E+00 -0.13395465980E+04  0.13395465980E+04  0.25500000920E-02 0. -1.
    10030    2    1    2    0    0  0.00000000000E+00  0.00000000000E+00  0.16424091528E+04  0.43215023488E+04  0.39972333840E+04 0.  0.
        1    1    3    3  502    0 -0.15880888882E+04 -0.54189811685E+03 -0.35259310452E+03  0.17146433399E+04  0.50400001928E-02 0. -1.
       -1    1    3    3    0  502  0.15880888882E+04  0.54189811685E+03  0.19950022573E+04  0.26068590089E+04  0.50400001928E-02 0.  1.
</event>
<event>
 5   0  0.7570277E-07  0.3902246E+04  0.7818609E-02  0.8024562E-01
        2   -1    0    0  501    0  0.00000000000E+00  0.00000000000E+00  0.12045986928E+04  0.12045986928E+04  0.25500000920E-02 0.  1.
       -2   -1    0    0    0  501  0.00000000000E+00  0.00000000000E+00 -0.31602899820E+04  0.31602899820E+04  0.25500000920E-02 0. -1.
    10030    2    1    2    0    0  0.00000000000E+00  0.00000000000E+00 -0.19556912892E+04  0.43648886748E+04  0.39022461127E+04 0.  0.
        5    1    3    3  502    0  0.37978532258E+03 -0.18753072690E+04 -0.14050189044E+04  0.23738396021E+04  0.46999998093E+01 0. -1.
       -5    1    3    3    0  502 -0.37978532258E+03  0.18753072690E+04 -0.55067238481E+03  0.19910490727E+04  0.46999998093E+01 0.  1.
</event>
<event>
 5   0  0.2401125E-07  0.3345565E+04  0.7818609E-02  0.8151397E-01
       -4   -1    0    0    0  501  0.00000000000E+00  0.00000000000E+00  0.22501657342E+04  0.22501660926E+04  0.12699999809E+01 0. -1.
        4   -1    0    0  501    0  0.00000000000E+00  0.00000000000E+00 -0.12435525015E+04  0.12435531500E+04  0.12699999809E+01 0.  1.
    10030    2    1    2    0    0  0.00000000000E+00  0.00000000000E+00  0.10066132327E+04  0.34937192426E+04  0.33455648172E+04 0.  0.
        5    1    3    3  502    0 -0.14328838874E+04 -0.72743650203E+03  0.98848721922E+03  0.18866502516E+04  0.46999998093E+01 0. -1.
       -5    1    3    3    0  502  0.14328838874E+04  0.72743650203E+03  0.18126013440E+02  0.16070689910E+04  0.46999998093E+01 0.  1.
</event>
<event>
 5   0  0.3579559E-07  0.2503084E+04  0.7818609E-02  0.8401888E-01
        1   -1    0    0  501    0  0.00000000000E+00  0.00000000000E+00  0.71368706150E+03  0.71368706152E+03  0.50400001928E-02 0.  1.
       -1   -1    0    0    0  501  0.00000000000E+00  0.00000000000E+00 -0.21947392553E+04  0.21947392553E+04  0.50400001928E-02 0. -1.
    10030    2    1    2    0    0  0.00000000000E+00  0.00000000000E+00 -0.14810521938E+04  0.29084263168E+04  0.25030837061E+04 0.  0.
        4    1    3    3  502    0  0.35920267740E+03 -0.89617367453E+03 -0.16658554775E+04  0.19254168129E+04  0.12699999809E+01 0. -1.
       -4    1    3    3    0  502 -0.35920267740E+03  0.89617367453E+03  0.18480328369E+03  0.98300950399E+03  0.12699999809E+01 0.  1.
</event>
<event>
 5   0  0.2647879E-07  0.3536694E+04  0.7818609E-02  0.8105149E-01
        1   -1    0    0  501    0  0.00000000000E+00  0.00000000000E+00  0.21628457666E+04  0.21628457666E+04  0.50400001928E-02 0. -1.
       -1   -1    0    0    0  501  0.00000000000E+00  0.00000000000E+00 -0.14458037186E+04  0.14458037186E+04  0.50400001928E-02 0.  1.
    10030    2    1    2    0    0  0.00000000000E+00  0.00000000000E+00  0.71704204802E+03  0.36086494852E+04  0.35366936266E+04 0.  0.
        2    1    3    3  502    0  0.15914608808E+04 -0.62474596470E+03 -0.10232647096E+03  0.17127539117E+04  0.25500000920E-02 0.  1.
       -2    1    3    3    0  502 -0.15914608808E+04  0.62474596470E+03  0.81936851897E+03  0.18958955734E+04  0.25500000920E-02 0. -1.
</event>
<event>
 5   0  0.5161550E-07  0.3412538E+04  0.7818609E-02  0.8134836E-01
       -2   -1    0    0    0  501  0.00000000000E+00  0.00000000000E+00  0.19580113306E+04  0.19580113306E+04  0.25500000920E-02 0.  1.
        2   -1    0    0  501    0  0.00000000000E+00  0.00000000000E+00 -0.14868929503E+04  0.14868929503E+04  0.25500000920E-02 0. -1.
    10030    2    1    2    0    0  0.00000000000E+00  0.00000000000E+00  0.47111838033E+03  0.34449042809E+04  0.34125376154E+04 0.  0.
        2    1    3    3  502    0 -0.15537186269E+03  0.12843416419E+04  0.13586213358E+04  0.18760399257E+04  0.25500000920E-02 0.  1.
       -2    1    3    3    0  502  0.15537186269E+03 -0.12843416419E+04 -0.88750295551E+03  0.15688643551E+04  0.25500000920E-02 0. -1.
</event>
<event>
 5   0  0.4449262E-07  0.3198559E+04  0.7818609E-02  0.8189198E-01
        2   -1    0    0  501    0  0.00000000000E+00  0.00000000000E+00  0.19522637254E+04  0.19522637254E+04  0.25500000920E-02 0.  1.
       -2   -1    0    0    0  501  0.00000000000E+00  0.00000000000E+00 -0.13101173332E+04  0.13101173332E+04  0.25500000920E-02 0. -1.
    10030    2    1    2    0    0  0.00000000000E+00  0.00000000000E+00  0.64214639221E+03  0.32623810587E+04  0.31985587665E+04 0.  0.
        1    1    3    3  502    0  0.85460358339E+03 -0.13323108901E+04  0.87829324682E+02  0.15852802853E+04  0.50400001928E-02 0.  1.
       -1    1    3    3    0  502 -0.85460358339E+03  0.13323108901E+04  0.55431706753E+03  0.16771007734E+04  0.50400001928E-02 0. -1.
</event>
<event>
 5   0  0.4449262E-07  0.2700703E+04  0.7818609E-02  0.8334777E-01
        2   -1    0    0  501    0  0.00000000000E+00  0.00000000000E+00  0.10178842907E+04  0.10178842907E+04  0.25500000920E-02 0. -1.
       -2   -1    0    0    0  501  0.00000000000E+00  0.00000000000E+00 -0.17914113571E+04  0.17914113571E+04  0.25500000920E-02 0.  1.
    10030    2    1    2    0    0  0.00000000000E+00  0.00000000000E+00 -0.77352706637E+03  0.28092956478E+04  0.27007032259E+04 0.  0.
        1    1    3    3  502    0  0.11719765725E+04  0.53064807848E+02  0.30878127390E+03  0.12131326537E+04  0.50400001928E-02 0. -1.
       -1    1    3    3    0  502 -0.11719765725E+04 -0.53064807848E+02 -0.10823083403E+04  0.15961629941E+04  0.50400001928E-02 0.  1.
</event>
<event>
 5   0  0.4449262E-07  0.2191369E+04  0.7818609E-02  0.8522029E-01
        2   -1    0    0  501    0  0.00000000000E+00  0.00000000000E+00  0.10434020766E+04  0.10434020766E+04  0.25500000920E-02 0. -1.
       -2   -1    0    0    0  501  0.00000000000E+00  0.00000000000E+00 -0.11505867859E+04  0.11505867859E+04  0.25500000920E-02 0.  1.
    10030    2    1    2    0    0  0.00000000000E+00  0.00000000000E+00 -0.10718470930E+03  0.21939888625E+04  0.21913691078E+04 0.  0.
        1    1    3    3  502    0 -0.31208941817E+03  0.29061761899E+03  0.95690420541E+03  0.10476278269E+04  0.50400001928E-02 0. -1.
       -1    1    3    3    0  502  0.31208941817E+03 -0.29061761899E+03 -0.10640889147E+04  0.11463610356E+04  0.50400001928E-02 0.  1.
</event>
<event>
 5   0  0.7256473E-07  0.3929998E+04  0.7818609E-02  0.8018819E-01
        2   -1    0    0  501    0  0.00000000000E+00  0.00000000000E+00  0.25229198387E+04  0.25229198387E+04  0.25500000920E-02 0.  1.
       -2   -1    0    0    0  501  0.00000000000E+00  0.00000000000E+00 -0.15304570476E+04  0.15304570476E+04  0.25500000920E-02 0. -1.
    10030    2    1    2    0    0  0.00000000000E+00  0.00000000000E+00  0.99246279110E+03  0.40533768862E+04  0.39299976832E+04 0.  0.
        4    1    3    3  502    0  0.73484029093E+03  0.17656843666E+04  0.30859627954E+02  0.19127429166E+04  0.12699999809E+01 0. -1.
       -4    1    3    3    0  502 -0.73484029093E+03 -0.17656843666E+04  0.96160316315E+03  0.21406339696E+04  0.12699999809E+01 0.  1.
</event>
<event>
 5   0  0.2713405E-07  0.2033969E+04  0.7818609E-02  0.8590902E-01
       -1   -1    0    0    0  501  0.00000000000E+00  0.00000000000E+00  0.46777943579E+03  0.46777943581E+03  0.50400001928E-02 0.  1.
        1   -1    0    0  501    0  0.00000000000E+00  0.00000000000E+00 -0.22109947426E+04  0.22109947426E+04  0.50400001928E-02 0. -1.
    10030    2    1    2    0    0  0.00000000000E+00  0.00000000000E+00 -0.17432153068E+04  0.26787741784E+04  0.20339693934E+04 0.  0.
        1    1    3    3  502    0  0.34807550737E+03  0.88739267846E+03 -0.40478925876E+03  0.10356044943E+04  0.50400001928E-02 0. -1.
       -1    1    3    3    0  502 -0.34807550737E+03 -0.88739267846E+03 -0.13384260481E+04  0.16431696841E+04  0.50400001928E-02 0.  1.
</event>
<event>
 5   0  0.4217213E-07  0.2205173E+04  0.7818609E-02  0.8516278E-01
       -1   -1    0    0    0  501  0.00000000000E+00  0.00000000000E+00  0.75447780368E+03  0.75447780370E+03  0.50400001928E-02 0.  1.
        1   -1    0    0  501    0  0.00000000000E+00  0.00000000000E+00 -0.16113096527E+04  0.16113096527E+04  0.50400001928E-02 0. -1.
    10030    2    1    2    0    0  0.00000000000E+00  0.00000000000E+00 -0.85683184900E+03  0.23657874564E+04  0.22051733427E+04 0.  0.
        4    1    3    3  502    0  0.74593535343E+03  0.66557733667E+02 -0.12965817185E+04  0.14973226937E+04  0.12699999809E+01 0. -1.
       -4    1    3    3    0  502 -0.74593535343E+03 -0.66557733667E+02  0.43974986950E+03  0.86846476269E+03  0.12699999809E+01 0.  1.
</event>
<event>
 5   0  0.2401125E-07  0.4011696E+04  0.7818609E-02  0.8002191E-01
        1   -1    0    0  501    0  0.00000000000E+00  0.00000000000E+00  0.20651329169E+04  0.20651329169E+04  0.50400001928E-02 0. -1.
       -1   -1    0    0    0  501  0.00000000000E+00  0.00000000000E+00 -0.19482647821E+04  0.19482647821E+04  0.50400001928E-02 0.  1.
    10030    2    1    2    0    0  0.00000000000E+00  0.00000000000E+00  0.11686813475E+03  0.40133976990E+04  0.40116957674E+04 0.  0.
        5    1    3    3  502    0  0.97712211302E+02  0.95540499166E+02 -0.19435965646E+04  0.19484007183E+04  0.46999998093E+01 0.  1.
       -5    1    3    3    0  502 -0.97712211302E+02 -0.95540499166E+02  0.20604646993E+04  0.20649969807E+04  0.46999998093E+01 0. -1.
</event>
<event>
 5   0  0.5268150E-07  0.2087922E+04  0.7818609E-02  0.8566583E-01
        1   -1    0    0  501    0  0.00000000000E+00  0.00000000000E+00  0.13945316617E+04  0.13945316617E+04  0.50400001928E-02 0. -1.
       -1   -1    0    0    0  501  0.00000000000E+00  0.00000000000E+00 -0.78151989293E+03  0.78151989295E+03  0.50400001928E-02 0.  1.
    10030    2    1    2    0    0  0.00000000000E+00  0.00000000000E+00  0.61301176876E+03  0.21760515547E+04  0.20879216795E+04 0.  0.
        4    1    3    3  502    0 -0.10353477127E+03  0.96251511673E+03 -0.10075378067E+03  0.97329735231E+03  0.12699999809E+01 0.  1.
       -4    1    3    3    0  502  0.10353477127E+03 -0.96251511673E+03  0.71376554943E+03  0.12027542023E+04  0.12699999809E+01 0. -1.
</event>
<event>
 5   0  0.2647879E-07  0.2029489E+04  0.7818609E-02  0.8592957E-01
        1   -1    0    0  501    0  0.00000000000E+00  0.00000000000E+00  0.45336544435E+03  0.45336544438E+03  0.50400001928E-02 0.  1.
       -1   -1    0    0    0  501  0.00000000000E+00  0.00000000000E+00 -0.22712496449E+04  0.22712496449E+04  0.50400001928E-02 0. -1.
    10030    2    1    2    0    0  0.00000000000E+00  0.00000000000E+00 -0.18178842006E+04  0.27246150893E+04  0.20294887086E+04 0.  0.
        2    1    3    3  502    0  0.31221317516E+03 -0.95678584349E+03 -0.73498489929E+03  0.12462419585E+04  0.25500000920E-02 0. -1.
       -2    1    3    3    0  502 -0.31221317516E+03  0.95678584349E+03 -0.10828993013E+04  0.14783731307E+04  0.25500000920E-02 0.  1.
</event>
<event>
 5   0  0.2713405E-07  0.4005234E+04  0.7818609E-02  0.8003491E-01
       -1   -1    0    0    0  501  0.00000000000E+00  0.00000000000E+00  0.18268874558E+04  0.18268874558E+04  0.50400001928E-02 0. -1.
        1   -1    0    0  501    0  0.00000000000E+00  0.00000000000E+00 -0.21952502325E+04  0.21952502325E+04  0.50400001928E-02 0.  1.
    10030    2    1    2    0    0  0.00000000000E+00  0.00000000000E+00 -0.36836277673E+03  0.40221376883E+04  0.40052341316E+04 0.  0.
        1    1    3    3  502    0  0.81904917940E+03 -0.16812042961E+04  0.53521173960E+03  0.19451840658E+04  0.50400001928E-02 0. -1.
       -1    1    3    3    0  502 -0.81904917940E+03  0.16812042961E+04 -0.90357451633E+03  0.20769536225E+04  0.50400001928E-02 0.  1.
</event>
<event>
 5   0  0.7256473E-07  0.2227261E+04  0.7818609E-02  0.8507167E-01
        2   -1    0    0  501    0  0.00000000000E+00  0.00000000000E+00  0.12913031888E+04  0.12913031888E+04  0.25500000920E-02 0.  1.
       -2   -1    0    0    0  501  0.00000000000E+00  0.00000000000E+00 -0.96040379640E+03  0.96040379641E+03  0.25500000920E-02 0. -1.
    10030    2    1    2    0    0  0.00000000000E+00  0.00000000000E+00  0.33089939240E+03  0.22517069852E+04  0.22272606357E+04 0.  0.
        4    1    3    3  502    0 -0.75042968162E+03  0.52254982122E+03 -0.47711111440E+03  0.10314260279E+04  0.12699999809E+01 0. -1.
       -4    1    3    3    0  502  0.75042968162E+03 -0.52254982122E+03  0.80801050680E+03  0.12202809573E+04  0.12699999809E+01 0.  1.
</event>
<event>
 5   0  0.7570277E-07  0.3962263E+04  0.7818609E-02  0.8012203E-01
       -2   -1    0    0    0  501  0.00000000000E+00  0.00000000000E+00  0.16210687090E+04  0.16210687090E+04  0.25500000920E-02 0. -1.
        2   -1    0    0  501    0  0.00000000000E+00  0.00000000000E+00 -0.24211698174E+04  0.24211698174E+04  0.25500000920E-02 0.  1.
    10030    2    1    2    0    0  0.00000000000E+00  0.00000000000E+00 -0.80010110841E+03  0.40422385264E+04  0.39622633079E+04 0.  0.
        5    1    3    3  502    0 -0.14300775139E+04 -0.41917826796E+03  0.93168201673E+03  0.17575225707E+04  0.46999998093E+01 0. -1.
       -5    1    3    3    0  502  0.14300775139E+04  0.41917826796E+03 -0.17317831251E+04  0.22847159558E+04  0.46999998093E+01 0.  1.
</event>
<event>
 5   0  0.2713405E-07  0.2317489E+04  0.7818609E-02  0.8471057E-01
       -1   -1    0    0    0  501  0.00000000000E+00  0.00000000000E+00  0.89804879443E+03  0.89804879444E+03  0.50400001928E-02 0.  1.
        1   -1    0    0  501    0  0.00000000000E+00  0.00000000000E+00 -0.14951178756E+04  0.14951178756E+04  0.50400001928E-02 0. -1.
    10030    2    1    2    0    0  0.00000000000E+00  0.00000000000E+00 -0.59706908120E+03  0.23931666701E+04  0.23174889909E+04 0.  0.
        1    1    3    3  502    0  0.51184260172E+03 -0.98133152103E+03  0.55734474950E+02  0.11081970650E+04  0.50400001928E-02 0.  1.
       -1    1    3    3    0  502 -0.51184260172E+03  0.98133152103E+03 -0.65280355615E+03  0.12849696051E+04  0.50400001928E-02 0. -1.
</event>
<event>
 5   0  0.6043512E-07  0.2262816E+04  0.7818609E-02  0.8492728E-01
       -2   -1    0    0    0  501  0.00000000000E+00  0.00000000000E+00  0.69393121217E+03  0.69393121217E+03  0.25500000920E-02 0.  1.
        2   -1    0    0  501    0  0.00000000000E+00  0.00000000000E+00 -0.18446843725E+04  0.18446843725E+04  0.25500000920E-02 0. -1.
    10030    2    1    2    0    0  0.00000000000E+00  0.00000000000E+00 -0.11507531604E+04  0.25386155847E+04  0.22628160002E+04 0.  0.
        3    1    3    3  502    0  0.52663203416E+03 -0.12573848922E+03 -0.16899057644E+04  0.17745233078E+04  0.10100000352E+00 0. -1.
       -3    1    3    3    0  502 -0.52663203416E+03  0.12573848922E+03  0.53915260402E+03  0.76409227695E+03  0.10100000352E+00 0.  1.
</event>
<event>
 5   0  0.7570277E-07  0.3031256E+04  0.7818609E-02  0.8234861E-01
        2   -1    0    0  501    0  0.00000000000E+00  0.00000000000E+00  0.27869853332E+04  0.27869853332E+04  0.25500000920E-02 0.  1.
       -2   -1    0    0    0  501  0.00000000000E+00  0.00000000000E+00 -0.82423416467E+03  0.82423416468E+03  0.25500000920E-02 0. -1.
    10030    2    1    2    0    0  0.00000000000E+00  0.00000000000E+00  0.19627511685E+04  0.36112194979E+04  0.30312561938E+04 0.  0.
        5    1    3    3  502    0  0.81646024050E+03  0.62987484855E+02  0.25007419490E+04  0.26314078234E+04  0.46999998093E+01 0.  1.
       -5    1    3    3    0  502 -0.81646024050E+03 -0.62987484855E+02 -0.53799078047E+03  0.97981167448E+03  0.46999998093E+01 0. -1.
</event>
<event>
 5   0  0.2601252E-07  0.3888264E+04  0.7818609E-02  0.8027475E-01
        1   -1    0    0  501    0  0.00000000000E+00  0.00000000000E+00  0.21441291663E+04  0.21441291663E+04  0.50400001928E-02 0. -1.
       -1   -1    0    0    0  501  0.00000000000E+00  0.00000000000E+00 -0.17627897260E+04  0.17627897260E+04  0.50400001928E-02 0.  1.
    10030    2    1    2    0    0  0.00000000000E+00  0.00000000000E+00  0.38133944024E+03  0.39069188923E+04  0.38882638108E+04 0.  0.
        3    1    3    3  502    0  0.11224650656E+04  0.44608741699E+03 -0.13400324719E+04  0.18040534479E+04  0.10100000352E+00 0.  1.
       -3    1    3    3    0  502 -0.11224650656E+04 -0.44608741699E+03  0.17213719121E+04  0.21028654444E+04  0.10100000352E+00 0. -1.
</event>
<event>
 5   0  0.2601252E-07  0.3763516E+04  0.7818609E-02  0.8054030E-01
       -1   -1    0    0    0  501  0.00000000000E+00  0.00000000000E+00  0.23714409446E+04  0.23714409446E+04  0.50400001928E-02 0. -1.
        1   -1    0    0  501    0  0.00000000000E+00  0.00000000000E+00 -0.14931907978E+04  0.14931907979E+04  0.50400001928E-02 0.  1.
    10030    2    1    2    0    0  0.00000000000E+00  0.00000000000E+00  0.87825014674E+03  0.38646317424E+04  0.37635163324E+04 0.  0.
        3    1    3    3  502    0  0.14263420967E+04  0.12272385545E+04  0.41740156696E+03  0.19273791337E+04  0.10100000352E+00 0. -1.
       -3    1    3    3    0  502 -0.14263420967E+04 -0.12272385545E+04  0.46084857978E+03  0.19372526088E+04  0.10100000352E+00 0.  1.
</event>
<event>
 5   0  0.2401125E-07  0.3926535E+04  0.7818609E-02  0.8019533E-01
        1   -1    0    0  501    0  0.00000000000E+00  0.00000000000E+00  0.20634844521E+04  0.20634844521E+04  0.50400001928E-02 0. -1.
       -1   -1    0    0    0  501  0.00000000000E+00  0.00000000000E+00 -0.18679174384E+04  0.18679174384E+04  0.50400001928E-02 0.  1.
    10030    2    1    2    0    0  0.00000000000E+00  0.00000000000E+00  0.19556701372E+03  0.39314018905E+04  0.39265346512E+04 0.  0.
        5    1    3    3  502    0  0.11821683739E+04 -0.41581388769E+03 -0.14153718308E+04  0.18904292536E+04  0.46999998093E+01 0.  1.
       -5    1    3    3    0  502 -0.11821683739E+04  0.41581388769E+03  0.16109388445E+04  0.20409726368E+04  0.46999998093E+01 0. -1.
</event>
<event>
 5   0  0.5161550E-07  0.3146916E+04  0.7818609E-02  0.8202979E-01
       -2   -1    0    0    0  501  0.00000000000E+00  0.00000000000E+00  0.11779802593E+04  0.11779802593E+04  0.25500000920E-02 0.  1.
        2   -1    0    0  501    0  0.00000000000E+00  0.00000000000E+00 -0.21017073511E+04  0.21017073511E+04  0.25500000920E-02 0. -1.
    10030    2    1    2    0    0  0.00000000000E+00  0.00000000000E+00 -0.92372709172E+03  0.32796876104E+04  0.31469158047E+04 0.  0.
        2    1    3    3  502    0  0.36391570374E+02 -0.31474285962E+03  0.11443900718E+04  0.11874409672E+04  0.25500000920E-02 0.  1.
       -2    1    3    3    0  502 -0.36391570374E+02  0.31474285962E+03 -0.20681171635E+04  0.20922466432E+04  0.25500000920E-02 0. -1.
</event>
<event>
 5   0  0.5161550E-07  0.3563649E+04  0.7818609E-02  0.8098870E-01
       -2   -1    0    0    0  501  0.00000000000E+00  0.00000000000E+00  0.15563565666E+04  0.15563565666E+04  0.25500000920E-02 0.  1.
        2   -1    0    0  501    0  0.00000000000E+00  0.00000000000E+00 -0.20399553569E+04  0.20399553569E+04  0.25500000920E-02 0. -1.
    10030    2    1    2    0    0  0.00000000000E+00  0.00000000000E+00 -0.48359879025E+03  0.35963119235E+04  0.35636486445E+04 0.  0.
        2    1    3    3  502    0  0.15758019123E+04  0.86271465609E+02  0.59300908014E+03  0.16858986333E+04  0.25500000920E-02 0.  1.
       -2    1    3    3    0  502 -0.15758019123E+04 -0.86271465609E+02 -0.10766078704E+04  0.19104132902E+04  0.25500000920E-02 0. -1.
</event>
<event>
 5   0  0.4449262E-07  0.4051210E+04  0.7818609E-02  0.7994295E-01
        2   -1    0    0  501    0  0.00000000000E+00  0.00000000000E+00  0.22421757347E+04  0.22421757347E+04  0.25500000920E-02 0. -1.
       -2   -1    0    0    0  501  0.00000000000E+00  0.00000000000E+00 -0.18299531417E+04  0.18299531417E+04  0.25500000920E-02 0.  1.
    10030    2    1    2    0    0  0.00000000000E+00  0.00000000000E+00  0.41222259296E+03  0.40721288764E+04  0.40512104512E+04 0.  0.
        1    1    3    3  502    0  0.52131937848E+03  0.14091867611E+04  0.15716159438E+04  0.21742948045E+04  0.50400001928E-02 0. -1.
       -1    1    3    3    0  502 -0.52131937848E+03 -0.14091867611E+04 -0.11593933509E+04  0.18978340718E+04  0.50400001928E-02 0.  1.
</event>
<event>
 5   0  0.7256473E-07  0.3643101E+04  0.7818609E-02  0.8080690E-01
        2   -1    0    0  501    0  0.00000000000E+00  0.00000000000E+00  0.19953174923E+04  0.19953174923E+04  0.25500000920E-02 0. -1.
       -2   -1    0    0    0  501  0.00000000000E+00  0.00000000000E+00 -0.16629167168E+04  0.16629167168E+04  0.25500000920E-02 0.  1.
    10030    2    1    2    0    0  0.00000000000E+00  0.00000000000E+00  0.33240077549E+03  0.36582342090E+04  0.36431013234E+04 0.  0.
        4    1    3    3  502    0  0.17897315466E+04 -0.29317462535E+03  0.33706840115E+03  0.18446428082E+04  0.12699999809E+01 0. -1.
       -4    1    3    3    0  502 -0.17897315466E+04  0.29317462535E+03 -0.46676256591E+01  0.18135914009E+04  0.12699999809E+01 0.  1.
</event>
<event>
 5   0  0.3579559E-07  0.3991987E+04  0.7818609E-02  0.8006165E-01
        1   -1    0    0  501    0  0.00000000000E+00  0.00000000000E+00  0.22318666307E+04  0.22318666307E+04  0.50400001928E-02 0. -1.
       -1   -1    0    0    0  501  0.00000000000E+00  0.00000000000E+00 -0.17850484029E+04  0.17850484029E+04  0.50400001928E-02 0.  1.
    10030    2    1    2    0    0  0.00000000000E+00  0.00000000000E+00  0.44681822780E+03  0.40169150337E+04  0.39919869563E+04 0.  0.
        4    1    3    3  502    0  0.18473129450E+04  0.61742225624E+03 -0.21544848348E+03  0.19596415543E+04  0.12699999809E+01 0.  1.
       -4    1    3    3    0  502 -0.18473129450E+04 -0.61742225624E+03  0.66226671128E+03  0.20572734794E+04  0.12699999809E+01 0. -1.
</event>
<event>
 5   0  0.7256473E-07  0.3971936E+04  0.7818609E-02  0.8010232E-01
        2   -1    0    0  501    0  0.00000000000E+00  0.00000000000E+00  0.15873144664E+04  0.15873144664E+04  0.25500000920E-02 0.  1.
       -2   -1    0    0    0  501  0.00000000000E+00  0.00000000000E+00 -0.24847432086E+04  0.24847432086E+04  0.25500000920E-02 0. -1.
    10030    2    1    2    0    0  0.00000000000E+00  0.00000000000E+00 -0.89742874227E+03  0.40720576750E+04  0.39719359714E+04 0.  0.
        4    1    3    3  502    0  0.18052098849E+04 -0.72180643914E+03 -0.33182843932E+02  0.19444510737E+04  0.12699999809E+01 0.  1.
       -4    1    3    3    0  502 -0.18052098849E+04  0.72180643914E+03 -0.86424589833E+03  0.21276066013E+04  0.12699999809E+01 0. -1.
</event>
<event>
 5   0  0.2647879E-07  0.2469636E+04  0.7818609E-02  0.8413883E-01
        1   -1    0    0  501    0  0.00000000000E+00  0.00000000000E+00  0.26292163465E+04  0.26292163465E+04  0.50400001928E-02 0.  1.
       -1   -1    0    0    0  501  0.00000000000E+00  0.00000000000E+00 -0.57993542846E+03  0.57993542848E+03  0.50400001928E-02 0. -1.
    10030    2    1    2    0    0  0.00000000000E+00  0.00000000000E+00  0.20492809181E+04  0.32091517750E+04  0.24696361744E+04 0.  0.
        2    1    3    3  502    0 -0.36503376766E+03  0.74770978955E+03 -0.16095890201E+03  0.84748294913E+03  0.25500000920E-02 0. -1.
       -2    1    3    3    0  502  0.36503376766E+03 -0.74770978955E+03  0.22102398201E+04  0.23616688259E+04  0.25500000920E-02 0.  1.
</event>
<event>
 5   0  0.7256473E-07  0.3976417E+04  0.7818609E-02  0.8009321E-01
        2   -1    0    0  501    0  0.00000000000E+00  0.00000000000E+00  0.25319715979E+04  0.25319715979E+04  0.25500000920E-02 0. -1.
       -2   -1    0    0    0  501  0.00000000000E+00  0.00000000000E+00 -0.15612235184E+04  0.15612235184E+04  0.25500000920E-02 0.  1.
    10030    2    1    2    0    0  0.00000000000E+00  0.00000000000E+00  0.97074807953E+03  0.40931951163E+04  0.39764172852E+04 0.  0.
        4    1    3    3  502    0 -0.86898080720E+03  0.49180930661E+03  0.22551584096E+04  0.24663221814E+04  0.12699999809E+01 0. -1.
       -4    1    3    3    0  502  0.86898080720E+03 -0.49180930661E+03 -0.12844103300E+04  0.16268729349E+04  0.12699999809E+01 0.  1.
</event>
<event>
 5   0  0.2713405E-07  0.2980785E+04  0.7818609E-02  0.8249239E-01
        1   -1    0    0  501    0  0.00000000000E+00  0.00000000000E+00  0.19516732809E+04  0.19516732809E+04  0.50400001928E-02 0. -1.
       -1   -1    0    0    0  501  0.00000000000E+00  0.00000000000E+00 -0.11381361470E+04  0.11381361470E+04  0.50400001928E-02 0.  1.
    10030    2    1    2    0    0  0.00000000000E+00  0.00000000000E+00  0.81353713389E+03  0.30898094279E+04  0.29807850699E+04 0.  0.
        1    1    3    3  502    0 -0.59017366157E+03 -0.13246385906E+04  0.76329269667E+03  0.16387763994E+04  0.50400001928E-02 0.  1.
       -1    1    3    3    0  502  0.59017366157E+03  0.13246385906E+04  0.50244437226E+02  0.14510330285E+04  0.50400001928E-02 0. -1.
</event>
<event>
 5   0  0.4449262E-07  0.3732887E+04  0.7818609E-02  0.8060712E-01
       -2   -1    0    0    0  501  0.00000000000E+00  0.00000000000E+00  0.18662702906E+04  0.18662702906E+04  0.25500000920E-02 0.  1.
        2   -1    0    0  501    0  0.00000000000E+00  0.00000000000E+00 -0.18666170611E+04  0.18666170611E+04  0.25500000920E-02 0. -1.
    10030    2    1    2    0    0  0.00000000000E+00  0.00000000000E+00 -0.34677042900E+00  0.37328873517E+04  0.37328873356E+04 0.  0.
        1    1    3    3  502    0 -0.16109319556E+03 -0.17499367597E+04  0.62862092776E+03  0.18663852634E+04  0.50400001928E-02 0.  1.
       -1    1    3    3    0  502  0.16109319556E+03  0.17499367597E+04 -0.62896769819E+03  0.18665020884E+04  0.50400001928E-02 0. -1.
</event>
<event>
 5   0  0.2601252E-07  0.2267433E+04  0.7818609E-02  0.8490874E-01
       -1   -1    0    0    0  501  0.00000000000E+00  0.00000000000E+00  0.72452630164E+03  0.72452630166E+03  0.50400001928E-02 0. -1.
        1   -1    0    0  501    0  0.00000000000E+00  0.00000000000E+00 -0.17740051754E+04  0.17740051755E+04  0.50400001928E-02 0.  1.
    10030    2    1    2    0    0  0.00000000000E+00  0.00000000000E+00 -0.10494788738E+04  0.24985314771E+04  0.22674332704E+04 0.  0.
        3    1    3    3  502    0 -0.19820603433E+03 -0.80325260015E+03  0.32938270533E+03  0.89050173973E+03  0.10100000352E+00 0. -1.
       -3    1    3    3    0  502  0.19820603433E+03  0.80325260015E+03 -0.13788615791E+04  0.16080297374E+04  0.10100000352E+00 0.  1.
</event>
<event>
 5   0  0.7256473E-07  0.4139891E+04  0.7818609E-02  0.7976906E-01
        2   -1    0    0  501    0  0.00000000000E+00  0.00000000000E+00  0.13848529286E+04  0.13848529286E+04  0.25500000920E-02 0. -1.
       -2   -1    0    0    0  501  0.00000000000E+00  0.00000000000E+00 -0.30939559274E+04  0.30939559274E+04  0.25500000920E-02 0.  1.
    10030    2    1    2    0    0  0.00000000000E+00  0.00000000000E+00 -0.17091029988E+04  0.44788088560E+04  0.41398907845E+04 0.  0.
        4    1    3    3  502    0 -0.13391748187E+04  0.14214118254E+04 -0.15969291109E+04  0.25226939906E+04  0.12699999809E+01 0. -1.
       -4    1    3    3    0  502  0.13391748187E+04 -0.14214118254E+04 -0.11217388796E+03  0.19561148653E+04  0.12699999809E+01 0.  1.
</event>
<event>
 5   0  0.4449262E-07  0.3871453E+04  0.7818609E-02  0.8030993E-01
       -2   -1    0    0    0  501  0.00000000000E+00  0.00000000000E+00  0.13732897735E+04  0.13732897735E+04  0.25500000920E-02 0.  1.
        2   -1    0    0  501    0  0.00000000000E+00  0.00000000000E+00 -0.27285115410E+04  0.27285115410E+04  0.25500000920E-02 0. -1.
    10030    2    1    2    0    0  0.00000000000E+00  0.00000000000E+00 -0.13552217675E+04  0.41018013144E+04  0.38714529552E+04 0.  0.
        1    1    3    3  502    0  0.76389934824E+03  0.13171422594E+04 -0.19439810662E+04  0.24693052325E+04  0.50400001928E-02 0. -1.
       -1    1    3    3    0  502 -0.76389934824E+03 -0.13171422594E+04  0.58875929867E+03  0.16324960819E+04  0.50400001928E-02 0.  1.
</event>
<event>
 5   0  0.2401125E-07  0.3739875E+04  0.7818609E-02  0.8059182E-01
        1   -1    0    0  501    0  0.00000000000E+00  0.00000000000E+00  0.12166177541E+04  0.12166177541E+04  0.50400001928E-02 0.  1.
       -1   -1    0    0    0  501  0.00000000000E+00  0.00000000000E+00 -0.28740870653E+04  0.28740870653E+04  0.50400001928E-02 0. -1.
    10030    2    1    2    0    0  0.00000000000E+00  0.00000000000E+00 -0.16574693112E+04  0.40907048195E+04  0.37398745169E+04 0.  0.
        5    1    3    3  502    0 -0.18294502396E+04 -0.38308029289E+03 -0.76877870071E+03  0.20210594921E+04  0.46999998093E+01 0.  1.
       -5    1    3    3    0  502  0.18294502396E+04  0.38308029289E+03 -0.88869061048E+03  0.20696453274E+04  0.46999998093E+01 0. -1.
</event>
<event>
 5   0  0.2647879E-07  0.4124124E+04  0.7818609E-02  0.7979964E-01
        1   -1    0    0  501    0  0.00000000000E+00  0.00000000000E+00  0.24057269916E+04  0.24057269916E+04  0.50400001928E-02 0. -1.
       -1   -1    0    0    0  501  0.00000000000E+00  0.00000000000E+00 -0.17674909423E+04  0.17674909423E+04  0.50400001928E-02 0.  1.
    10030    2    1    2    0    0  0.00000000000E+00  0.00000000000E+00  0.63823604935E+03  0.41732179339E+04  0.41241244730E+04 0.  0.
        2    1    3    3  502    0  0.53216371934E+03  0.11115336348E+04 -0.13538611383E+04  0.18307499084E+04  0.25500000920E-02 0.  1.
       -2    1    3    3    0  502 -0.53216371934E+03 -0.11115336348E+04  0.19920971876E+04  0.23424680255E+04  0.25500000920E-02 0. -1.
</event>
<event>
 5   0  0.7570277E-07  0.2513222E+04  0.7818609E-02  0.8398290E-01
        2   -1    0    0  501    0  0.00000000000E+00  0.00000000000E+00  0.17056229292E+04  0.17056229292E+04  0.25500000920E-02 0.  1.
       -2   -1    0    0    0  501  0.00000000000E+00  0.00000000000E+00 -0.92580307781E+03  0.92580307781E+03  0.25500000920E-02 0. -1.
    10030    2    1    2    0    0  0.00000000000E+00  0.00000000000E+00  0.77981985136E+03  0.26314260070E+04  0.25132218027E+04 0.  0.
        5    1    3    3  502    0 -0.96312732474E+03 -0.43929096131E+03  0.10988510297E+04  0.15258068252E+04  0.46999998093E+01 0.  1.
       -5    1    3    3    0  502  0.96312732474E+03  0.43929096131E+03 -0.31903117835E+03  0.11056191818E+04  0.46999998093E+01 0. -1.
</event>
<event>
 5   0  0.7256473E-07  0.2686866E+04  0.7818609E-02  0.8339279E-01
        2   -1    0    0  501    0  0.00000000000E+00  0.00000000000E+00  0.19969460674E+04  0.19969460674E+04  0.25500000920E-02 0.  1.
       -2   -1    0    0    0  501  0.00000000000E+00  0.00000000000E+00 -0.90378626309E+03  0.90378626310E+03  0.25500000920E-02 0. -1.
    10030    2    1    2    0    0  0.00000000000E+00  0.00000000000E+00  0.10931598043E+04  0.29007323305E+04  0.26868661476E+04 0.  0.
        4    1    3    3  502    0 -0.39886647058E+03  0.58002853524E+03  0.17818969345E+04  0.19159034060E+04  0.12699999809E+01 0.  1.
       -4    1    3    3    0  502  0.39886647058E+03 -0.58002853524E+03 -0.68873713021E+03  0.98482892447E+03  0.12699999809E+01 0. -1.
</event>
<event>
 5   0  0.4449262E-07  0.2634715E+04  0.7818609E-02  0.8356504E-01
       -2   -1    0    0    0  501  0.00000000000E+00  0.00000000000E+00  0.12967744201E+04  0.12967744201E+04  0.25500000920E-02 0. -1.
        2   -1    0    0  501    0  0.00000000000E+00  0.00000000000E+00 -0.13382674076E+04  0.13382674076E+04  0.25500000920E-02 0.  1.
    10030    2    1    2    0    0  0.00000000000E+00  0.00000000000E+00 -0.41492987412E+02  0.26350418277E+04  0.26347151204E+04 0.  0.
        1    1    3    3  502    0  0.70848544970E+03 -0.10678401136E+04 -0.32606585942E+03  0.13223286602E+04  0.50400001928E-02 0.  1.
       -1    1    3    3    0  502 -0.70848544970E+03  0.10678401136E+04  0.28457287201E+03  0.13127131676E+04  0.50400001928E-02 0. -1.
</event>
<event>
 5   0  0.3579559E-07  0.3981928E+04  0.7818609E-02  0.8008202E-01
       -1   -1    0    0    0  501  0.00000000000E+00  0.00000000000E+00  0.21438502028E+04  0.21438502028E+04  0.50400001928E-02 0. -1.
        1   -1    0    0  501    0  0.00000000000E+00  0.00000000000E+00 -0.18489803824E+04  0.18489803824E+04  0.50400001928E-02 0.  1.
    10030    2    1    2    0    0  0.00000000000E+00  0.00000000000E+00  0.29486982043E+03  0.39928305852E+04  0.39819276577E+04 0.  0.
        4    1    3    3  502    0  0.16056725986E+04  0.11615290636E+04  0.33927287568E+03  0.20105824918E+04  0.12699999809E+01 0.  1.
       -4    1    3    3    0  502 -0.16056725986E+04 -0.11615290636E+04 -0.44403055248E+02  0.19822480933E+04  0.12699999809E+01 0. -1.
</event>
<event>
 5   0  0.6043512E-07  0.3860564E+04  0.7818609E-02  0.8033282E-01
        2   -1    0    0  501    0  0.00000000000E+00  0.00000000000E+00  0.23308257792E+04  0.23308257792E+04  0.25500000920E-02 0. -1.
       -2   -1    0    0    0  501  0.00000000000E+00  0.00000000000E+00 -0.15985699094E+04  0.15985699094E+04  0.25500000920E-02 0.  1.
    10030    2    1    2    0    0  0.00000000000E+00  0.00000000000E+00  0.73225586986E+03  0.39293956886E+04  0.38605636659E+04 0.  0.
        3    1    3    3  502    0 -0.86559222575E+03  0.27686849628E+03 -0.13671977604E+04  0.16416868738E+04  0.10100000352E+00 0.  1.
       -3    1    3    3    0  502  0.86559222575E+03 -0.27686849628E+03  0.20994536302E+04  0.22877088148E+04  0.10100000352E+00 0. -1.
</event>
<event>
 5   0  0.2647879E-07  0.3965849E+04  0.7818609E-02  0.8011472E-01
        1   -1    0    0  501    0  0.00000000000E+00  0.00000000000E+00  0.12891176775E+04  0.12891176775E+04  0.50400001928E-02 0. -1.
       -1   -1    0    0    0  501  0.00000000000E+00  0.00000000000E+00 -0.30501400738E+04  0.30501400738E+04  0.50400001928E-02 0.  1.
    10030    2    1    2    0    0  0.00000000000E+00  0.00000000000E+00 -0.17610223963E+04  0.43392577513E+04  0.39658489573E+04 0.  0.
        2    1    3    3  502    0  0.11082121530E+04 -0.11825906134E+04  0.36957577235E+03  0.16622999087E+04  0.25500000920E-02 0. -1.
       -2    1    3    3    0  502 -0.11082121530E+04  0.11825906134E+04 -0.21305981687E+04  0.26769578426E+04  0.25500000920E-02 0.  1.
</event>
<event>
 5   0  0.2601252E-07  0.3931149E+04  0.7818609E-02  0.8018582E-01
       -1   -1    0    0    0  501  0.00000000000E+00  0.00000000000E+00  0.24777078254E+04  0.24777078255E+04  0.50400001928E-02 0. -1.
        1   -1    0    0  501    0  0.00000000000E+00  0.00000000000E+00 -0.15592971022E+04  0.15592971022E+04  0.50400001928E-02 0.  1.
    10030    2    1    2    0    0  0.00000000000E+00  0.00000000000E+00  0.91841072323E+03  0.40370049277E+04  0.39311487544E+04 0.  0.
        3    1    3    3  502    0 -0.74787290975E+03  0.16008334968E+04 -0.42508649953E+03  0.18173277954E+04  0.10100000352E+00 0.  1.
       -3    1    3    3    0  502  0.74787290975E+03 -0.16008334968E+04  0.13434972228E+04  0.22196771323E+04  0.10100000352E+00 0. -1.
</event>
<event>
 5   0  0.2401125E-07  0.2771310E+04  0.7818609E-02  0.8312231E-01
       -1   -1    0    0    0  501  0.00000000000E+00  0.00000000000E+00  0.85487165040E+03  0.85487165042E+03  0.50400001928E-02 0. -1.
        1   -1    0    0  501    0  0.00000000000E+00  0.00000000000E+00 -0.22459975961E+04  0.22459975962E+04  0.50400001928E-02 0.  1.
    10030    2    1    2    0    0  0.00000000000E+00  0.00000000000E+00 -0.13911259457E+04  0.31008692466E+04  0.27713099227E+04 0.  0.
        5    1    3    3  502    0 -0.14427246039E+02 -0.72425028235E+03  0.62612103610E+03  0.95749478263E+03  0.46999998093E+01 0. -1.
       -5    1    3    3    0  502  0.14427246039E+02  0.72425028235E+03 -0.20172469818E+04  0.21433744639E+04  0.46999998093E+01 0.  1.
</event>
<event>
 5   0  0.9160103E-07  0.2035502E+04  0.7818609E-02  0.8590200E-01
       -2   -1    0    0    0  501  0.00000000000E+00  0.00000000000E+00  0.67034606568E+03  0.67034606568E+03  0.25500000920E-02 0. -1.
        2   -1    0    0  501    0  0.00000000000E+00  0.00000000000E+00 -0.15451970957E+04  0.15451970957E+04  0.25500000920E-02 0.  1.
    10030    2    1    2    0    0  0.00000000000E+00  0.00000000000E+00 -0.87485102998E+03  0.22155431613E+04  0.20355017011E+04 0.  0.
        5    1    3    3  502    0  0.52827199364E+03 -0.71798989144E+01 -0.13842348586E+04  0.14816379733E+04  0.46999998093E+01 0.  1.
       -5    1    3    3    0  502 -0.52827199364E+03  0.71798989144E+01  0.50938382860E+03  0.73390518805E+03  0.46999998093E+01 0. -1.
</event>
<event>
 5   0  0.2401125E-07  0.3927419E+04  0.7818609E-02  0.8019351E-01
       -1   -1    0    0    0  501  0.00000000000E+00  0.00000000000E+00  0.17539155510E+04  0.17539155510E+04  0.50400001928E-02 0. -1.
        1   -1    0    0  501    0  0.00000000000E+00  0.00000000000E+00 -0.21985982181E+04  0.21985982181E+04  0.50400001928E-02 0.  1.
    10030    2    1    2    0    0  0.00000000000E+00  0.00000000000E+00 -0.44468266710E+03  0.39525137692E+04  0.39274193080E+04 0.  0.
        5    1    3    3  502    0  0.13388923666E+04 -0.87642795274E+03  0.92307623733E+03  0.18473902012E+04  0.46999998093E+01 0. -1.
       -5    1    3    3    0  502 -0.13388923666E+04  0.87642795274E+03 -0.13677589044E+04  0.21051235679E+04  0.46999998093E+01 0.  1.
</event>
<event>
 5   0  0.7256473E-07  0.2129387E+04  0.7818609E-02  0.8548408E-01
       -2   -1    0    0    0  501  0.00000000000E+00  0.00000000000E+00  0.70121804880E+03  0.70121804880E+03  0.25500000920E-02 0.  1.
        2   -1    0    0  501    0  0.00000000000E+00  0.00000000000E+00 -0.16165753509E+04  0.16165753509E+04  0.25500000920E-02 0. -1.
    10030    2    1    2    0    0  0.00000000000E+00  0.00000000000E+00 -0.91535730208E+03  0.23177933997E+04  0.21293865908E+04 0.  0.
        4    1    3    3  502    0  0.11208802494E+03  0.94638655978E+03  0.59044138989E+02  0.95482934031E+03  0.12699999809E+01 0.  1.
       -4    1    3    3    0  502 -0.11208802494E+03 -0.94638655978E+03 -0.97440144107E+03  0.13629640594E+04  0.12699999809E+01 0. -1.
</event>
<event>
 5   0  0.3579559E-07  0.4083051E+04  0.7818609E-02  0.7987999E-01
       -1   -1    0    0    0  501  0.00000000000E+00  0.00000000000E+00  0.25253834190E+04  0.25253834190E+04  0.50400001928E-02 0.  1.
        1   -1    0    0  501    0  0.00000000000E+00  0.00000000000E+00 -0.16503734677E+04  0.16503734678E+04  0.50400001928E-02 0. -1.
    10030    2    1    2    0    0  0.00000000000E+00  0.00000000000E+00  0.87500995129E+03  0.41757568868E+04  0.40830507176E+04 0.  0.
        4    1    3    3  502    0  0.16742568676E+04 -0.65955193784E+03  0.14235960464E+04  0.22945091269E+04  0.12699999809E+01 0.  1.
       -4    1    3    3    0  502 -0.16742568676E+04  0.65955193784E+03 -0.54858609506E+03  0.18812477599E+04  0.12699999809E+01 0. -1.
</event>
<event>
 5   0  0.2713405E-07  0.2114876E+04  0.7818609E-02  0.8554718E-01
        1   -1    0    0  501    0  0.00000000000E+00  0.00000000000E+00  0.10390460957E+04  0.10390460957E+04  0.50400001928E-02 0.  1.
       -1   -1    0    0    0  501  0.00000000000E+00  0.00000000000E+00 -0.10761556035E+04  0.10761556035E+04  0.50400001928E-02 0. -1.
    10030    2    1    2    0    0  0.00000000000E+00  0.00000000000E+00 -0.37109507834E+02  0.21152016992E+04  0.21148761460E+04 0.  0.
        1    1    3    3  502    0  0.86147079668E+03 -0.54732368084E+03  0.25803823361E+03  0.10527482487E+04  0.50400001928E-02 0.  1.
       -1    1    3    3    0  502 -0.86147079668E+03  0.54732368084E+03 -0.29514774145E+03  0.10624534505E+04  0.50400001928E-02 0. -1.
</event>
<event>
 5   0  0.5161550E-07  0.2934748E+04  0.7818609E-02  0.8262613E-01
       -2   -1    0    0    0  501  0.00000000000E+00  0.00000000000E+00  0.12193270624E+04  0.12193270624E+04  0.25500000920E-02 0.  1.
        2   -1    0    0  501    0  0.00000000000E+00  0.00000000000E+00 -0.17658805847E+04  0.17658805847E+04  0.25500000920E-02 0. -1.
    10030    2    1    2    0    0  0.00000000000E+00  0.00000000000E+00 -0.54655352235E+03  0.29852076471E+04  0.29347476797E+04 0.  0.
        2    1    3    3  502    0 -0.17831647676E+03  0.12526554846E+04 -0.10291849794E+04  0.16310009966E+04  0.25500000920E-02 0. -1.
       -2    1    3    3    0  502  0.17831647676E+03 -0.12526554846E+04  0.48263145707E+03  0.13542066506E+04  0.25500000920E-02 0.  1.
</event>
<event>
 5   0  0.5161550E-07  0.3910661E+04  0.7818609E-02  0.8022816E-01
       -2   -1    0    0    0  501  0.00000000000E+00  0.00000000000E+00  0.15317561944E+04  0.15317561945E+04  0.25500000920E-02 0.  1.
        2   -1    0    0  501    0  0.00000000000E+00  0.00000000000E+00 -0.24960347068E+04  0.24960347068E+04  0.25500000920E-02 0. -1.
    10030    2    1    2    0    0  0.00000000000E+00  0.00000000000E+00 -0.96427851231E+03  0.40277909012E+04  0.39106606212E+04 0.  0.
        2    1    3    3  502    0  0.96904375793E+03 -0.12369977161E+04  0.71637541628E+03  0.17269634887E+04  0.25500000920E-02 0.  1.
       -2    1    3    3    0  502 -0.96904375793E+03  0.12369977161E+04 -0.16806539286E+04  0.23008274125E+04  0.25500000920E-02 0. -1.
</event>
<event>
 5   0  0.2601252E-07  0.3512501E+04  0.7818609E-02  0.8110834E-01
       -1   -1    0    0    0  501  0.00000000000E+00  0.00000000000E+00  0.15420203118E+04  0.15420203118E+04  0.50400001928E-02 0.  1.
        1   -1    0    0  501    0  0.00000000000E+00  0.00000000000E+00 -0.20002433422E+04  0.20002433422E+04  0.50400001928E-02 0. -1.
    10030    2    1    2    0    0  0.00000000000E+00  0.00000000000E+00 -0.45822303038E+03  0.35422636541E+04  0.35125010248E+04 0.  0.
        3    1    3    3  502    0  0.48467908512E+03 -0.16594292446E+04  0.83021360644E+02  0.17307546879E+04  0.10100000352E+00 0.  1.
       -3    1    3    3    0  502 -0.48467908512E+03  0.16594292446E+04 -0.54124439103E+03  0.18115089661E+04  0.10100000352E+00 0. -1.
</event>
<event>
 5   0  0.7256473E-07  0.3981551E+04  0.7818609E-02  0.8008279E-01
        2   -1    0    0  501    0  0.00000000000E+00  0.00000000000E+00  0.24829360510E+04  0.24829360510E+04  0.25500000920E-02 0.  1.
       -2   -1    0    0    0  501  0.00000000000E+00  0.00000000000E+00 -0.15961694196E+04  0.15961694196E+04  0.25500000920E-02 0. -1.
    10030    2    1    2    0    0  0.00000000000E+00  0.00000000000E+00  0.88676663144E+03  0.40791054707E+04  0.39815507509E+04 0.  0.
        4    1    3    3  502    0 -0.98904425109E+03 -0.44407344275E+03  0.21539560934E+04  0.24114183002E+04  0.12699999809E+01 0.  1.
       -4    1    3    3    0  502  0.98904425109E+03  0.44407344275E+03 -0.12671894620E+04  0.16676871705E+04  0.12699999809E+01 0. -1.
</event>
<event>
 5   0  0.7570277E-07  0.3844950E+04  0.7818609E-02  0.8036577E-01
        2   -1    0    0  501    0  0.00000000000E+00  0.00000000000E+00  0.25952098713E+04  0.25952098713E+04  0.25500000920E-02 0.  1.
       -2   -1    0    0    0  501  0.00000000000E+00  0.00000000000E+00 -0.14241276351E+04  0.14241276351E+04  0.25500000920E-02 0. -1.
    10030    2    1    2    0    0  0.00000000000E+00  0.00000000000E+00  0.11710822362E+04  0.40193375064E+04  0.38449499849E+04 0.  0.
        5    1    3    3  502    0  0.11715471558E+03  0.12161219847E+04 -0.96610163532E+03  0.15575790089E+04  0.46999998093E+01 0. -1.
       -5    1    3    3    0  502 -0.11715471558E+03 -0.12161219847E+04  0.21371838715E+04  0.24617584975E+04  0.46999998093E+01 0.  1.
</event>
<event>
 5   0  0.6043512E-07  0.4007663E+04  0.7818609E-02  0.8003002E-01
       -2   -1    0    0    0  501  0.00000000000E+00  0.00000000000E+00  0.21724079084E+04  0.21724079084E+04  0.25500000920E-02 0. -1.
        2   -1    0    0  501    0  0.00000000000E+00  0.00000000000E+00 -0.18483364488E+04  0.18483364488E+04  0.25500000920E-02 0.  1.
    10030    2    1    2    0    0  0.00000000000E+00  0.00000000000E+00  0.32407145958E+03  0.40207443572E+04  0.40076630191E+04 0.  0.
        3    1    3    3  502    0  0.19700773985E+04 -0.27245177765E+03 -0.83519750971E+02  0.19905804396E+04  0.10100000352E+00 0.  1.
       -3    1    3    3    0  502 -0.19700773985E+04  0.27245177765E+03  0.40759121055E+03  0.20301639176E+04  0.10100000352E+00 0. -1.
</event>
<event>
 5   0  0.7570277E-07  0.3758482E+04  0.7818609E-02  0.8055124E-01
        2   -1    0    0  501    0  0.00000000000E+00  0.00000000000E+00  0.16468884090E+04  0.16468884090E+04  0.25500000920E-02 0. -1.
       -2   -1    0    0    0  501  0.00000000000E+00  0.00000000000E+00 -0.21443756804E+04  0.21443756804E+04  0.25500000920E-02 0.  1.
    10030    2    1    2    0    0  0.00000000000E+00  0.00000000000E+00 -0.49748727142E+03  0.37912640893E+04  0.37584823812E+04 0.  0.
        5    1    3    3  502    0  0.59732057584E+03  0.81853492145E+03  0.13476953707E+04  0.16861483298E+04  0.46999998093E+01 0. -1.
       -5    1    3    3    0  502 -0.59732057584E+03 -0.81853492145E+03 -0.18451826422E+04  0.21051157595E+04  0.46999998093E+01 0.  1.
</event>
<event>
 5   0  0.4449262E-07  0.4093146E+04  0.7818609E-02  0.7986015E-01
       -2   -1    0    0    0  501  0.00000000000E+00  0.00000000000E+00  0.16786619059E+04  0.16786619059E+04  0.25500000920E-02 0.  1.
        2   -1    0    0  501    0  0.00000000000E+00  0.00000000000E+00 -0.24951187743E+04  0.24951187743E+04  0.25500000920E-02 0. -1.
    10030    2    1    2    0    0  0.00000000000E+00  0.00000000000E+00 -0.81645686840E+03  0.41737806802E+04  0.40931458987E+04 0.  0.
        1    1    3    3  502    0 -0.86534651716E+03  0.83835301158E+03 -0.20951464141E+04  0.24168779165E+04  0.50400001928E-02 0. -1.
       -1    1    3    3    0  502  0.86534651716E+03 -0.83835301158E+03  0.12786895457E+04  0.17569027637E+04  0.50400001928E-02 0.  1.
</event>
<event>
 5   0  0.6043512E-07  0.3600911E+04  0.7818609E-02  0.8090283E-01
        2   -1    0    0  501    0  0.00000000000E+00  0.00000000000E+00  0.20639738856E+04  0.20639738856E+04  0.25500000920E-02 0. -1.
       -2   -1    0    0    0  501  0.00000000000E+00  0.00000000000E+00 -0.15705818954E+04  0.15705818954E+04  0.25500000920E-02 0.  1.
    10030    2    1    2    0    0  0.00000000000E+00  0.00000000000E+00  0.49339199024E+03  0.36345557810E+04  0.36009110054E+04 0.  0.
        3    1    3    3  502    0 -0.58901665500E+03 -0.23737300289E+03  0.19471785770E+04  0.20481188889E+04  0.10100000352E+00 0. -1.
       -3    1    3    3    0  502  0.58901665500E+03  0.23737300289E+03 -0.14537865868E+04  0.15864368920E+04  0.10100000352E+00 0.  1.
</event>
<event>
 5   0  0.2401125E-07  0.3922674E+04  0.7818609E-02  0.8020330E-01
       -3   -1    0    0    0  501  0.00000000000E+00  0.00000000000E+00  0.23626176566E+04  0.23626176587E+04  0.10100000352E+00 0.  1.
        3   -1    0    0  501    0  0.00000000000E+00  0.00000000000E+00 -0.16282121449E+04  0.16282121481E+04  0.10100000352E+00 0. -1.
    10030    2    1    2    0    0  0.00000000000E+00  0.00000000000E+00  0.73440551163E+03  0.39908298068E+04  0.39226739721E+04 0.  0.
        1    1    3    3  502    0 -0.32052678730E+03  0.13191987453E+04 -0.10729559340E+04  0.17303922062E+04  0.50400001928E-02 0. -1.
       -1    1    3    3    0  502  0.32052678730E+03 -0.13191987453E+04  0.18073614457E+04  0.22604376006E+04  0.50400001928E-02 0.  1.
</event>
<event>
 5   0  0.5161550E-07  0.3231611E+04  0.7818609E-02  0.8180518E-01
        2   -1    0    0  501    0  0.00000000000E+00  0.00000000000E+00  0.20443625354E+04  0.20443625354E+04  0.25500000920E-02 0.  1.
       -2   -1    0    0    0  501  0.00000000000E+00  0.00000000000E+00 -0.12770866128E+04  0.12770866128E+04  0.25500000920E-02 0. -1.
    10030    2    1    2    0    0  0.00000000000E+00  0.00000000000E+00  0.76727592252E+03  0.33214491482E+04  0.32316113787E+04 0.  0.
        2    1    3    3  502    0  0.34045089913E+03 -0.68138000237E+03  0.18482588207E+04  0.19990613274E+04  0.25500000920E-02 0.  1.
       -2    1    3    3    0  502 -0.34045089913E+03  0.68138000237E+03 -0.10809828982E+04  0.13223878208E+04  0.25500000920E-02 0. -1.
</event>
<event>
 5   0  0.2401125E-07  0.4004281E+04  0.7818609E-02  0.8003684E-01
        1   -1    0    0  501    0  0.00000000000E+00  0.00000000000E+00  0.12736634645E+04  0.12736634645E+04  0.50400001928E-02 0. -1.
       -1   -1    0    0    0  501  0.00000000000E+00  0.00000000000E+00 -0.31472728647E+04  0.31472728647E+04  0.50400001928E-02 0.  1.
    10030    2    1    2    0    0  0.00000000000E+00  0.00000000000E+00 -0.18736094002E+04  0.44209363291E+04  0.40042809394E+04 0.  0.
        5    1    3    3  502    0  0.21053186333E+03 -0.53348117419E+03 -0.30546348154E+04  0.31080125119E+04  0.46999998093E+01 0.  1.
       -5    1    3    3    0  502 -0.21053186333E+03  0.53348117419E+03  0.11810254152E+04  0.13129238173E+04  0.46999998093E+01 0. -1.
</event>
<event>
 5   0  0.7256473E-07  0.2521608E+04  0.7818609E-02  0.8395328E-01
       -2   -1    0    0    0  501  0.00000000000E+00  0.00000000000E+00  0.83944483301E+03  0.83944483302E+03  0.25500000920E-02 0.  1.
        2   -1    0    0  501    0  0.00000000000E+00  0.00000000000E+00 -0.18936640699E+04  0.18936640699E+04  0.25500000920E-02 0. -1.
    10030    2    1    2    0    0  0.00000000000E+00  0.00000000000E+00 -0.10542192369E+04  0.27331089029E+04  0.25216078355E+04 0.  0.
        4    1    3    3  502    0 -0.26263238930E+03  0.11086772735E+04 -0.11122857865E+04  0.15922695602E+04  0.12699999809E+01 0. -1.
       -4    1    3    3    0  502  0.26263238930E+03 -0.11086772735E+04  0.58066549550E+02  0.11408393427E+04  0.12699999809E+01 0.  1.
</event>
<event>
 5   0  0.6043512E-07  0.2400359E+04  0.7818609E-02  0.8439369E-01
        2   -1    0    0  501    0  0.00000000000E+00  0.00000000000E+00  0.17867024370E+04  0.17867024370E+04  0.25500000920E-02 0. -1.
       -2   -1    0    0    0  501  0.00000000000E+00  0.00000000000E+00 -0.80619546027E+03  0.80619546027E+03  0.25500000920E-02 0.  1.
    10030    2    1    2    0    0  0.00000000000E+00  0.00000000000E+00  0.98050697676E+03  0.25928978973E+04  0.24003594677E+04 0.  0.
        3    1    3    3  502    0  0.48079259702E+03 -0.72939629049E+03 -0.39871001357E+03  0.96028649634E+03  0.10100000352E+00 0.  1.
       -3    1    3    3    0  502 -0.48079259702E+03  0.72939629049E+03  0.13792169903E+04  0.16326114010E+04  0.10100000352E+00 0. -1.
</event>
<event>
 5   0  0.2647879E-07  0.3689092E+04  0.7818609E-02  0.8070383E-01
       -1   -1    0    0    0  501  0.00000000000E+00  0.00000000000E+00  0.11003708047E+04  0.11003708048E+04  0.50400001928E-02 0.  1.
        1   -1    0    0  501    0  0.00000000000E+00  0.00000000000E+00 -0.30920030934E+04  0.30920030935E+04  0.50400001928E-02 0. -1.
    10030    2    1    2    0    0  0.00000000000E+00  0.00000000000E+00 -0.19916322887E+04  0.41923738982E+04  0.36890919925E+04 0.  0.
        2    1    3    3  502    0  0.10457928706E+04  0.76637509184E+03  0.49516929580E+03  0.13878782875E+04  0.25500000920E-02 0.  1.
       -2    1    3    3    0  502 -0.10457928706E+04 -0.76637509184E+03 -0.24868015845E+04  0.28044956107E+04  0.25500000920E-02 0. -1.
</event>
<event>
 5   0  0.6043512E-07  0.2223666E+04  0.7818609E-02  0.8508642E-01
        2   -1    0    0  501    0  0.00000000000E+00  0.00000000000E+00  0.12171080348E+04  0.12171080348E+04  0.25500000920E-02 0. -1.
       -2   -1    0    0    0  501  0.00000000000E+00  0.00000000000E+00 -0.10156635511E+04  0.10156635512E+04  0.25500000920E-02 0.  1.
    10030    2    1    2    0    0  0.00000000000E+00  0.00000000000E+00  0.20144448366E+03  0.22327715860E+04  0.22236656842E+04 0.  0.
        3    1    3    3  502    0  0.68692375880E+03 -0.45192041617E+03 -0.65072459918E+03  0.10485889696E+04  0.10100000352E+00 0.  1.
       -3    1    3    3    0  502 -0.68692375880E+03  0.45192041617E+03  0.85216908284E+03  0.11841826164E+04  0.10100000352E+00 0. -1.
</event>
<event>
 5   0  0.6043512E-07  0.3469254E+04  0.7818609E-02  0.8121115E-01
        2   -1    0    0  501    0  0.00000000000E+00  0.00000000000E+00  0.26042473321E+04  0.26042473321E+04  0.25500000920E-02 0.  1.
       -2   -1    0    0    0  501  0.00000000000E+00  0.00000000000E+00 -0.11553937144E+04  0.11553937144E+04  0.25500000920E-02 0. -1.
    10030    2    1    2    0    0  0.00000000000E+00  0.00000000000E+00  0.14488536177E+04  0.37596410466E+04  0.34692540975E+04 0.  0.
        3    1    3    3  502    0 -0.94445999902E+02 -0.96778813873E+03  0.22811151624E+04  0.24797218236E+04  0.10100000352E+00 0.  1.
       -3    1    3    3    0  502  0.94445999902E+02  0.96778813873E+03 -0.83226154464E+03  0.12799192229E+04  0.10100000352E+00 0. -1.
</event>
<event>
 5   0  0.3325660E-07  0.2387328E+04  0.7818609E-02  0.8444263E-01
       -1   -1    0    0    0  501  0.00000000000E+00  0.00000000000E+00  0.82754845690E+03  0.82754845691E+03  0.50400001928E-02 0.  1.
        1   -1    0    0  501    0  0.00000000000E+00  0.00000000000E+00 -0.17217527053E+04  0.17217527054E+04  0.50400001928E-02 0. -1.
    10030    2    1    2    0    0  0.00000000000E+00  0.00000000000E+00 -0.89420424845E+03  0.25493011623E+04  0.23873280415E+04 0.  0.
        1    1    3    3  502    0  0.51078911954E+03 -0.97217244548E+02 -0.15944673991E+04  0.16771055435E+04  0.50400001928E-02 0. -1.
       -1    1    3    3    0  502 -0.51078911954E+03  0.97217244548E+02  0.70026315062E+03  0.87219561878E+03  0.50400001928E-02 0.  1.
</event>
<event>
 5   0  0.7256473E-07  0.3917355E+04  0.7818609E-02  0.8021429E-01
        2   -1    0    0  501    0  0.00000000000E+00  0.00000000000E+00  0.18148869747E+04  0.18148869747E+04  0.25500000920E-02 0.  1.
       -2   -1    0    0    0  501  0.00000000000E+00  0.00000000000E+00 -0.21138604270E+04  0.21138604270E+04  0.25500000920E-02 0. -1.
    10030    2    1    2    0    0  0.00000000000E+00  0.00000000000E+00 -0.29897345227E+03  0.39287474017E+04  0.39173551054E+04 0.  0.
        4    1    3    3  502    0  0.16485354606E+04 -0.78717211436E+03  0.55904289749E+03  0.19104553585E+04  0.12699999809E+01 0.  1.
       -4    1    3    3    0  502 -0.16485354606E+04  0.78717211436E+03 -0.85801634975E+03  0.20182920433E+04  0.12699999809E+01 0. -1.
</event>
<event>
 5   0  0.3579559E-07  0.3968275E+04  0.7818609E-02  0.8010977E-01
        1   -1    0    0  501    0  0.00000000000E+00  0.00000000000E+00  0.27684586497E+04  0.27684586497E+04  0.50400001928E-02 0. -1.
       -1   -1    0    0    0  501  0.00000000000E+00  0.00000000000E+00 -0.14220194233E+04  0.14220194233E+04  0.50400001928E-02 0.  1.
    10030    2    1    2    0    0  0.00000000000E+00  0.00000000000E+00  0.13464392265E+04  0.41904780730E+04  0.39682751782E+04 0.  0.
        4    1    3    3  502    0  0.10462270401E+04  0.76121408153E+03  0.22616978709E+04  0.26056317409E+04  0.12699999809E+01 0. -1.
       -4    1    3    3    0  502 -0.10462270401E+04 -0.76121408153E+03 -0.91525864439E+03  0.15848463321E+04  0.12699999809E+01 0.  1.
</event>
<event>
 5   0  0.7256473E-07  0.2847710E+04  0.7818609E-02  0.8288608E-01
        2   -1    0    0  501    0  0.00000000000E+00  0.00000000000E+00  0.22391096817E+04  0.22391096817E+04  0.25500000920E-02 0. -1.
       -2   -1    0    0    0  501  0.00000000000E+00  0.00000000000E+00 -0.90543265249E+03  0.90543265250E+03  0.25500000920E-02 0.  1.
    10030    2    1    2    0    0  0.00000000000E+00  0.00000000000E+00  0.13336770292E+04  0.31445423342E+04  0.28477099700E+04 0.  0.
        4    1    3    3  502    0 -0.83942130418E+02 -0.13242978367E+04  0.12369388940E+04  0.18140646300E+04  0.12699999809E+01 0. -1.
       -4    1    3    3    0  502  0.83942130418E+02  0.13242978367E+04  0.96738135189E+02  0.13304777041E+04  0.12699999809E+01 0.  1.
</event>
<event>
 5   0  0.4449262E-07  0.2277602E+04  0.7818609E-02  0.8486805E-01
        2   -1    0    0  501    0  0.00000000000E+00  0.00000000000E+00  0.16895754037E+04  0.16895754037E+04  0.25500000920E-02 0. -1.
       -2   -1    0    0    0  501  0.00000000000E+00  0.00000000000E+00 -0.76756989827E+03  0.76756989827E+03  0.25500000920E-02 0.  1.
    10030    2    1    2    0    0  0.00000000000E+00  0.00000000000E+00  0.92200550539E+03  0.24571453019E+04  0.22776015637E+04 0.  0.
        1    1    3    3  502    0 -0.73997990550E+03 -0.67752892046E+03 -0.12021696560E+03  0.10104790040E+04  0.50400001928E-02 0.  1.
       -1    1    3    3    0  502  0.73997990550E+03  0.67752892046E+03  0.10422224710E+04  0.14466662980E+04  0.50400001928E-02 0. -1.
</event>
<event>
 5   0  0.6043512E-07  0.3149372E+04  0.7818609E-02  0.8202317E-01
       -2   -1    0    0    0  501  0.00000000000E+00  0.00000000000E+00  0.20359128821E+04  0.20359128821E+04  0.25500000920E-02 0. -1.
        2   -1    0    0  501    0  0.00000000000E+00  0.00000000000E+00 -0.12179478071E+04  0.12179478071E+04  0.25500000920E-02 0.  1.
    10030    2    1    2    0    0  0.00000000000E+00  0.00000000000E+00  0.81796507499E+03  0.32538606893E+04  0.31493717661E+04 0.  0.
        3    1    3    3  502    0  0.76307211412E+03  0.64507174904E+03  0.16664234759E+04  0.19430295479E+04  0.10100000352E+00 0. -1.
       -3    1    3    3    0  502 -0.76307211412E+03 -0.64507174904E+03 -0.84845840096E+03  0.13108311413E+04  0.10100000352E+00 0.  1.
</event>
<event>
 5   0  0.4449262E-07  0.3023871E+04  0.7818609E-02  0.8236947E-01
       -2   -1    0    0    0  501  0.00000000000E+00  0.00000000000E+00  0.12210246021E+04  0.12210246021E+04  0.25500000920E-02 0. -1.
        2   -1    0    0  501    0  0.00000000000E+00  0.00000000000E+00 -0.18721567540E+04  0.18721567540E+04  0.25500000920E-02 0.  1.
    10030    2    1    2    0    0  0.00000000000E+00  0.00000000000E+00 -0.65113215187E+03  0.30931813561E+04  0.30238713303E+04 0.  0.
        1    1    3    3  502    0  0.19193935663E+03 -0.14859205091E+04 -0.11806439885E+03  0.15029104026E+04  0.50400001928E-02 0. -1.
       -1    1    3    3    0  502 -0.19193935663E+03  0.14859205091E+04 -0.53306775302E+03  0.15902709534E+04  0.50400001928E-02 0.  1.
</event>
<event>
 5   0  0.7570277E-07  0.3066899E+04  0.7818609E-02  0.8224881E-01
        2   -1    0    0  501    0  0.00000000000E+00  0.00000000000E+00  0.14952952291E+04  0.14952952291E+04  0.25500000920E-02 0.  1.
       -2   -1    0    0    0  501  0.00000000000E+00  0.00000000000E+00 -0.15725776328E+04  0.15725776328E+04  0.25500000920E-02 0. -1.
    10030    2    1    2    0    0  0.00000000000E+00  0.00000000000E+00 -0.77282403704E+02  0.30678728619E+04  0.30668993017E+04 0.  0.
        5    1    3    3  502    0 -0.30032111003E+03  0.15025291802E+04  0.21867960238E+02  0.15324121522E+04  0.46999998093E+01 0. -1.
       -5    1    3    3    0  502  0.30032111003E+03 -0.15025291802E+04 -0.99150363942E+02  0.15354607097E+04  0.46999998093E+01 0.  1.
</event>
<event>
 5   0  0.2713405E-07  0.2458285E+04  0.7818609E-02  0.8417999E-01
        1   -1    0    0  501    0  0.00000000000E+00  0.00000000000E+00  0.16247724077E+04  0.16247724077E+04  0.50400001928E-02 0.  1.
       -1   -1    0    0    0  501  0.00000000000E+00  0.00000000000E+00 -0.92984810364E+03  0.92984810366E+03  0.50400001928E-02 0. -1.
    10030    2    1    2    0    0  0.00000000000E+00  0.00000000000E+00  0.69492430408E+03  0.25546205114E+04  0.24582852090E+04 0.  0.
        1    1    3    3  502    0 -0.77140059210E+03 -0.63919807065E+03 -0.39259622513E+03  0.10759948155E+04  0.50400001928E-02 0. -1.
       -1    1    3    3    0  502  0.77140059210E+03  0.63919807065E+03  0.10875205292E+04  0.14786256959E+04  0.50400001928E-02 0.  1.
</event>
<event>
 5   0  0.2401125E-07  0.2993353E+04  0.7818609E-02  0.8245631E-01
        1   -1    0    0  501    0  0.00000000000E+00  0.00000000000E+00  0.24660141862E+04  0.24660141862E+04  0.50400001928E-02 0.  1.
       -1   -1    0    0    0  501  0.00000000000E+00  0.00000000000E+00 -0.90836509844E+03  0.90836509846E+03  0.50400001928E-02 0. -1.
    10030    2    1    2    0    0  0.00000000000E+00  0.00000000000E+00  0.15576490878E+04  0.33743792847E+04  0.29933534499E+04 0.  0.
        5    1    3    3  502    0  0.32604560336E+03 -0.13785163205E+04  0.23420648092E+03  0.14357881971E+04  0.46999998093E+01 0. -1.
       -5    1    3    3    0  502 -0.32604560336E+03  0.13785163205E+04  0.13234426068E+04  0.19385910876E+04  0.46999998093E+01 0.  1.
</event>
<event>
 5   0  0.2401125E-07  0.2313246E+04  0.7818609E-02  0.8472716E-01
       -1   -1    0    0    0  501  0.00000000000E+00  0.00000000000E+00  0.94755802389E+03  0.94755802390E+03  0.50400001928E-02 0.  1.
        1   -1    0    0  501    0  0.00000000000E+00  0.00000000000E+00 -0.14118156455E+04  0.14118156455E+04  0.50400001928E-02 0. -1.
    10030    2    1    2    0    0  0.00000000000E+00  0.00000000000E+00 -0.46425762158E+03  0.23593736694E+04  0.23132464141E+04 0.  0.
        5    1    3    3  502    0  0.51157599277E+03 -0.46174345163E+03  0.71528453500E+03  0.99326283909E+03  0.46999998093E+01 0.  1.
       -5    1    3    3    0  502 -0.51157599277E+03  0.46174345163E+03 -0.11795421566E+04  0.13661108303E+04  0.46999998093E+01 0. -1.
</event>
<event>
 5   0  0.7570277E-07  0.4031660E+04  0.7818609E-02  0.7998190E-01
       -2   -1    0    0    0  501  0.00000000000E+00  0.00000000000E+00  0.18255329808E+04  0.18255329808E+04  0.25500000920E-02 0. -1.
        2   -1    0    0  501    0  0.00000000000E+00  0.00000000000E+00 -0.22259636894E+04  0.22259636894E+04  0.25500000920E-02 0.  1.
    10030    2    1    2    0    0  0.00000000000E+00  0.00000000000E+00 -0.40043070857E+03  0.40514966703E+04  0.40316597720E+04 0.  0.
        5    1    3    3  502    0  0.10202041399E+04 -0.11077782411E+04 -0.15467931270E+04  0.21588376934E+04  0.46999998093E+01 0.  1.
       -5    1    3    3    0  502 -0.10202041399E+04  0.11077782411E+04  0.11463624185E+04  0.18926589769E+04  0.46999998093E+01 0. -1.
</event>
<event>
 5   0  0.2401125E-07  0.3937114E+04  0.7818609E-02  0.8017354E-01
        3   -1    0    0  501    0  0.00000000000E+00  0.00000000000E+00  0.18073034973E+04  0.18073035001E+04  0.10100000352E+00 0. -1.
       -3   -1    0    0    0  501  0.00000000000E+00  0.00000000000E+00 -0.21441983695E+04  0.21441983718E+04  0.10100000352E+00 0.  1.
    10030    2    1    2    0    0  0.00000000000E+00  0.00000000000E+00 -0.33689487216E+03  0.39515018720E+04  0.39371142845E+04 0.  0.
        4    1    3    3  502    0  0.12198902774E+04 -0.11294160231E+04  0.88968358012E+03  0.18855374108E+04  0.12699999809E+01 0. -1.
       -4    1    3    3    0  502 -0.12198902774E+04  0.11294160231E+04 -0.12265784523E+04  0.20659644611E+04  0.12699999809E+01 0.  1.
</event>
<event>
 5   0  0.3579559E-07  0.4017217E+04  0.7818609E-02  0.8001082E-01
       -1   -1    0    0    0  501  0.00000000000E+00  0.00000000000E+00  0.17922505677E+04  0.17922505677E+04  0.50400001928E-02 0.  1.
        1   -1    0    0  501    0  0.00000000000E+00  0.00000000000E+00 -0.22510852034E+04  0.22510852034E+04  0.50400001928E-02 0. -1.
    10030    2    1    2    0    0  0.00000000000E+00  0.00000000000E+00 -0.45883463569E+03  0.40433357711E+04  0.40172173124E+04 0.  0.
        4    1    3    3  502    0 -0.84176448397E+03  0.69192214183E+03  0.14689131687E+04  0.18289426472E+04  0.12699999809E+01 0.  1.
       -4    1    3    3    0  502  0.84176448397E+03 -0.69192214183E+03 -0.19277478044E+04  0.22143931239E+04  0.12699999809E+01 0. -1.
</event>
<event>
 5   0  0.7256473E-07  0.4003881E+04  0.7818609E-02  0.8003764E-01
       -2   -1    0    0    0  501  0.00000000000E+00  0.00000000000E+00  0.17489625560E+04  0.17489625560E+04  0.25500000920E-02 0. -1.
        2   -1    0    0  501    0  0.00000000000E+00  0.00000000000E+00 -0.22915099450E+04  0.22915099450E+04  0.25500000920E-02 0.  1.
    10030    2    1    2    0    0  0.00000000000E+00  0.00000000000E+00 -0.54254738904E+03  0.40404725010E+04  0.40038806628E+04 0.  0.
        4    1    3    3  502    0 -0.42901901677E+03 -0.30123685699E+03  0.16784714399E+04  0.17584279764E+04  0.12699999809E+01 0. -1.
       -4    1    3    3    0  502  0.42901901677E+03  0.30123685699E+03 -0.22210188290E+04  0.22820445246E+04  0.12699999809E+01 0.  1.
</event>
<event>
 5   0  0.2713405E-07  0.3994163E+04  0.7818609E-02  0.8005725E-01
        1   -1    0    0  501    0  0.00000000000E+00  0.00000000000E+00  0.30415933320E+04  0.30415933320E+04  0.50400001928E-02 0. -1.
       -1   -1    0    0    0  501  0.00000000000E+00  0.00000000000E+00 -0.13112646854E+04  0.13112646854E+04  0.50400001928E-02 0.  1.
    10030    2    1    2    0    0  0.00000000000E+00  0.00000000000E+00  0.17303286466E+04  0.43528580175E+04  0.39941627026E+04 0.  0.
        1    1    3    3  502    0 -0.19682497742E+04 -0.11291545842E+03  0.51783126644E+03  0.20383587258E+04  0.50400001928E-02 0. -1.
       -1    1    3    3    0  502  0.19682497742E+04  0.11291545842E+03  0.12124973802E+04  0.23144992917E+04  0.50400001928E-02 0.  1.
</event>
<event>
 5   0  0.5161550E-07  0.3486301E+04  0.7818609E-02  0.8117044E-01
       -2   -1    0    0    0  501  0.00000000000E+00  0.00000000000E+00  0.11719035918E+04  0.11719035918E+04  0.25500000920E-02 0.  1.
        2   -1    0    0  501    0  0.00000000000E+00  0.00000000000E+00 -0.25928524068E+04  0.25928524068E+04  0.25500000920E-02 0. -1.
    10030    2    1    2    0    0  0.00000000000E+00  0.00000000000E+00 -0.14209488150E+04  0.37647559986E+04  0.34863006460E+04 0.  0.
        2    1    3    3  502    0 -0.75257940465E+03 -0.14176441265E+04 -0.14448523286E+04  0.21595575661E+04  0.25500000920E-02 0. -1.
       -2    1    3    3    0  502  0.75257940465E+03  0.14176441265E+04  0.23903513671E+02  0.16051984325E+04  0.25500000920E-02 0.  1.
</event>
<event>
 5   0  0.2601252E-07  0.2829573E+04  0.7818609E-02  0.8294146E-01
        1   -1    0    0  501    0  0.00000000000E+00  0.00000000000E+00  0.25321910186E+04  0.25321910186E+04  0.50400001928E-02 0. -1.
       -1   -1    0    0    0  501  0.00000000000E+00  0.00000000000E+00 -0.79046970266E+03  0.79046970268E+03  0.50400001928E-02 0.  1.
    10030    2    1    2    0    0  0.00000000000E+00  0.00000000000E+00  0.17417213159E+04  0.33226607212E+04  0.28295726049E+04 0.  0.
        3    1    3    3  502    0  0.10170179036E+04  0.67506845424E+02 -0.28131618013E+03  0.10573653076E+04  0.10100000352E+00 0.  1.
       -3    1    3    3    0  502 -0.10170179036E+04 -0.67506845424E+02  0.20230374960E+04  0.22652954136E+04  0.10100000352E+00 0. -1.
</event>
<event>
 5   0  0.5161550E-07  0.3133772E+04  0.7818609E-02  0.8206530E-01
       -2   -1    0    0    0  501  0.00000000000E+00  0.00000000000E+00  0.12463938596E+04  0.12463938596E+04  0.25500000920E-02 0. -1.
        2   -1    0    0  501    0  0.00000000000E+00  0.00000000000E+00 -0.19697879133E+04  0.19697879133E+04  0.25500000920E-02 0.  1.
    10030    2    1    2    0    0  0.00000000000E+00  0.00000000000E+00 -0.72339405369E+03  0.32161817729E+04  0.31337718870E+04 0.  0.
        2    1    3    3  502    0 -0.10759008575E+04 -0.41355696718E+03 -0.14509943234E+04  0.18530991735E+04  0.25500000920E-02 0.  1.
       -2    1    3    3    0  502  0.10759008575E+04  0.41355696718E+03  0.72760026973E+03  0.13630825994E+04  0.25500000920E-02 0. -1.
</event>
<event>
 5   0  0.7256473E-07  0.3412949E+04  0.7818609E-02  0.8134735E-01
        2   -1    0    0  501    0  0.00000000000E+00  0.00000000000E+00  0.18313027904E+04  0.18313027904E+04  0.25500000920E-02 0. -1.
       -2   -1    0    0    0  501  0.00000000000E+00  0.00000000000E+00 -0.15901553080E+04  0.15901553080E+04  0.25500000920E-02 0.  1.
    10030    2    1    2    0    0  0.00000000000E+00  0.00000000000E+00  0.24114748238E+03  0.34214580983E+04  0.34129493712E+04 0.  0.
        4    1    3    3  502    0 -0.57856649674E+03 -0.13923927770E+04  0.92166381769E+03  0.17671906072E+04  0.12699999809E+01 0.  1.
       -4    1    3    3    0  502  0.57856649674E+03  0.13923927770E+04 -0.68051633531E+03  0.16542674911E+04  0.12699999809E+01 0. -1.
</event>
<event>
 5   0  0.4449262E-07  0.2778826E+04  0.7818609E-02  0.8309872E-01
       -2   -1    0    0    0  501  0.00000000000E+00  0.00000000000E+00  0.16973188608E+04  0.16973188608E+04  0.25500000920E-02 0. -1.
        2   -1    0    0  501    0  0.00000000000E+00  0.00000000000E+00 -0.11373634706E+04  0.11373634706E+04  0.25500000920E-02 0.  1.
    10030    2    1    2    0    0  0.00000000000E+00  0.00000000000E+00  0.55995539017E+03  0.28346823315E+04  0.27788259897E+04 0.  0.
        1    1    3    3  502    0 -0.10733251516E+04  0.19472166404E+03 -0.59785737162E+03  0.12439360290E+04  0.50400001928E-02 0.  1.
       -1    1    3    3    0  502  0.10733251516E+04 -0.19472166404E+03  0.11578127618E+04  0.15907463025E+04  0.50400001928E-02 0. -1.
</event>
<event>
 5   0  0.7702931E-07  0.1989641E+04  0.7818609E-02  0.8611479E-01
        2   -1    0    0  501    0  0.00000000000E+00  0.00000000000E+00  0.88555065530E+03  0.88555065530E+03  0.25500000920E-02 0.  1.
       -2   -1    0    0    0  501  0.00000000000E+00  0.00000000000E+00 -0.11175729531E+04  0.11175729531E+04  0.25500000920E-02 0. -1.
    10030    2    1    2    0    0  0.00000000000E+00  0.00000000000E+00 -0.23202229778E+03  0.20031236084E+04  0.19896406318E+04 0.  0.
        5    1    3    3  502    0  0.86044251482E+03  0.58272564568E+02  0.38322047893E+03  0.94373568257E+03  0.46999998093E+01 0. -1.
       -5    1    3    3    0  502 -0.86044251482E+03 -0.58272564568E+02 -0.61524277671E+03  0.10593879258E+04  0.46999998093E+01 0.  1.
</event>
<event>
 5   0  0.7256473E-07  0.2095849E+04  0.7818609E-02  0.8563074E-01
       -2   -1    0    0    0  501  0.00000000000E+00  0.00000000000E+00  0.10670391520E+04  0.10670391520E+04  0.25500000920E-02 0. -1.
        2   -1    0    0  501    0  0.00000000000E+00  0.00000000000E+00 -0.10291525015E+04  0.10291525016E+04  0.25500000920E-02 0.  1.
    10030    2    1    2    0    0  0.00000000000E+00  0.00000000000E+00  0.37886650458E+02  0.20961916536E+04  0.20958492432E+04 0.  0.
        4    1    3    3  502    0 -0.64502957232E+03 -0.46046701483E+03 -0.66677161629E+03  0.10357021879E+04  0.12699999809E+01 0.  1.
       -4    1    3    3    0  502  0.64502957232E+03  0.46046701483E+03  0.70465826675E+03  0.10604894656E+04  0.12699999809E+01 0. -1.
</event>
<event>
 5   0  0.7256473E-07  0.2512618E+04  0.7818609E-02  0.8398504E-01
       -2   -1    0    0    0  501  0.00000000000E+00  0.00000000000E+00  0.87742231930E+03  0.87742231930E+03  0.25500000920E-02 0. -1.
        2   -1    0    0  501    0  0.00000000000E+00  0.00000000000E+00 -0.17988058264E+04  0.17988058264E+04  0.25500000920E-02 0.  1.
    10030    2    1    2    0    0  0.00000000000E+00  0.00000000000E+00 -0.92138350711E+03  0.26762281457E+04  0.25126180611E+04 0.  0.
        4    1    3    3  502    0 -0.11744781476E+04  0.33115524156E+03 -0.14249478755E+03  0.12285638325E+04  0.12699999809E+01 0. -1.
       -4    1    3    3    0  502  0.11744781476E+04 -0.33115524156E+03 -0.77888871956E+03  0.14476643132E+04  0.12699999809E+01 0.  1.
</event>
<event>
 5   0  0.6043512E-07  0.4021725E+04  0.7818609E-02  0.8000178E-01
        2   -1    0    0  501    0  0.00000000000E+00  0.00000000000E+00  0.18040042610E+04  0.18040042610E+04  0.25500000920E-02 0.  1.
       -2   -1    0    0    0  501  0.00000000000E+00  0.00000000000E+00 -0.22414405868E+04  0.22414405868E+04  0.25500000920E-02 0. -1.
    10030    2    1    2    0    0  0.00000000000E+00  0.00000000000E+00 -0.43743632581E+03  0.40454448478E+04  0.40217251867E+04 0.  0.
        3    1    3    3  502    0 -0.95652064685E+03 -0.20690685701E+03  0.15482943391E+04  0.18316543249E+04  0.10100000352E+00 0.  1.
       -3    1    3    3    0  502  0.95652064685E+03  0.20690685701E+03 -0.19857306649E+04  0.22137905229E+04  0.10100000352E+00 0. -1.
</event>
<event>
 5   0  0.7256473E-07  0.3223625E+04  0.7818609E-02  0.8182606E-01
        2   -1    0    0  501    0  0.00000000000E+00  0.00000000000E+00  0.19779301889E+04  0.19779301889E+04  0.25500000920E-02 0. -1.
       -2   -1    0    0    0  501  0.00000000000E+00  0.00000000000E+00 -0.13134636780E+04  0.13134636780E+04  0.25500000920E-02 0.  1.
    10030    2    1    2    0    0  0.00000000000E+00  0.00000000000E+00  0.66446651085E+03  0.32913938669E+04  0.32236249539E+04 0.  0.
        4    1    3    3  502    0 -0.11026139134E+04 -0.59415997133E+03  0.13680325247E+04  0.18548040638E+04  0.12699999809E+01 0. -1.
       -4    1    3    3    0  502  0.11026139134E+04  0.59415997133E+03 -0.70356601390E+03  0.14365898031E+04  0.12699999809E+01 0.  1.
</event>
<event>
 5   0  0.2601252E-07  0.2509260E+04  0.7818609E-02  0.8399694E-01
        1   -1    0    0  501    0  0.00000000000E+00  0.00000000000E+00  0.12710196284E+04  0.12710196284E+04  0.50400001928E-02 0.  1.
       -1   -1    0    0    0  501  0.00000000000E+00  0.00000000000E+00 -0.12384517363E+04  0.12384517363E+04  0.50400001928E-02 0. -1.
    10030    2    1    2    0    0  0.00000000000E+00  0.00000000000E+00  0.32567892075E+02  0.25094713646E+04  0.25092600229E+04 0.  0.
        3    1    3    3  502    0  0.26491838102E+03 -0.10410055066E+04  0.66458405499E+03  0.12631493141E+04  0.10100000352E+00 0. -1.
       -3    1    3    3    0  502 -0.26491838102E+03  0.10410055066E+04 -0.63201616291E+03  0.12463220506E+04  0.10100000352E+00 0.  1.
</event>
<event>
 5   0  0.2601252E-07  0.3984606E+04  0.7818609E-02  0.8007659E-01
       -1   -1    0    0    0  501  0.00000000000E+00  0.00000000000E+00  0.23734695866E+04  0.23734695866E+04  0.50400001928E-02 0.  1.
        1   -1    0    0  501    0  0.00000000000E+00  0.00000000000E+00 -0.16723501567E+04  0.16723501567E+04  0.50400001928E-02 0. -1.
    10030    2    1    2    0    0  0.00000000000E+00  0.00000000000E+00  0.70111942995E+03  0.40458197433E+04  0.39846064976E+04 0.  0.
        3    1    3    3  502    0  0.40057163836E+03  0.16949869702E+03  0.23246720434E+04  0.23650132273E+04  0.10100000352E+00 0.  1.
       -3    1    3    3    0  502 -0.40057163836E+03 -0.16949869702E+03 -0.16235526134E+04  0.16808065161E+04  0.10100000352E+00 0. -1.
</event>
<event>
 5   0  0.2601252E-07  0.2510787E+04  0.7818609E-02  0.8399153E-01
       -1   -1    0    0    0  501  0.00000000000E+00  0.00000000000E+00  0.82112870394E+03  0.82112870396E+03  0.50400001928E-02 0. -1.
        1   -1    0    0  501    0  0.00000000000E+00  0.00000000000E+00 -0.19193245283E+04  0.19193245283E+04  0.50400001928E-02 0.  1.
    10030    2    1    2    0    0  0.00000000000E+00  0.00000000000E+00 -0.10981958244E+04  0.27404532323E+04  0.25107866994E+04 0.  0.
        3    1    3    3  502    0  0.72556465855E+03  0.49115434030E+03  0.43221718487E+03  0.97697920389E+03  0.10100000352E+00 0. -1.
       -3    1    3    3    0  502 -0.72556465855E+03 -0.49115434030E+03 -0.15304130093E+04  0.17634740284E+04  0.10100000352E+00 0.  1.
</event>
<event>
 5   0  0.6043512E-07  0.2432204E+04  0.7818609E-02  0.8427544E-01
        2   -1    0    0  501    0  0.00000000000E+00  0.00000000000E+00  0.13150004082E+04  0.13150004082E+04  0.25500000920E-02 0.  1.
       -2   -1    0    0    0  501  0.00000000000E+00  0.00000000000E+00 -0.11246414961E+04  0.11246414961E+04  0.25500000920E-02 0. -1.
    10030    2    1    2    0    0  0.00000000000E+00  0.00000000000E+00  0.19035891213E+03  0.24396419043E+04  0.24322039606E+04 0.  0.
        3    1    3    3  502    0  0.13877519487E+03  0.76460120867E+03 -0.84311181685E+03  0.11466085247E+04  0.10100000352E+00 0. -1.
       -3    1    3    3    0  502 -0.13877519487E+03 -0.76460120867E+03  0.10334707290E+04  0.12930333796E+04  0.10100000352E+00 0.  1.
</event>
<event>
 5   0  0.4449262E-07  0.3163847E+04  0.7818609E-02  0.8198431E-01
       -2   -1    0    0    0  501  0.00000000000E+00  0.00000000000E+00  0.31056795296E+04  0.31056795296E+04  0.25500000920E-02 0. -1.
        2   -1    0    0  501    0  0.00000000000E+00  0.00000000000E+00 -0.80577606217E+03  0.80577606217E+03  0.25500000920E-02 0.  1.
    10030    2    1    2    0    0  0.00000000000E+00  0.00000000000E+00  0.22999034675E+04  0.39114555918E+04  0.31638471656E+04 0.  0.
        1    1    3    3  502    0 -0.73266010427E+02 -0.57466947347E+03 -0.66991366205E+03  0.88566202733E+03  0.50400001928E-02 0.  1.
       -1    1    3    3    0  502  0.73266010427E+02  0.57466947347E+03  0.29698171295E+04  0.30257935645E+04  0.50400001928E-02 0. -1.
</event>
<event>
 5   0  0.6043512E-07  0.3943829E+04  0.7818609E-02  0.8015975E-01
       -2   -1    0    0    0  501  0.00000000000E+00  0.00000000000E+00  0.22960800169E+04  0.22960800169E+04  0.25500000920E-02 0.  1.
        2   -1    0    0  501    0  0.00000000000E+00  0.00000000000E+00 -0.16935152202E+04  0.16935152202E+04  0.25500000920E-02 0. -1.
    10030    2    1    2    0    0  0.00000000000E+00  0.00000000000E+00  0.60256479677E+03  0.39895952371E+04  0.39438288276E+04 0.  0.
        3    1    3    3  502    0  0.43977525040E+03  0.86900911771E+03  0.20357837613E+04  0.22567664147E+04  0.10100000352E+00 0.  1.
       -3    1    3    3    0  502 -0.43977525040E+03 -0.86900911771E+03 -0.14332189645E+04  0.17328288225E+04  0.10100000352E+00 0. -1.
</event>
<event>
 5   0  0.5161550E-07  0.2635184E+04  0.7818609E-02  0.8356347E-01
       -2   -1    0    0    0  501  0.00000000000E+00  0.00000000000E+00  0.14129382808E+04  0.14129382808E+04  0.25500000920E-02 0. -1.
        2   -1    0    0  501    0  0.00000000000E+00  0.00000000000E+00 -0.12286794794E+04  0.12286794794E+04  0.25500000920E-02 0.  1.
    10030    2    1    2    0    0  0.00000000000E+00  0.00000000000E+00  0.18425880139E+03  0.26416177601E+04  0.26351836909E+04 0.  0.
        2    1    3    3  502    0  0.69724193777E+03 -0.10995110582E+04 -0.11079356358E+03  0.13066545453E+04  0.25500000920E-02 0.  1.
       -2    1    3    3    0  502 -0.69724193777E+03  0.10995110582E+04  0.29505236497E+03  0.13349632149E+04  0.25500000920E-02 0. -1.
</event>
<event>
 5   0  0.7570277E-07  0.3552619E+04  0.7818609E-02  0.8101432E-01
        2   -1    0    0  501    0  0.00000000000E+00  0.00000000000E+00  0.20273811533E+04  0.20273811533E+04  0.25500000920E-02 0. -1.
       -2   -1    0    0    0  501  0.00000000000E+00  0.00000000000E+00 -0.15563307093E+04  0.15563307093E+04  0.25500000920E-02 0.  1.
    10030    2    1    2    0    0  0.00000000000E+00  0.00000000000E+00  0.47105044395E+03  0.35837118626E+04  0.35526190611E+04 0.  0.
        5    1    3    3  502    0  0.10830085504E+04 -0.35384010973E+03 -0.11391722339E+04  0.16111628757E+04  0.46999998093E+01 0.  1.
       -5    1    3    3    0  502 -0.10830085504E+04  0.35384010973E+03  0.16102226779E+04  0.19725489869E+04  0.46999998093E+01 0. -1.
</event>
<event>
 5   0  0.7256473E-07  0.2667371E+04  0.7818609E-02  0.8345670E-01
       -2   -1    0    0    0  501  0.00000000000E+00  0.00000000000E+00  0.67625919086E+03  0.67625919087E+03  0.25500000920E-02 0. -1.
        2   -1    0    0  501    0  0.00000000000E+00  0.00000000000E+00 -0.26302300362E+04  0.26302300362E+04  0.25500000920E-02 0.  1.
    10030    2    1    2    0    0  0.00000000000E+00  0.00000000000E+00 -0.19539708454E+04  0.33064892271E+04  0.26673711673E+04 0.  0.
        4    1    3    3  502    0 -0.35219798617E+03  0.10885963166E+04 -0.18264821232E+04  0.21552549551E+04  0.12699999809E+01 0.  1.
       -4    1    3    3    0  502  0.35219798617E+03 -0.10885963166E+04 -0.12748872214E+03  0.11512342720E+04  0.12699999809E+01 0. -1.
</event>
<event>
 5   0  0.2401125E-07  0.2850172E+04  0.7818609E-02  0.8287859E-01
        1   -1    0    0  501    0  0.00000000000E+00  0.00000000000E+00  0.17621407975E+04  0.17621407975E+04  0.50400001928E-02 0. -1.
       -1   -1    0    0    0  501  0.00000000000E+00  0.00000000000E+00 -0.11525016983E+04  0.11525016983E+04  0.50400001928E-02 0.  1.
    10030    2    1    2    0    0  0.00000000000E+00  0.00000000000E+00  0.60963909920E+03  0.29146424959E+04  0.28501721084E+04 0.  0.
        5    1    3    3  502    0 -0.96225927679E+03 -0.56453390399E+03 -0.60192005383E+03  0.12676637116E+04  0.46999998093E+01 0.  1.
       -5    1    3    3    0  502  0.96225927679E+03  0.56453390399E+03  0.12115591530E+04  0.16469787843E+04  0.46999998093E+01 0. -1.
</event>
<event>
 5   0  0.6043512E-07  0.2277786E+04  0.7818609E-02  0.8486732E-01
        2   -1    0    0  501    0  0.00000000000E+00  0.00000000000E+00  0.12866967178E+04  0.12866967178E+04  0.25500000920E-02 0. -1.
       -2   -1    0    0    0  501  0.00000000000E+00  0.00000000000E+00 -0.10080672205E+04  0.10080672205E+04  0.25500000920E-02 0.  1.
    10030    2    1    2    0    0  0.00000000000E+00  0.00000000000E+00  0.27862949735E+03  0.22947639383E+04  0.22777855772E+04 0.  0.
        3    1    3    3  502    0  0.13996340057E+03 -0.10609209441E+04 -0.25337750610E+03  0.10997014022E+04  0.10100000352E+00 0.  1.
       -3    1    3    3    0  502 -0.13996340057E+03  0.10609209441E+04  0.53200700346E+03  0.11950625361E+04  0.10100000352E+00 0. -1.
</event>
<event>
 5   0  0.3579559E-07  0.4102186E+04  0.7818609E-02  0.7984244E-01
        1   -1    0    0  501    0  0.00000000000E+00  0.00000000000E+00  0.15748055722E+04  0.15748055722E+04  0.50400001928E-02 0.  1.
       -1   -1    0    0    0  501  0.00000000000E+00  0.00000000000E+00 -0.26714297795E+04  0.26714297795E+04  0.50400001928E-02 0. -1.
    10030    2    1    2    0    0  0.00000000000E+00  0.00000000000E+00 -0.10966242073E+04  0.42462353518E+04  0.41021860039E+04 0.  0.
        4    1    3    3  502    0  0.47183685583E+03 -0.19491091337E+04 -0.99392225985E+03  0.22382000592E+04  0.12699999809E+01 0. -1.
       -4    1    3    3    0  502 -0.47183685583E+03  0.19491091337E+04 -0.10270194744E+03  0.20080352926E+04  0.12699999809E+01 0.  1.
</event>
<event>
 5   0  0.2401125E-07  0.2319347E+04  0.7818609E-02  0.8470332E-01
       -1   -1    0    0    0  501  0.00000000000E+00  0.00000000000E+00  0.75116258625E+03  0.75116258627E+03  0.50400001928E-02 0.  1.
        1   -1    0    0  501    0  0.00000000000E+00  0.00000000000E+00 -0.17903482187E+04  0.17903482187E+04  0.50400001928E-02 0. -1.
    10030    2    1    2    0    0  0.00000000000E+00  0.00000000000E+00 -0.10391856324E+04  0.25415108050E+04  0.23193469756E+04 0.  0.
        5    1    3    3  502    0  0.68102620917E+03 -0.79507322468E+03 -0.10662603852E+04  0.14942795686E+04  0.46999998093E+01 0. -1.
       -5    1    3    3    0  502 -0.68102620917E+03  0.79507322468E+03  0.27074752719E+02  0.10472312364E+04  0.46999998093E+01 0.  1.
</event>
<event>
 5   0  0.2713405E-07  0.3817672E+04  0.7818609E-02  0.8042373E-01
        1   -1    0    0  501    0  0.00000000000E+00  0.00000000000E+00  0.26219197158E+04  0.26219197158E+04  0.50400001928E-02 0.  1.
       -1   -1    0    0    0  501  0.00000000000E+00  0.00000000000E+00 -0.13896894284E+04  0.13896894284E+04  0.50400001928E-02 0. -1.
    10030    2    1    2    0    0  0.00000000000E+00  0.00000000000E+00  0.12322302874E+04  0.40116091442E+04  0.38176715999E+04 0.  0.
        1    1    3    3  502    0 -0.10324472019E+04  0.19022601983E+03  0.22913160226E+04  0.25203694727E+04  0.50400001928E-02 0.  1.
       -1    1    3    3    0  502  0.10324472019E+04 -0.19022601983E+03 -0.10590857352E+04  0.14912396715E+04  0.50400001928E-02 0. -1.
</event>
<event>
 5   0  0.7570277E-07  0.3581013E+04  0.7818609E-02  0.8094855E-01
        2   -1    0    0  501    0  0.00000000000E+00  0.00000000000E+00  0.12820774154E+04  0.12820774154E+04  0.25500000920E-02 0. -1.
       -2   -1    0    0    0  501  0.00000000000E+00  0.00000000000E+00 -0.25005621896E+04  0.25005621896E+04  0.25500000920E-02 0.  1.
    10030    2    1    2    0    0  0.00000000000E+00  0.00000000000E+00 -0.12184847742E+04  0.37826396049E+04  0.35810134370E+04 0.  0.
        5    1    3    3  502    0  0.15914174142E+04  0.63102582215E+03 -0.11632628683E+04  0.20697839417E+04  0.46999998093E+01 0. -1.
       -5    1    3    3    0  502 -0.15914174142E+04 -0.63102582215E+03 -0.55221905899E+02  0.17128556633E+04  0.46999998093E+01 0.  1.
</event>
<event>
 5   0  0.2713405E-07  0.2525153E+04  0.7818609E-02  0.8394079E-01
       -1   -1    0    0    0  501  0.00000000000E+00  0.00000000000E+00  0.72254919203E+03  0.72254919205E+03  0.50400001928E-02 0.  1.
        1   -1    0    0  501    0  0.00000000000E+00  0.00000000000E+00 -0.22062149437E+04  0.22062149437E+04  0.50400001928E-02 0. -1.
    10030    2    1    2    0    0  0.00000000000E+00  0.00000000000E+00 -0.14836657517E+04  0.29287641358E+04  0.25251525301E+04 0.  0.
        1    1    3    3  502    0 -0.74542059980E+03  0.45422075963E+03  0.31618374427E+03  0.92840752326E+03  0.50400001928E-02 0.  1.
       -1    1    3    3    0  502  0.74542059980E+03 -0.45422075963E+03 -0.17998494959E+04  0.20003566125E+04  0.50400001928E-02 0. -1.
</event>
<event>
 5   0  0.2647879E-07  0.4054123E+04  0.7818609E-02  0.7993716E-01
        1   -1    0    0  501    0  0.00000000000E+00  0.00000000000E+00  0.15962149992E+04  0.15962149992E+04  0.50400001928E-02 0.  1.
       -1   -1    0    0    0  501  0.00000000000E+00  0.00000000000E+00 -0.25742010912E+04  0.25742010913E+04  0.50400001928E-02 0. -1.
    10030    2    1    2    0    0  0.00000000000E+00  0.00000000000E+00 -0.97798609202E+03  0.41704160905E+04  0.40541230336E+04 0.  0.
        2    1    3    3  502    0  0.23200270066E+03 -0.41465640514E+03 -0.25161066166E+04  0.25605776093E+04  0.25500000920E-02 0. -1.
       -2    1    3    3    0  502 -0.23200270066E+03  0.41465640514E+03  0.15381205245E+04  0.16098384812E+04  0.25500000920E-02 0.  1.
</event>
<event>
 5   0  0.6043512E-07  0.4326057E+04  0.7818609E-02  0.7941817E-01
        2   -1    0    0  501    0  0.00000000000E+00  0.00000000000E+00  0.21017212461E+04  0.21017212461E+04  0.25500000920E-02 0. -1.
       -2   -1    0    0    0  501  0.00000000000E+00  0.00000000000E+00 -0.22261242085E+04  0.22261242085E+04  0.25500000920E-02 0.  1.
    10030    2    1    2    0    0  0.00000000000E+00  0.00000000000E+00 -0.12440296241E+03  0.43278454546E+04  0.43260571173E+04 0.  0.
        3    1    3    3  502    0  0.17698755887E+04 -0.86939560478E+03  0.82720158998E+03  0.21383570323E+04  0.10100000352E+00 0. -1.
       -3    1    3    3    0  502 -0.17698755887E+04  0.86939560478E+03 -0.95160455240E+03  0.21894884223E+04  0.10100000352E+00 0.  1.
</event>
<event>
 5   0  0.5161550E-07  0.3758775E+04  0.7818609E-02  0.8055060E-01
        2   -1    0    0  501    0  0.00000000000E+00  0.00000000000E+00  0.16086826264E+04  0.16086826264E+04  0.25500000920E-02 0.  1.
       -2   -1    0    0    0  501  0.00000000000E+00  0.00000000000E+00 -0.21956461493E+04  0.21956461493E+04  0.25500000920E-02 0. -1.
    10030    2    1    2    0    0  0.00000000000E+00  0.00000000000E+00 -0.58696352285E+03  0.38043287757E+04  0.37587752335E+04 0.  0.
        2    1    3    3  502    0  0.33591064570E+03  0.16645861299E+03 -0.21574178380E+04  0.21897479671E+04  0.25500000920E-02 0. -1.
       -2    1    3    3    0  502 -0.33591064570E+03 -0.16645861299E+03  0.15704543151E+04  0.16145808086E+04  0.25500000920E-02 0.  1.
</event>
<event>
 5   0  0.7570277E-07  0.3511449E+04  0.7818609E-02  0.8111082E-01
       -2   -1    0    0    0  501  0.00000000000E+00  0.00000000000E+00  0.14840484149E+04  0.14840484149E+04  0.25500000920E-02 0. -1.
        2   -1    0    0  501    0  0.00000000000E+00  0.00000000000E+00 -0.20771351505E+04  0.20771351505E+04  0.25500000920E-02 0.  1.
    10030    2    1    2    0    0  0.00000000000E+00  0.00000000000E+00 -0.59308673566E+03  0.35611835654E+04  0.35114493462E+04 0.  0.
        5    1    3    3  502    0 -0.15306449316E+04  0.83788843447E+03 -0.99847675245E+02  0.17478336830E+04  0.46999998093E+01 0.  1.
       -5    1    3    3    0  502  0.15306449316E+04 -0.83788843447E+03 -0.49323906042E+03  0.18133498824E+04  0.46999998093E+01 0. -1.
</event>
<event>
 5   0  0.2601252E-07  0.3945113E+04  0.7818609E-02  0.8015711E-01
        1   -1    0    0  501    0  0.00000000000E+00  0.00000000000E+00  0.30664975240E+04  0.30664975240E+04  0.50400001928E-02 0.  1.
       -1   -1    0    0    0  501  0.00000000000E+00  0.00000000000E+00 -0.12688677436E+04  0.12688677436E+04  0.50400001928E-02 0. -1.
    10030    2    1    2    0    0  0.00000000000E+00  0.00000000000E+00  0.17976297804E+04  0.43353652676E+04  0.39451133287E+04 0.  0.
        3    1    3    3  502    0 -0.13753914166E+03 -0.67641987962E+03  0.29294457034E+04  0.30096699169E+04  0.10100000352E+00 0.  1.
       -3    1    3    3    0  502  0.13753914166E+03  0.67641987962E+03 -0.11318159231E+04  0.13256953507E+04  0.10100000352E+00 0. -1.
</event>
<event>
 5   0  0.2401125E-07  0.3952191E+04  0.7818609E-02  0.8014261E-01
       -1   -1    0    0    0  501  0.00000000000E+00  0.00000000000E+00  0.21857033538E+04  0.21857033538E+04  0.50400001928E-02 0.  1.
        1   -1    0    0  501    0  0.00000000000E+00  0.00000000000E+00 -0.17865893076E+04  0.17865893076E+04  0.50400001928E-02 0. -1.
    10030    2    1    2    0    0  0.00000000000E+00  0.00000000000E+00  0.39911404624E+03  0.39722926614E+04  0.39521914131E+04 0.  0.
        5    1    3    3  502    0  0.25789568026E+03  0.56987897965E+03 -0.16844526573E+04  0.17968514346E+04  0.46999998093E+01 0. -1.
       -5    1    3    3    0  502 -0.25789568026E+03 -0.56987897965E+03  0.20835667035E+04  0.21754412268E+04  0.46999998093E+01 0.  1.
</event>
<event>
 5   0  0.4449262E-07  0.4032294E+04  0.7818609E-02  0.7998063E-01
       -2   -1    0    0    0  501  0.00000000000E+00  0.00000000000E+00  0.21426267400E+04  0.21426267400E+04  0.25500000920E-02 0. -1.
        2   -1    0    0  501    0  0.00000000000E+00  0.00000000000E+00 -0.18971338383E+04  0.18971338383E+04  0.25500000920E-02 0.  1.
    10030    2    1    2    0    0  0.00000000000E+00  0.00000000000E+00  0.24549290176E+03  0.40397605783E+04  0.40322944790E+04 0.  0.
        1    1    3    3  502    0 -0.12002777794E+04  0.88522908038E+03 -0.12364351315E+04  0.19372839510E+04  0.50400001928E-02 0.  1.
       -1    1    3    3    0  502  0.12002777794E+04 -0.88522908038E+03  0.14819280332E+04  0.21024766273E+04  0.50400001928E-02 0. -1.
</event>
<event>
 5   0  0.4449262E-07  0.3976028E+04  0.7818609E-02  0.8009400E-01
       -2   -1    0    0    0  501  0.00000000000E+00  0.00000000000E+00  0.19501179891E+04  0.19501179891E+04  0.25500000920E-02 0.  1.
        2   -1    0    0  501    0  0.00000000000E+00  0.00000000000E+00 -0.20266461878E+04  0.20266461878E+04  0.25500000920E-02 0. -1.
    10030    2    1    2    0    0  0.00000000000E+00  0.00000000000E+00 -0.76528198684E+02  0.39767641769E+04  0.39760277606E+04 0.  0.
        1    1    3    3  502    0 -0.15418027387E+04 -0.12496685678E+04  0.77394569607E+02  0.19861563719E+04  0.50400001928E-02 0. -1.
       -1    1    3    3    0  502  0.15418027387E+04  0.12496685678E+04 -0.15392276829E+03  0.19906078049E+04  0.50400001928E-02 0.  1.
</event>
<event>
 5   0  0.5161550E-07  0.3854717E+04  0.7818609E-02  0.8034514E-01
        2   -1    0    0  501    0  0.00000000000E+00  0.00000000000E+00  0.23773753460E+04  0.23773753460E+04  0.25500000920E-02 0. -1.
       -2   -1    0    0    0  501  0.00000000000E+00  0.00000000000E+00 -0.15625259628E+04  0.15625259628E+04  0.25500000920E-02 0.  1.
    10030    2    1    2    0    0  0.00000000000E+00  0.00000000000E+00  0.81484938321E+03  0.39399013087E+04  0.38547169553E+04 0.  0.
        2    1    3    3  502    0 -0.10200125053E+04  0.41487228945E+03  0.20242046740E+04  0.23043326777E+04  0.25500000920E-02 0. -1.
       -2    1    3    3    0  502  0.10200125053E+04 -0.41487228945E+03 -0.12093552908E+04  0.16355686310E+04  0.25500000920E-02 0.  1.
</event>
<event>
 5   0  0.4449262E-07  0.2895687E+04  0.7818609E-02  0.8274162E-01
        2   -1    0    0  501    0  0.00000000000E+00  0.00000000000E+00  0.15196962009E+04  0.15196962009E+04  0.25500000920E-02 0.  1.
       -2   -1    0    0    0  501  0.00000000000E+00  0.00000000000E+00 -0.13793882851E+04  0.13793882851E+04  0.25500000920E-02 0. -1.
    10030    2    1    2    0    0  0.00000000000E+00  0.00000000000E+00  0.14030791581E+03  0.28990844861E+04  0.28956872321E+04 0.  0.
        1    1    3    3  502    0 -0.86322725927E+03 -0.10479604025E+04 -0.43329665096E+03  0.14251765835E+04  0.50400001928E-02 0. -1.
       -1    1    3    3    0  502  0.86322725927E+03  0.10479604025E+04  0.57360456677E+03  0.14739079026E+04  0.50400001928E-02 0.  1.
</event>
<event>
 5   0  0.7256473E-07  0.3995040E+04  0.7818609E-02  0.8005548E-01
       -2   -1    0    0    0  501  0.00000000000E+00  0.00000000000E+00  0.16278811624E+04  0.16278811624E+04  0.25500000920E-02 0. -1.
        2   -1    0    0  501    0  0.00000000000E+00  0.00000000000E+00 -0.24510918637E+04  0.24510918637E+04  0.25500000920E-02 0.  1.
    10030    2    1    2    0    0  0.00000000000E+00  0.00000000000E+00 -0.82321070131E+03  0.40789730260E+04  0.39950400609E+04 0.  0.
        4    1    3    3  502    0  0.60822091301E+03  0.11166348626E+04 -0.19845160007E+04  0.23569283963E+04  0.12699999809E+01 0.  1.
       -4    1    3    3    0  502 -0.60822091301E+03 -0.11166348626E+04  0.11613052994E+04  0.17220446297E+04  0.12699999809E+01 0. -1.
</event>
<event>
 5   0  0.4449262E-07  0.2098518E+04  0.7818609E-02  0.8561896E-01
        2   -1    0    0  501    0  0.00000000000E+00  0.00000000000E+00  0.20866495571E+04  0.20866495571E+04  0.25500000920E-02 0.  1.
       -2   -1    0    0    0  501  0.00000000000E+00  0.00000000000E+00 -0.52761352067E+03  0.52761352067E+03  0.25500000920E-02 0. -1.
    10030    2    1    2    0    0  0.00000000000E+00  0.00000000000E+00  0.15590360365E+04  0.26142630778E+04  0.20985180669E+04 0.  0.
        1    1    3    3  502    0  0.36922125550E+03  0.65835892633E+03  0.16874617815E+04  0.18485908350E+04  0.50400001928E-02 0.  1.
       -1    1    3    3    0  502 -0.36922125550E+03 -0.65835892633E+03 -0.12842574498E+03  0.76567224280E+03  0.50400001928E-02 0. -1.
</event>
<event>
 5   0  0.6043512E-07  0.3070170E+04  0.7818609E-02  0.8223973E-01
        2   -1    0    0  501    0  0.00000000000E+00  0.00000000000E+00  0.13714570230E+04  0.13714570230E+04  0.25500000920E-02 0. -1.
       -2   -1    0    0    0  501  0.00000000000E+00  0.00000000000E+00 -0.17182349487E+04  0.17182349487E+04  0.25500000920E-02 0.  1.
    10030    2    1    2    0    0  0.00000000000E+00  0.00000000000E+00 -0.34677792572E+03  0.30896919717E+04  0.30701696289E+04 0.  0.
        3    1    3    3  502    0 -0.89982945318E+01 -0.14689807974E+04  0.27497724897E+03  0.14945226830E+04  0.10100000352E+00 0.  1.
       -3    1    3    3    0  502  0.89982945318E+01  0.14689807974E+04 -0.62175517469E+03  0.15951692888E+04  0.10100000352E+00 0. -1.
</event>
<event>
 5   0  0.2601252E-07  0.3798917E+04  0.7818609E-02  0.8046387E-01
       -1   -1    0    0    0  501  0.00000000000E+00  0.00000000000E+00  0.15615681941E+04  0.15615681941E+04  0.50400001928E-02 0. -1.
        1   -1    0    0  501    0  0.00000000000E+00  0.00000000000E+00 -0.23104609930E+04  0.23104609930E+04  0.50400001928E-02 0.  1.
    10030    2    1    2    0    0  0.00000000000E+00  0.00000000000E+00 -0.74889279890E+03  0.38720291871E+04  0.37989168985E+04 0.  0.
        3    1    3    3  502    0 -0.93693852210E+03 -0.14800323708E+03 -0.20517739631E+04  0.22604280918E+04  0.10100000352E+00 0.  1.
       -3    1    3    3    0  502  0.93693852210E+03  0.14800323708E+03  0.13028811642E+04  0.16116010954E+04  0.10100000352E+00 0. -1.
</event>
<event>
 5   0  0.2401125E-07  0.2993824E+04  0.7818609E-02  0.8245497E-01
        1   -1    0    0  501    0  0.00000000000E+00  0.00000000000E+00  0.18043043589E+04  0.18043043590E+04  0.50400001928E-02 0. -1.
       -1   -1    0    0    0  501  0.00000000000E+00  0.00000000000E+00 -0.12418891296E+04  0.12418891297E+04  0.50400001928E-02 0.  1.
    10030    2    1    2    0    0  0.00000000000E+00  0.00000000000E+00  0.56241522931E+03  0.30461934886E+04  0.29938242901E+04 0.  0.
        5    1    3    3  502    0 -0.38950239284E+02  0.91906659320E+03 -0.92034854461E+03  0.13012548011E+04  0.46999998093E+01 0.  1.
       -5    1    3    3    0  502  0.38950239284E+02 -0.91906659320E+03  0.14827637739E+04  0.17449386875E+04  0.46999998093E+01 0. -1.
</event>
<event>
 5   0  0.3579559E-07  0.4145510E+04  0.7818609E-02  0.7975819E-01
       -1   -1    0    0    0  501  0.00000000000E+00  0.00000000000E+00  0.16877040152E+04  0.16877040152E+04  0.50400001928E-02 0.  1.
        1   -1    0    0  501    0  0.00000000000E+00  0.00000000000E+00 -0.25456561902E+04  0.25456561902E+04  0.50400001928E-02 0. -1.
    10030    2    1    2    0    0  0.00000000000E+00  0.00000000000E+00 -0.85795217506E+03  0.42333602054E+04  0.41455104263E+04 0.  0.
        4    1    3    3  502    0 -0.18721945136E+04 -0.15752626253E+03  0.46501032699E+03  0.19355007200E+04  0.12699999809E+01 0.  1.
       -4    1    3    3    0  502  0.18721945136E+04  0.15752626253E+03 -0.13229625021E+04  0.22978594854E+04  0.12699999809E+01 0. -1.
</event>
<event>
 5   0  0.2713405E-07  0.3942336E+04  0.7818609E-02  0.8016281E-01
       -1   -1    0    0    0  501  0.00000000000E+00  0.00000000000E+00  0.13613444565E+04  0.13613444565E+04  0.50400001928E-02 0. -1.
        1   -1    0    0  501    0  0.00000000000E+00  0.00000000000E+00 -0.28541656311E+04  0.28541656311E+04  0.50400001928E-02 0.  1.
    10030    2    1    2    0    0  0.00000000000E+00  0.00000000000E+00 -0.14928211746E+04  0.42155100876E+04  0.39423356324E+04 0.  0.
        1    1    3    3  502    0 -0.10174193529E+04 -0.24314038672E+03  0.10400579600E+04  0.14751203163E+04  0.50400001928E-02 0. -1.
       -1    1    3    3    0  502  0.10174193529E+04  0.24314038672E+03 -0.25328791347E+04  0.27403897712E+04  0.50400001928E-02 0.  1.
</event>
<event>
 5   0  0.2647879E-07  0.2619723E+04  0.7818609E-02  0.8361532E-01
        1   -1    0    0  501    0  0.00000000000E+00  0.00000000000E+00  0.11729938459E+04  0.11729938459E+04  0.50400001928E-02 0.  1.
       -1   -1    0    0    0  501  0.00000000000E+00  0.00000000000E+00 -0.14626993050E+04  0.14626993050E+04  0.50400001928E-02 0. -1.
    10030    2    1    2    0    0  0.00000000000E+00  0.00000000000E+00 -0.28970545912E+03  0.26356931509E+04  0.26197231023E+04 0.  0.
        2    1    3    3  502    0  0.38271204020E+03  0.10323209088E+04 -0.85881406726E+03  0.13963225153E+04  0.25500000920E-02 0. -1.
       -2    1    3    3    0  502 -0.38271204020E+03 -0.10323209088E+04  0.56910860814E+03  0.12393706356E+04  0.25500000920E-02 0.  1.
</event>
<event>
 5   0  0.2647879E-07  0.3791032E+04  0.7818609E-02  0.8048082E-01
        1   -1    0    0  501    0  0.00000000000E+00  0.00000000000E+00  0.11441518781E+04  0.11441518781E+04  0.50400001928E-02 0.  1.
       -1   -1    0    0    0  501  0.00000000000E+00  0.00000000000E+00 -0.31402999675E+04  0.31402999675E+04  0.50400001928E-02 0. -1.
    10030    2    1    2    0    0  0.00000000000E+00  0.00000000000E+00 -0.19961480894E+04  0.42844518457E+04  0.37910315777E+04 0.  0.
        2    1    3    3  502    0  0.72087539706E+03  0.17412660765E+04 -0.12277797948E+04  0.22492470099E+04  0.25500000920E-02 0.  1.
       -2    1    3    3    0  502 -0.72087539706E+03 -0.17412660765E+04 -0.76836829462E+03  0.20352048357E+04  0.25500000920E-02 0. -1.
</event>
<event>
 5   0  0.7256473E-07  0.3978273E+04  0.7818609E-02  0.8008944E-01
       -2   -1    0    0    0  501  0.00000000000E+00  0.00000000000E+00  0.20239284018E+04  0.20239284018E+04  0.25500000920E-02 0. -1.
        2   -1    0    0  501    0  0.00000000000E+00  0.00000000000E+00 -0.19549422515E+04  0.19549422515E+04  0.25500000920E-02 0.  1.
    10030    2    1    2    0    0  0.00000000000E+00  0.00000000000E+00  0.68986150327E+02  0.39788706532E+04  0.39782725631E+04 0.  0.
        4    1    3    3  502    0 -0.11569824065E+04  0.14643338102E+04 -0.65392700222E+03  0.19774994144E+04  0.12699999809E+01 0.  1.
       -4    1    3    3    0  502  0.11569824065E+04 -0.14643338102E+04  0.72291315255E+03  0.20013712389E+04  0.12699999809E+01 0. -1.
</event>
<event>
 5   0  0.6043512E-07  0.4158021E+04  0.7818609E-02  0.7973406E-01
       -2   -1    0    0    0  501  0.00000000000E+00  0.00000000000E+00  0.23308516539E+04  0.23308516539E+04  0.25500000920E-02 0.  1.
        2   -1    0    0  501    0  0.00000000000E+00  0.00000000000E+00 -0.18543803898E+04  0.18543803898E+04  0.25500000920E-02 0. -1.
    10030    2    1    2    0    0  0.00000000000E+00  0.00000000000E+00  0.47647126407E+03  0.41852320436E+04  0.41580214518E+04 0.  0.
        3    1    3    3  502    0  0.11682251853E+04 -0.13491971675E+04 -0.83513997266E+03  0.19704166728E+04  0.10100000352E+00 0. -1.
       -3    1    3    3    0  502 -0.11682251853E+04  0.13491971675E+04  0.13116112367E+04  0.22148153708E+04  0.10100000352E+00 0.  1.
</event>
<event>
 5   0  0.2647879E-07  0.2750903E+04  0.7818609E-02  0.8318675E-01
       -1   -1    0    0    0  501  0.00000000000E+00  0.00000000000E+00  0.11909499434E+04  0.11909499434E+04  0.50400001928E-02 0. -1.
        1   -1    0    0  501    0  0.00000000000E+00  0.00000000000E+00 -0.15885354860E+04  0.15885354860E+04  0.50400001928E-02 0.  1.
    10030    2    1    2    0    0  0.00000000000E+00  0.00000000000E+00 -0.39758554258E+03  0.27794854295E+04  0.27509025771E+04 0.  0.
        2    1    3    3  502    0  0.73923076835E+03  0.61176701836E+03  0.79691359303E+03  0.12473140296E+04  0.25500000920E-02 0. -1.
       -2    1    3    3    0  502 -0.73923076835E+03 -0.61176701836E+03 -0.11944991356E+04  0.15321713999E+04  0.25500000920E-02 0.  1.
</event>
<event>
 5   0  0.4449262E-07  0.3989827E+04  0.7818609E-02  0.8006602E-01
        2   -1    0    0  501    0  0.00000000000E+00  0.00000000000E+00  0.20349380917E+04  0.20349380917E+04  0.25500000920E-02 0. -1.
       -2   -1    0    0    0  501  0.00000000000E+00  0.00000000000E+00 -0.19556765800E+04  0.19556765800E+04  0.25500000920E-02 0.  1.
    10030    2    1    2    0    0  0.00000000000E+00  0.00000000000E+00  0.79261511683E+02  0.39906146717E+04  0.39898274488E+04 0.  0.
        1    1    3    3  502    0  0.39415046352E+03  0.10827092931E+04  0.16684688126E+04  0.20276592860E+04  0.50400001928E-02 0. -1.
       -1    1    3    3    0  502 -0.39415046352E+03 -0.10827092931E+04 -0.15892073009E+04  0.19629553858E+04  0.50400001928E-02 0.  1.
</event>
<event>
 5   0  0.4449262E-07  0.3670672E+04  0.7818609E-02  0.8074493E-01
        2   -1    0    0  501    0  0.00000000000E+00  0.00000000000E+00  0.24333683751E+04  0.24333683751E+04  0.25500000920E-02 0. -1.
       -2   -1    0    0    0  501  0.00000000000E+00  0.00000000000E+00 -0.13842777102E+04  0.13842777102E+04  0.25500000920E-02 0.  1.
    10030    2    1    2    0    0  0.00000000000E+00  0.00000000000E+00  0.10490906649E+04  0.38176460853E+04  0.36706716565E+04 0.  0.
        1    1    3    3  502    0 -0.16377520383E+04 -0.57857946897E+03 -0.92042973098E+02  0.17393843307E+04  0.50400001928E-02 0.  1.
       -1    1    3    3    0  502  0.16377520383E+04  0.57857946897E+03  0.11411336380E+04  0.20782617546E+04  0.50400001928E-02 0. -1.
</event>
<event>
 5   0  0.2401125E-07  0.3701970E+04  0.7818609E-02  0.8067525E-01
       -1   -1    0    0    0  501  0.00000000000E+00  0.00000000000E+00  0.13055611514E+04  0.13055611514E+04  0.50400001928E-02 0.  1.
        1   -1    0    0  501    0  0.00000000000E+00  0.00000000000E+00 -0.26242710889E+04  0.26242710889E+04  0.50400001928E-02 0. -1.
    10030    2    1    2    0    0  0.00000000000E+00  0.00000000000E+00 -0.13187099375E+04  0.39298322403E+04  0.37019704939E+04 0.  0.
        5    1    3    3  502    0 -0.41712468293E+03  0.10424652101E+04  0.90274880576E+03  0.14407304438E+04  0.46999998093E+01 0.  1.
       -5    1    3    3    0  502  0.41712468293E+03 -0.10424652101E+04 -0.22214587433E+04  0.24891017965E+04  0.46999998093E+01 0. -1.
</event>
<event>
 5   0  0.5161550E-07  0.2460768E+04  0.7818609E-02  0.8417097E-01
       -2   -1    0    0    0  501  0.00000000000E+00  0.00000000000E+00  0.11551744172E+04  0.11551744172E+04  0.25500000920E-02 0. -1.
        2   -1    0    0  501    0  0.00000000000E+00  0.00000000000E+00 -0.13104902894E+04  0.13104902894E+04  0.25500000920E-02 0.  1.
    10030    2    1    2    0    0  0.00000000000E+00  0.00000000000E+00 -0.15531587223E+03  0.24656647066E+04  0.24607680560E+04 0.  0.
        2    1    3    3  502    0  0.71479036926E+03  0.98516483283E+03  0.10261626965E+03  0.12214766140E+04  0.25500000920E-02 0.  1.
       -2    1    3    3    0  502 -0.71479036926E+03 -0.98516483283E+03 -0.25793214188E+03  0.12441880926E+04  0.25500000920E-02 0. -1.
</event>
<event>
 5   0  0.6043512E-07  0.3220422E+04  0.7818609E-02  0.8183445E-01
        2   -1    0    0  501    0  0.00000000000E+00  0.00000000000E+00  0.16873730305E+04  0.16873730305E+04  0.25500000920E-02 0. -1.
       -2   -1    0    0    0  501  0.00000000000E+00  0.00000000000E+00 -0.15365770532E+04  0.15365770532E+04  0.25500000920E-02 0.  1.
    10030    2    1    2    0    0  0.00000000000E+00  0.00000000000E+00  0.15079597729E+03  0.32239500837E+04  0.32204215121E+04 0.  0.
        3    1    3    3  502    0 -0.61745693755E+03 -0.13352680039E+04  0.73077929794E+03  0.16426296309E+04  0.10100000352E+00 0. -1.
       -3    1    3    3    0  502  0.61745693755E+03  0.13352680039E+04 -0.57998332065E+03  0.15813204528E+04  0.10100000352E+00 0.  1.
</event>
<event>
 5   0  0.2647879E-07  0.4009901E+04  0.7818609E-02  0.8002552E-01
        1   -1    0    0  501    0  0.00000000000E+00  0.00000000000E+00  0.27243774278E+04  0.27243774278E+04  0.50400001928E-02 0.  1.
       -1   -1    0    0    0  501  0.00000000000E+00  0.00000000000E+00 -0.14755026433E+04  0.14755026433E+04  0.50400001928E-02 0. -1.
    10030    2    1    2    0    0  0.00000000000E+00  0.00000000000E+00  0.12488747845E+04  0.41998800711E+04  0.40099007948E+04 0.  0.
        2    1    3    3  502    0 -0.17128201292E+04 -0.10312240894E+04  0.78206746454E+03  0.21468128556E+04  0.25500000920E-02 0. -1.
       -2    1    3    3    0  502  0.17128201292E+04  0.10312240894E+04  0.46680731996E+03  0.20530672156E+04  0.25500000920E-02 0.  1.
</event>
<event>
 5   0  0.6043512E-07  0.3603136E+04  0.7818609E-02  0.8089774E-01
       -2   -1    0    0    0  501  0.00000000000E+00  0.00000000000E+00  0.17947658364E+04  0.17947658364E+04  0.25500000920E-02 0.  1.
        2   -1    0    0  501    0  0.00000000000E+00  0.00000000000E+00 -0.18083956866E+04  0.18083956866E+04  0.25500000920E-02 0. -1.
    10030    2    1    2    0    0  0.00000000000E+00  0.00000000000E+00 -0.13629850211E+02  0.36031615230E+04  0.36031357437E+04 0.  0.
        3    1    3    3  502    0 -0.93606427863E+02 -0.14630042660E+04  0.10403330260E+04  0.17976196652E+04  0.10100000352E+00 0. -1.
       -3    1    3    3    0  502  0.93606427863E+02  0.14630042660E+04 -0.10539628762E+04  0.18055418578E+04  0.10100000352E+00 0.  1.
</event>
<event>
 5   0  0.6043512E-07  0.4056421E+04  0.7818609E-02  0.7993260E-01
       -2   -1    0    0    0  501  0.00000000000E+00  0.00000000000E+00  0.29691760301E+04  0.29691760301E+04  0.25500000920E-02 0.  1.
        2   -1    0    0  501    0  0.00000000000E+00  0.00000000000E+00 -0.13854478888E+04  0.13854478888E+04  0.25500000920E-02 0. -1.
    10030    2    1    2    0    0  0.00000000000E+00  0.00000000000E+00  0.15837281412E+04  0.43546239189E+04  0.40564214093E+04 0.  0.
        3    1    3    3  502    0 -0.65127158311E+03  0.18121963395E+04  0.10832290650E+03  0.19287156633E+04  0.10100000352E+00 0. -1.
       -3    1    3    3    0  502  0.65127158311E+03 -0.18121963395E+04  0.14754052347E+04  0.24259082556E+04  0.10100000352E+00 0.  1.
</event>
<event>
 5   0  0.2601252E-07  0.4008910E+04  0.7818609E-02  0.8002751E-01
        1   -1    0    0  501    0  0.00000000000E+00  0.00000000000E+00  0.23692505910E+04  0.23692505910E+04  0.50400001928E-02 0.  1.
       -1   -1    0    0    0  501  0.00000000000E+00  0.00000000000E+00 -0.16958275924E+04  0.16958275924E+04  0.50400001928E-02 0. -1.
    10030    2    1    2    0    0  0.00000000000E+00  0.00000000000E+00  0.67342299868E+03  0.40650781834E+04  0.40089103385E+04 0.  0.
        3    1    3    3  502    0  0.14737366694E+04 -0.21315306529E+03 -0.10239180807E+04  0.18071364769E+04  0.10100000352E+00 0. -1.
       -3    1    3    3    0  502 -0.14737366694E+04  0.21315306529E+03  0.16973410794E+04  0.22579417065E+04  0.10100000352E+00 0.  1.
</event>
<event>
 5   0  0.2647879E-07  0.3106099E+04  0.7818609E-02  0.8214066E-01
        1   -1    0    0  501    0  0.00000000000E+00  0.00000000000E+00  0.15626978857E+04  0.15626978857E+04  0.50400001928E-02 0.  1.
       -1   -1    0    0    0  501  0.00000000000E+00  0.00000000000E+00 -0.15434608675E+04  0.15434608676E+04  0.50400001928E-02 0. -1.
    10030    2    1    2    0    0  0.00000000000E+00  0.00000000000E+00  0.19237018133E+02  0.31061587532E+04  0.31060991835E+04 0.  0.
        2    1    3    3  502    0 -0.10544948362E+04 -0.93427033159E+03 -0.64395551597E+03  0.15490316713E+04  0.25500000920E-02 0. -1.
       -2    1    3    3    0  502  0.10544948362E+04  0.93427033159E+03  0.66319253410E+03  0.15571270820E+04  0.25500000920E-02 0.  1.
</event>
<event>
 5   0  0.2713405E-07  0.3989620E+04  0.7818609E-02  0.8006644E-01
       -1   -1    0    0    0  501  0.00000000000E+00  0.00000000000E+00  0.24312160573E+04  0.24312160573E+04  0.50400001928E-02 0.  1.
        1   -1    0    0  501    0  0.00000000000E+00  0.00000000000E+00 -0.16367395554E+04  0.16367395554E+04  0.50400001928E-02 0. -1.
    10030    2    1    2    0    0  0.00000000000E+00  0.00000000000E+00  0.79447650199E+03  0.40679556127E+04  0.39896202770E+04 0.  0.
        1    1    3    3  502    0  0.16114704651E+04  0.10455559747E+04 -0.15113488494E+03  0.19268798898E+04  0.50400001928E-02 0. -1.
       -1    1    3    3    0  502 -0.16114704651E+04 -0.10455559747E+04  0.94561138693E+03  0.21410757229E+04  0.50400001928E-02 0.  1.
</event>
<event>
 5   0  0.2401125E-07  0.2656384E+04  0.7818609E-02  0.8349297E-01
       -1   -1    0    0    0  501  0.00000000000E+00  0.00000000000E+00  0.17825737471E+04  0.17825737471E+04  0.50400001928E-02 0.  1.
        1   -1    0    0  501    0  0.00000000000E+00  0.00000000000E+00 -0.98963310631E+03  0.98963310632E+03  0.50400001928E-02 0. -1.
    10030    2    1    2    0    0  0.00000000000E+00  0.00000000000E+00  0.79294064076E+03  0.27722068534E+04  0.26563840043E+04 0.  0.
        5    1    3    3  502    0 -0.12408262762E+03 -0.27597027076E+03  0.17461163861E+04  0.17721457651E+04  0.46999998093E+01 0.  1.
       -5    1    3    3    0  502  0.12408262762E+03  0.27597027076E+03 -0.95317574536E+03  0.10000610883E+04  0.46999998093E+01 0. -1.
</event>
<event>
 5   0  0.2401125E-07  0.2918285E+04  0.7818609E-02  0.8267458E-01
        1   -1    0    0  501    0  0.00000000000E+00  0.00000000000E+00  0.18567451685E+04  0.18567451685E+04  0.50400001928E-02 0.  1.
       -1   -1    0    0    0  501  0.00000000000E+00  0.00000000000E+00 -0.11466822700E+04  0.11466822701E+04  0.50400001928E-02 0. -1.
    10030    2    1    2    0    0  0.00000000000E+00  0.00000000000E+00  0.71006289849E+03  0.30034274386E+04  0.29182849517E+04 0.  0.
        5    1    3    3  502    0 -0.92000010378E+03  0.11245709233E+04  0.49316629043E+03  0.15343712173E+04  0.46999998093E+01 0. -1.
       -5    1    3    3    0  502  0.92000010378E+03 -0.11245709233E+04  0.21689660805E+03  0.14690562212E+04  0.46999998093E+01 0.  1.
</event>
<event>
 5   0  0.2601252E-07  0.2343187E+04  0.7818609E-02  0.8461085E-01
       -1   -1    0    0    0  501  0.00000000000E+00  0.00000000000E+00  0.62429889654E+03  0.62429889656E+03  0.50400001928E-02 0.  1.
        1   -1    0    0  501    0  0.00000000000E+00  0.00000000000E+00 -0.21986767868E+04  0.21986767868E+04  0.50400001928E-02 0. -1.
    10030    2    1    2    0    0  0.00000000000E+00  0.00000000000E+00 -0.15743778902E+04  0.28229756834E+04  0.23431871388E+04 0.  0.
        3    1    3    3  502    0 -0.44593978654E+03  0.65097649864E+03 -0.18305399596E+04  0.19933663108E+04  0.10100000352E+00 0. -1.
       -3    1    3    3    0  502  0.44593978654E+03 -0.65097649864E+03  0.25616206941E+03  0.82960937254E+03  0.10100000352E+00 0.  1.
</event>
<event>
 5   0  0.2647879E-07  0.3982897E+04  0.7818609E-02  0.8008006E-01
        1   -1    0    0  501    0  0.00000000000E+00  0.00000000000E+00  0.18452186665E+04  0.18452186665E+04  0.50400001928E-02 0.  1.
       -1   -1    0    0    0  501  0.00000000000E+00  0.00000000000E+00 -0.21492662774E+04  0.21492662774E+04  0.50400001928E-02 0. -1.
    10030    2    1    2    0    0  0.00000000000E+00  0.00000000000E+00 -0.30404761091E+03  0.39944849439E+04  0.39828965613E+04 0.  0.
        2    1    3    3  502    0 -0.13771570479E+04  0.58490070109E+03 -0.14700758491E+04  0.20975684415E+04  0.25500000920E-02 0. -1.
       -2    1    3    3    0  502  0.13771570479E+04 -0.58490070109E+03  0.11660282382E+04  0.18969165024E+04  0.25500000920E-02 0.  1.
</event>
<event>
 5   0  0.2401125E-07  0.2593652E+04  0.7818609E-02  0.8370361E-01
       -1   -1    0    0    0  501  0.00000000000E+00  0.00000000000E+00  0.71940979578E+03  0.71940979579E+03  0.50400001928E-02 0. -1.
        1   -1    0    0  501    0  0.00000000000E+00  0.00000000000E+00 -0.23376902462E+04  0.23376902462E+04  0.50400001928E-02 0.  1.
    10030    2    1    2    0    0  0.00000000000E+00  0.00000000000E+00 -0.16182804504E+04  0.30571000420E+04  0.25936516826E+04 0.  0.
        5    1    3    3  502    0 -0.91183121379E+02 -0.47350316882E+03 -0.22280817345E+04  0.22796688177E+04  0.46999998093E+01 0.  1.
       -5    1    3    3    0  502  0.91183121379E+02  0.47350316882E+03  0.60980128409E+03  0.77743122434E+03  0.46999998093E+01 0. -1.
</event>
<event>
 5   0  0.7256473E-07  0.2932169E+04  0.7818609E-02  0.8263370E-01
        2   -1    0    0  501    0  0.00000000000E+00  0.00000000000E+00  0.19550949455E+04  0.19550949455E+04  0.25500000920E-02 0. -1.
       -2   -1    0    0    0  501  0.00000000000E+00  0.00000000000E+00 -0.10993860185E+04  0.10993860185E+04  0.25500000920E-02 0.  1.
    10030    2    1    2    0    0  0.00000000000E+00  0.00000000000E+00  0.85570892697E+03  0.30544809640E+04  0.29321691956E+04 0.  0.
        4    1    3    3  502    0  0.10849421574E+04 -0.95132359111E+03  0.69807102411E+03  0.16029413051E+04  0.12699999809E+01 0. -1.
       -4    1    3    3    0  502 -0.10849421574E+04  0.95132359111E+03  0.15763790285E+03  0.14515396589E+04  0.12699999809E+01 0.  1.
</event>
<event>
 5   0  0.3579559E-07  0.2821366E+04  0.7818609E-02  0.8296666E-01
       -1   -1    0    0    0  501  0.00000000000E+00  0.00000000000E+00  0.99320943331E+03  0.99320943332E+03  0.50400001928E-02 0.  1.
        1   -1    0    0  501    0  0.00000000000E+00  0.00000000000E+00 -0.20036321225E+04  0.20036321225E+04  0.50400001928E-02 0. -1.
    10030    2    1    2    0    0  0.00000000000E+00  0.00000000000E+00 -0.10104226892E+04  0.29968415559E+04  0.28213658572E+04 0.  0.
        4    1    3    3  502    0 -0.21057928163E+03  0.52112497791E+03 -0.18795581896E+04  0.19617990411E+04  0.12699999809E+01 0. -1.
       -4    1    3    3    0  502  0.21057928163E+03 -0.52112497791E+03  0.86913550040E+03  0.10350425148E+04  0.12699999809E+01 0.  1.
</event>
<event>
 5   0  0.7256473E-07  0.3781325E+04  0.7818609E-02  0.8050174E-01
       -2   -1    0    0    0  501  0.00000000000E+00  0.00000000000E+00  0.15335424618E+04  0.15335424618E+04  0.25500000920E-02 0. -1.
        2   -1    0    0  501    0  0.00000000000E+00  0.00000000000E+00 -0.23309465622E+04  0.23309465622E+04  0.25500000920E-02 0.  1.
    10030    2    1    2    0    0  0.00000000000E+00  0.00000000000E+00 -0.79740410034E+03  0.38644890240E+04  0.37813254445E+04 0.  0.
        4    1    3    3  502    0 -0.45745967719E+03  0.70074473802E+02  0.14747607248E+04  0.15456715681E+04  0.12699999809E+01 0. -1.
       -4    1    3    3    0  502  0.45745967719E+03 -0.70074473802E+02 -0.22721648251E+04  0.23188174559E+04  0.12699999809E+01 0.  1.
</event>
<event>
 5   0  0.6043512E-07  0.2692165E+04  0.7818609E-02  0.8337552E-01
       -2   -1    0    0    0  501  0.00000000000E+00  0.00000000000E+00  0.16220573133E+04  0.16220573133E+04  0.25500000920E-02 0.  1.
        2   -1    0    0  501    0  0.00000000000E+00  0.00000000000E+00 -0.11170619005E+04  0.11170619005E+04  0.25500000920E-02 0. -1.
    10030    2    1    2    0    0  0.00000000000E+00  0.00000000000E+00  0.50499541277E+03  0.27391192138E+04  0.26921652439E+04 0.  0.
        3    1    3    3  502    0 -0.32201048089E+03  0.63410218507E+03  0.14153050276E+04  0.15839396018E+04  0.10100000352E+00 0.  1.
       -3    1    3    3    0  502  0.32201048089E+03 -0.63410218507E+03 -0.91030961478E+03  0.11551796120E+04  0.10100000352E+00 0. -1.
</event>
<event>
 5   0  0.6043512E-07  0.4001326E+04  0.7818609E-02  0.8004279E-01
        2   -1    0    0  501    0  0.00000000000E+00  0.00000000000E+00  0.13309346230E+04  0.13309346230E+04  0.25500000920E-02 0.  1.
       -2   -1    0    0    0  501  0.00000000000E+00  0.00000000000E+00 -0.30074002333E+04  0.30074002333E+04  0.25500000920E-02 0. -1.
    10030    2    1    2    0    0  0.00000000000E+00  0.00000000000E+00 -0.16764656104E+04  0.43383348563E+04  0.40013263280E+04 0.  0.
        3    1    3    3  502    0 -0.11906195197E+04 -0.12539761264E+04  0.25281254647E+03  0.17475540507E+04  0.10100000352E+00 0.  1.
       -3    1    3    3    0  502  0.11906195197E+04  0.12539761264E+04 -0.19292781568E+04  0.25907808056E+04  0.10100000352E+00 0. -1.
</event>
<event>
 5   0  0.3579559E-07  0.3861435E+04  0.7818609E-02  0.8033098E-01
        1   -1    0    0  501    0  0.00000000000E+00  0.00000000000E+00  0.28590014980E+04  0.28590014980E+04  0.50400001928E-02 0.  1.
       -1   -1    0    0    0  501  0.00000000000E+00  0.00000000000E+00 -0.13038361013E+04  0.13038361013E+04  0.50400001928E-02 0. -1.
    10030    2    1    2    0    0  0.00000000000E+00  0.00000000000E+00  0.15551653967E+04  0.41628375992E+04  0.38614346384E+04 0.  0.
        4    1    3    3  502    0 -0.18488580586E+04  0.23328777503E+03  0.13219399337E+04  0.22847814136E+04  0.12699999809E+01 0.  1.
       -4    1    3    3    0  502  0.18488580586E+04 -0.23328777503E+03  0.23322546301E+03  0.18780561856E+04  0.12699999809E+01 0. -1.
</event>
<event>
 5   0  0.5161550E-07  0.3380268E+04  0.7818609E-02  0.8142766E-01
        2   -1    0    0  501    0  0.00000000000E+00  0.00000000000E+00  0.24593437811E+04  0.24593437811E+04  0.25500000920E-02 0. -1.
       -2   -1    0    0    0  501  0.00000000000E+00  0.00000000000E+00 -0.11615105557E+04  0.11615105557E+04  0.25500000920E-02 0.  1.
    10030    2    1    2    0    0  0.00000000000E+00  0.00000000000E+00  0.12978332254E+04  0.36208543369E+04  0.33802684876E+04 0.  0.
        2    1    3    3  502    0 -0.78067246019E+03 -0.77856376684E+03  0.20210823462E+04  0.23022564755E+04  0.25500000920E-02 0. -1.
       -2    1    3    3    0  502  0.78067246019E+03  0.77856376684E+03 -0.72324912081E+03  0.13185978613E+04  0.25500000920E-02 0.  1.
</event>
<event>
 5   0  0.2713405E-07  0.4018059E+04  0.7818609E-02  0.8000913E-01
        1   -1    0    0  501    0  0.00000000000E+00  0.00000000000E+00  0.24236748299E+04  0.24236748299E+04  0.50400001928E-02 0. -1.
       -1   -1    0    0    0  501  0.00000000000E+00  0.00000000000E+00 -0.16653222319E+04  0.16653222319E+04  0.50400001928E-02 0.  1.
    10030    2    1    2    0    0  0.00000000000E+00  0.00000000000E+00  0.75835259802E+03  0.40889970618E+04  0.40180590225E+04 0.  0.
        1    1    3    3  502    0  0.72609794286E+03 -0.17345950363E+04  0.10988830540E+04  0.21779766135E+04  0.50400001928E-02 0. -1.
       -1    1    3    3    0  502 -0.72609794286E+03  0.17345950363E+04 -0.34053045599E+03  0.19110204483E+04  0.50400001928E-02 0.  1.
</event>
<event>
 5   0  0.2713405E-07  0.2478823E+04  0.7818609E-02  0.8410569E-01
       -1   -1    0    0    0  501  0.00000000000E+00  0.00000000000E+00  0.10532409069E+04  0.10532409069E+04  0.50400001928E-02 0.  1.
        1   -1    0    0  501    0  0.00000000000E+00  0.00000000000E+00 -0.14584891204E+04  0.14584891204E+04  0.50400001928E-02 0. -1.
    10030    2    1    2    0    0  0.00000000000E+00  0.00000000000E+00 -0.40524821350E+03  0.25117300274E+04  0.24788226269E+04 0.  0.
        1    1    3    3  502    0  0.10477168990E+04 -0.35892027865E+03  0.36118507729E+03  0.11648987625E+04  0.50400001928E-02 0.  1.
       -1    1    3    3    0  502 -0.10477168990E+04  0.35892027865E+03 -0.76643329079E+03  0.13468312649E+04  0.50400001928E-02 0. -1.
</event>
<event>
 5   0  0.5161550E-07  0.3955529E+04  0.7818609E-02  0.8013578E-01
       -2   -1    0    0    0  501  0.00000000000E+00  0.00000000000E+00  0.25025685019E+04  0.25025685019E+04  0.25500000920E-02 0. -1.
        2   -1    0    0  501    0  0.00000000000E+00  0.00000000000E+00 -0.15630151858E+04  0.15630151858E+04  0.25500000920E-02 0.  1.
    10030    2    1    2    0    0  0.00000000000E+00  0.00000000000E+00  0.93955331610E+03  0.40655836878E+04  0.39555290782E+04 0.  0.
        2    1    3    3  502    0 -0.19100156112E+04 -0.51064676680E+03  0.52251526282E+03  0.20449796956E+04  0.25500000920E-02 0.  1.
       -2    1    3    3    0  502  0.19100156112E+04  0.51064676680E+03  0.41703805328E+03  0.20206039922E+04  0.25500000920E-02 0. -1.
</event>
<event>
 5   0  0.2601252E-07  0.3865499E+04  0.7818609E-02  0.8032243E-01
        1   -1    0    0  501    0  0.00000000000E+00  0.00000000000E+00  0.25094824107E+04  0.25094824107E+04  0.50400001928E-02 0. -1.
       -1   -1    0    0    0  501  0.00000000000E+00  0.00000000000E+00 -0.14885623284E+04  0.14885623284E+04  0.50400001928E-02 0.  1.
    10030    2    1    2    0    0  0.00000000000E+00  0.00000000000E+00  0.10209200823E+04  0.39980447391E+04  0.38654991814E+04 0.  0.
        3    1    3    3  502    0  0.56724266891E+03 -0.70688714837E+03  0.22760581364E+04  0.24498763920E+04  0.10100000352E+00 0. -1.
       -3    1    3    3    0  502 -0.56724266891E+03  0.70688714837E+03 -0.12551380540E+04  0.15481683470E+04  0.10100000352E+00 0.  1.
</event>
<event>
 5   0  0.4843565E-07  0.2160475E+04  0.7818609E-02  0.8535062E-01
        2   -1    0    0  501    0  0.00000000000E+00  0.00000000000E+00  0.16172136653E+04  0.16172136653E+04  0.25500000920E-02 0.  1.
       -2   -1    0    0    0  501  0.00000000000E+00  0.00000000000E+00 -0.72155788022E+03  0.72155788023E+03  0.25500000920E-02 0. -1.
    10030    2    1    2    0    0  0.00000000000E+00  0.00000000000E+00  0.89565578507E+03  0.23387715455E+04  0.21604751924E+04 0.  0.
        1    1    3    3  502    0 -0.13299892652E+03 -0.33262849412E+03 -0.65538438830E+03  0.74689967600E+03  0.50400001928E-02 0. -1.
       -1    1    3    3    0  502  0.13299892652E+03  0.33262849412E+03  0.15510401734E+04  0.15918718695E+04  0.50400001928E-02 0.  1.
</event>
<event>
 5   0  0.4449262E-07  0.3750228E+04  0.7818609E-02  0.8056921E-01
       -2   -1    0    0    0  501  0.00000000000E+00  0.00000000000E+00  0.12628954742E+04  0.12628954742E+04  0.25500000920E-02 0.  1.
        2   -1    0    0  501    0  0.00000000000E+00  0.00000000000E+00 -0.27841202838E+04  0.27841202838E+04  0.25500000920E-02 0. -1.
    10030    2    1    2    0    0  0.00000000000E+00  0.00000000000E+00 -0.15212248096E+04  0.40470157580E+04  0.37502282096E+04 0.  0.
        1    1    3    3  502    0 -0.11724387520E+03  0.16022373148E+04  0.28294433120E+03  0.16312473859E+04  0.50400001928E-02 0.  1.
       -1    1    3    3    0  502  0.11724387520E+03 -0.16022373148E+04 -0.18041691408E+04  0.24157683721E+04  0.50400001928E-02 0. -1.
</event>
<event>
 5   0  0.5161550E-07  0.3412053E+04  0.7818609E-02  0.8134954E-01
       -2   -1    0    0    0  501  0.00000000000E+00  0.00000000000E+00  0.13967633186E+04  0.13967633186E+04  0.25500000920E-02 0.  1.
        2   -1    0    0  501    0  0.00000000000E+00  0.00000000000E+00 -0.20837654417E+04  0.20837654417E+04  0.25500000920E-02 0. -1.
    10030    2    1    2    0    0  0.00000000000E+00  0.00000000000E+00 -0.68700212304E+03  0.34805287603E+04  0.34120534190E+04 0.  0.
        2    1    3    3  502    0  0.12309503233E+04  0.51677082025E+03 -0.14270023940E+04  0.19541306536E+04  0.25500000920E-02 0. -1.
       -2    1    3    3    0  502 -0.12309503233E+04 -0.51677082025E+03  0.74000027095E+03  0.15263981067E+04  0.25500000920E-02 0.  1.
</event>
<event>
 5   0  0.2647879E-07  0.3163622E+04  0.7818609E-02  0.8198491E-01
        1   -1    0    0  501    0  0.00000000000E+00  0.00000000000E+00  0.13727628247E+04  0.13727628247E+04  0.50400001928E-02 0.  1.
       -1   -1    0    0    0  501  0.00000000000E+00  0.00000000000E+00 -0.18226937758E+04  0.18226937758E+04  0.50400001928E-02 0. -1.
    10030    2    1    2    0    0  0.00000000000E+00  0.00000000000E+00 -0.44993095106E+03  0.31954566005E+04  0.31636221369E+04 0.  0.
        2    1    3    3  502    0  0.99707369910E+03  0.97232148939E+03 -0.98255369310E+03  0.17043992490E+04  0.25500000920E-02 0. -1.
       -2    1    3    3    0  502 -0.99707369910E+03 -0.97232148939E+03  0.53262274204E+03  0.14910573515E+04  0.25500000920E-02 0.  1.
</event>
<event>
 5   0  0.7256473E-07  0.3999483E+04  0.7818609E-02  0.8004651E-01
        2   -1    0    0  501    0  0.00000000000E+00  0.00000000000E+00  0.22896381222E+04  0.22896381222E+04  0.25500000920E-02 0.  1.
       -2   -1    0    0    0  501  0.00000000000E+00  0.00000000000E+00 -0.17465497862E+04  0.17465497862E+04  0.25500000920E-02 0. -1.
    10030    2    1    2    0    0  0.00000000000E+00  0.00000000000E+00  0.54308833597E+03  0.40361879085E+04  0.39994834531E+04 0.  0.
        4    1    3    3  502    0  0.18050092610E+04 -0.60854999811E+03  0.88587858159E+03  0.21007555800E+04  0.12699999809E+01 0.  1.
       -4    1    3    3    0  502 -0.18050092610E+04  0.60854999811E+03 -0.34279024562E+03  0.19354323285E+04  0.12699999809E+01 0. -1.
</event>
<event>
 5   0  0.5161550E-07  0.4062690E+04  0.7818609E-02  0.7992018E-01
        2   -1    0    0  501    0  0.00000000000E+00  0.00000000000E+00  0.25403363840E+04  0.25403363840E+04  0.25500000920E-02 0. -1.
       -2   -1    0    0    0  501  0.00000000000E+00  0.00000000000E+00 -0.16243372525E+04  0.16243372525E+04  0.25500000920E-02 0.  1.
    10030    2    1    2    0    0  0.00000000000E+00  0.00000000000E+00  0.91599913150E+03  0.41646736365E+04  0.40626902527E+04 0.  0.
        2    1    3    3  502    0 -0.28665812814E+03  0.16582409462E+04  0.16242882465E+04  0.23388561789E+04  0.25500000920E-02 0. -1.
       -2    1    3    3    0  502  0.28665812814E+03 -0.16582409462E+04 -0.70828911501E+03  0.18258174576E+04  0.25500000920E-02 0.  1.
</event>
<event>
 5   0  0.7256473E-07  0.2331276E+04  0.7818609E-02  0.8465690E-01
        2   -1    0    0  501    0  0.00000000000E+00  0.00000000000E+00  0.12440322747E+04  0.12440322747E+04  0.25500000920E-02 0.  1.
       -2   -1    0    0    0  501  0.00000000000E+00  0.00000000000E+00 -0.10921839946E+04  0.10921839946E+04  0.25500000920E-02 0. -1.
    10030    2    1    2    0    0  0.00000000000E+00  0.00000000000E+00  0.15184828009E+03  0.23362162694E+04  0.23312761649E+04 0.  0.
        4    1    3    3  502    0  0.75575711280E+03  0.45244800541E+03  0.84097658382E+03  0.12178346516E+04  0.12699999809E+01 0.  1.
       -4    1    3    3    0  502 -0.75575711280E+03 -0.45244800541E+03 -0.68912830372E+03  0.11183816178E+04  0.12699999809E+01 0. -1.
</event>
<event>
 5   0  0.4449262E-07  0.4039401E+04  0.7818609E-02  0.7996645E-01
       -2   -1    0    0    0  501  0.00000000000E+00  0.00000000000E+00  0.19391882711E+04  0.19391882711E+04  0.25500000920E-02 0. -1.
        2   -1    0    0  501    0  0.00000000000E+00  0.00000000000E+00 -0.21035551765E+04  0.21035551765E+04  0.25500000920E-02 0.  1.
    10030    2    1    2    0    0  0.00000000000E+00  0.00000000000E+00 -0.16436690537E+03  0.40427434477E+04  0.40394007110E+04 0.  0.
        1    1    3    3  502    0 -0.10364575369E+04  0.16995689838E+04 -0.42365572998E+03  0.20352550539E+04  0.50400001928E-02 0. -1.
       -1    1    3    3    0  502  0.10364575369E+04 -0.16995689838E+04  0.25928882460E+03  0.20074883938E+04  0.50400001928E-02 0.  1.
</event>
<event>
 5   0  0.6043512E-07  0.3867330E+04  0.7818609E-02  0.8031858E-01
        2   -1    0    0  501    0  0.00000000000E+00  0.00000000000E+00  0.12871809228E+04  0.12871809228E+04  0.25500000920E-02 0.  1.
       -2   -1    0    0    0  501  0.00000000000E+00  0.00000000000E+00 -0.29048444140E+04  0.29048444140E+04  0.25500000920E-02 0. -1.
    10030    2    1    2    0    0  0.00000000000E+00  0.00000000000E+00 -0.16176634912E+04  0.41920253368E+04  0.38673299903E+04 0.  0.
        3    1    3    3  502    0 -0.15495241971E+04 -0.10914149367E+04 -0.39344998013E+03  0.19357207181E+04  0.10100000352E+00 0.  1.
       -3    1    3    3    0  502  0.15495241971E+04  0.10914149367E+04 -0.12242135111E+04  0.22563046187E+04  0.10100000352E+00 0. -1.
</event>
<event>
 5   0  0.4449262E-07  0.3092525E+04  0.7818609E-02  0.8217792E-01
        2   -1    0    0  501    0  0.00000000000E+00  0.00000000000E+00  0.20291048332E+04  0.20291048332E+04  0.25500000920E-02 0. -1.
       -2   -1    0    0    0  501  0.00000000000E+00  0.00000000000E+00 -0.11783167737E+04  0.11783167737E+04  0.25500000920E-02 0.  1.
    10030    2    1    2    0    0  0.00000000000E+00  0.00000000000E+00  0.85078805951E+03  0.32074216070E+04  0.30925253504E+04 0.  0.
        1    1    3    3  502    0 -0.13249305075E+04  0.75002948157E+03  0.70550824677E+03  0.16780128006E+04  0.50400001928E-02 0. -1.
       -1    1    3    3    0  502  0.13249305075E+04 -0.75002948157E+03  0.14527981273E+03  0.15294088063E+04  0.50400001928E-02 0.  1.
</event>
<event>
 5   0  0.5161550E-07  0.2363443E+04  0.7818609E-02  0.8453318E-01
        2   -1    0    0  501    0  0.00000000000E+00  0.00000000000E+00  0.23683359105E+04  0.23683359105E+04  0.25500000920E-02 0. -1.
       -2   -1    0    0    0  501  0.00000000000E+00  0.00000000000E+00 -0.58964008424E+03  0.58964008424E+03  0.25500000920E-02 0.  1.
    10030    2    1    2    0    0  0.00000000000E+00  0.00000000000E+00  0.17786958262E+04  0.29579759947E+04  0.23634430696E+04 0.  0.
        2    1    3    3  502    0 -0.29327206588E+03 -0.50579739193E+03  0.21746310044E+04  0.22518569030E+04  0.25500000920E-02 0. -1.
       -2    1    3    3    0  502  0.29327206588E+03  0.50579739193E+03 -0.39593517819E+03  0.70611909169E+03  0.25500000920E-02 0.  1.
</event>
<event>
 5   0  0.3579559E-07  0.2541740E+04  0.7818609E-02  0.8388265E-01
       -1   -1    0    0    0  501  0.00000000000E+00  0.00000000000E+00  0.98924985019E+03  0.98924985021E+03  0.50400001928E-02 0.  1.
        1   -1    0    0  501    0  0.00000000000E+00  0.00000000000E+00 -0.16326620647E+04  0.16326620647E+04  0.50400001928E-02 0. -1.
    10030    2    1    2    0    0  0.00000000000E+00  0.00000000000E+00 -0.64341221451E+03  0.26219119149E+04  0.25417401149E+04 0.  0.
        4    1    3    3  502    0 -0.80695209393E+02 -0.12594244526E+04 -0.16715568918E+03  0.12730295778E+04  0.12699999809E+01 0. -1.
       -4    1    3    3    0  502  0.80695209393E+02  0.12594244526E+04 -0.47625652534E+03  0.13488823371E+04  0.12699999809E+01 0.  1.
</event>
<event>
 5   0  0.7570277E-07  0.4060152E+04  0.7818609E-02  0.7992521E-01
        2   -1    0    0  501    0  0.00000000000E+00  0.00000000000E+00  0.25352797608E+04  0.25352797608E+04  0.25500000920E-02 0.  1.
       -2   -1    0    0    0  501  0.00000000000E+00  0.00000000000E+00 -0.16255437110E+04  0.16255437110E+04  0.25500000920E-02 0. -1.
    10030    2    1    2    0    0  0.00000000000E+00  0.00000000000E+00  0.90973604979E+03  0.41608234719E+04  0.40601517563E+04 0.  0.
        5    1    3    3  502    0  0.49712074397E+03  0.18531881200E+04  0.11344475929E+04  0.22289972349E+04  0.46999998093E+01 0.  1.
       -5    1    3    3    0  502 -0.49712074397E+03 -0.18531881200E+04 -0.22471154312E+03  0.19318262370E+04  0.46999998093E+01 0. -1.
</event>
<event>
 5   0  0.2601252E-07  0.4000900E+04  0.7818609E-02  0.8004365E-01
       -1   -1    0    0    0  501  0.00000000000E+00  0.00000000000E+00  0.14485411093E+04  0.14485411093E+04  0.50400001928E-02 0. -1.
        1   -1    0    0  501    0  0.00000000000E+00  0.00000000000E+00 -0.27626417361E+04  0.27626417361E+04  0.50400001928E-02 0.  1.
    10030    2    1    2    0    0  0.00000000000E+00  0.00000000000E+00 -0.13141006268E+04  0.42111828454E+04  0.40008999612E+04 0.  0.
        3    1    3    3  502    0  0.49655533329E+03  0.10805514706E+04  0.10361114586E+04  0.15772398817E+04  0.10100000352E+00 0. -1.
       -3    1    3    3    0  502 -0.49655533329E+03 -0.10805514706E+04 -0.23502120854E+04  0.26339429637E+04  0.10100000352E+00 0.  1.
</event>
<event>
 5   0  0.2401125E-07  0.2374391E+04  0.7818609E-02  0.8449154E-01
       -1   -1    0    0    0  501  0.00000000000E+00  0.00000000000E+00  0.12552301173E+04  0.12552301173E+04  0.50400001928E-02 0.  1.
        1   -1    0    0  501    0  0.00000000000E+00  0.00000000000E+00 -0.11228485689E+04  0.11228485689E+04  0.50400001928E-02 0. -1.
    10030    2    1    2    0    0  0.00000000000E+00  0.00000000000E+00  0.13238154840E+03  0.23780786863E+04  0.23743911565E+04 0.  0.
        5    1    3    3  502    0  0.11713278371E+03 -0.60808126076E+03  0.10806450299E+04  0.12455114128E+04  0.46999998093E+01 0.  1.
       -5    1    3    3    0  502 -0.11713278371E+03  0.60808126076E+03 -0.94826348150E+03  0.11325672735E+04  0.46999998093E+01 0. -1.
</event>
<event>
 5   0  0.2713405E-07  0.4014344E+04  0.7818609E-02  0.8001659E-01
       -1   -1    0    0    0  501  0.00000000000E+00  0.00000000000E+00  0.19145222776E+04  0.19145222776E+04  0.50400001928E-02 0.  1.
        1   -1    0    0  501    0  0.00000000000E+00  0.00000000000E+00 -0.21043053374E+04  0.21043053374E+04  0.50400001928E-02 0. -1.
    10030    2    1    2    0    0  0.00000000000E+00  0.00000000000E+00 -0.18978305979E+03  0.40188276150E+04  0.40143440048E+04 0.  0.
        1    1    3    3  502    0  0.18943139059E+04 -0.46274915035E+03 -0.57100392545E+03  0.20318974957E+04  0.50400001928E-02 0. -1.
       -1    1    3    3    0  502 -0.18943139059E+04  0.46274915035E+03  0.38122086566E+03  0.19869301192E+04  0.50400001928E-02 0.  1.
</event>
<event>
 5   0  0.7256473E-07  0.3909094E+04  0.7818609E-02  0.8023140E-01
       -2   -1    0    0    0  501  0.00000000000E+00  0.00000000000E+00  0.28576782883E+04  0.28576782883E+04  0.25500000920E-02 0. -1.
        2   -1    0    0  501    0  0.00000000000E+00  0.00000000000E+00 -0.13368385758E+04  0.13368385758E+04  0.25500000920E-02 0.  1.
    10030    2    1    2    0    0  0.00000000000E+00  0.00000000000E+00  0.15208397125E+04  0.41945168641E+04  0.39090943058E+04 0.  0.
        4    1    3    3  502    0 -0.20356713718E+03  0.11501391307E+04 -0.92116733735E+03  0.14875518396E+04  0.12699999809E+01 0.  1.
       -4    1    3    3    0  502  0.20356713718E+03 -0.11501391307E+04  0.24420070498E+04  0.27069650245E+04  0.12699999809E+01 0. -1.
</event>
<event>
 5   0  0.3579559E-07  0.4059661E+04  0.7818609E-02  0.7992618E-01
        1   -1    0    0  501    0  0.00000000000E+00  0.00000000000E+00  0.25374739715E+04  0.25374739715E+04  0.50400001928E-02 0. -1.
       -1   -1    0    0    0  501  0.00000000000E+00  0.00000000000E+00 -0.16237455504E+04  0.16237455504E+04  0.50400001928E-02 0.  1.
    10030    2    1    2    0    0  0.00000000000E+00  0.00000000000E+00  0.91372842102E+03  0.41612195219E+04  0.40596611043E+04 0.  0.
        4    1    3    3  502    0 -0.10642049965E+04  0.10716375861E+04  0.18469887700E+04  0.23858559303E+04  0.12699999809E+01 0. -1.
       -4    1    3    3    0  502  0.10642049965E+04 -0.10716375861E+04 -0.93326034902E+03  0.17753635916E+04  0.12699999809E+01 0.  1.
</event>
<event>
 5   0  0.6043512E-07  0.2261024E+04  0.7818609E-02  0.8493449E-01
        2   -1    0    0  501    0  0.00000000000E+00  0.00000000000E+00  0.13449817467E+04  0.13449817467E+04  0.25500000920E-02 0. -1.
       -2   -1    0    0    0  501  0.00000000000E+00  0.00000000000E+00 -0.95024105503E+03  0.95024105503E+03  0.25500000920E-02 0.  1.
    10030    2    1    2    0    0  0.00000000000E+00  0.00000000000E+00  0.39474069171E+03  0.22952228018E+04  0.22610235505E+04 0.  0.
        3    1    3    3  502    0 -0.55130252205E+03 -0.99015097756E+01 -0.80448419641E+03  0.97530884503E+03  0.10100000352E+00 0.  1.
       -3    1    3    3    0  502  0.55130252205E+03  0.99015097756E+01  0.11992248881E+04  0.13199139567E+04  0.10100000352E+00 0. -1.
</event>
<event>
 5   0  0.6043512E-07  0.2854723E+04  0.7818609E-02  0.8286477E-01
        2   -1    0    0  501    0  0.00000000000E+00  0.00000000000E+00  0.10991942935E+04  0.10991942935E+04  0.25500000920E-02 0.  1.
       -2   -1    0    0    0  501  0.00000000000E+00  0.00000000000E+00 -0.18535043654E+04  0.18535043654E+04  0.25500000920E-02 0. -1.
    10030    2    1    2    0    0  0.00000000000E+00  0.00000000000E+00 -0.75431007194E+03  0.29526986589E+04  0.28547233991E+04 0.  0.
        3    1    3    3  502    0  0.13561058651E+04  0.92417861192E+02  0.73454138660E+02  0.13612346231E+04  0.10100000352E+00 0.  1.
       -3    1    3    3    0  502 -0.13561058651E+04 -0.92417861192E+02 -0.82776421060E+03  0.15914640358E+04  0.10100000352E+00 0. -1.
</event>
<event>
 5   0  0.6043512E-07  0.3338141E+04  0.7818609E-02  0.8153258E-01
        2   -1    0    0  501    0  0.00000000000E+00  0.00000000000E+00  0.99692340067E+03  0.99692340067E+03  0.25500000920E-02 0.  1.
       -2   -1    0    0    0  501  0.00000000000E+00  0.00000000000E+00 -0.27943931635E+04  0.27943931635E+04  0.25500000920E-02 0. -1.
    10030    2    1    2    0    0  0.00000000000E+00  0.00000000000E+00 -0.17974697628E+04  0.37913165641E+04  0.33381407612E+04 0.  0.
        3    1    3    3  502    0  0.51269820342E+03  0.40506477504E+02  0.90468683162E+03  0.10406529181E+04  0.10100000352E+00 0.  1.
       -3    1    3    3    0  502 -0.51269820342E+03 -0.40506477504E+02 -0.27021565944E+04  0.27506636460E+04  0.10100000352E+00 0. -1.
</event>
<event>
 5   0  0.2401125E-07  0.4113747E+04  0.7818609E-02  0.7981985E-01
        1   -1    0    0  501    0  0.00000000000E+00  0.00000000000E+00  0.15646882402E+04  0.15646882402E+04  0.50400001928E-02 0. -1.
       -1   -1    0    0    0  501  0.00000000000E+00  0.00000000000E+00 -0.27038797728E+04  0.27038797728E+04  0.50400001928E-02 0.  1.
    10030    2    1    2    0    0  0.00000000000E+00  0.00000000000E+00 -0.11391915326E+04  0.42685680130E+04  0.41137471402E+04 0.  0.
        5    1    3    3  502    0  0.16675944633E+04 -0.45156100250E+03 -0.17278159080E+04  0.24433887400E+04  0.46999998093E+01 0.  1.
       -5    1    3    3    0  502 -0.16675944633E+04  0.45156100250E+03  0.58862437542E+03  0.18251792729E+04  0.46999998093E+01 0. -1.
</event>
<event>
 5   0  0.5161550E-07  0.3224061E+04  0.7818609E-02  0.8182491E-01
        2   -1    0    0  501    0  0.00000000000E+00  0.00000000000E+00  0.15122472432E+04  0.15122472432E+04  0.25500000920E-02 0. -1.
       -2   -1    0    0    0  501  0.00000000000E+00  0.00000000000E+00 -0.17183982625E+04  0.17183982625E+04  0.25500000920E-02 0.  1.
    10030    2    1    2    0    0  0.00000000000E+00  0.00000000000E+00 -0.20615101931E+03  0.32306455057E+04  0.32240614357E+04 0.  0.
        2    1    3    3  502    0  0.63724551147E+03 -0.14130921810E+04 -0.54639472973E+03  0.16436114366E+04  0.25500000920E-02 0.  1.
       -2    1    3    3    0  502 -0.63724551147E+03  0.14130921810E+04  0.34024371041E+03  0.15870340691E+04  0.25500000920E-02 0. -1.
</event>
<event>
 5   0  0.2647879E-07  0.2295539E+04  0.7818609E-02  0.8479682E-01
        1   -1    0    0  501    0  0.00000000000E+00  0.00000000000E+00  0.29796568290E+04  0.29796568290E+04  0.50400001928E-02 0.  1.
       -1   -1    0    0    0  501  0.00000000000E+00  0.00000000000E+00 -0.44212308902E+03  0.44212308905E+03  0.50400001928E-02 0. -1.
    10030    2    1    2    0    0  0.00000000000E+00  0.00000000000E+00  0.25375337400E+04  0.34217799181E+04  0.22955392234E+04 0.  0.
        2    1    3    3  502    0 -0.89741431315E+03  0.68562913971E+03  0.15740180204E+04  0.19372590160E+04  0.25500000920E-02 0. -1.
       -2    1    3    3    0  502  0.89741431315E+03 -0.68562913971E+03  0.96351571962E+03  0.14845209020E+04  0.25500000920E-02 0.  1.
</event>
<event>
 5   0  0.7256473E-07  0.2014268E+04  0.7818609E-02  0.8599979E-01
        2   -1    0    0  501    0  0.00000000000E+00  0.00000000000E+00  0.81243620940E+03  0.81243620940E+03  0.25500000920E-02 0. -1.
       -2   -1    0    0    0  501  0.00000000000E+00  0.00000000000E+00 -0.12484903578E+04  0.12484903578E+04  0.25500000920E-02 0.  1.
    10030    2    1    2    0    0  0.00000000000E+00  0.00000000000E+00 -0.43605414843E+03  0.20609265672E+04  0.20142678807E+04 0.  0.
        4    1    3    3  502    0 -0.75178213132E+03  0.58365589777E+03  0.11897556436E+03  0.95915972486E+03  0.12699999809E+01 0.  1.
       -4    1    3    3    0  502  0.75178213132E+03 -0.58365589777E+03 -0.55502971280E+03  0.11017668424E+04  0.12699999809E+01 0. -1.
</event>
<event>
 5   0  0.6043512E-07  0.2051424E+04  0.7818609E-02  0.8582949E-01
       -2   -1    0    0    0  501  0.00000000000E+00  0.00000000000E+00  0.12331068187E+04  0.12331068187E+04  0.25500000920E-02 0. -1.
        2   -1    0    0  501    0  0.00000000000E+00  0.00000000000E+00 -0.85319862233E+03  0.85319862234E+03  0.25500000920E-02 0.  1.
    10030    2    1    2    0    0  0.00000000000E+00  0.00000000000E+00  0.37990819635E+03  0.20863054410E+04  0.20514239337E+04 0.  0.
        3    1    3    3  502    0  0.53317330885E+03  0.44462843206E+03  0.95785361692E+03  0.11829842693E+04  0.10100000352E+00 0. -1.
       -3    1    3    3    0  502 -0.53317330885E+03 -0.44462843206E+03 -0.57794542056E+03  0.90332117169E+03  0.10100000352E+00 0.  1.
</event>
<event>
 5   0  0.7256473E-07  0.3810652E+04  0.7818609E-02  0.8043873E-01
       -2   -1    0    0    0  501  0.00000000000E+00  0.00000000000E+00  0.21622467777E+04  0.21622467777E+04  0.25500000920E-02 0. -1.
        2   -1    0    0  501    0  0.00000000000E+00  0.00000000000E+00 -0.16789327062E+04  0.16789327062E+04  0.25500000920E-02 0.  1.
    10030    2    1    2    0    0  0.00000000000E+00  0.00000000000E+00  0.48331407152E+03  0.38411794839E+04  0.38106518256E+04 0.  0.
        4    1    3    3  502    0 -0.39195534954E+03  0.11883089115E+04 -0.12067108654E+04  0.17383497320E+04  0.12699999809E+01 0.  1.
       -4    1    3    3    0  502  0.39195534954E+03 -0.11883089115E+04  0.16900249369E+04  0.21028297519E+04  0.12699999809E+01 0. -1.
</event>
<event>
 5   0  0.4449262E-07  0.4090447E+04  0.7818609E-02  0.7986545E-01
        2   -1    0    0  501    0  0.00000000000E+00  0.00000000000E+00  0.14862411586E+04  0.14862411586E+04  0.25500000920E-02 0.  1.
       -2   -1    0    0    0  501  0.00000000000E+00  0.00000000000E+00 -0.28144419830E+04  0.28144419830E+04  0.25500000920E-02 0. -1.
    10030    2    1    2    0    0  0.00000000000E+00  0.00000000000E+00 -0.13282008245E+04  0.43006831416E+04  0.40904471705E+04 0.  0.
        1    1    3    3  502    0 -0.36063450159E+03 -0.13040371317E+04  0.94847272884E+03  0.16523227898E+04  0.50400001928E-02 0.  1.
       -1    1    3    3    0  502  0.36063450159E+03  0.13040371317E+04 -0.22766735533E+04  0.26483603518E+04  0.50400001928E-02 0. -1.
</event>
<event>
 5   0  0.6043512E-07  0.2581976E+04  0.7818609E-02  0.8374349E-01
       -2   -1    0    0    0  501  0.00000000000E+00  0.00000000000E+00  0.13153384231E+04  0.13153384231E+04  0.25500000920E-02 0. -1.
        2   -1    0    0  501    0  0.00000000000E+00  0.00000000000E+00 -0.12670886825E+04  0.12670886825E+04  0.25500000920E-02 0.  1.
    10030    2    1    2    0    0  0.00000000000E+00  0.00000000000E+00  0.48249740537E+02  0.25824271056E+04  0.25819763202E+04 0.  0.
        3    1    3    3  502    0 -0.64237062048E+03  0.39537982597E+03  0.10720125170E+04  0.13107921527E+04  0.10100000352E+00 0. -1.
       -3    1    3    3    0  502  0.64237062048E+03 -0.39537982597E+03 -0.10237627764E+04  0.12716349529E+04  0.10100000352E+00 0.  1.
</event>
<event>
 5   0  0.2647879E-07  0.3699155E+04  0.7818609E-02  0.8068149E-01
        1   -1    0    0  501    0  0.00000000000E+00  0.00000000000E+00  0.21616510643E+04  0.21616510643E+04  0.50400001928E-02 0.  1.
       -1   -1    0    0    0  501  0.00000000000E+00  0.00000000000E+00 -0.15825572086E+04  0.15825572087E+04  0.50400001928E-02 0. -1.
    10030    2    1    2    0    0  0.00000000000E+00  0.00000000000E+00  0.57909385564E+03  0.37442082729E+04  0.36991547545E+04 0.  0.
        2    1    3    3  502    0  0.76227531539E+03  0.11821761244E+04 -0.92605164676E+03  0.16840949195E+04  0.25500000920E-02 0.  1.
       -2    1    3    3    0  502 -0.76227531539E+03 -0.11821761244E+04  0.15051455024E+04  0.20601133534E+04  0.25500000920E-02 0. -1.
</event>
<event>
 5   0  0.2713405E-07  0.3320085E+04  0.7818609E-02  0.8157804E-01
        1   -1    0    0  501    0  0.00000000000E+00  0.00000000000E+00  0.15188069860E+04  0.15188069860E+04  0.50400001928E-02 0.  1.
       -1   -1    0    0    0  501  0.00000000000E+00  0.00000000000E+00 -0.18144111989E+04  0.18144111990E+04  0.50400001928E-02 0. -1.
    10030    2    1    2    0    0  0.00000000000E+00  0.00000000000E+00 -0.29560421291E+03  0.33332181850E+04  0.33200845800E+04 0.  0.
        1    1    3    3  502    0  0.12089189346E+03  0.16553664818E+04 -0.17770862520E+03  0.16692613320E+04  0.50400001928E-02 0.  1.
       -1    1    3    3    0  502 -0.12089189346E+03 -0.16553664818E+04 -0.11789558771E+03  0.16639568530E+04  0.50400001928E-02 0. -1.
</event>
<event>
 5   0  0.2601252E-07  0.2460630E+04  0.7818609E-02  0.8417147E-01
       -1   -1    0    0    0  501  0.00000000000E+00  0.00000000000E+00  0.70195304096E+03  0.70195304098E+03  0.50400001928E-02 0.  1.
        1   -1    0    0  501    0  0.00000000000E+00  0.00000000000E+00 -0.21563772163E+04  0.21563772163E+04  0.50400001928E-02 0. -1.
    10030    2    1    2    0    0  0.00000000000E+00  0.00000000000E+00 -0.14544241753E+04  0.28583302572E+04  0.24606304432E+04 0.  0.
        3    1    3    3  502    0  0.51108344113E+03 -0.24608338389E+03 -0.19954132582E+04  0.20744727998E+04  0.10100000352E+00 0. -1.
       -3    1    3    3    0  502 -0.51108344113E+03  0.24608338389E+03  0.54098908293E+03  0.78385745749E+03  0.10100000352E+00 0.  1.
</event>
<event>
 5   0  0.4449262E-07  0.2524163E+04  0.7818609E-02  0.8394427E-01
       -2   -1    0    0    0  501  0.00000000000E+00  0.00000000000E+00  0.11714667658E+04  0.11714667658E+04  0.25500000920E-02 0. -1.
        2   -1    0    0  501    0  0.00000000000E+00  0.00000000000E+00 -0.13597057338E+04  0.13597057338E+04  0.25500000920E-02 0.  1.
    10030    2    1    2    0    0  0.00000000000E+00  0.00000000000E+00 -0.18823896797E+03  0.25311724996E+04  0.25241632898E+04 0.  0.
        1    1    3    3  502    0  0.21278529711E+03 -0.52394934086E+03  0.10373086059E+04  0.11814438786E+04  0.50400001928E-02 0. -1.
       -1    1    3    3    0  502 -0.21278529711E+03  0.52394934086E+03 -0.12255475739E+04  0.13497286210E+04  0.50400001928E-02 0.  1.
</event>
<event>
 5   0  0.6043512E-07  0.3150870E+04  0.7818609E-02  0.8201914E-01
       -2   -1    0    0    0  501  0.00000000000E+00  0.00000000000E+00  0.26938946993E+04  0.26938946993E+04  0.25500000920E-02 0. -1.
        2   -1    0    0  501    0  0.00000000000E+00  0.00000000000E+00 -0.92134112557E+03  0.92134112557E+03  0.25500000920E-02 0.  1.
    10030    2    1    2    0    0  0.00000000000E+00  0.00000000000E+00  0.17725535737E+04  0.36152358249E+04  0.31508703397E+04 0.  0.
        3    1    3    3  502    0  0.21764001000E+03  0.54061942716E+03  0.25656695104E+04  0.26310257669E+04  0.10100000352E+00 0. -1.
       -3    1    3    3    0  502 -0.21764001000E+03 -0.54061942716E+03 -0.79311593671E+03  0.98421005799E+03  0.10100000352E+00 0.  1.
</event>
<event>
 5   0  0.2601252E-07  0.3582091E+04  0.7818609E-02  0.8094606E-01
       -1   -1    0    0    0  501  0.00000000000E+00  0.00000000000E+00  0.20768903713E+04  0.20768903713E+04  0.50400001928E-02 0. -1.
        1   -1    0    0  501    0  0.00000000000E+00  0.00000000000E+00 -0.15445419000E+04  0.15445419000E+04  0.50400001928E-02 0.  1.
    10030    2    1    2    0    0  0.00000000000E+00  0.00000000000E+00  0.53234847133E+03  0.36214322713E+04  0.35820911212E+04 0.  0.
        3    1    3    3  502    0 -0.14820757239E+04  0.19784761013E+03  0.12629806842E+04  0.19572461131E+04  0.10100000352E+00 0. -1.
       -3    1    3    3    0  502  0.14820757239E+04 -0.19784761013E+03 -0.73063221292E+03  0.16641861582E+04  0.10100000352E+00 0.  1.
</event>
<event>
 5   0  0.3579559E-07  0.2700688E+04  0.7818609E-02  0.8334782E-01
        1   -1    0    0  501    0  0.00000000000E+00  0.00000000000E+00  0.10392268694E+04  0.10392268694E+04  0.50400001928E-02 0.  1.
       -1   -1    0    0    0  501  0.00000000000E+00  0.00000000000E+00 -0.17546009469E+04  0.17546009469E+04  0.50400001928E-02 0. -1.
    10030    2    1    2    0    0  0.00000000000E+00  0.00000000000E+00 -0.71537407743E+03  0.27938278163E+04  0.27006876525E+04 0.  0.
        4    1    3    3  502    0  0.83657394677E+03 -0.78850768050E+03  0.37514099796E+03  0.12092694951E+04  0.12699999809E+01 0.  1.
       -4    1    3    3    0  502 -0.83657394677E+03  0.78850768050E+03 -0.10905150754E+04  0.15845583212E+04  0.12699999809E+01 0. -1.
</event>
<event>
 5   0  0.2401125E-07  0.4047733E+04  0.7818609E-02  0.7994986E-01
       -1   -1    0    0    0  501  0.00000000000E+00  0.00000000000E+00  0.30485616684E+04  0.30485616685E+04  0.50400001928E-02 0. -1.
        1   -1    0    0  501    0  0.00000000000E+00  0.00000000000E+00 -0.13435960267E+04  0.13435960267E+04  0.50400001928E-02 0.  1.
    10030    2    1    2    0    0  0.00000000000E+00  0.00000000000E+00  0.17049656418E+04  0.43921576951E+04  0.40477328691E+04 0.  0.
        5    1    3    3  502    0  0.18581691450E+04 -0.32469265710E+03  0.16482290831E+04  0.25049748688E+04  0.46999998093E+01 0.  1.
       -5    1    3    3    0  502 -0.18581691450E+04  0.32469265710E+03  0.56736558687E+02  0.18871828263E+04  0.46999998093E+01 0. -1.
</event>
<event>
 5   0  0.5161550E-07  0.4108015E+04  0.7818609E-02  0.7983104E-01
        2   -1    0    0  501    0  0.00000000000E+00  0.00000000000E+00  0.22782694230E+04  0.22782694230E+04  0.25500000920E-02 0. -1.
       -2   -1    0    0    0  501  0.00000000000E+00  0.00000000000E+00 -0.18518208102E+04  0.18518208102E+04  0.25500000920E-02 0.  1.
    10030    2    1    2    0    0  0.00000000000E+00  0.00000000000E+00  0.42644861275E+03  0.41300902332E+04  0.41080149604E+04 0.  0.
        2    1    3    3  502    0  0.19849368996E+04  0.49508829491E+02 -0.31545421724E+03  0.20104569090E+04  0.25500000920E-02 0.  1.
       -2    1    3    3    0  502 -0.19849368996E+04 -0.49508829491E+02  0.74190282999E+03  0.21196333242E+04  0.25500000920E-02 0. -1.
</event>
<event>
 5   0  0.2647879E-07  0.2191994E+04  0.7818609E-02  0.8521768E-01
       -1   -1    0    0    0  501  0.00000000000E+00  0.00000000000E+00  0.12177794176E+04  0.12177794177E+04  0.50400001928E-02 0.  1.
        1   -1    0    0  501    0  0.00000000000E+00  0.00000000000E+00 -0.98639315772E+03  0.98639315773E+03  0.50400001928E-02 0. -1.
    10030    2    1    2    0    0  0.00000000000E+00  0.00000000000E+00  0.23138625992E+03  0.22041725754E+04  0.21919938734E+04 0.  0.
        2    1    3    3  502    0  0.54111593504E+03 -0.72865383927E+03 -0.50210332995E+03  0.10372321951E+04  0.25500000920E-02 0. -1.
       -2    1    3    3    0  502 -0.54111593504E+03  0.72865383927E+03  0.73348958988E+03  0.11669403803E+04  0.25500000920E-02 0.  1.
</event>
<event>
 5   0  0.5161550E-07  0.4007260E+04  0.7818609E-02  0.8003084E-01
        2   -1    0    0  501    0  0.00000000000E+00  0.00000000000E+00  0.23177839616E+04  0.23177839616E+04  0.25500000920E-02 0.  1.
       -2   -1    0    0    0  501  0.00000000000E+00  0.00000000000E+00 -0.17320570054E+04  0.17320570054E+04  0.25500000920E-02 0. -1.
    10030    2    1    2    0    0  0.00000000000E+00  0.00000000000E+00  0.58572695627E+03  0.40498409670E+04  0.40072603847E+04 0.  0.
        2    1    3    3  502    0 -0.15844120015E+04  0.53433023213E+03  0.14085247421E+04  0.21862781471E+04  0.25500000920E-02 0.  1.
       -2    1    3    3    0  502  0.15844120015E+04 -0.53433023213E+03 -0.82279778579E+03  0.18635628199E+04  0.25500000920E-02 0. -1.
</event>
<event>
 5   0  0.4449262E-07  0.2199193E+04  0.7818609E-02  0.8518764E-01
       -2   -1    0    0    0  501  0.00000000000E+00  0.00000000000E+00  0.59826135106E+03  0.59826135107E+03  0.25500000920E-02 0.  1.
        2   -1    0    0  501    0  0.00000000000E+00  0.00000000000E+00 -0.20210434108E+04  0.20210434108E+04  0.25500000920E-02 0. -1.
    10030    2    1    2    0    0  0.00000000000E+00  0.00000000000E+00 -0.14227820597E+04  0.26193047618E+04  0.21991927260E+04 0.  0.
        1    1    3    3  502    0 -0.81972874412E+03 -0.63177573013E+03 -0.11538653283E+04  0.15500003171E+04  0.50400001928E-02 0. -1.
       -1    1    3    3    0  502  0.81972874412E+03  0.63177573013E+03 -0.26891673144E+03  0.10693044448E+04  0.50400001928E-02 0.  1.
</event>
<event>
 5   0  0.6043512E-07  0.2125095E+04  0.7818609E-02  0.8550269E-01
        2   -1    0    0  501    0  0.00000000000E+00  0.00000000000E+00  0.15163139801E+04  0.15163139801E+04  0.25500000920E-02 0.  1.
       -2   -1    0    0    0  501  0.00000000000E+00  0.00000000000E+00 -0.74457364235E+03  0.74457364235E+03  0.25500000920E-02 0. -1.
    10030    2    1    2    0    0  0.00000000000E+00  0.00000000000E+00  0.77174033779E+03  0.22608876225E+04  0.21250952196E+04 0.  0.
        3    1    3    3  502    0 -0.56503671207E+03  0.62260876272E+03 -0.30533642893E+03  0.89450461286E+03  0.10100000352E+00 0. -1.
       -3    1    3    3    0  502  0.56503671207E+03 -0.62260876272E+03  0.10770767667E+04  0.13663830096E+04  0.10100000352E+00 0.  1.
</event>
<event>
 5   0  0.3579559E-07  0.2015615E+04  0.7818609E-02  0.8599355E-01
       -1   -1    0    0    0  501  0.00000000000E+00  0.00000000000E+00  0.39695786314E+03  0.39695786317E+03  0.50400001928E-02 0.  1.
        1   -1    0    0  501    0  0.00000000000E+00  0.00000000000E+00 -0.25586491857E+04  0.25586491857E+04  0.50400001928E-02 0. -1.
    10030    2    1    2    0    0  0.00000000000E+00  0.00000000000E+00 -0.21616913226E+04  0.29556070489E+04  0.20156149566E+04 0.  0.
        4    1    3    3  502    0 -0.31146596853E+03 -0.35598412920E+03 -0.23857685942E+04  0.24322066416E+04  0.12699999809E+01 0. -1.
       -4    1    3    3    0  502  0.31146596853E+03  0.35598412920E+03  0.22407727158E+03  0.52340040727E+03  0.12699999809E+01 0.  1.
</event>
<event>
 5   0  0.2401125E-07  0.2345935E+04  0.7818609E-02  0.8460027E-01
        1   -1    0    0  501    0  0.00000000000E+00  0.00000000000E+00  0.17236179823E+04  0.17236179823E+04  0.50400001928E-02 0. -1.
       -1   -1    0    0    0  501  0.00000000000E+00  0.00000000000E+00 -0.79823511570E+03  0.79823511572E+03  0.50400001928E-02 0.  1.
    10030    2    1    2    0    0  0.00000000000E+00  0.00000000000E+00  0.92538286655E+03  0.25218530980E+04  0.23459346960E+04 0.  0.
        5    1    3    3  502    0 -0.10547069282E+03  0.77991760779E+03  0.13976440621E+04  0.16040032906E+04  0.46999998093E+01 0. -1.
       -5    1    3    3    0  502  0.10547069282E+03 -0.77991760779E+03 -0.47226119558E+03  0.91784980734E+03  0.46999998093E+01 0.  1.
</event>
<event>
 5   0  0.7256473E-07  0.3074346E+04  0.7818609E-02  0.8222814E-01
       -2   -1    0    0    0  501  0.00000000000E+00  0.00000000000E+00  0.13968906805E+04  0.13968906805E+04  0.25500000920E-02 0. -1.
        2   -1    0    0  501    0  0.00000000000E+00  0.00000000000E+00 -0.16915433448E+04  0.16915433448E+04  0.25500000920E-02 0.  1.
    10030    2    1    2    0    0  0.00000000000E+00  0.00000000000E+00 -0.29465266432E+03  0.30884340253E+04  0.30743461965E+04 0.  0.
        4    1    3    3  502    0 -0.72894164864E+03  0.13532810033E+04 -0.13407040785E+03  0.15429523285E+04  0.12699999809E+01 0. -1.
       -4    1    3    3    0  502  0.72894164864E+03 -0.13532810033E+04 -0.16058225647E+03  0.15454816968E+04  0.12699999809E+01 0.  1.
</event>
<event>
 5   0  0.2401125E-07  0.3879178E+04  0.7818609E-02  0.8029374E-01
        1   -1    0    0  501    0  0.00000000000E+00  0.00000000000E+00  0.24904695421E+04  0.24904695421E+04  0.50400001928E-02 0.  1.
       -1   -1    0    0    0  501  0.00000000000E+00  0.00000000000E+00 -0.15105606977E+04  0.15105606977E+04  0.50400001928E-02 0. -1.
    10030    2    1    2    0    0  0.00000000000E+00  0.00000000000E+00  0.97990884437E+03  0.40010302398E+04  0.38791779589E+04 0.  0.
        5    1    3    3  502    0  0.16323600953E+04 -0.61260593366E+03  0.13664104733E+04  0.22151715920E+04  0.46999998093E+01 0.  1.
       -5    1    3    3    0  502 -0.16323600953E+04  0.61260593366E+03 -0.38650162888E+03  0.17858586478E+04  0.46999998093E+01 0. -1.
</event>
<event>
 5   0  0.2647879E-07  0.3286289E+04  0.7818609E-02  0.8166393E-01
       -1   -1    0    0    0  501  0.00000000000E+00  0.00000000000E+00  0.12419733569E+04  0.12419733570E+04  0.50400001928E-02 0. -1.
        1   -1    0    0  501    0  0.00000000000E+00  0.00000000000E+00 -0.21738983529E+04  0.21738983529E+04  0.50400001928E-02 0.  1.
    10030    2    1    2    0    0  0.00000000000E+00  0.00000000000E+00 -0.93192499593E+03  0.34158717098E+04  0.32862889922E+04 0.  0.
        2    1    3    3  502    0  0.72767633780E+03 -0.56284062549E+03 -0.18811250190E+04  0.20940233426E+04  0.25500000920E-02 0.  1.
       -2    1    3    3    0  502 -0.72767633780E+03  0.56284062549E+03  0.94920002302E+03  0.13218483673E+04  0.25500000920E-02 0. -1.
</event>
<event>
 5   0  0.5161550E-07  0.4146375E+04  0.7818609E-02  0.7975652E-01
       -2   -1    0    0    0  501  0.00000000000E+00  0.00000000000E+00  0.15036328590E+04  0.15036328590E+04  0.25500000920E-02 0.  1.
        2   -1    0    0  501    0  0.00000000000E+00  0.00000000000E+00 -0.28584806443E+04  0.28584806443E+04  0.25500000920E-02 0. -1.
    10030    2    1    2    0    0  0.00000000000E+00  0.00000000000E+00 -0.13548477852E+04  0.43621135033E+04  0.41463745241E+04 0.  0.
        2    1    3    3  502    0  0.18799214942E+04  0.20087681592E+03 -0.15723608615E+04  0.24590191131E+04  0.25500000920E-02 0. -1.
       -2    1    3    3    0  502 -0.18799214942E+04 -0.20087681592E+03  0.21751307630E+03  0.19030943902E+04  0.25500000920E-02 0.  1.
</event>
<event>
 5   0  0.6043512E-07  0.4116335E+04  0.7818609E-02  0.7981481E-01
        2   -1    0    0  501    0  0.00000000000E+00  0.00000000000E+00  0.21305178780E+04  0.21305178780E+04  0.25500000920E-02 0. -1.
       -2   -1    0    0    0  501  0.00000000000E+00  0.00000000000E+00 -0.19882741366E+04  0.19882741366E+04  0.25500000920E-02 0.  1.
    10030    2    1    2    0    0  0.00000000000E+00  0.00000000000E+00  0.14224374144E+03  0.41187920146E+04  0.41163350663E+04 0.  0.
        3    1    3    3  502    0 -0.12040958230E+04  0.15592002489E+04 -0.52513767657E+03  0.20388040016E+04  0.10100000352E+00 0.  1.
       -3    1    3    3    0  502  0.12040958230E+04 -0.15592002489E+04  0.66738141800E+03  0.20799880131E+04  0.10100000352E+00 0. -1.
</event>
<event>
 5   0  0.7256473E-07  0.4009248E+04  0.7818609E-02  0.8002684E-01
       -2   -1    0    0    0  501  0.00000000000E+00  0.00000000000E+00  0.24817777359E+04  0.24817777359E+04  0.25500000920E-02 0. -1.
        2   -1    0    0  501    0  0.00000000000E+00  0.00000000000E+00 -0.16192088428E+04  0.16192088428E+04  0.25500000920E-02 0.  1.
    10030    2    1    2    0    0  0.00000000000E+00  0.00000000000E+00  0.86256889302E+03  0.41009865787E+04  0.40092475383E+04 0.  0.
        4    1    3    3  502    0  0.13789889356E+04  0.10659096243E+04  0.14442685949E+04  0.22635563167E+04  0.12699999809E+01 0. -1.
       -4    1    3    3    0  502 -0.13789889356E+04 -0.10659096243E+04 -0.58169970188E+03  0.18374302620E+04  0.12699999809E+01 0.  1.
</event>
<event>
 5   0  0.2713405E-07  0.3823823E+04  0.7818609E-02  0.8041062E-01
       -1   -1    0    0    0  501  0.00000000000E+00  0.00000000000E+00  0.16779065899E+04  0.16779065899E+04  0.50400001928E-02 0. -1.
        1   -1    0    0  501    0  0.00000000000E+00  0.00000000000E+00 -0.21785510021E+04  0.21785510021E+04  0.50400001928E-02 0.  1.
    10030    2    1    2    0    0  0.00000000000E+00  0.00000000000E+00 -0.50064441212E+03  0.38564575920E+04  0.38238227380E+04 0.  0.
        1    1    3    3  502    0  0.14098613070E+04  0.56315605526E+03 -0.14223728370E+04  0.20803841316E+04  0.50400001928E-02 0.  1.
       -1    1    3    3    0  502 -0.14098613070E+04 -0.56315605526E+03  0.92172842492E+03  0.17760734604E+04  0.50400001928E-02 0. -1.
</event>
<event>
 5   0  0.3579559E-07  0.2297665E+04  0.7818609E-02  0.8478842E-01
        1   -1    0    0  501    0  0.00000000000E+00  0.00000000000E+00  0.11786349815E+04  0.11786349815E+04  0.50400001928E-02 0.  1.
       -1   -1    0    0    0  501  0.00000000000E+00  0.00000000000E+00 -0.11197835660E+04  0.11197835661E+04  0.50400001928E-02 0. -1.
    10030    2    1    2    0    0  0.00000000000E+00  0.00000000000E+00  0.58851415471E+02  0.22984185476E+04  0.22976649736E+04 0.  0.
        4    1    3    3  502    0  0.75513547168E+03 -0.73101056191E+03  0.49348350178E+03  0.11610915561E+04  0.12699999809E+01 0.  1.
       -4    1    3    3    0  502 -0.75513547168E+03  0.73101056191E+03 -0.43463208631E+03  0.11373269915E+04  0.12699999809E+01 0. -1.
</event>
<event>
 5   0  0.2871740E-07  0.2069076E+04  0.7818609E-02  0.8574989E-01
       -1   -1    0    0    0  501  0.00000000000E+00  0.00000000000E+00  0.78150479596E+03  0.78150479598E+03  0.50400001928E-02 0.  1.
        1   -1    0    0  501    0  0.00000000000E+00  0.00000000000E+00 -0.13694974319E+04  0.13694974319E+04  0.50400001928E-02 0. -1.
    10030    2    1    2    0    0  0.00000000000E+00  0.00000000000E+00 -0.58799263596E+03  0.21510022279E+04  0.20690759398E+04 0.  0.
        1    1    3    3  502    0  0.29619789895E+03 -0.31196323161E+03 -0.12721085800E+04  0.13428754568E+04  0.50400001928E-02 0. -1.
       -1    1    3    3    0  502 -0.29619789895E+03  0.31196323161E+03  0.68411594404E+03  0.80812677108E+03  0.50400001928E-02 0.  1.
</event>
<event>
 5   0  0.4449262E-07  0.3766724E+04  0.7818609E-02  0.8053334E-01
       -2   -1    0    0    0  501  0.00000000000E+00  0.00000000000E+00  0.16364500424E+04  0.16364500424E+04  0.25500000920E-02 0. -1.
        2   -1    0    0  501    0  0.00000000000E+00  0.00000000000E+00 -0.21675282314E+04  0.21675282314E+04  0.25500000920E-02 0.  1.
    10030    2    1    2    0    0  0.00000000000E+00  0.00000000000E+00 -0.53107818901E+03  0.38039782738E+04  0.37667235982E+04 0.  0.
        1    1    3    3  502    0 -0.88318270042E+03  0.16617133569E+04 -0.18896899338E+03  0.18912990888E+04  0.50400001928E-02 0. -1.
       -1    1    3    3    0  502  0.88318270042E+03 -0.16617133569E+04 -0.34210919563E+03  0.19126791850E+04  0.50400001928E-02 0.  1.
</event>
<event>
 5   0  0.5161550E-07  0.4073155E+04  0.7818609E-02  0.7989949E-01
       -2   -1    0    0    0  501  0.00000000000E+00  0.00000000000E+00  0.19760509062E+04  0.19760509062E+04  0.25500000920E-02 0.  1.
        2   -1    0    0  501    0  0.00000000000E+00  0.00000000000E+00 -0.20989582350E+04  0.20989582350E+04  0.25500000920E-02 0. -1.
    10030    2    1    2    0    0  0.00000000000E+00  0.00000000000E+00 -0.12290732877E+03  0.40750091412E+04  0.40731552008E+04 0.  0.
        2    1    3    3  502    0  0.35206783073E+03 -0.18895805702E+04  0.61204055879E+03  0.20171911497E+04  0.25500000920E-02 0. -1.
       -2    1    3    3    0  502 -0.35206783073E+03  0.18895805702E+04 -0.73494788756E+03  0.20578179915E+04  0.25500000920E-02 0.  1.
</event>
<event>
 5   0  0.7570277E-07  0.2150244E+04  0.7818609E-02  0.8539428E-01
       -2   -1    0    0    0  501  0.00000000000E+00  0.00000000000E+00  0.48985230855E+03  0.48985230856E+03  0.25500000920E-02 0.  1.
        2   -1    0    0  501    0  0.00000000000E+00  0.00000000000E+00 -0.23596646902E+04  0.23596646902E+04  0.25500000920E-02 0. -1.
    10030    2    1    2    0    0  0.00000000000E+00  0.00000000000E+00 -0.18698123816E+04  0.28495169987E+04  0.21502438893E+04 0.  0.
        5    1    3    3  502    0  0.35434212966E+03 -0.10959684406E+03  0.40236780041E+03  0.54725839408E+03  0.46999998093E+01 0.  1.
       -5    1    3    3    0  502 -0.35434212966E+03  0.10959684406E+03 -0.22721801820E+04  0.23022586046E+04  0.46999998093E+01 0. -1.
</event>
<event>
 5   0  0.7256473E-07  0.2685691E+04  0.7818609E-02  0.8339663E-01
       -2   -1    0    0    0  501  0.00000000000E+00  0.00000000000E+00  0.11286704881E+04  0.11286704881E+04  0.25500000920E-02 0. -1.
        2   -1    0    0  501    0  0.00000000000E+00  0.00000000000E+00 -0.15976621240E+04  0.15976621240E+04  0.25500000920E-02 0.  1.
    10030    2    1    2    0    0  0.00000000000E+00  0.00000000000E+00 -0.46899163591E+03  0.27263326121E+04  0.26856910390E+04 0.  0.
        4    1    3    3  502    0  0.12713245352E+04  0.30089692630E+03  0.80730966961E+02  0.13089400811E+04  0.12699999809E+01 0. -1.
       -4    1    3    3    0  502 -0.12713245352E+04 -0.30089692630E+03 -0.54972260287E+03  0.14173925310E+04  0.12699999809E+01 0.  1.
</event>
<event>
 5   0  0.6043512E-07  0.3963916E+04  0.7818609E-02  0.8011866E-01
       -2   -1    0    0    0  501  0.00000000000E+00  0.00000000000E+00  0.15175325435E+04  0.15175325435E+04  0.25500000920E-02 0. -1.
        2   -1    0    0  501    0  0.00000000000E+00  0.00000000000E+00 -0.25885164429E+04  0.25885164429E+04  0.25500000920E-02 0.  1.
    10030    2    1    2    0    0  0.00000000000E+00  0.00000000000E+00 -0.10709838994E+04  0.41060489864E+04  0.39639162158E+04 0.  0.
        3    1    3    3  502    0  0.74637009980E+03  0.34756313340E+03  0.13320083520E+04  0.15659229603E+04  0.10100000352E+00 0. -1.
       -3    1    3    3    0  502 -0.74637009980E+03 -0.34756313340E+03 -0.24029922515E+04  0.25401260261E+04  0.10100000352E+00 0.  1.
</event>
<event>
 5   0  0.2647879E-07  0.3965317E+04  0.7818609E-02  0.8011580E-01
       -1   -1    0    0    0  501  0.00000000000E+00  0.00000000000E+00  0.17114674449E+04  0.17114674449E+04  0.50400001928E-02 0.  1.
        1   -1    0    0  501    0  0.00000000000E+00  0.00000000000E+00 -0.22968208062E+04  0.22968208062E+04  0.50400001928E-02 0. -1.
    10030    2    1    2    0    0  0.00000000000E+00  0.00000000000E+00 -0.58535336122E+03  0.40082882511E+04  0.39653166515E+04 0.  0.
        2    1    3    3  502    0  0.14600804206E+04  0.13360984011E+04 -0.41202507506E+03  0.20215732573E+04  0.25500000920E-02 0. -1.
       -2    1    3    3    0  502 -0.14600804206E+04 -0.13360984011E+04 -0.17332828617E+03  0.19867149938E+04  0.25500000920E-02 0.  1.
</event>
<event>
 5   0  0.7256473E-07  0.4037726E+04  0.7818609E-02  0.7996979E-01
        2   -1    0    0  501    0  0.00000000000E+00  0.00000000000E+00  0.24120922668E+04  0.24120922668E+04  0.25500000920E-02 0.  1.
       -2   -1    0    0    0  501  0.00000000000E+00  0.00000000000E+00 -0.16897392591E+04  0.16897392591E+04  0.25500000920E-02 0. -1.
    10030    2    1    2    0    0  0.00000000000E+00  0.00000000000E+00  0.72235300771E+03  0.41018315259E+04  0.40377255973E+04 0.  0.
        4    1    3    3  502    0  0.70198356790E+03 -0.83438346711E+03 -0.13648661499E+04  0.17469510354E+04  0.12699999809E+01 0. -1.
       -4    1    3    3    0  502 -0.70198356790E+03  0.83438346711E+03  0.20872191577E+04  0.23548804905E+04  0.12699999809E+01 0.  1.
</event>
<event>
 5   0  0.3579559E-07  0.4031979E+04  0.7818609E-02  0.7998126E-01
        1   -1    0    0  501    0  0.00000000000E+00  0.00000000000E+00  0.22660331697E+04  0.22660331697E+04  0.50400001928E-02 0.  1.
       -1   -1    0    0    0  501  0.00000000000E+00  0.00000000000E+00 -0.17935364033E+04  0.17935364033E+04  0.50400001928E-02 0. -1.
    10030    2    1    2    0    0  0.00000000000E+00  0.00000000000E+00  0.47249676638E+03  0.40595695731E+04  0.40319786612E+04 0.  0.
        4    1    3    3  502    0 -0.19625318519E+04 -0.37906587955E+03  0.50070362786E+03  0.20605649581E+04  0.12699999809E+01 0. -1.
       -4    1    3    3    0  502  0.19625318519E+04  0.37906587955E+03 -0.28206861473E+02  0.19990046150E+04  0.12699999809E+01 0.  1.
</event>
<event>
 5   0  0.4449262E-07  0.3561755E+04  0.7818609E-02  0.8099309E-01
        2   -1    0    0  501    0  0.00000000000E+00  0.00000000000E+00  0.23289216936E+04  0.23289216936E+04  0.25500000920E-02 0. -1.
       -2   -1    0    0    0  501  0.00000000000E+00  0.00000000000E+00 -0.13617992609E+04  0.13617992609E+04  0.25500000920E-02 0.  1.
    10030    2    1    2    0    0  0.00000000000E+00  0.00000000000E+00  0.96712243274E+03  0.36907209545E+04  0.35617545345E+04 0.  0.
        1    1    3    3  502    0 -0.75977959462E+03 -0.49046879865E+03 -0.11061663367E+04  0.14287857220E+04  0.50400001928E-02 0.  1.
       -1    1    3    3    0  502  0.75977959462E+03  0.49046879865E+03  0.20732887694E+04  0.22619352326E+04  0.50400001928E-02 0. -1.
</event>
<event>
 5   0  0.2401125E-07  0.2134578E+04  0.7818609E-02  0.8546163E-01
        3   -1    0    0  501    0  0.00000000000E+00  0.00000000000E+00  0.14572643377E+04  0.14572643412E+04  0.10100000352E+00 0.  1.
       -3   -1    0    0    0  501  0.00000000000E+00  0.00000000000E+00 -0.78167413297E+03  0.78167413949E+03  0.10100000352E+00 0. -1.
    10030    2    1    2    0    0  0.00000000000E+00  0.00000000000E+00  0.67559020476E+03  0.22389384807E+04  0.21345780369E+04 0.  0.
        1    1    3    3  502    0  0.29027765125E+03 -0.19294336912E+03  0.13958846564E+04  0.14387432823E+04  0.50400001928E-02 0.  1.
       -1    1    3    3    0  502 -0.29027765125E+03  0.19294336912E+03 -0.72029445161E+03  0.80019519840E+03  0.50400001928E-02 0. -1.
</event>
<event>
 5   0  0.2401125E-07  0.2995077E+04  0.7818609E-02  0.8245138E-01
       -4   -1    0    0    0  501  0.00000000000E+00  0.00000000000E+00  0.12232823257E+04  0.12232829849E+04  0.12699999809E+01 0. -1.
        4   -1    0    0  501    0  0.00000000000E+00  0.00000000000E+00 -0.18332808976E+04  0.18332813375E+04  0.12699999809E+01 0.  1.
    10030    2    1    2    0    0  0.00000000000E+00  0.00000000000E+00 -0.60999857187E+03  0.30565643224E+04  0.29950771608E+04 0.  0.
        2    1    3    3  502    0 -0.10072373175E+04 -0.10990036765E+04 -0.45035114053E+03  0.15572900323E+04  0.25500000920E-02 0.  1.
       -2    1    3    3    0  502  0.10072373175E+04  0.10990036765E+04 -0.15964743134E+03  0.14992742902E+04  0.25500000920E-02 0. -1.
</event>
<event>
 5   0  0.5161550E-07  0.2514135E+04  0.7818609E-02  0.8397967E-01
       -2   -1    0    0    0  501  0.00000000000E+00  0.00000000000E+00  0.20315880555E+04  0.20315880555E+04  0.25500000920E-02 0.  1.
        2   -1    0    0  501    0  0.00000000000E+00  0.00000000000E+00 -0.77782451422E+03  0.77782451423E+03  0.25500000920E-02 0. -1.
    10030    2    1    2    0    0  0.00000000000E+00  0.00000000000E+00  0.12537635413E+04  0.28094125697E+04  0.25141352329E+04 0.  0.
        2    1    3    3  502    0  0.79732843060E+03  0.21805282566E+03 -0.43141731569E+03  0.93241651707E+03  0.25500000920E-02 0. -1.
       -2    1    3    3    0  502 -0.79732843060E+03 -0.21805282566E+03  0.16851808570E+04  0.18769960527E+04  0.25500000920E-02 0.  1.
</event>
<event>
 5   0  0.5161550E-07  0.4015893E+04  0.7818609E-02  0.8001348E-01
       -2   -1    0    0    0  501  0.00000000000E+00  0.00000000000E+00  0.16398999775E+04  0.16398999775E+04  0.25500000920E-02 0.  1.
        2   -1    0    0  501    0  0.00000000000E+00  0.00000000000E+00 -0.24585942591E+04  0.24585942591E+04  0.25500000920E-02 0. -1.
    10030    2    1    2    0    0  0.00000000000E+00  0.00000000000E+00 -0.81869428167E+03  0.40984942366E+04  0.40158927626E+04 0.  0.
        2    1    3    3  502    0 -0.18980232780E+03  0.45531360071E+03  0.15770982389E+04  0.16524449321E+04  0.25500000920E-02 0.  1.
       -2    1    3    3    0  502  0.18980232780E+03 -0.45531360071E+03 -0.23957925205E+04  0.24460493045E+04  0.25500000920E-02 0. -1.
</event>
<event>
 5   0  0.2647879E-07  0.3141249E+04  0.7818609E-02  0.8204508E-01
       -1   -1    0    0    0  501  0.00000000000E+00  0.00000000000E+00  0.15222689768E+04  0.15222689768E+04  0.50400001928E-02 0.  1.
        1   -1    0    0  501    0  0.00000000000E+00  0.00000000000E+00 -0.16205161965E+04  0.16205161965E+04  0.50400001928E-02 0. -1.
    10030    2    1    2    0    0  0.00000000000E+00  0.00000000000E+00 -0.98247219738E+02  0.31427851733E+04  0.31412491352E+04 0.  0.
        2    1    3    3  502    0  0.20083608113E+03  0.39071012882E+03  0.14595500922E+04  0.15242296441E+04  0.25500000920E-02 0.  1.
       -2    1    3    3    0  502 -0.20083608113E+03 -0.39071012882E+03 -0.15577973119E+04  0.16185555293E+04  0.25500000920E-02 0. -1.
</event>
<event>
 5   0  0.2672346E-07  0.2049682E+04  0.7818609E-02  0.8583739E-01
        1   -1    0    0  501    0  0.00000000000E+00  0.00000000000E+00  0.10807999777E+04  0.10807999777E+04  0.50400001928E-02 0. -1.
       -1   -1    0    0    0  501  0.00000000000E+00  0.00000000000E+00 -0.97177918931E+03  0.97177918932E+03  0.50400001928E-02 0.  1.
    10030    2    1    2    0    0  0.00000000000E+00  0.00000000000E+00  0.10902078839E+03  0.20525791670E+04  0.20496818545E+04 0.  0.
        3    1    3    3  502    0 -0.71227363588E+03  0.61499488811E+03 -0.35195307608E+03  0.10047006633E+04  0.10100000352E+00 0.  1.
       -3    1    3    3    0  502  0.71227363588E+03 -0.61499488811E+03  0.46097386448E+03  0.10478785038E+04  0.10100000352E+00 0. -1.
</event>
<event>
 5   0  0.6043512E-07  0.3929368E+04  0.7818609E-02  0.8018949E-01
        2   -1    0    0  501    0  0.00000000000E+00  0.00000000000E+00  0.11641983446E+04  0.11641983446E+04  0.25500000920E-02 0.  1.
       -2   -1    0    0    0  501  0.00000000000E+00  0.00000000000E+00 -0.33155710981E+04  0.33155710981E+04  0.25500000920E-02 0. -1.
    10030    2    1    2    0    0  0.00000000000E+00  0.00000000000E+00 -0.21513727535E+04  0.44797694427E+04  0.39293675745E+04 0.  0.
        3    1    3    3  502    0  0.91941309198E+03  0.26779223311E+03 -0.30314861581E+04  0.31791416217E+04  0.10100000352E+00 0. -1.
       -3    1    3    3    0  502 -0.91941309198E+03 -0.26779223311E+03  0.88011340455E+03  0.13006278210E+04  0.10100000352E+00 0.  1.
</event>
<event>
 5   0  0.4449262E-07  0.4022405E+04  0.7818609E-02  0.8000042E-01
        2   -1    0    0  501    0  0.00000000000E+00  0.00000000000E+00  0.29589986472E+04  0.29589986472E+04  0.25500000920E-02 0.  1.
       -2   -1    0    0    0  501  0.00000000000E+00  0.00000000000E+00 -0.13669943869E+04  0.13669943869E+04  0.25500000920E-02 0. -1.
    10030    2    1    2    0    0  0.00000000000E+00  0.00000000000E+00  0.15920042603E+04  0.43259930342E+04  0.40224045255E+04 0.  0.
        1    1    3    3  502    0  0.18772322346E+04 -0.23995756421E+03  0.63925486585E+02  0.18935857422E+04  0.50400001928E-02 0. -1.
       -1    1    3    3    0  502 -0.18772322346E+04  0.23995756421E+03  0.15280787737E+04  0.24324072919E+04  0.50400001928E-02 0.  1.
</event>
<event>
 5   0  0.6043512E-07  0.4013066E+04  0.7818609E-02  0.8001916E-01
        2   -1    0    0  501    0  0.00000000000E+00  0.00000000000E+00  0.18387510533E+04  0.18387510533E+04  0.25500000920E-02 0.  1.
       -2   -1    0    0    0  501  0.00000000000E+00  0.00000000000E+00 -0.21896243418E+04  0.21896243418E+04  0.25500000920E-02 0. -1.
    10030    2    1    2    0    0  0.00000000000E+00  0.00000000000E+00 -0.35087328852E+03  0.40283753950E+04  0.40130656933E+04 0.  0.
        3    1    3    3  502    0 -0.16999756614E+03 -0.13597134033E+04 -0.16467891391E+04  0.21423431542E+04  0.10100000352E+00 0. -1.
       -3    1    3    3    0  502  0.16999756614E+03  0.13597134033E+04  0.12959158506E+04  0.18860322408E+04  0.10100000352E+00 0.  1.
</event>
<event>
 5   0  0.3579559E-07  0.3148770E+04  0.7818609E-02  0.8202479E-01
        1   -1    0    0  501    0  0.00000000000E+00  0.00000000000E+00  0.18307130205E+04  0.18307130205E+04  0.50400001928E-02 0. -1.
       -1   -1    0    0    0  501  0.00000000000E+00  0.00000000000E+00 -0.13539468351E+04  0.13539468351E+04  0.50400001928E-02 0.  1.
    10030    2    1    2    0    0  0.00000000000E+00  0.00000000000E+00  0.47676618539E+03  0.31846598556E+04  0.31487699821E+04 0.  0.
        4    1    3    3  502    0  0.11035398482E+04  0.19740632871E+03  0.13563861110E+04  0.17597029153E+04  0.12699999809E+01 0. -1.
       -4    1    3    3    0  502 -0.11035398482E+04 -0.19740632871E+03 -0.87961992561E+03  0.14249569403E+04  0.12699999809E+01 0.  1.
</event>
<event>
 5   0  0.4449262E-07  0.4037098E+04  0.7818609E-02  0.7997104E-01
        2   -1    0    0  501    0  0.00000000000E+00  0.00000000000E+00  0.27285268216E+04  0.27285268216E+04  0.25500000920E-02 0. -1.
       -2   -1    0    0    0  501  0.00000000000E+00  0.00000000000E+00 -0.14933111191E+04  0.14933111191E+04  0.25500000920E-02 0.  1.
    10030    2    1    2    0    0  0.00000000000E+00  0.00000000000E+00  0.12352157026E+04  0.42218379407E+04  0.40370976908E+04 0.  0.
        1    1    3    3  502    0  0.20070372260E+04 -0.75880283306E+02  0.82827917772E+03  0.21725567059E+04  0.50400001928E-02 0. -1.
       -1    1    3    3    0  502 -0.20070372260E+04  0.75880283306E+02  0.40693652483E+03  0.20492812348E+04  0.50400001928E-02 0.  1.
</event>
<event>
 5   0  0.2401125E-07  0.2066694E+04  0.7818609E-02  0.8576058E-01
        1   -1    0    0  501    0  0.00000000000E+00  0.00000000000E+00  0.65306693539E+03  0.65306693541E+03  0.50400001928E-02 0.  1.
       -1   -1    0    0    0  501  0.00000000000E+00  0.00000000000E+00 -0.16350637268E+04  0.16350637269E+04  0.50400001928E-02 0. -1.
    10030    2    1    2    0    0  0.00000000000E+00  0.00000000000E+00 -0.98199679146E+03  0.22881306623E+04  0.20666940338E+04 0.  0.
        5    1    3    3  502    0  0.52453247258E+03  0.24763201335E+03  0.45580705027E+03  0.73772493919E+03  0.46999998093E+01 0.  1.
       -5    1    3    3    0  502 -0.52453247258E+03 -0.24763201335E+03 -0.14378038417E+04  0.15504057231E+04  0.46999998093E+01 0. -1.
</event>
<event>
 5   0  0.2601252E-07  0.2860956E+04  0.7818609E-02  0.8284590E-01
        1   -1    0    0  501    0  0.00000000000E+00  0.00000000000E+00  0.13999820600E+04  0.13999820600E+04  0.50400001928E-02 0.  1.
       -1   -1    0    0    0  501  0.00000000000E+00  0.00000000000E+00 -0.14616380808E+04  0.14616380808E+04  0.50400001928E-02 0. -1.
    10030    2    1    2    0    0  0.00000000000E+00  0.00000000000E+00 -0.61656020759E+02  0.28616201408E+04  0.28609558482E+04 0.  0.
        3    1    3    3  502    0 -0.39322036120E+03  0.12559937117E+04 -0.59142636633E+03  0.14428886351E+04  0.10100000352E+00 0. -1.
       -3    1    3    3    0  502  0.39322036120E+03 -0.12559937117E+04  0.52977034557E+03  0.14187315058E+04  0.10100000352E+00 0.  1.
</event>
<event>
 5   0  0.5161550E-07  0.2983769E+04  0.7818609E-02  0.8248381E-01
       -2   -1    0    0    0  501  0.00000000000E+00  0.00000000000E+00  0.82852617336E+03  0.82852617336E+03  0.25500000920E-02 0.  1.
        2   -1    0    0  501    0  0.00000000000E+00  0.00000000000E+00 -0.26863602786E+04  0.26863602786E+04  0.25500000920E-02 0. -1.
    10030    2    1    2    0    0  0.00000000000E+00  0.00000000000E+00 -0.18578341052E+04  0.35148864519E+04  0.29837692953E+04 0.  0.
        2    1    3    3  502    0  0.71732119100E+03 -0.19163917755E+03 -0.24532556366E+04  0.25631501095E+04  0.25500000920E-02 0. -1.
       -2    1    3    3    0  502 -0.71732119100E+03  0.19163917755E+03  0.59542153139E+03  0.95173634241E+03  0.25500000920E-02 0.  1.
</event>
<event>
 5   0  0.5161550E-07  0.4143820E+04  0.7818609E-02  0.7976146E-01
       -2   -1    0    0    0  501  0.00000000000E+00  0.00000000000E+00  0.25132405243E+04  0.25132405243E+04  0.25500000920E-02 0. -1.
        2   -1    0    0  501    0  0.00000000000E+00  0.00000000000E+00 -0.17080781086E+04  0.17080781086E+04  0.25500000920E-02 0.  1.
    10030    2    1    2    0    0  0.00000000000E+00  0.00000000000E+00  0.80516241570E+03  0.42213186329E+04  0.41438200353E+04 0.  0.
        2    1    3    3  502    0  0.39462207595E+03 -0.11693069391E+04  0.20979801610E+04  0.24340349333E+04  0.25500000920E-02 0. -1.
       -2    1    3    3    0  502 -0.39462207595E+03  0.11693069391E+04 -0.12928177453E+04  0.17872836997E+04  0.25500000920E-02 0.  1.
</event>
<event>
 5   0  0.2713405E-07  0.3945279E+04  0.7818609E-02  0.8015677E-01
       -1   -1    0    0    0  501  0.00000000000E+00  0.00000000000E+00  0.18562287715E+04  0.18562287715E+04  0.50400001928E-02 0.  1.
        1   -1    0    0  501    0  0.00000000000E+00  0.00000000000E+00 -0.20963508413E+04  0.20963508413E+04  0.50400001928E-02 0. -1.
    10030    2    1    2    0    0  0.00000000000E+00  0.00000000000E+00 -0.24012206983E+03  0.39525796128E+04  0.39452790760E+04 0.  0.
        1    1    3    3  502    0 -0.52304209229E+03  0.60454410693E+03 -0.19268005173E+04  0.20860505365E+04  0.50400001928E-02 0. -1.
       -1    1    3    3    0  502  0.52304209229E+03 -0.60454410693E+03  0.16866784474E+04  0.18665290763E+04  0.50400001928E-02 0.  1.
</event>
<event>
 5   0  0.6043512E-07  0.2259902E+04  0.7818609E-02  0.8493901E-01
       -2   -1    0    0    0  501  0.00000000000E+00  0.00000000000E+00  0.47413228341E+03  0.47413228342E+03  0.25500000920E-02 0. -1.
        2   -1    0    0  501    0  0.00000000000E+00  0.00000000000E+00 -0.26928960204E+04  0.26928960204E+04  0.25500000920E-02 0.  1.
    10030    2    1    2    0    0  0.00000000000E+00  0.00000000000E+00 -0.22187637370E+04  0.31670283038E+04  0.22599017139E+04 0.  0.
        3    1    3    3  502    0 -0.66461679296E+03  0.47222811126E+03 -0.22057701366E+04  0.23516242847E+04  0.10100000352E+00 0.  1.
       -3    1    3    3    0  502  0.66461679296E+03 -0.47222811126E+03 -0.12993600366E+02  0.81540401913E+03  0.10100000352E+00 0. -1.
</event>
<event>
 5   0  0.2647879E-07  0.2313809E+04  0.7818609E-02  0.8472496E-01
       -1   -1    0    0    0  501  0.00000000000E+00  0.00000000000E+00  0.88590357547E+03  0.88590357548E+03  0.50400001928E-02 0.  1.
        1   -1    0    0  501    0  0.00000000000E+00  0.00000000000E+00 -0.15108057696E+04  0.15108057696E+04  0.50400001928E-02 0. -1.
    10030    2    1    2    0    0  0.00000000000E+00  0.00000000000E+00 -0.62490219410E+03  0.23967093451E+04  0.23138091824E+04 0.  0.
        2    1    3    3  502    0 -0.75235145945E+02 -0.93562613853E+03  0.38807197343E+03  0.10157049054E+04  0.25500000920E-02 0.  1.
       -2    1    3    3    0  502  0.75235145945E+02  0.93562613853E+03 -0.10129741675E+04  0.13810044397E+04  0.25500000920E-02 0. -1.
</event>
<event>
 5   0  0.5161550E-07  0.2937843E+04  0.7818609E-02  0.8261706E-01
       -2   -1    0    0    0  501  0.00000000000E+00  0.00000000000E+00  0.11513898645E+04  0.11513898645E+04  0.25500000920E-02 0.  1.
        2   -1    0    0  501    0  0.00000000000E+00  0.00000000000E+00 -0.18740217492E+04  0.18740217492E+04  0.25500000920E-02 0. -1.
    10030    2    1    2    0    0  0.00000000000E+00  0.00000000000E+00 -0.72263188472E+03  0.30254116136E+04  0.29378425062E+04 0.  0.
        2    1    3    3  502    0  0.22346289169E+03  0.10023134483E+04  0.72030616236E+03  0.12543559623E+04  0.25500000920E-02 0.  1.
       -2    1    3    3    0  502 -0.22346289169E+03 -0.10023134483E+04 -0.14429380471E+04  0.17710556514E+04  0.25500000920E-02 0. -1.
</event>
<event>
 5   0  0.2601252E-07  0.3952543E+04  0.7818609E-02  0.8014189E-01
        1   -1    0    0  501    0  0.00000000000E+00  0.00000000000E+00  0.27115995838E+04  0.27115995838E+04  0.50400001928E-02 0. -1.
       -1   -1    0    0    0  501  0.00000000000E+00  0.00000000000E+00 -0.14403484034E+04  0.14403484034E+04  0.50400001928E-02 0.  1.
    10030    2    1    2    0    0  0.00000000000E+00  0.00000000000E+00  0.12712511805E+04  0.41519479872E+04  0.39525425393E+04 0.  0.
        3    1    3    3  502    0  0.44967481099E+03 -0.11530329452E+04  0.22541216929E+04  0.25715281497E+04  0.10100000352E+00 0. -1.
       -3    1    3    3    0  502 -0.44967481099E+03  0.11530329452E+04 -0.98287051241E+03  0.15804198375E+04  0.10100000352E+00 0.  1.
</event>
<event>
 5   0  0.2401125E-07  0.4039576E+04  0.7818609E-02  0.7996610E-01
       -1   -1    0    0    0  501  0.00000000000E+00  0.00000000000E+00  0.23082359250E+04  0.23082359250E+04  0.50400001928E-02 0.  1.
        1   -1    0    0  501    0  0.00000000000E+00  0.00000000000E+00 -0.17673855950E+04  0.17673855950E+04  0.50400001928E-02 0. -1.
    10030    2    1    2    0    0  0.00000000000E+00  0.00000000000E+00  0.54085033006E+03  0.40756215200E+04  0.40395756825E+04 0.  0.
        5    1    3    3  502    0 -0.35394924659E+03 -0.19165597591E+04 -0.26443683557E+03  0.19668325575E+04  0.46999998093E+01 0. -1.
       -5    1    3    3    0  502  0.35394924659E+03  0.19165597591E+04  0.80528716563E+03  0.21087889625E+04  0.46999998093E+01 0.  1.
</event>
<event>
 5   0  0.6043512E-07  0.3960025E+04  0.7818609E-02  0.8012660E-01
        2   -1    0    0  501    0  0.00000000000E+00  0.00000000000E+00  0.16894549921E+04  0.16894549921E+04  0.25500000920E-02 0.  1.
       -2   -1    0    0    0  501  0.00000000000E+00  0.00000000000E+00 -0.23205411904E+04  0.23205411904E+04  0.25500000920E-02 0. -1.
    10030    2    1    2    0    0  0.00000000000E+00  0.00000000000E+00 -0.63108619830E+03  0.40099961825E+04  0.39600252012E+04 0.  0.
        3    1    3    3  502    0  0.13669466953E+04  0.13842107639E+04  0.57709888513E+02  0.19462561877E+04  0.10100000352E+00 0. -1.
       -3    1    3    3    0  502 -0.13669466953E+04 -0.13842107639E+04 -0.68879608681E+03  0.20637399948E+04  0.10100000352E+00 0.  1.
</event>
<event>
 5   0  0.2601252E-07  0.2128801E+04  0.7818609E-02  0.8548661E-01
       -1   -1    0    0    0  501  0.00000000000E+00  0.00000000000E+00  0.10433044028E+04  0.10433044028E+04  0.50400001928E-02 0.  1.
        1   -1    0    0  501    0  0.00000000000E+00  0.00000000000E+00 -0.10859232483E+04  0.10859232483E+04  0.50400001928E-02 0. -1.
    10030    2    1    2    0    0  0.00000000000E+00  0.00000000000E+00 -0.42618845478E+02  0.21292276511E+04  0.21288010767E+04 0.  0.
        3    1    3    3  502    0 -0.31091431162E+03 -0.18705278633E+03  0.97953690149E+03  0.10445807798E+04  0.10100000352E+00 0.  1.
       -3    1    3    3    0  502  0.31091431162E+03  0.18705278633E+03 -0.10221557470E+04  0.10846468712E+04  0.10100000352E+00 0. -1.
</event>
<event>
 5   0  0.5161550E-07  0.4181118E+04  0.7818609E-02  0.7968974E-01
        2   -1    0    0  501    0  0.00000000000E+00  0.00000000000E+00  0.16292202313E+04  0.16292202313E+04  0.25500000920E-02 0. -1.
       -2   -1    0    0    0  501  0.00000000000E+00  0.00000000000E+00 -0.26825323301E+04  0.26825323301E+04  0.25500000920E-02 0.  1.
    10030    2    1    2    0    0  0.00000000000E+00  0.00000000000E+00 -0.10533120988E+04  0.43117525614E+04  0.41811175269E+04 0.  0.
        2    1    3    3  502    0  0.47122002448E+02 -0.19034164611E+04 -0.14168898215E+04  0.23733502636E+04  0.25500000920E-02 0.  1.
       -2    1    3    3    0  502 -0.47122002448E+02  0.19034164611E+04  0.36357772268E+03  0.19384022978E+04  0.25500000920E-02 0. -1.
</event>
<event>
 5   0  0.5161550E-07  0.4019438E+04  0.7818609E-02  0.8000637E-01
        2   -1    0    0  501    0  0.00000000000E+00  0.00000000000E+00  0.23564208121E+04  0.23564208121E+04  0.25500000920E-02 0. -1.
       -2   -1    0    0    0  501  0.00000000000E+00  0.00000000000E+00 -0.17140276439E+04  0.17140276439E+04  0.25500000920E-02 0.  1.
    10030    2    1    2    0    0  0.00000000000E+00  0.00000000000E+00  0.64239316818E+03  0.40704484560E+04  0.40194379770E+04 0.  0.
        2    1    3    3  502    0  0.51801835042E+02 -0.17919082934E+04 -0.59882166138E+03  0.18900280803E+04  0.25500000920E-02 0.  1.
       -2    1    3    3    0  502 -0.51801835042E+02  0.17919082934E+04  0.12412148296E+04  0.21804203758E+04  0.25500000920E-02 0. -1.
</event>
<event>
 5   0  0.7570277E-07  0.4042180E+04  0.7818609E-02  0.7996091E-01
       -2   -1    0    0    0  501  0.00000000000E+00  0.00000000000E+00  0.28665554044E+04  0.28665554044E+04  0.25500000920E-02 0.  1.
        2   -1    0    0  501    0  0.00000000000E+00  0.00000000000E+00 -0.14249872471E+04  0.14249872471E+04  0.25500000920E-02 0. -1.
    10030    2    1    2    0    0  0.00000000000E+00  0.00000000000E+00  0.14415681573E+04  0.42915426515E+04  0.40421800525E+04 0.  0.
        5    1    3    3  502    0  0.16820441899E+04 -0.63840211628E+03  0.16984346080E+04  0.24741730187E+04  0.46999998093E+01 0.  1.
       -5    1    3    3    0  502 -0.16820441899E+04  0.63840211628E+03 -0.25686645068E+03  0.18173696328E+04  0.46999998093E+01 0. -1.
</event>
<event>
 5   0  0.5161550E-07  0.2000719E+04  0.7818609E-02  0.8606285E-01
        2   -1    0    0  501    0  0.00000000000E+00  0.00000000000E+00  0.17683701723E+04  0.17683701723E+04  0.25500000920E-02 0. -1.
       -2   -1    0    0    0  501  0.00000000000E+00  0.00000000000E+00 -0.56589895874E+03  0.56589895875E+03  0.25500000920E-02 0.  1.
    10030    2    1    2    0    0  0.00000000000E+00  0.00000000000E+00  0.12024712135E+04  0.23342691310E+04  0.20007187100E+04 0.  0.
        2    1    3    3  502    0 -0.12830453002E+03 -0.47165060469E+03 -0.41708864866E+03  0.64255683498E+03  0.25500000920E-02 0.  1.
       -2    1    3    3    0  502  0.12830453002E+03  0.47165060469E+03  0.16195598622E+04  0.16917122960E+04  0.25500000920E-02 0. -1.
</event>
<event>
 5   0  0.2401125E-07  0.4222017E+04  0.7818609E-02  0.7961197E-01
       -1   -1    0    0    0  501  0.00000000000E+00  0.00000000000E+00  0.17241086617E+04  0.17241086617E+04  0.50400001928E-02 0.  1.
        1   -1    0    0  501    0  0.00000000000E+00  0.00000000000E+00 -0.25847304284E+04  0.25847304284E+04  0.50400001928E-02 0. -1.
    10030    2    1    2    0    0  0.00000000000E+00  0.00000000000E+00 -0.86062176668E+03  0.43088390902E+04  0.42220166366E+04 0.  0.
        5    1    3    3  502    0  0.13468520248E+03  0.41470036757E+03 -0.25382683021E+04  0.25754503610E+04  0.46999998093E+01 0. -1.
       -5    1    3    3    0  502 -0.13468520248E+03 -0.41470036757E+03  0.16776465354E+04  0.17333887292E+04  0.46999998093E+01 0.  1.
</event>
<event>
 5   0  0.2401125E-07  0.3994324E+04  0.7818609E-02  0.8005693E-01
        1   -1    0    0  501    0  0.00000000000E+00  0.00000000000E+00  0.16556445634E+04  0.16556445634E+04  0.50400001928E-02 0. -1.
       -1   -1    0    0    0  501  0.00000000000E+00  0.00000000000E+00 -0.24091254156E+04  0.24091254156E+04  0.50400001928E-02 0.  1.
    10030    2    1    2    0    0  0.00000000000E+00  0.00000000000E+00 -0.75348085220E+03  0.40647699790E+04  0.39943236709E+04 0.  0.
        5    1    3    3  502    0 -0.16327353342E+04  0.80829246057E+03  0.45590271275E+03  0.18780390695E+04  0.46999998093E+01 0. -1.
       -5    1    3    3    0  502  0.16327353342E+04 -0.80829246057E+03 -0.12093835650E+04  0.21867309095E+04  0.46999998093E+01 0.  1.
</event>
<event>
 5   0  0.2601252E-07  0.3169534E+04  0.7818609E-02  0.8196910E-01
        1   -1    0    0  501    0  0.00000000000E+00  0.00000000000E+00  0.17526821319E+04  0.17526821320E+04  0.50400001928E-02 0. -1.
       -1   -1    0    0    0  501  0.00000000000E+00  0.00000000000E+00 -0.14329388811E+04  0.14329388811E+04  0.50400001928E-02 0.  1.
    10030    2    1    2    0    0  0.00000000000E+00  0.00000000000E+00  0.31974325084E+03  0.31856210131E+04  0.31695339551E+04 0.  0.
        3    1    3    3  502    0 -0.69381599341E+03 -0.13846323611E+04 -0.17783817140E+03  0.15589143124E+04  0.10100000352E+00 0.  1.
       -3    1    3    3    0  502  0.69381599341E+03  0.13846323611E+04  0.49758142224E+03  0.16267067007E+04  0.10100000352E+00 0. -1.
</event>
<event>
 5   0  0.5161550E-07  0.2314569E+04  0.7818609E-02  0.8472199E-01
        2   -1    0    0  501    0  0.00000000000E+00  0.00000000000E+00  0.10308900756E+04  0.10308900756E+04  0.25500000920E-02 0. -1.
       -2   -1    0    0    0  501  0.00000000000E+00  0.00000000000E+00 -0.12991758203E+04  0.12991758203E+04  0.25500000920E-02 0.  1.
    10030    2    1    2    0    0  0.00000000000E+00  0.00000000000E+00 -0.26828574469E+03  0.23300658958E+04  0.23145690394E+04 0.  0.
        2    1    3    3  502    0 -0.91396960901E+03  0.70409422506E+03 -0.42880868750E+02  0.11545249642E+04  0.25500000920E-02 0. -1.
       -2    1    3    3    0  502  0.91396960901E+03 -0.70409422506E+03 -0.22540487594E+03  0.11755409317E+04  0.25500000920E-02 0.  1.
</event>
<event>
 5   0  0.3579559E-07  0.4028725E+04  0.7818609E-02  0.7998777E-01
       -1   -1    0    0    0  501  0.00000000000E+00  0.00000000000E+00  0.20554079475E+04  0.20554079475E+04  0.50400001928E-02 0. -1.
        1   -1    0    0  501    0  0.00000000000E+00  0.00000000000E+00 -0.19741368360E+04  0.19741368360E+04  0.50400001928E-02 0.  1.
    10030    2    1    2    0    0  0.00000000000E+00  0.00000000000E+00  0.81271111463E+02  0.40295447835E+04  0.40287251295E+04 0.  0.
        4    1    3    3  502    0 -0.19116642069E+04 -0.11067427306E+03 -0.58474847732E+03  0.20021591418E+04  0.12699999809E+01 0.  1.
       -4    1    3    3    0  502  0.19116642069E+04  0.11067427306E+03  0.66601958879E+03  0.20273856417E+04  0.12699999809E+01 0. -1.
</event>
<event>
 5   0  0.5161550E-07  0.3933947E+04  0.7818609E-02  0.8018006E-01
       -2   -1    0    0    0  501  0.00000000000E+00  0.00000000000E+00  0.20413144098E+04  0.20413144098E+04  0.25500000920E-02 0. -1.
        2   -1    0    0  501    0  0.00000000000E+00  0.00000000000E+00 -0.18953400992E+04  0.18953400992E+04  0.25500000920E-02 0.  1.
    10030    2    1    2    0    0  0.00000000000E+00  0.00000000000E+00  0.14597431065E+03  0.39366545090E+04  0.39339471557E+04 0.  0.
        2    1    3    3  502    0  0.22367866932E+03  0.39633915523E+03  0.19879049428E+04  0.20393339439E+04  0.25500000920E-02 0. -1.
       -2    1    3    3    0  502 -0.22367866932E+03 -0.39633915523E+03 -0.18419306321E+04  0.18973205651E+04  0.25500000920E-02 0.  1.
</event>
<event>
 5   0  0.5161550E-07  0.3831696E+04  0.7818609E-02  0.8039387E-01
        2   -1    0    0  501    0  0.00000000000E+00  0.00000000000E+00  0.20135067010E+04  0.20135067010E+04  0.25500000920E-02 0. -1.
       -2   -1    0    0    0  501  0.00000000000E+00  0.00000000000E+00 -0.18229258114E+04  0.18229258114E+04  0.25500000920E-02 0.  1.
    10030    2    1    2    0    0  0.00000000000E+00  0.00000000000E+00  0.19058088953E+03  0.38364325124E+04  0.38316958839E+04 0.  0.
        2    1    3    3  502    0  0.62339777035E+03  0.16627123904E+04  0.81537074416E+03  0.19539873908E+04  0.25500000920E-02 0. -1.
       -2    1    3    3    0  502 -0.62339777035E+03 -0.16627123904E+04 -0.62478985463E+03  0.18824451215E+04  0.25500000920E-02 0.  1.
</event>
<event>
 5   0  0.2601252E-07  0.3944461E+04  0.7818609E-02  0.8015845E-01
        1   -1    0    0  501    0  0.00000000000E+00  0.00000000000E+00  0.20304066604E+04  0.20304066604E+04  0.50400001928E-02 0.  1.
       -1   -1    0    0    0  501  0.00000000000E+00  0.00000000000E+00 -0.19157209501E+04  0.19157209501E+04  0.50400001928E-02 0. -1.
    10030    2    1    2    0    0  0.00000000000E+00  0.00000000000E+00  0.11468571026E+03  0.39461276105E+04  0.39444607117E+04 0.  0.
        3    1    3    3  502    0 -0.64903931767E+03  0.18600025713E+04  0.15135578389E+03  0.19757960888E+04  0.10100000352E+00 0.  1.
       -3    1    3    3    0  502  0.64903931767E+03 -0.18600025713E+04 -0.36670073625E+02  0.19703315217E+04  0.10100000352E+00 0. -1.
</event>
<event>
 5   0  0.3579559E-07  0.4445891E+04  0.7818609E-02  0.7920179E-01
        1   -1    0    0  501    0  0.00000000000E+00  0.00000000000E+00  0.16388177253E+04  0.16388177253E+04  0.50400001928E-02 0. -1.
       -1   -1    0    0    0  501  0.00000000000E+00  0.00000000000E+00 -0.30152746916E+04  0.30152746916E+04  0.50400001928E-02 0.  1.
    10030    2    1    2    0    0  0.00000000000E+00  0.00000000000E+00 -0.13764569663E+04  0.46540924170E+04  0.44458905121E+04 0.  0.
        4    1    3    3  502    0  0.21976790442E+04 -0.26033001472E+03 -0.46884548973E+03  0.22621632576E+04  0.12699999809E+01 0. -1.
       -4    1    3    3    0  502 -0.21976790442E+04  0.26033001472E+03 -0.90761147656E+03  0.23919291593E+04  0.12699999809E+01 0.  1.
</event>
<event>
 5   0  0.2713405E-07  0.2544349E+04  0.7818609E-02  0.8387354E-01
        1   -1    0    0  501    0  0.00000000000E+00  0.00000000000E+00  0.27043137876E+04  0.27043137876E+04  0.50400001928E-02 0.  1.
       -1   -1    0    0    0  501  0.00000000000E+00  0.00000000000E+00 -0.59846171877E+03  0.59846171879E+03  0.50400001928E-02 0. -1.
    10030    2    1    2    0    0  0.00000000000E+00  0.00000000000E+00  0.21058520688E+04  0.33027755064E+04  0.25443492508E+04 0.  0.
        1    1    3    3  502    0 -0.11088331696E+04  0.33313393931E+03  0.17372742215E+04  0.20877286558E+04  0.50400001928E-02 0. -1.
       -1    1    3    3    0  502  0.11088331696E+04 -0.33313393931E+03  0.36857784731E+03  0.12150468506E+04  0.50400001928E-02 0.  1.
</event>
<event>
 5   0  0.2401125E-07  0.2334134E+04  0.7818609E-02  0.8464583E-01
       -1   -1    0    0    0  501  0.00000000000E+00  0.00000000000E+00  0.22659641800E+04  0.22659641800E+04  0.50400001928E-02 0.  1.
        1   -1    0    0  501    0  0.00000000000E+00  0.00000000000E+00 -0.60108879987E+03  0.60108879989E+03  0.50400001928E-02 0. -1.
    10030    2    1    2    0    0  0.00000000000E+00  0.00000000000E+00  0.16648753801E+04  0.28670529799E+04  0.23341342631E+04 0.  0.
        5    1    3    3  502    0 -0.74898291285E+03  0.72487366915E+03  0.18759392970E+03  0.10590707306E+04  0.46999998093E+01 0. -1.
       -5    1    3    3    0  502  0.74898291285E+03 -0.72487366915E+03  0.14772814504E+04  0.18079822493E+04  0.46999998093E+01 0.  1.
</event>
<event>
 5   0  0.2647879E-07  0.4021411E+04  0.7818609E-02  0.8000241E-01
       -1   -1    0    0    0  501  0.00000000000E+00  0.00000000000E+00  0.24619412215E+04  0.24619412215E+04  0.50400001928E-02 0. -1.
        1   -1    0    0  501    0  0.00000000000E+00  0.00000000000E+00 -0.16421744882E+04  0.16421744882E+04  0.50400001928E-02 0.  1.
    10030    2    1    2    0    0  0.00000000000E+00  0.00000000000E+00  0.81976673327E+03  0.41041157097E+04  0.40214112276E+04 0.  0.
        2    1    3    3  502    0  0.14634411431E+03 -0.86331735944E+03 -0.14373703637E+04  0.16830825961E+04  0.25500000920E-02 0.  1.
       -2    1    3    3    0  502 -0.14634411431E+03  0.86331735944E+03  0.22571370969E+04  0.24210331136E+04  0.25500000920E-02 0. -1.
</event>
<event>
 5   0  0.2647879E-07  0.3974786E+04  0.7818609E-02  0.8009652E-01
       -1   -1    0    0    0  501  0.00000000000E+00  0.00000000000E+00  0.12910415089E+04  0.12910415089E+04  0.50400001928E-02 0.  1.
        1   -1    0    0  501    0  0.00000000000E+00  0.00000000000E+00 -0.30593374184E+04  0.30593374184E+04  0.50400001928E-02 0. -1.
    10030    2    1    2    0    0  0.00000000000E+00  0.00000000000E+00 -0.17682959095E+04  0.43503789273E+04  0.39747863323E+04 0.  0.
        2    1    3    3  502    0  0.14470220567E+04  0.12682080295E+04 -0.33963629920E+03  0.19538621381E+04  0.25500000920E-02 0. -1.
       -2    1    3    3    0  502 -0.14470220567E+04 -0.12682080295E+04 -0.14286596103E+04  0.23965167892E+04  0.25500000920E-02 0.  1.
</event>
<event>
 5   0  0.7256473E-07  0.3931841E+04  0.7818609E-02  0.8018439E-01
       -2   -1    0    0    0  501  0.00000000000E+00  0.00000000000E+00  0.21941630478E+04  0.21941630478E+04  0.25500000920E-02 0.  1.
        2   -1    0    0  501    0  0.00000000000E+00  0.00000000000E+00 -0.17614199736E+04  0.17614199736E+04  0.25500000920E-02 0. -1.
    10030    2    1    2    0    0  0.00000000000E+00  0.00000000000E+00  0.43274307415E+03  0.39555830214E+04  0.39318405958E+04 0.  0.
        4    1    3    3  502    0 -0.53106049040E+03 -0.21956526574E+03 -0.16750361917E+04  0.17708704094E+04  0.12699999809E+01 0. -1.
       -4    1    3    3    0  502  0.53106049040E+03  0.21956526574E+03  0.21077792659E+04  0.21847126120E+04  0.12699999809E+01 0.  1.
</event>
<event>
 5   0  0.2401125E-07  0.2588774E+04  0.7818609E-02  0.8372024E-01
       -3   -1    0    0    0  501  0.00000000000E+00  0.00000000000E+00  0.29885127160E+04  0.29885127177E+04  0.10100000352E+00 0.  1.
        3   -1    0    0  501    0  0.00000000000E+00  0.00000000000E+00 -0.56062593546E+03  0.56062594456E+03  0.10100000352E+00 0. -1.
    10030    2    1    2    0    0  0.00000000000E+00  0.00000000000E+00  0.24278867805E+04  0.35491386623E+04  0.25887740390E+04 0.  0.
        5    1    3    3  502    0  0.91092696347E+03  0.30319121670E+02 -0.46090571026E+02  0.91260813751E+03  0.46999998093E+01 0.  1.
       -5    1    3    3    0  502 -0.91092696347E+03 -0.30319121670E+02  0.24739773516E+04  0.26365305248E+04  0.46999998093E+01 0. -1.
</event>
<event>
 5   0  0.4449262E-07  0.3828507E+04  0.7818609E-02  0.8040065E-01
       -2   -1    0    0    0  501  0.00000000000E+00  0.00000000000E+00  0.12638732426E+04  0.12638732426E+04  0.25500000920E-02 0.  1.
        2   -1    0    0  501    0  0.00000000000E+00  0.00000000000E+00 -0.28993151331E+04  0.28993151331E+04  0.25500000920E-02 0. -1.
    10030    2    1    2    0    0  0.00000000000E+00  0.00000000000E+00 -0.16354418905E+04  0.41631883757E+04  0.38285071862E+04 0.  0.
        1    1    3    3  502    0 -0.11777047305E+04 -0.13690997354E+04 -0.15079911133E+04  0.23527557704E+04  0.50400001928E-02 0. -1.
       -1    1    3    3    0  502  0.11777047305E+04  0.13690997354E+04 -0.12745077723E+03  0.18104326053E+04  0.50400001928E-02 0.  1.
</event>
<event>
 5   0  0.2401125E-07  0.4032067E+04  0.7818609E-02  0.7998109E-01
        1   -1    0    0  501    0  0.00000000000E+00  0.00000000000E+00  0.21649187750E+04  0.21649187750E+04  0.50400001928E-02 0.  1.
       -1   -1    0    0    0  501  0.00000000000E+00  0.00000000000E+00 -0.18773871191E+04  0.18773871191E+04  0.50400001928E-02 0. -1.
    10030    2    1    2    0    0  0.00000000000E+00  0.00000000000E+00  0.28753165590E+03  0.40423058940E+04  0.40320667762E+04 0.  0.
        5    1    3    3  502    0 -0.34623660719E+03 -0.84421085591E+03 -0.16585192230E+04  0.18929553245E+04  0.46999998093E+01 0. -1.
       -5    1    3    3    0  502  0.34623660719E+03  0.84421085591E+03  0.19460508789E+04  0.21493505695E+04  0.46999998093E+01 0.  1.
</event>
<event>
 5   0  0.5161550E-07  0.4225980E+04  0.7818609E-02  0.7960449E-01
       -2   -1    0    0    0  501  0.00000000000E+00  0.00000000000E+00  0.33817802992E+04  0.33817802992E+04  0.25500000920E-02 0. -1.
        2   -1    0    0  501    0  0.00000000000E+00  0.00000000000E+00 -0.13202295318E+04  0.13202295318E+04  0.25500000920E-02 0.  1.
    10030    2    1    2    0    0  0.00000000000E+00  0.00000000000E+00  0.20615507674E+04  0.47020098310E+04  0.42259797544E+04 0.  0.
        2    1    3    3  502    0 -0.14952026906E+04 -0.14681689000E+04  0.72897353582E+03  0.22186828121E+04  0.25500000920E-02 0.  1.
       -2    1    3    3    0  502  0.14952026906E+04  0.14681689000E+04  0.13325772316E+04  0.24833270189E+04  0.25500000920E-02 0. -1.
</event>
<event>
 5   0  0.7256473E-07  0.2352570E+04  0.7818609E-02  0.8457477E-01
       -2   -1    0    0    0  501  0.00000000000E+00  0.00000000000E+00  0.13589165732E+04  0.13589165732E+04  0.25500000920E-02 0.  1.
        2   -1    0    0  501    0  0.00000000000E+00  0.00000000000E+00 -0.10181983952E+04  0.10181983952E+04  0.25500000920E-02 0. -1.
    10030    2    1    2    0    0  0.00000000000E+00  0.00000000000E+00  0.34071817798E+03  0.23771149684E+04  0.23525702319E+04 0.  0.
        4    1    3    3  502    0  0.46721896320E+03  0.95669883255E+03 -0.33493715160E+03  0.11161320371E+04  0.12699999809E+01 0. -1.
       -4    1    3    3    0  502 -0.46721896320E+03 -0.95669883255E+03  0.67565532958E+03  0.12609829313E+04  0.12699999809E+01 0.  1.
</event>
<event>
 5   0  0.2647879E-07  0.3928655E+04  0.7818609E-02  0.8019096E-01
       -1   -1    0    0    0  501  0.00000000000E+00  0.00000000000E+00  0.18926440553E+04  0.18926440553E+04  0.50400001928E-02 0. -1.
        1   -1    0    0  501    0  0.00000000000E+00  0.00000000000E+00 -0.20387259282E+04  0.20387259282E+04  0.50400001928E-02 0.  1.
    10030    2    1    2    0    0  0.00000000000E+00  0.00000000000E+00 -0.14608187284E+03  0.39313699835E+04  0.39286549904E+04 0.  0.
        2    1    3    3  502    0 -0.75968812424E+03 -0.10227951686E+04 -0.15691816901E+04  0.20212786002E+04  0.25500000920E-02 0.  1.
       -2    1    3    3    0  502  0.75968812424E+03  0.10227951686E+04  0.14230998172E+04  0.19100913834E+04  0.25500000920E-02 0. -1.
</event>
<event>
 5   0  0.6043512E-07  0.4006639E+04  0.7818609E-02  0.8003209E-01
       -2   -1    0    0    0  501  0.00000000000E+00  0.00000000000E+00  0.13382935555E+04  0.13382935555E+04  0.25500000920E-02 0.  1.
        2   -1    0    0  501    0  0.00000000000E+00  0.00000000000E+00 -0.29988107802E+04  0.29988107802E+04  0.25500000920E-02 0. -1.
    10030    2    1    2    0    0  0.00000000000E+00  0.00000000000E+00 -0.16605172247E+04  0.43371043358E+04  0.40066390611E+04 0.  0.
        3    1    3    3  502    0  0.16017350364E+04  0.10930970435E+04 -0.28591797501E+03  0.19601442223E+04  0.10100000352E+00 0. -1.
       -3    1    3    3    0  502 -0.16017350364E+04 -0.10930970435E+04 -0.13745992497E+04  0.23769601135E+04  0.10100000352E+00 0.  1.
</event>
<event>
 5   0  0.4449262E-07  0.2061371E+04  0.7818609E-02  0.8578453E-01
        2   -1    0    0  501    0  0.00000000000E+00  0.00000000000E+00  0.11542563037E+04  0.11542563037E+04  0.25500000920E-02 0.  1.
       -2   -1    0    0    0  501  0.00000000000E+00  0.00000000000E+00 -0.92034352863E+03  0.92034352863E+03  0.25500000920E-02 0. -1.
    10030    2    1    2    0    0  0.00000000000E+00  0.00000000000E+00  0.23391277503E+03  0.20745998323E+04  0.20613707279E+04 0.  0.
        1    1    3    3  502    0 -0.39389540712E+03 -0.91274643705E+03 -0.15691621752E+03  0.10064205629E+04  0.50400001928E-02 0.  1.
       -1    1    3    3    0  502  0.39389540712E+03  0.91274643705E+03  0.39082899255E+03  0.10681792694E+04  0.50400001928E-02 0. -1.
</event>
<event>
 5   0  0.2647879E-07  0.3951611E+04  0.7818609E-02  0.8014380E-01
        1   -1    0    0  501    0  0.00000000000E+00  0.00000000000E+00  0.20462625266E+04  0.20462625266E+04  0.50400001928E-02 0.  1.
       -1   -1    0    0    0  501  0.00000000000E+00  0.00000000000E+00 -0.19077747643E+04  0.19077747643E+04  0.50400001928E-02 0. -1.
    10030    2    1    2    0    0  0.00000000000E+00  0.00000000000E+00  0.13848776230E+03  0.39540372909E+04  0.39516113217E+04 0.  0.
        2    1    3    3  502    0 -0.12540122153E+03 -0.92869152880E+03 -0.16712533732E+04  0.19160587828E+04  0.25500000920E-02 0. -1.
       -2    1    3    3    0  502  0.12540122153E+03  0.92869152880E+03  0.18097411355E+04  0.20379785081E+04  0.25500000920E-02 0.  1.
</event>
<event>
 5   0  0.2401125E-07  0.3959954E+04  0.7818609E-02  0.8012674E-01
        1   -1    0    0  501    0  0.00000000000E+00  0.00000000000E+00  0.27978475491E+04  0.27978475491E+04  0.50400001928E-02 0.  1.
       -1   -1    0    0    0  501  0.00000000000E+00  0.00000000000E+00 -0.14011871439E+04  0.14011871439E+04  0.50400001928E-02 0. -1.
    10030    2    1    2    0    0  0.00000000000E+00  0.00000000000E+00  0.13966604052E+04  0.41990346930E+04  0.39599535433E+04 0.  0.
        5    1    3    3  502    0 -0.17707998278E+04  0.49621507227E+03 -0.79673106145E+02  0.18407420574E+04  0.46999998093E+01 0.  1.
       -5    1    3    3    0  502  0.17707998278E+04 -0.49621507227E+03  0.14763335114E+04  0.23582926356E+04  0.46999998093E+01 0. -1.
</event>
<event>
 5   0  0.2713405E-07  0.2114694E+04  0.7818609E-02  0.8554798E-01
       -1   -1    0    0    0  501  0.00000000000E+00  0.00000000000E+00  0.84075419484E+03  0.84075419485E+03  0.50400001928E-02 0. -1.
        1   -1    0    0  501    0  0.00000000000E+00  0.00000000000E+00 -0.13297377010E+04  0.13297377010E+04  0.50400001928E-02 0.  1.
    10030    2    1    2    0    0  0.00000000000E+00  0.00000000000E+00 -0.48898350615E+03  0.21704918958E+04  0.21146938787E+04 0.  0.
        1    1    3    3  502    0  0.70388089558E+03 -0.73120443375E+03  0.59765981268E+02  0.10167006500E+04  0.50400001928E-02 0. -1.
       -1    1    3    3    0  502 -0.70388089558E+03  0.73120443375E+03 -0.54874948742E+03  0.11537912459E+04  0.50400001928E-02 0.  1.
</event>
<event>
 5   0  0.7256473E-07  0.3996338E+04  0.7818609E-02  0.8005286E-01
       -2   -1    0    0    0  501  0.00000000000E+00  0.00000000000E+00  0.21194713660E+04  0.21194713660E+04  0.25500000920E-02 0.  1.
        2   -1    0    0  501    0  0.00000000000E+00  0.00000000000E+00 -0.18838088123E+04  0.18838088123E+04  0.25500000920E-02 0. -1.
    10030    2    1    2    0    0  0.00000000000E+00  0.00000000000E+00  0.23566255366E+03  0.40032801783E+04  0.39963377419E+04 0.  0.
        4    1    3    3  502    0 -0.59506387457E+03  0.19069462157E+04  0.71573797989E+02  0.19989170333E+04  0.12699999809E+01 0. -1.
       -4    1    3    3    0  502  0.59506387457E+03 -0.19069462157E+04  0.16408875567E+03  0.20043631450E+04  0.12699999809E+01 0.  1.
</event>
<event>
 5   0  0.4449262E-07  0.3856112E+04  0.7818609E-02  0.8034219E-01
       -2   -1    0    0    0  501  0.00000000000E+00  0.00000000000E+00  0.15084423811E+04  0.15084423811E+04  0.25500000920E-02 0.  1.
        2   -1    0    0  501    0  0.00000000000E+00  0.00000000000E+00 -0.24643969607E+04  0.24643969607E+04  0.25500000920E-02 0. -1.
    10030    2    1    2    0    0  0.00000000000E+00  0.00000000000E+00 -0.95595457959E+03  0.39728393418E+04  0.38561124566E+04 0.  0.
        1    1    3    3  502    0 -0.39475996636E+03  0.17051984302E+04 -0.13110730545E+04  0.21868812660E+04  0.50400001928E-02 0. -1.
       -1    1    3    3    0  502  0.39475996636E+03 -0.17051984302E+04  0.35511847488E+03  0.17859580758E+04  0.50400001928E-02 0.  1.
</event>
<event>
 5   0  0.5161550E-07  0.3872767E+04  0.7818609E-02  0.8030717E-01
       -2   -1    0    0    0  501  0.00000000000E+00  0.00000000000E+00  0.17471976084E+04  0.17471976084E+04  0.25500000920E-02 0.  1.
        2   -1    0    0  501    0  0.00000000000E+00  0.00000000000E+00 -0.21460543552E+04  0.21460543552E+04  0.25500000920E-02 0. -1.
    10030    2    1    2    0    0  0.00000000000E+00  0.00000000000E+00 -0.39885674678E+03  0.38932519635E+04  0.38727669885E+04 0.  0.
        2    1    3    3  502    0  0.38701660553E+03 -0.31189062777E+03 -0.20808306602E+04  0.21393723035E+04  0.25500000920E-02 0. -1.
       -2    1    3    3    0  502 -0.38701660553E+03  0.31189062777E+03  0.16819739134E+04  0.17538796601E+04  0.25500000920E-02 0.  1.
</event>
<event>
 5   0  0.5161550E-07  0.4093002E+04  0.7818609E-02  0.7986043E-01
       -2   -1    0    0    0  501  0.00000000000E+00  0.00000000000E+00  0.15525413058E+04  0.15525413058E+04  0.25500000920E-02 0. -1.
        2   -1    0    0  501    0  0.00000000000E+00  0.00000000000E+00 -0.26976201977E+04  0.26976201977E+04  0.25500000920E-02 0.  1.
    10030    2    1    2    0    0  0.00000000000E+00  0.00000000000E+00 -0.11450788919E+04  0.42501615036E+04  0.40930022157E+04 0.  0.
        2    1    3    3  502    0 -0.43226818372E+03  0.19119267488E+04  0.38129068110E+02  0.19605543862E+04  0.25500000920E-02 0. -1.
       -2    1    3    3    0  502  0.43226818372E+03 -0.19119267488E+04 -0.11832079600E+04  0.22896071174E+04  0.25500000920E-02 0.  1.
</event>
<event>
 5   0  0.7256473E-07  0.3621778E+04  0.7818609E-02  0.8085521E-01
        2   -1    0    0  501    0  0.00000000000E+00  0.00000000000E+00  0.19658963243E+04  0.19658963243E+04  0.25500000920E-02 0.  1.
       -2   -1    0    0    0  501  0.00000000000E+00  0.00000000000E+00 -0.16681038637E+04  0.16681038637E+04  0.25500000920E-02 0. -1.
    10030    2    1    2    0    0  0.00000000000E+00  0.00000000000E+00  0.29779246067E+03  0.36340001880E+04  0.36217781568E+04 0.  0.
        4    1    3    3  502    0 -0.13586756317E+03 -0.10734436488E+04  0.16058902491E+04  0.19363951990E+04  0.12699999809E+01 0.  1.
       -4    1    3    3    0  502  0.13586756317E+03  0.10734436488E+04 -0.13080977884E+04  0.16976049890E+04  0.12699999809E+01 0. -1.
</event>
<event>
 5   0  0.6043512E-07  0.3850500E+04  0.7818609E-02  0.8035404E-01
       -2   -1    0    0    0  501  0.00000000000E+00  0.00000000000E+00  0.15566073562E+04  0.15566073563E+04  0.25500000920E-02 0.  1.
        2   -1    0    0  501    0  0.00000000000E+00  0.00000000000E+00 -0.23811958091E+04  0.23811958091E+04  0.25500000920E-02 0. -1.
    10030    2    1    2    0    0  0.00000000000E+00  0.00000000000E+00 -0.82458845282E+03  0.39378031653E+04  0.38504996627E+04 0.  0.
        3    1    3    3  502    0 -0.17545482974E+04 -0.29314561461E+03  0.34075229447E+03  0.18112112565E+04  0.10100000352E+00 0.  1.
       -3    1    3    3    0  502  0.17545482974E+04  0.29314561461E+03 -0.11653407473E+04  0.21265919088E+04  0.10100000352E+00 0. -1.
</event>
<event>
 5   0  0.6043512E-07  0.4118338E+04  0.7818609E-02  0.7981090E-01
        2   -1    0    0  501    0  0.00000000000E+00  0.00000000000E+00  0.18344797852E+04  0.18344797852E+04  0.25500000920E-02 0. -1.
       -2   -1    0    0    0  501  0.00000000000E+00  0.00000000000E+00 -0.23113780625E+04  0.23113780625E+04  0.25500000920E-02 0.  1.
    10030    2    1    2    0    0  0.00000000000E+00  0.00000000000E+00 -0.47689827731E+03  0.41458578478E+04  0.41183376898E+04 0.  0.
        3    1    3    3  502    0  0.27259270164E+03  0.15603908631E+04 -0.15629347527E+04  0.22252845837E+04  0.10100000352E+00 0.  1.
       -3    1    3    3    0  502 -0.27259270164E+03 -0.15603908631E+04  0.10860364754E+04  0.19205732641E+04  0.10100000352E+00 0. -1.
</event>
<event>
 5   0  0.4449262E-07  0.2110859E+04  0.7818609E-02  0.8556475E-01
        2   -1    0    0  501    0  0.00000000000E+00  0.00000000000E+00  0.15095092254E+04  0.15095092254E+04  0.25500000920E-02 0. -1.
       -2   -1    0    0    0  501  0.00000000000E+00  0.00000000000E+00 -0.73794272148E+03  0.73794272148E+03  0.25500000920E-02 0.  1.
    10030    2    1    2    0    0  0.00000000000E+00  0.00000000000E+00  0.77156650393E+03  0.22474519469E+04  0.21108589208E+04 0.  0.
        1    1    3    3  502    0  0.13669722632E+03  0.60213356444E+03  0.12971401582E+04  0.14366013891E+04  0.50400001928E-02 0. -1.
       -1    1    3    3    0  502 -0.13669722632E+03 -0.60213356444E+03 -0.52557365422E+03  0.81085055784E+03  0.50400001928E-02 0.  1.
</event>
<event>
 5   0  0.2647879E-07  0.3159354E+04  0.7818609E-02  0.8199635E-01
        1   -1    0    0  501    0  0.00000000000E+00  0.00000000000E+00  0.20211774792E+04  0.20211774792E+04  0.50400001928E-02 0.  1.
       -1   -1    0    0    0  501  0.00000000000E+00  0.00000000000E+00 -0.12346167896E+04  0.12346167896E+04  0.50400001928E-02 0. -1.
    10030    2    1    2    0    0  0.00000000000E+00  0.00000000000E+00  0.78656068962E+03  0.32557942688E+04  0.31593541432E+04 0.  0.
        2    1    3    3  502    0  0.68649310801E+03 -0.50285381272E+03  0.17647871007E+04  0.19592366512E+04  0.25500000920E-02 0.  1.
       -2    1    3    3    0  502 -0.68649310801E+03  0.50285381272E+03 -0.97822641113E+03  0.12965576176E+04  0.25500000920E-02 0. -1.
</event>
<event>
 5   0  0.3579559E-07  0.2963154E+04  0.7818609E-02  0.8254331E-01
        1   -1    0    0  501    0  0.00000000000E+00  0.00000000000E+00  0.10862294854E+04  0.10862294854E+04  0.50400001928E-02 0.  1.
       -1   -1    0    0    0  501  0.00000000000E+00  0.00000000000E+00 -0.20208170352E+04  0.20208170352E+04  0.50400001928E-02 0. -1.
    10030    2    1    2    0    0  0.00000000000E+00  0.00000000000E+00 -0.93458754985E+03  0.31070465206E+04  0.29631544328E+04 0.  0.
        4    1    3    3  502    0 -0.12369959831E+03 -0.73298566611E+03 -0.18111293678E+04  0.19577437977E+04  0.12699999809E+01 0. -1.
       -4    1    3    3    0  502  0.12369959831E+03  0.73298566611E+03  0.87654181798E+03  0.11493027229E+04  0.12699999809E+01 0.  1.
</event>
<event>
 5   0  0.5161550E-07  0.4011176E+04  0.7818609E-02  0.8002296E-01
       -2   -1    0    0    0  501  0.00000000000E+00  0.00000000000E+00  0.22776698876E+04  0.22776698876E+04  0.25500000920E-02 0.  1.
        2   -1    0    0  501    0  0.00000000000E+00  0.00000000000E+00 -0.17660077694E+04  0.17660077694E+04  0.25500000920E-02 0. -1.
    10030    2    1    2    0    0  0.00000000000E+00  0.00000000000E+00  0.51166211820E+03  0.40436776571E+04  0.40111757467E+04 0.  0.
        2    1    3    3  502    0  0.98891554244E+03 -0.31756248297E+03  0.19854202748E+04  0.22406904178E+04  0.25500000920E-02 0.  1.
       -2    1    3    3    0  502 -0.98891554244E+03  0.31756248297E+03 -0.14737581566E+04  0.18029872393E+04  0.25500000920E-02 0. -1.
</event>
<event>
 5   0  0.5161550E-07  0.4043518E+04  0.7818609E-02  0.7995825E-01
       -2   -1    0    0    0  501  0.00000000000E+00  0.00000000000E+00  0.16403284009E+04  0.16403284009E+04  0.25500000920E-02 0.  1.
        2   -1    0    0  501    0  0.00000000000E+00  0.00000000000E+00 -0.24918842877E+04  0.24918842877E+04  0.25500000920E-02 0. -1.
    10030    2    1    2    0    0  0.00000000000E+00  0.00000000000E+00 -0.85155588674E+03  0.41322126886E+04  0.40435175622E+04 0.  0.
        2    1    3    3  502    0 -0.12454551386E+02 -0.65738284991E+02 -0.24907525782E+04  0.24916510679E+04  0.25500000920E-02 0. -1.
       -2    1    3    3    0  502  0.12454551386E+02  0.65738284991E+02  0.16391966915E+04  0.16405616207E+04  0.25500000920E-02 0.  1.
</event>
<event>
 5   0  0.2601252E-07  0.4148551E+04  0.7818609E-02  0.7975232E-01
        1   -1    0    0  501    0  0.00000000000E+00  0.00000000000E+00  0.21462259082E+04  0.21462259082E+04  0.50400001928E-02 0.  1.
       -1   -1    0    0    0  501  0.00000000000E+00  0.00000000000E+00 -0.20047369299E+04  0.20047369300E+04  0.50400001928E-02 0. -1.
    10030    2    1    2    0    0  0.00000000000E+00  0.00000000000E+00  0.14148897821E+03  0.41509628381E+04  0.41485507533E+04 0.  0.
        3    1    3    3  502    0 -0.93855959344E+03 -0.85573294275E+03 -0.15701618753E+04  0.20195497777E+04  0.10100000352E+00 0. -1.
       -3    1    3    3    0  502  0.93855959344E+03  0.85573294275E+03  0.17116508535E+04  0.21314130604E+04  0.10100000352E+00 0.  1.
</event>
<event>
 5   0  0.2401125E-07  0.2314765E+04  0.7818609E-02  0.8472122E-01
        1   -1    0    0  501    0  0.00000000000E+00  0.00000000000E+00  0.13086147595E+04  0.13086147595E+04  0.50400001928E-02 0.  1.
       -1   -1    0    0    0  501  0.00000000000E+00  0.00000000000E+00 -0.10236277812E+04  0.10236277812E+04  0.50400001928E-02 0. -1.
    10030    2    1    2    0    0  0.00000000000E+00  0.00000000000E+00  0.28498697831E+03  0.23322425406E+04  0.23147651480E+04 0.  0.
        5    1    3    3  502    0 -0.45894234747E+03  0.30111849088E+02 -0.92758837143E+03  0.10353632592E+04  0.46999998093E+01 0. -1.
       -5    1    3    3    0  502  0.45894234747E+03 -0.30111849088E+02  0.12125753497E+04  0.12968792814E+04  0.46999998093E+01 0.  1.
</event>
<event>
 5   0  0.7256473E-07  0.3360729E+04  0.7818609E-02  0.8147613E-01
        2   -1    0    0  501    0  0.00000000000E+00  0.00000000000E+00  0.14492207606E+04  0.14492207606E+04  0.25500000920E-02 0.  1.
       -2   -1    0    0    0  501  0.00000000000E+00  0.00000000000E+00 -0.19483740641E+04  0.19483740641E+04  0.25500000920E-02 0. -1.
    10030    2    1    2    0    0  0.00000000000E+00  0.00000000000E+00 -0.49915330349E+03  0.33975948247E+04  0.33607285776E+04 0.  0.
        4    1    3    3  502    0  0.70881097535E+03  0.14084433496E+04 -0.83689425426E+03  0.17850824277E+04  0.12699999809E+01 0. -1.
       -4    1    3    3    0  502 -0.70881097535E+03 -0.14084433496E+04  0.33774095077E+03  0.16125123970E+04  0.12699999809E+01 0.  1.
</event>
<event>
 5   0  0.2401125E-07  0.3242009E+04  0.7818609E-02  0.8177810E-01
        1   -1    0    0  501    0  0.00000000000E+00  0.00000000000E+00  0.16709607866E+04  0.16709607866E+04  0.50400001928E-02 0.  1.
       -1   -1    0    0    0  501  0.00000000000E+00  0.00000000000E+00 -0.15725421292E+04  0.15725421292E+04  0.50400001928E-02 0. -1.
    10030    2    1    2    0    0  0.00000000000E+00  0.00000000000E+00  0.98418657339E+02  0.32435029158E+04  0.32420093974E+04 0.  0.
        5    1    3    3  502    0 -0.95225627084E+03 -0.48267209066E+03 -0.11711352787E+04  0.15847221471E+04  0.46999998093E+01 0. -1.
       -5    1    3    3    0  502  0.95225627084E+03  0.48267209066E+03  0.12695539360E+04  0.16587807688E+04  0.46999998093E+01 0.  1.
</event>
<event>
 5   0  0.2601252E-07  0.2099692E+04  0.7818609E-02  0.8561379E-01
        1   -1    0    0  501    0  0.00000000000E+00  0.00000000000E+00  0.15184123048E+04  0.15184123048E+04  0.50400001928E-02 0.  1.
       -1   -1    0    0    0  501  0.00000000000E+00  0.00000000000E+00 -0.72587456168E+03  0.72587456170E+03  0.50400001928E-02 0. -1.
    10030    2    1    2    0    0  0.00000000000E+00  0.00000000000E+00  0.79253774308E+03  0.22442868665E+04  0.20996922310E+04 0.  0.
        3    1    3    3  502    0 -0.43338846873E+03  0.30060822917E+03  0.13665166093E+04  0.14647725168E+04  0.10100000352E+00 0.  1.
       -3    1    3    3    0  502  0.43338846873E+03 -0.30060822917E+03 -0.57397886622E+03  0.77951434967E+03  0.10100000352E+00 0. -1.
</event>
<event>
 5   0  0.2647879E-07  0.2601698E+04  0.7818609E-02  0.8367625E-01
       -1   -1    0    0    0  501  0.00000000000E+00  0.00000000000E+00  0.72378309124E+03  0.72378309126E+03  0.50400001928E-02 0. -1.
        1   -1    0    0  501    0  0.00000000000E+00  0.00000000000E+00 -0.23380043346E+04  0.23380043346E+04  0.50400001928E-02 0.  1.
    10030    2    1    2    0    0  0.00000000000E+00  0.00000000000E+00 -0.16142212433E+04  0.30617874258E+04  0.26016979107E+04 0.  0.
        2    1    3    3  502    0  0.84197028941E+03  0.66877820981E+03  0.54503108311E+02  0.10766377529E+04  0.25500000920E-02 0. -1.
       -2    1    3    3    0  502 -0.84197028941E+03 -0.66877820981E+03 -0.16687243516E+04  0.19851496729E+04  0.25500000920E-02 0.  1.
</event>
<event>
 5   0  0.2647879E-07  0.2323918E+04  0.7818609E-02  0.8468550E-01
       -1   -1    0    0    0  501  0.00000000000E+00  0.00000000000E+00  0.55510555316E+03  0.55510555318E+03  0.50400001928E-02 0.  1.
        1   -1    0    0  501    0  0.00000000000E+00  0.00000000000E+00 -0.24322384457E+04  0.24322384457E+04  0.50400001928E-02 0. -1.
    10030    2    1    2    0    0  0.00000000000E+00  0.00000000000E+00 -0.18771328925E+04  0.29873439989E+04  0.23239183014E+04 0.  0.
        2    1    3    3  502    0 -0.84745051313E+03 -0.22634542556E+03  0.41051902401E+02  0.87811723738E+03  0.25500000920E-02 0.  1.
       -2    1    3    3    0  502  0.84745051313E+03  0.22634542556E+03 -0.19181847949E+04  0.21092267615E+04  0.25500000920E-02 0. -1.
</event>
<event>
 5   0  0.3579559E-07  0.2369718E+04  0.7818609E-02  0.8450928E-01
       -1   -1    0    0    0  501  0.00000000000E+00  0.00000000000E+00  0.16256411594E+04  0.16256411595E+04  0.50400001928E-02 0. -1.
        1   -1    0    0  501    0  0.00000000000E+00  0.00000000000E+00 -0.86359225246E+03  0.86359225247E+03  0.50400001928E-02 0.  1.
    10030    2    1    2    0    0  0.00000000000E+00  0.00000000000E+00  0.76204890699E+03  0.24892334119E+04  0.23697182200E+04 0.  0.
        4    1    3    3  502    0 -0.95709832902E+02 -0.10487014682E+04  0.95151220091E+03  0.14192646768E+04  0.12699999809E+01 0.  1.
       -4    1    3    3    0  502  0.95709832902E+02  0.10487014682E+04 -0.18946329392E+03  0.10699687351E+04  0.12699999809E+01 0. -1.
</event>
<event>
 5   0  0.3579559E-07  0.4091205E+04  0.7818609E-02  0.7986396E-01
        1   -1    0    0  501    0  0.00000000000E+00  0.00000000000E+00  0.27936943538E+04  0.27936943538E+04  0.50400001928E-02 0. -1.
       -1   -1    0    0    0  501  0.00000000000E+00  0.00000000000E+00 -0.14978334574E+04  0.14978334574E+04  0.50400001928E-02 0.  1.
    10030    2    1    2    0    0  0.00000000000E+00  0.00000000000E+00  0.12958608964E+04  0.42915278112E+04  0.40912046504E+04 0.  0.
        4    1    3    3  502    0 -0.15622723600E+04 -0.68832064448E+03  0.18300564997E+04  0.25027162527E+04  0.12699999809E+01 0. -1.
       -4    1    3    3    0  502  0.15622723600E+04  0.68832064448E+03 -0.53419560331E+03  0.17888115585E+04  0.12699999809E+01 0.  1.
</event>
<event>
 5   0  0.6043512E-07  0.3987961E+04  0.7818609E-02  0.8006980E-01
        2   -1    0    0  501    0  0.00000000000E+00  0.00000000000E+00  0.21897638070E+04  0.21897638070E+04  0.25500000920E-02 0.  1.
       -2   -1    0    0    0  501  0.00000000000E+00  0.00000000000E+00 -0.18157018770E+04  0.18157018770E+04  0.25500000920E-02 0. -1.
    10030    2    1    2    0    0  0.00000000000E+00  0.00000000000E+00  0.37406192994E+03  0.40054656840E+04  0.39879610101E+04 0.  0.
        3    1    3    3  502    0 -0.70950308616E+03 -0.77664254029E+03 -0.15143317082E+04  0.18438461968E+04  0.10100000352E+00 0. -1.
       -3    1    3    3    0  502  0.70950308616E+03  0.77664254029E+03  0.18883936381E+04  0.21616194872E+04  0.10100000352E+00 0.  1.
</event>
<event>
 5   0  0.2601252E-07  0.3977385E+04  0.7818609E-02  0.8009124E-01
        1   -1    0    0  501    0  0.00000000000E+00  0.00000000000E+00  0.26395133692E+04  0.26395133692E+04  0.50400001928E-02 0.  1.
       -1   -1    0    0    0  501  0.00000000000E+00  0.00000000000E+00 -0.14983436064E+04  0.14983436065E+04  0.50400001928E-02 0. -1.
    10030    2    1    2    0    0  0.00000000000E+00  0.00000000000E+00  0.11411697628E+04  0.41378569757E+04  0.39773850610E+04 0.  0.
        3    1    3    3  502    0  0.70422067748E+03 -0.68251459147E+02 -0.13629796780E+04  0.15356753033E+04  0.10100000352E+00 0. -1.
       -3    1    3    3    0  502 -0.70422067748E+03  0.68251459147E+02  0.25041494408E+04  0.26021816724E+04  0.10100000352E+00 0.  1.
</event>
<event>
 5   0  0.1035894E-06  0.2002262E+04  0.7818609E-02  0.8605564E-01
       -2   -1    0    0    0  501  0.00000000000E+00  0.00000000000E+00  0.65320173416E+03  0.65320173417E+03  0.25500000920E-02 0. -1.
        2   -1    0    0  501    0  0.00000000000E+00  0.00000000000E+00 -0.15343855731E+04  0.15343855731E+04  0.25500000920E-02 0.  1.
    10030    2    1    2    0    0  0.00000000000E+00  0.00000000000E+00 -0.88118383896E+03  0.21875873073E+04  0.20022620380E+04 0.  0.
        1    1    3    3  502    0  0.19736928426E+03  0.50838131838E+03  0.47667351110E+03  0.72430921260E+03  0.50400001928E-02 0. -1.
       -1    1    3    3    0  502 -0.19736928426E+03 -0.50838131838E+03 -0.13578573501E+04  0.14632780947E+04  0.50400001928E-02 0.  1.
</event>
<event>
 5   0  0.2713405E-07  0.3993812E+04  0.7818609E-02  0.8005796E-01
        1   -1    0    0  501    0  0.00000000000E+00  0.00000000000E+00  0.24303581167E+04  0.24303581167E+04  0.50400001928E-02 0.  1.
       -1   -1    0    0    0  501  0.00000000000E+00  0.00000000000E+00 -0.16407595683E+04  0.16407595683E+04  0.50400001928E-02 0. -1.
    10030    2    1    2    0    0  0.00000000000E+00  0.00000000000E+00  0.78959854838E+03  0.40711176849E+04  0.39938118805E+04 0.  0.
        1    1    3    3  502    0 -0.18118772378E+03  0.12452375385E+04  0.19753565860E+04  0.23421099804E+04  0.50400001928E-02 0.  1.
       -1    1    3    3    0  502  0.18118772378E+03 -0.12452375385E+04 -0.11857580376E+04  0.17290077045E+04  0.50400001928E-02 0. -1.
</event>
<event>
 5   0  0.2401125E-07  0.2011042E+04  0.7818609E-02  0.8601475E-01
        1   -1    0    0  501    0  0.00000000000E+00  0.00000000000E+00  0.95720399111E+03  0.95720399112E+03  0.50400001928E-02 0.  1.
       -1   -1    0    0    0  501  0.00000000000E+00  0.00000000000E+00 -0.10562771685E+04  0.10562771685E+04  0.50400001928E-02 0. -1.
    10030    2    1    2    0    0  0.00000000000E+00  0.00000000000E+00 -0.99073177412E+02  0.20134811597E+04  0.20110422387E+04 0.  0.
        5    1    3    3  502    0 -0.66055456332E+03  0.34566584570E+03  0.62599155654E+03  0.97350127214E+03  0.46999998093E+01 0.  1.
       -5    1    3    3    0  502  0.66055456332E+03 -0.34566584570E+03 -0.72506473395E+03  0.10399798875E+04  0.46999998093E+01 0. -1.
</event>
<event>
 5   0  0.6043512E-07  0.3970293E+04  0.7818609E-02  0.8010566E-01
        2   -1    0    0  501    0  0.00000000000E+00  0.00000000000E+00  0.24078555197E+04  0.24078555197E+04  0.25500000920E-02 0. -1.
       -2   -1    0    0    0  501  0.00000000000E+00  0.00000000000E+00 -0.16366457863E+04  0.16366457863E+04  0.25500000920E-02 0.  1.
    10030    2    1    2    0    0  0.00000000000E+00  0.00000000000E+00  0.77120973338E+03  0.40445013059E+04  0.39702929817E+04 0.  0.
        3    1    3    3  502    0  0.77015652595E+03 -0.13395300016E+04  0.16552243350E+04  0.22643430193E+04  0.10100000352E+00 0. -1.
       -3    1    3    3    0  502 -0.77015652595E+03  0.13395300016E+04 -0.88401460157E+03  0.17801582867E+04  0.10100000352E+00 0.  1.
</event>
<event>
 5   0  0.6043512E-07  0.3974962E+04  0.7818609E-02  0.8009617E-01
       -2   -1    0    0    0  501  0.00000000000E+00  0.00000000000E+00  0.13396429492E+04  0.13396429492E+04  0.25500000920E-02 0.  1.
        2   -1    0    0  501    0  0.00000000000E+00  0.00000000000E+00 -0.29486068610E+04  0.29486068610E+04  0.25500000920E-02 0. -1.
    10030    2    1    2    0    0  0.00000000000E+00  0.00000000000E+00 -0.16089639118E+04  0.42882498101E+04  0.39749618318E+04 0.  0.
        3    1    3    3  502    0  0.56240855709E+03 -0.15758416197E+04 -0.19616340903E+04  0.25782917813E+04  0.10100000352E+00 0. -1.
       -3    1    3    3    0  502 -0.56240855709E+03  0.15758416197E+04  0.35267017844E+03  0.17099580288E+04  0.10100000352E+00 0.  1.
</event>
<event>
 5   0  0.4449262E-07  0.3635477E+04  0.7818609E-02  0.8082413E-01
       -2   -1    0    0    0  501  0.00000000000E+00  0.00000000000E+00  0.14363720367E+04  0.14363720367E+04  0.25500000920E-02 0. -1.
        2   -1    0    0  501    0  0.00000000000E+00  0.00000000000E+00 -0.23003609095E+04  0.23003609095E+04  0.25500000920E-02 0.  1.
    10030    2    1    2    0    0  0.00000000000E+00  0.00000000000E+00 -0.86398887286E+03  0.37367329462E+04  0.36354774568E+04 0.  0.
        1    1    3    3  502    0  0.13128968533E+01 -0.67377203170E+02 -0.22990764829E+04  0.23000639308E+04  0.50400001928E-02 0.  1.
       -1    1    3    3    0  502 -0.13128968533E+01  0.67377203170E+02  0.14350876101E+04  0.14366690154E+04  0.50400001928E-02 0. -1.
</event>
<event>
 5   0  0.3579559E-07  0.2773047E+04  0.7818609E-02  0.8311685E-01
        1   -1    0    0  501    0  0.00000000000E+00  0.00000000000E+00  0.22002304431E+04  0.22002304431E+04  0.50400001928E-02 0. -1.
       -1   -1    0    0    0  501  0.00000000000E+00  0.00000000000E+00 -0.87374796371E+03  0.87374796373E+03  0.50400001928E-02 0.  1.
    10030    2    1    2    0    0  0.00000000000E+00  0.00000000000E+00  0.13264824793E+04  0.30739784068E+04  0.27730466057E+04 0.  0.
        4    1    3    3  502    0 -0.54210659950E+03  0.11419763921E+04  0.31816944062E+02  0.12645171316E+04  0.12699999809E+01 0.  1.
       -4    1    3    3    0  502  0.54210659950E+03 -0.11419763921E+04  0.12946655353E+04  0.18094612752E+04  0.12699999809E+01 0. -1.
</event>
<event>
 5   0  0.5161550E-07  0.3812785E+04  0.7818609E-02  0.8043417E-01
       -2   -1    0    0    0  501  0.00000000000E+00  0.00000000000E+00  0.12875511716E+04  0.12875511716E+04  0.25500000920E-02 0.  1.
        2   -1    0    0  501    0  0.00000000000E+00  0.00000000000E+00 -0.28226698961E+04  0.28226698961E+04  0.25500000920E-02 0. -1.
    10030    2    1    2    0    0  0.00000000000E+00  0.00000000000E+00 -0.15351187244E+04  0.41102210677E+04  0.38127847733E+04 0.  0.
        2    1    3    3  502    0 -0.32032658687E+03  0.76822725296E+03  0.10813302629E+04  0.13645722304E+04  0.25500000920E-02 0.  1.
       -2    1    3    3    0  502  0.32032658687E+03 -0.76822725296E+03 -0.26164489873E+04  0.27456488373E+04  0.25500000920E-02 0. -1.
</event>
<event>
 5   0  0.4449262E-07  0.3997426E+04  0.7818609E-02  0.8005066E-01
       -2   -1    0    0    0  501  0.00000000000E+00  0.00000000000E+00  0.14660457815E+04  0.14660457815E+04  0.25500000920E-02 0.  1.
        2   -1    0    0  501    0  0.00000000000E+00  0.00000000000E+00 -0.27249176357E+04  0.27249176357E+04  0.25500000920E-02 0. -1.
    10030    2    1    2    0    0  0.00000000000E+00  0.00000000000E+00 -0.12588718542E+04  0.41909634172E+04  0.39974261743E+04 0.  0.
        1    1    3    3  502    0 -0.10477736898E+04  0.21271919345E+03  0.11410441129E+04  0.15636690276E+04  0.50400001928E-02 0.  1.
       -1    1    3    3    0  502  0.10477736898E+04 -0.21271919345E+03 -0.23999159671E+04  0.26272943895E+04  0.50400001928E-02 0. -1.
</event>
<event>
 5   0  0.4449262E-07  0.4018460E+04  0.7818609E-02  0.8000833E-01
        2   -1    0    0  501    0  0.00000000000E+00  0.00000000000E+00  0.12364812763E+04  0.12364812763E+04  0.25500000920E-02 0.  1.
       -2   -1    0    0    0  501  0.00000000000E+00  0.00000000000E+00 -0.32649137866E+04  0.32649137866E+04  0.25500000920E-02 0. -1.
    10030    2    1    2    0    0  0.00000000000E+00  0.00000000000E+00 -0.20284325103E+04  0.45013950629E+04  0.40184597875E+04 0.  0.
        1    1    3    3  502    0  0.16842285774E+04 -0.85548644341E+03 -0.17809638277E+04  0.25962116847E+04  0.50400001928E-02 0. -1.
       -1    1    3    3    0  502 -0.16842285774E+04  0.85548644341E+03 -0.24746868253E+03  0.19051833782E+04  0.50400001928E-02 0.  1.
</event>
<event>
 5   0  0.2601252E-07  0.2146476E+04  0.7818609E-02  0.8541042E-01
        1   -1    0    0  501    0  0.00000000000E+00  0.00000000000E+00  0.14154314846E+04  0.14154314846E+04  0.50400001928E-02 0. -1.
       -1   -1    0    0    0  501  0.00000000000E+00  0.00000000000E+00 -0.81377318702E+03  0.81377318703E+03  0.50400001928E-02 0.  1.
    10030    2    1    2    0    0  0.00000000000E+00  0.00000000000E+00  0.60165829757E+03  0.22292046716E+04  0.21464763593E+04 0.  0.
        3    1    3    3  502    0 -0.71330398048E+03 -0.72669907937E+03 -0.51274786315E+02  0.10195701224E+04  0.10100000352E+00 0.  1.
       -3    1    3    3    0  502  0.71330398048E+03  0.72669907937E+03  0.65293308389E+03  0.12096345493E+04  0.10100000352E+00 0. -1.
</event>
<event>
 5   0  0.7570277E-07  0.2438846E+04  0.7818609E-02  0.8425102E-01
       -2   -1    0    0    0  501  0.00000000000E+00  0.00000000000E+00  0.12117816479E+04  0.12117816479E+04  0.25500000920E-02 0.  1.
        2   -1    0    0  501    0  0.00000000000E+00  0.00000000000E+00 -0.12271123303E+04  0.12271123303E+04  0.25500000920E-02 0. -1.
    10030    2    1    2    0    0  0.00000000000E+00  0.00000000000E+00 -0.15330682418E+02  0.24388939781E+04  0.24388457940E+04 0.  0.
        5    1    3    3  502    0 -0.22422067725E+02  0.15959830827E+03 -0.12164057901E+04  0.12270450299E+04  0.46999998093E+01 0. -1.
       -5    1    3    3    0  502  0.22422067725E+02 -0.15959830827E+03  0.12010751077E+04  0.12118489483E+04  0.46999998093E+01 0.  1.
</event>
<event>
 5   0  0.2713405E-07  0.3913661E+04  0.7818609E-02  0.8022194E-01
       -1   -1    0    0    0  501  0.00000000000E+00  0.00000000000E+00  0.23528624741E+04  0.23528624741E+04  0.50400001928E-02 0.  1.
        1   -1    0    0  501    0  0.00000000000E+00  0.00000000000E+00 -0.16274579334E+04  0.16274579334E+04  0.50400001928E-02 0. -1.
    10030    2    1    2    0    0  0.00000000000E+00  0.00000000000E+00  0.72540454070E+03  0.39803204076E+04  0.39136605370E+04 0.  0.
        1    1    3    3  502    0  0.75716487893E+03  0.89970532005E+03 -0.12280409038E+04  0.17002507986E+04  0.50400001928E-02 0. -1.
       -1    1    3    3    0  502 -0.75716487893E+03 -0.89970532005E+03  0.19534454445E+04  0.22800696089E+04  0.50400001928E-02 0.  1.
</event>
<event>
 5   0  0.5161550E-07  0.4047705E+04  0.7818609E-02  0.7994992E-01
       -2   -1    0    0    0  501  0.00000000000E+00  0.00000000000E+00  0.21806645449E+04  0.21806645449E+04  0.25500000920E-02 0. -1.
        2   -1    0    0  501    0  0.00000000000E+00  0.00000000000E+00 -0.18783166175E+04  0.18783166175E+04  0.25500000920E-02 0.  1.
    10030    2    1    2    0    0  0.00000000000E+00  0.00000000000E+00  0.30234792742E+03  0.40589811624E+04  0.40477047580E+04 0.  0.
        2    1    3    3  502    0 -0.97755221680E+03  0.17623307647E+04  0.33759612261E+03  0.20433769116E+04  0.25500000920E-02 0.  1.
       -2    1    3    3    0  502  0.97755221680E+03 -0.17623307647E+04 -0.35248195187E+02  0.20156042508E+04  0.25500000920E-02 0. -1.
</event>
<event>
 5   0  0.7256473E-07  0.3931445E+04  0.7818609E-02  0.8018521E-01
       -2   -1    0    0    0  501  0.00000000000E+00  0.00000000000E+00  0.15429707451E+04  0.15429707451E+04  0.25500000920E-02 0.  1.
        2   -1    0    0  501    0  0.00000000000E+00  0.00000000000E+00 -0.25043017304E+04  0.25043017304E+04  0.25500000920E-02 0. -1.
    10030    2    1    2    0    0  0.00000000000E+00  0.00000000000E+00 -0.96133098531E+03  0.40472724754E+04  0.39314446743E+04 0.  0.
        4    1    3    3  502    0 -0.90198260049E+03  0.16899185052E+04 -0.26457469776E+02  0.19157501863E+04  0.12699999809E+01 0.  1.
       -4    1    3    3    0  502  0.90198260049E+03 -0.16899185052E+04 -0.93487351553E+03  0.21315222891E+04  0.12699999809E+01 0. -1.
</event>
<event>
 5   0  0.7570277E-07  0.3993170E+04  0.7818609E-02  0.8005926E-01
       -2   -1    0    0    0  501  0.00000000000E+00  0.00000000000E+00  0.18103339383E+04  0.18103339383E+04  0.25500000920E-02 0.  1.
        2   -1    0    0  501    0  0.00000000000E+00  0.00000000000E+00 -0.22019985150E+04  0.22019985150E+04  0.25500000920E-02 0. -1.
    10030    2    1    2    0    0  0.00000000000E+00  0.00000000000E+00 -0.39166457668E+03  0.40123324532E+04  0.39931704915E+04 0.  0.
        5    1    3    3  502    0  0.19829292561E+04 -0.28919630590E+00 -0.43002160187E+03  0.20290266599E+04  0.46999998093E+01 0.  1.
       -5    1    3    3    0  502 -0.19829292561E+04  0.28919630590E+00  0.38357025184E+02  0.19833057933E+04  0.46999998093E+01 0. -1.
</event>
<event>
 5   0  0.2401125E-07  0.2636727E+04  0.7818609E-02  0.8355832E-01
        1   -1    0    0  501    0  0.00000000000E+00  0.00000000000E+00  0.14338317943E+04  0.14338317943E+04  0.50400001928E-02 0. -1.
       -1   -1    0    0    0  501  0.00000000000E+00  0.00000000000E+00 -0.12121940058E+04  0.12121940058E+04  0.50400001928E-02 0.  1.
    10030    2    1    2    0    0  0.00000000000E+00  0.00000000000E+00  0.22163778855E+03  0.26460258001E+04  0.26367269911E+04 0.  0.
        5    1    3    3  502    0 -0.11873556001E+04  0.39871567838E+03 -0.30205970656E+03  0.12884291481E+04  0.46999998093E+01 0.  1.
       -5    1    3    3    0  502  0.11873556001E+04 -0.39871567838E+03  0.52369749511E+03  0.13575966520E+04  0.46999998093E+01 0. -1.
</event>
<event>
 5   0  0.2601252E-07  0.2100935E+04  0.7818609E-02  0.8560832E-01
        1   -1    0    0  501    0  0.00000000000E+00  0.00000000000E+00  0.36167660134E+03  0.36167660138E+03  0.50400001928E-02 0.  1.
       -1   -1    0    0    0  501  0.00000000000E+00  0.00000000000E+00 -0.30510169964E+04  0.30510169964E+04  0.50400001928E-02 0. -1.
    10030    2    1    2    0    0  0.00000000000E+00  0.00000000000E+00 -0.26893403951E+04  0.34126935978E+04  0.21009345140E+04 0.  0.
        3    1    3    3  502    0 -0.83578924447E+03  0.31886271233E+03 -0.45013904985E+03  0.10014201241E+04  0.10100000352E+00 0.  1.
       -3    1    3    3    0  502  0.83578924447E+03 -0.31886271233E+03 -0.22392013452E+04  0.24112734738E+04  0.10100000352E+00 0. -1.
</event>
<event>
 5   0  0.7570277E-07  0.2215401E+04  0.7818609E-02  0.8512045E-01
        2   -1    0    0  501    0  0.00000000000E+00  0.00000000000E+00  0.14237439503E+04  0.14237439503E+04  0.25500000920E-02 0. -1.
       -2   -1    0    0    0  501  0.00000000000E+00  0.00000000000E+00 -0.86181225164E+03  0.86181225165E+03  0.25500000920E-02 0.  1.
    10030    2    1    2    0    0  0.00000000000E+00  0.00000000000E+00  0.56193169863E+03  0.22855562019E+04  0.22154006225E+04 0.  0.
        5    1    3    3  502    0  0.63770856687E+03 -0.66554116554E+03  0.91471578164E+03  0.12985932044E+04  0.46999998093E+01 0. -1.
       -5    1    3    3    0  502 -0.63770856687E+03  0.66554116554E+03 -0.35278408301E+03  0.98696299754E+03  0.46999998093E+01 0.  1.
</event>
<event>
 5   0  0.2401125E-07  0.2154806E+04  0.7818609E-02  0.8537478E-01
       -1   -1    0    0    0  501  0.00000000000E+00  0.00000000000E+00  0.72610930136E+03  0.72610930138E+03  0.50400001928E-02 0.  1.
        1   -1    0    0  501    0  0.00000000000E+00  0.00000000000E+00 -0.15986536148E+04  0.15986536148E+04  0.50400001928E-02 0. -1.
    10030    2    1    2    0    0  0.00000000000E+00  0.00000000000E+00 -0.87254431340E+03  0.23247629161E+04  0.21548060324E+04 0.  0.
        5    1    3    3  502    0  0.80436094699E+03 -0.21481043143E+03  0.30150302901E+03  0.88547513855E+03  0.46999998093E+01 0.  1.
       -5    1    3    3    0  502 -0.80436094699E+03  0.21481043143E+03 -0.11740473424E+04  0.14392877776E+04  0.46999998093E+01 0. -1.
</event>
<event>
 5   0  0.5161550E-07  0.3078901E+04  0.7818609E-02  0.8221552E-01
        2   -1    0    0  501    0  0.00000000000E+00  0.00000000000E+00  0.10964719404E+04  0.10964719404E+04  0.25500000920E-02 0.  1.
       -2   -1    0    0    0  501  0.00000000000E+00  0.00000000000E+00 -0.21613935148E+04  0.21613935148E+04  0.25500000920E-02 0. -1.
    10030    2    1    2    0    0  0.00000000000E+00  0.00000000000E+00 -0.10649215744E+04  0.32578654553E+04  0.30789006747E+04 0.  0.
        2    1    3    3  502    0 -0.47361470800E+03 -0.75604439315E+03 -0.18599741733E+04  0.20628664381E+04  0.25500000920E-02 0. -1.
       -2    1    3    3    0  502  0.47361470800E+03  0.75604439315E+03  0.79505259887E+03  0.11949990172E+04  0.25500000920E-02 0.  1.
</event>
<event>
 5   0  0.4449262E-07  0.3999407E+04  0.7818609E-02  0.8004666E-01
       -2   -1    0    0    0  501  0.00000000000E+00  0.00000000000E+00  0.22527002800E+04  0.22527002800E+04  0.25500000920E-02 0. -1.
        2   -1    0    0  501    0  0.00000000000E+00  0.00000000000E+00 -0.17751205688E+04  0.17751205688E+04  0.25500000920E-02 0.  1.
    10030    2    1    2    0    0  0.00000000000E+00  0.00000000000E+00  0.47757971121E+03  0.40278208488E+04  0.39994072573E+04 0.  0.
        1    1    3    3  502    0 -0.11058094728E+04 -0.27561410176E+03 -0.14160629222E+04  0.18176941225E+04  0.50400001928E-02 0.  1.
       -1    1    3    3    0  502  0.11058094728E+04  0.27561410176E+03  0.18936426334E+04  0.22101267263E+04  0.50400001928E-02 0. -1.
</event>
<event>
 5   0  0.5161550E-07  0.4024206E+04  0.7818609E-02  0.7999681E-01
       -2   -1    0    0    0  501  0.00000000000E+00  0.00000000000E+00  0.16855530324E+04  0.16855530324E+04  0.25500000920E-02 0. -1.
        2   -1    0    0  501    0  0.00000000000E+00  0.00000000000E+00 -0.24019164317E+04  0.24019164317E+04  0.25500000920E-02 0.  1.
    10030    2    1    2    0    0  0.00000000000E+00  0.00000000000E+00 -0.71636339937E+03  0.40874694641E+04  0.40242055241E+04 0.  0.
        2    1    3    3  502    0 -0.15763697196E+04  0.54702027830E+03 -0.15003076771E+04  0.22439019149E+04  0.25500000920E-02 0.  1.
       -2    1    3    3    0  502  0.15763697196E+04 -0.54702027830E+03  0.78394427777E+03  0.18435675492E+04  0.25500000920E-02 0. -1.
</event>
<event>
 5   0  0.2713405E-07  0.3752286E+04  0.7818609E-02  0.8056472E-01
        1   -1    0    0  501    0  0.00000000000E+00  0.00000000000E+00  0.13584958746E+04  0.13584958746E+04  0.50400001928E-02 0.  1.
       -1   -1    0    0    0  501  0.00000000000E+00  0.00000000000E+00 -0.25910361137E+04  0.25910361137E+04  0.50400001928E-02 0. -1.
    10030    2    1    2    0    0  0.00000000000E+00  0.00000000000E+00 -0.12325402391E+04  0.39495319883E+04  0.37522856348E+04 0.  0.
        1    1    3    3  502    0 -0.11090468739E+04 -0.12280912963E+04 -0.15468957030E+04  0.22651886271E+04  0.50400001928E-02 0. -1.
       -1    1    3    3    0  502  0.11090468739E+04  0.12280912963E+04  0.31435546392E+03  0.16843433611E+04  0.50400001928E-02 0.  1.
</event>
<event>
 5   0  0.2601252E-07  0.4006403E+04  0.7818609E-02  0.8003256E-01
        1   -1    0    0  501    0  0.00000000000E+00  0.00000000000E+00  0.23566171229E+04  0.23566171229E+04  0.50400001928E-02 0. -1.
       -1   -1    0    0    0  501  0.00000000000E+00  0.00000000000E+00 -0.17027866861E+04  0.17027866861E+04  0.50400001928E-02 0.  1.
    10030    2    1    2    0    0  0.00000000000E+00  0.00000000000E+00  0.65383043681E+03  0.40594038090E+04  0.40064030057E+04 0.  0.
        3    1    3    3  502    0 -0.58653145890E+03  0.12063563880E+03 -0.16099812243E+04  0.17177344563E+04  0.10100000352E+00 0.  1.
       -3    1    3    3    0  502  0.58653145890E+03 -0.12063563880E+03  0.22638116611E+04  0.23416693526E+04  0.10100000352E+00 0. -1.
</event>
<event>
 5   0  0.4449262E-07  0.3971458E+04  0.7818609E-02  0.8010329E-01
       -2   -1    0    0    0  501  0.00000000000E+00  0.00000000000E+00  0.22437320932E+04  0.22437320932E+04  0.25500000920E-02 0. -1.
        2   -1    0    0  501    0  0.00000000000E+00  0.00000000000E+00 -0.17573934645E+04  0.17573934645E+04  0.25500000920E-02 0.  1.
    10030    2    1    2    0    0  0.00000000000E+00  0.00000000000E+00  0.48633862862E+03  0.40011255577E+04  0.39714582293E+04 0.  0.
        1    1    3    3  502    0  0.10251830472E+04  0.80336996741E+03 -0.12669328200E+04  0.18170091786E+04  0.50400001928E-02 0.  1.
       -1    1    3    3    0  502 -0.10251830472E+04 -0.80336996741E+03  0.17532714486E+04  0.21841163791E+04  0.50400001928E-02 0. -1.
</event>
<event>
 5   0  0.2601252E-07  0.2154514E+04  0.7818609E-02  0.8537603E-01
       -1   -1    0    0    0  501  0.00000000000E+00  0.00000000000E+00  0.83715771537E+03  0.83715771538E+03  0.50400001928E-02 0. -1.
        1   -1    0    0  501    0  0.00000000000E+00  0.00000000000E+00 -0.13862170679E+04  0.13862170679E+04  0.50400001928E-02 0.  1.
    10030    2    1    2    0    0  0.00000000000E+00  0.00000000000E+00 -0.54905935256E+03  0.22233747833E+04  0.21545136933E+04 0.  0.
        3    1    3    3  502    0  0.46865017372E+03  0.72341754329E+03 -0.94133671310E+03  0.12763544746E+04  0.10100000352E+00 0.  1.
       -3    1    3    3    0  502 -0.46865017372E+03 -0.72341754329E+03  0.39227736054E+03  0.94702030869E+03  0.10100000352E+00 0. -1.
</event>
<event>
 5   0  0.7570277E-07  0.4062748E+04  0.7818609E-02  0.7992007E-01
       -2   -1    0    0    0  501  0.00000000000E+00  0.00000000000E+00  0.25503361742E+04  0.25503361742E+04  0.25500000920E-02 0. -1.
        2   -1    0    0  501    0  0.00000000000E+00  0.00000000000E+00 -0.16180145402E+04  0.16180145402E+04  0.25500000920E-02 0.  1.
    10030    2    1    2    0    0  0.00000000000E+00  0.00000000000E+00  0.93232163395E+03  0.41683507144E+04  0.40627483369E+04 0.  0.
        5    1    3    3  502    0 -0.15092766735E+04  0.21430944534E+03  0.18436739177E+04  0.23922792939E+04  0.46999998093E+01 0. -1.
       -5    1    3    3    0  502  0.15092766735E+04 -0.21430944534E+03 -0.91135228372E+03  0.17760714205E+04  0.46999998093E+01 0.  1.
</event>
<event>
 5   0  0.6043512E-07  0.3249804E+04  0.7818609E-02  0.8175786E-01
        2   -1    0    0  501    0  0.00000000000E+00  0.00000000000E+00  0.19532357702E+04  0.19532357702E+04  0.25500000920E-02 0. -1.
       -2   -1    0    0    0  501  0.00000000000E+00  0.00000000000E+00 -0.13517604581E+04  0.13517604581E+04  0.25500000920E-02 0.  1.
    10030    2    1    2    0    0  0.00000000000E+00  0.00000000000E+00  0.60147531214E+03  0.33049962282E+04  0.32498042276E+04 0.  0.
        3    1    3    3  502    0  0.13131370542E+03 -0.15258450594E+04  0.85297022903E+03  0.17529987611E+04  0.10100000352E+00 0. -1.
       -3    1    3    3    0  502 -0.13131370542E+03  0.15258450594E+04 -0.25149491689E+03  0.15519974671E+04  0.10100000352E+00 0.  1.
</event>
<event>
 5   0  0.3579559E-07  0.4118015E+04  0.7818609E-02  0.7981153E-01
       -1   -1    0    0    0  501  0.00000000000E+00  0.00000000000E+00  0.23702351279E+04  0.23702351279E+04  0.50400001928E-02 0.  1.
        1   -1    0    0  501    0  0.00000000000E+00  0.00000000000E+00 -0.17886458009E+04  0.17886458009E+04  0.50400001928E-02 0. -1.
    10030    2    1    2    0    0  0.00000000000E+00  0.00000000000E+00  0.58158932705E+03  0.41588809288E+04  0.41180146229E+04 0.  0.
        4    1    3    3  502    0 -0.23996840841E+03 -0.81997133787E+03 -0.16011814952E+04  0.18148613240E+04  0.12699999809E+01 0. -1.
       -4    1    3    3    0  502  0.23996840841E+03  0.81997133787E+03  0.21827708223E+04  0.23440196047E+04  0.12699999809E+01 0.  1.
</event>
<event>
 5   0  0.4449262E-07  0.3875625E+04  0.7818609E-02  0.8030118E-01
       -2   -1    0    0    0  501  0.00000000000E+00  0.00000000000E+00  0.10957248575E+04  0.10957248575E+04  0.25500000920E-02 0. -1.
        2   -1    0    0  501    0  0.00000000000E+00  0.00000000000E+00 -0.34270627126E+04  0.34270627126E+04  0.25500000920E-02 0.  1.
    10030    2    1    2    0    0  0.00000000000E+00  0.00000000000E+00 -0.23313378550E+04  0.45227875701E+04  0.38756252670E+04 0.  0.
        1    1    3    3  502    0  0.57529544591E+03  0.21010608852E+03 -0.33111431459E+04  0.33673102547E+04  0.50400001928E-02 0.  1.
       -1    1    3    3    0  502 -0.57529544591E+03 -0.21010608852E+03  0.97980529085E+03  0.11554773154E+04  0.50400001928E-02 0. -1.
</event>
<event>
 5   0  0.7256473E-07  0.2668199E+04  0.7818609E-02  0.8345398E-01
        2   -1    0    0  501    0  0.00000000000E+00  0.00000000000E+00  0.17110229670E+04  0.17110229670E+04  0.25500000920E-02 0.  1.
       -2   -1    0    0    0  501  0.00000000000E+00  0.00000000000E+00 -0.10402087277E+04  0.10402087277E+04  0.25500000920E-02 0. -1.
    10030    2    1    2    0    0  0.00000000000E+00  0.00000000000E+00  0.67081423924E+03  0.27512316947E+04  0.26681986609E+04 0.  0.
        4    1    3    3  502    0 -0.12084020546E+04  0.52086035650E+03  0.10882256850E+03  0.13203692668E+04  0.12699999809E+01 0. -1.
       -4    1    3    3    0  502  0.12084020546E+04 -0.52086035650E+03  0.56199167075E+03  0.14308624278E+04  0.12699999809E+01 0.  1.
</event>
<event>
 5   0  0.4449262E-07  0.2994245E+04  0.7818609E-02  0.8245376E-01
        2   -1    0    0  501    0  0.00000000000E+00  0.00000000000E+00  0.21565341604E+04  0.21565341605E+04  0.25500000920E-02 0.  1.
       -2   -1    0    0    0  501  0.00000000000E+00  0.00000000000E+00 -0.10393418142E+04  0.10393418142E+04  0.25500000920E-02 0. -1.
    10030    2    1    2    0    0  0.00000000000E+00  0.00000000000E+00  0.11171923463E+04  0.31958759746E+04  0.29942452316E+04 0.  0.
        1    1    3    3  502    0 -0.11716970311E+03  0.13605732140E+04  0.12135008192E+04  0.18268750499E+04  0.50400001928E-02 0.  1.
       -1    1    3    3    0  502  0.11716970311E+03 -0.13605732140E+04 -0.96308472934E+02  0.13690009247E+04  0.50400001928E-02 0. -1.
</event>
<event>
 5   0  0.6043512E-07  0.4056633E+04  0.7818609E-02  0.7993218E-01
        2   -1    0    0  501    0  0.00000000000E+00  0.00000000000E+00  0.22299366849E+04  0.22299366849E+04  0.25500000920E-02 0. -1.
       -2   -1    0    0    0  501  0.00000000000E+00  0.00000000000E+00 -0.18449258172E+04  0.18449258172E+04  0.25500000920E-02 0.  1.
    10030    2    1    2    0    0  0.00000000000E+00  0.00000000000E+00  0.38501086776E+03  0.40748625021E+04  0.40566329687E+04 0.  0.
        3    1    3    3  502    0  0.16040720796E+04  0.74446504509E+03  0.11903436234E+04  0.21317113763E+04  0.10100000352E+00 0. -1.
       -3    1    3    3    0  502 -0.16040720796E+04 -0.74446504509E+03 -0.80533275567E+03  0.19431511258E+04  0.10100000352E+00 0.  1.
</event>
<event>
 5   0  0.7256473E-07  0.4241213E+04  0.7818609E-02  0.7957579E-01
        2   -1    0    0  501    0  0.00000000000E+00  0.00000000000E+00  0.24697431624E+04  0.24697431624E+04  0.25500000920E-02 0.  1.
       -2   -1    0    0    0  501  0.00000000000E+00  0.00000000000E+00 -0.18208255101E+04  0.18208255101E+04  0.25500000920E-02 0. -1.
    10030    2    1    2    0    0  0.00000000000E+00  0.00000000000E+00  0.64891765238E+03  0.42905686725E+04  0.42412127292E+04 0.  0.
        4    1    3    3  502    0 -0.19324195727E+04 -0.52740706564E+03 -0.37974977516E+03  0.20387778502E+04  0.12699999809E+01 0. -1.
       -4    1    3    3    0  502  0.19324195727E+04  0.52740706564E+03  0.10286674275E+04  0.22517908223E+04  0.12699999809E+01 0.  1.
</event>
<event>
 5   0  0.3012918E-07  0.2026715E+04  0.7818609E-02  0.8594232E-01
        1   -1    0    0  501    0  0.00000000000E+00  0.00000000000E+00  0.83687060195E+03  0.83687060197E+03  0.50400001928E-02 0. -1.
       -1   -1    0    0    0  501  0.00000000000E+00  0.00000000000E+00 -0.12270629807E+04  0.12270629808E+04  0.50400001928E-02 0.  1.
    10030    2    1    2    0    0  0.00000000000E+00  0.00000000000E+00 -0.39019237879E+03  0.20639335827E+04  0.20267145190E+04 0.  0.
        3    1    3    3  502    0  0.21807406861E+03 -0.18883913024E+03 -0.11843658450E+04  0.12189909686E+04  0.10100000352E+00 0.  1.
       -3    1    3    3    0  502 -0.21807406861E+03  0.18883913024E+03  0.79417346622E+03  0.84494261412E+03  0.10100000352E+00 0. -1.
</event>
<event>
 5   0  0.6043512E-07  0.4032090E+04  0.7818609E-02  0.7998104E-01
        2   -1    0    0  501    0  0.00000000000E+00  0.00000000000E+00  0.26634718108E+04  0.26634718108E+04  0.25500000920E-02 0.  1.
       -2   -1    0    0    0  501  0.00000000000E+00  0.00000000000E+00 -0.15259921748E+04  0.15259921748E+04  0.25500000920E-02 0. -1.
    10030    2    1    2    0    0  0.00000000000E+00  0.00000000000E+00  0.11374796360E+04  0.41894639856E+04  0.40320898507E+04 0.  0.
        3    1    3    3  502    0  0.41658985511E+02  0.17625700207E+03 -0.15175222910E+04  0.15282918294E+04  0.10100000352E+00 0. -1.
       -3    1    3    3    0  502 -0.41658985511E+02 -0.17625700207E+03  0.26550019270E+04  0.26611721561E+04  0.10100000352E+00 0.  1.
</event>
<event>
 5   0  0.2401125E-07  0.2278413E+04  0.7818609E-02  0.8486482E-01
        1   -1    0    0  501    0  0.00000000000E+00  0.00000000000E+00  0.14615784776E+04  0.14615784776E+04  0.50400001928E-02 0. -1.
       -1   -1    0    0    0  501  0.00000000000E+00  0.00000000000E+00 -0.88793799077E+03  0.88793799078E+03  0.50400001928E-02 0.  1.
    10030    2    1    2    0    0  0.00000000000E+00  0.00000000000E+00  0.57364048684E+03  0.23495164684E+04  0.22784126551E+04 0.  0.
        5    1    3    3  502    0 -0.23435006920E+03  0.10732734682E+04 -0.24141559935E+02  0.10988361104E+04  0.46999998093E+01 0.  1.
       -5    1    3    3    0  502  0.23435006920E+03 -0.10732734682E+04  0.59778204678E+03  0.12506803580E+04  0.46999998093E+01 0. -1.
</event>
<event>
 5   0  0.2401125E-07  0.2821498E+04  0.7818609E-02  0.8296625E-01
        1   -1    0    0  501    0  0.00000000000E+00  0.00000000000E+00  0.14297914784E+04  0.14297914784E+04  0.50400001928E-02 0. -1.
       -1   -1    0    0    0  501  0.00000000000E+00  0.00000000000E+00 -0.13919604507E+04  0.13919604507E+04  0.50400001928E-02 0.  1.
    10030    2    1    2    0    0  0.00000000000E+00  0.00000000000E+00  0.37831027637E+02  0.28217519291E+04  0.28214983188E+04 0.  0.
        5    1    3    3  502    0  0.13740583867E+04  0.81523722036E+02 -0.29015681365E+03  0.14067322538E+04  0.46999998093E+01 0.  1.
       -5    1    3    3    0  502 -0.13740583867E+04 -0.81523722036E+02  0.32798784129E+03  0.14150196753E+04  0.46999998093E+01 0. -1.
</event>
<event>
 5   0  0.2401125E-07  0.2142955E+04  0.7818609E-02  0.8542554E-01
       -1   -1    0    0    0  501  0.00000000000E+00  0.00000000000E+00  0.13944382551E+04  0.13944382551E+04  0.50400001928E-02 0. -1.
        1   -1    0    0  501    0  0.00000000000E+00  0.00000000000E+00 -0.82331683458E+03  0.82331683460E+03  0.50400001928E-02 0.  1.
    10030    2    1    2    0    0  0.00000000000E+00  0.00000000000E+00  0.57112142050E+03  0.22177550897E+04  0.21429554267E+04 0.  0.
        5    1    3    3  502    0  0.10052550705E+04 -0.19570865968E+03  0.61151922727E+03  0.11928191361E+04  0.46999998093E+01 0. -1.
       -5    1    3    3    0  502 -0.10052550705E+04  0.19570865968E+03 -0.40397806771E+02  0.10249359536E+04  0.46999998093E+01 0.  1.
</event>
<event>
 5   0  0.6043512E-07  0.3929246E+04  0.7818609E-02  0.8018974E-01
       -2   -1    0    0    0  501  0.00000000000E+00  0.00000000000E+00  0.26218058924E+04  0.26218058924E+04  0.25500000920E-02 0. -1.
        2   -1    0    0  501    0  0.00000000000E+00  0.00000000000E+00 -0.14721701762E+04  0.14721701762E+04  0.25500000920E-02 0.  1.
    10030    2    1    2    0    0  0.00000000000E+00  0.00000000000E+00  0.11496357162E+04  0.40939760687E+04  0.39292464635E+04 0.  0.
        3    1    3    3  502    0 -0.40452502132E+03 -0.65015295719E+03  0.24599244158E+04  0.25763477060E+04  0.10100000352E+00 0. -1.
       -3    1    3    3    0  502  0.40452502132E+03  0.65015295719E+03 -0.13102886996E+04  0.15176283627E+04  0.10100000352E+00 0.  1.
</event>
<event>
 5   0  0.2713405E-07  0.4043167E+04  0.7818609E-02  0.7995895E-01
        1   -1    0    0  501    0  0.00000000000E+00  0.00000000000E+00  0.14386037015E+04  0.14386037015E+04  0.50400001928E-02 0. -1.
       -1   -1    0    0    0  501  0.00000000000E+00  0.00000000000E+00 -0.28408103924E+04  0.28408103924E+04  0.50400001928E-02 0.  1.
    10030    2    1    2    0    0  0.00000000000E+00  0.00000000000E+00 -0.14022066908E+04  0.42794140939E+04  0.40431672465E+04 0.  0.
        1    1    3    3  502    0  0.27200213282E+03 -0.20725845736E+02 -0.28212404132E+04  0.28343980296E+04  0.50400001928E-02 0.  1.
       -1    1    3    3    0  502 -0.27200213282E+03  0.20725845736E+02  0.14190337224E+04  0.14450160643E+04  0.50400001928E-02 0. -1.
</event>
<event>
 5   0  0.2601252E-07  0.2328194E+04  0.7818609E-02  0.8466887E-01
        1   -1    0    0  501    0  0.00000000000E+00  0.00000000000E+00  0.13609957992E+04  0.13609957992E+04  0.50400001928E-02 0. -1.
       -1   -1    0    0    0  501  0.00000000000E+00  0.00000000000E+00 -0.99568378300E+03  0.99568378302E+03  0.50400001928E-02 0.  1.
    10030    2    1    2    0    0  0.00000000000E+00  0.00000000000E+00  0.36531201615E+03  0.23566795822E+04  0.23281936741E+04 0.  0.
        3    1    3    3  502    0 -0.61138883253E+03 -0.57674174082E+03  0.99792590523E+03  0.13047158551E+04  0.10100000352E+00 0. -1.
       -3    1    3    3    0  502  0.61138883253E+03  0.57674174082E+03 -0.63261388908E+03  0.10519637270E+04  0.10100000352E+00 0.  1.
</event>
<event>
 5   0  0.6043512E-07  0.3967249E+04  0.7818609E-02  0.8011186E-01
        2   -1    0    0  501    0  0.00000000000E+00  0.00000000000E+00  0.12961659653E+04  0.12961659653E+04  0.25500000920E-02 0.  1.
       -2   -1    0    0    0  501  0.00000000000E+00  0.00000000000E+00 -0.30356964119E+04  0.30356964119E+04  0.25500000920E-02 0. -1.
    10030    2    1    2    0    0  0.00000000000E+00  0.00000000000E+00 -0.17395304465E+04  0.43318623772E+04  0.39672491074E+04 0.  0.
        3    1    3    3  502    0 -0.10185568139E+04  0.82505225231E+03  0.75589045599E+03  0.15131224649E+04  0.10100000352E+00 0.  1.
       -3    1    3    3    0  502  0.10185568139E+04 -0.82505225231E+03 -0.24954209025E+04  0.28187399123E+04  0.10100000352E+00 0. -1.
</event>
<event>
 5   0  0.2713405E-07  0.4006150E+04  0.7818609E-02  0.8003307E-01
        1   -1    0    0  501    0  0.00000000000E+00  0.00000000000E+00  0.21535661352E+04  0.21535661352E+04  0.50400001928E-02 0. -1.
       -1   -1    0    0    0  501  0.00000000000E+00  0.00000000000E+00 -0.18631000351E+04  0.18631000351E+04  0.50400001928E-02 0.  1.
    10030    2    1    2    0    0  0.00000000000E+00  0.00000000000E+00  0.29046610014E+03  0.40166661703E+04  0.40061498435E+04 0.  0.
        1    1    3    3  502    0  0.19401456266E+04  0.21056421743E+03  0.59786779125E+03  0.20410654663E+04  0.50400001928E-02 0. -1.
       -1    1    3    3    0  502 -0.19401456266E+04 -0.21056421743E+03 -0.30740169111E+03  0.19756007040E+04  0.50400001928E-02 0.  1.
</event>
<event>
 5   0  0.2601252E-07  0.2396456E+04  0.7818609E-02  0.8440832E-01
        1   -1    0    0  501    0  0.00000000000E+00  0.00000000000E+00  0.15399309513E+04  0.15399309513E+04  0.50400001928E-02 0.  1.
       -1   -1    0    0    0  501  0.00000000000E+00  0.00000000000E+00 -0.93234734928E+03  0.93234734930E+03  0.50400001928E-02 0. -1.
    10030    2    1    2    0    0  0.00000000000E+00  0.00000000000E+00  0.60758360206E+03  0.24722783006E+04  0.23964561674E+04 0.  0.
        3    1    3    3  502    0 -0.42832525520E+03 -0.78499100774E+03 -0.51898635963E+03  0.10339343587E+04  0.10100000352E+00 0. -1.
       -3    1    3    3    0  502  0.42832525520E+03  0.78499100774E+03  0.11265699617E+04  0.14383439419E+04  0.10100000352E+00 0.  1.
</event>
<event>
 5   0  0.2647879E-07  0.2127012E+04  0.7818609E-02  0.8549437E-01
       -1   -1    0    0    0  501  0.00000000000E+00  0.00000000000E+00  0.57073534124E+03  0.57073534126E+03  0.50400001928E-02 0.  1.
        1   -1    0    0  501    0  0.00000000000E+00  0.00000000000E+00 -0.19817322554E+04  0.19817322554E+04  0.50400001928E-02 0. -1.
    10030    2    1    2    0    0  0.00000000000E+00  0.00000000000E+00 -0.14109969142E+04  0.25524675967E+04  0.21270116455E+04 0.  0.
        2    1    3    3  502    0  0.30754224207E+03 -0.54031900429E+03 -0.17409455331E+04  0.18486260320E+04  0.25500000920E-02 0. -1.
       -2    1    3    3    0  502 -0.30754224207E+03  0.54031900429E+03  0.32994861889E+03  0.70384156468E+03  0.25500000920E-02 0.  1.
</event>
<event>
 5   0  0.7570277E-07  0.3972062E+04  0.7818609E-02  0.8010206E-01
        2   -1    0    0  501    0  0.00000000000E+00  0.00000000000E+00  0.28454416376E+04  0.28454416376E+04  0.25500000920E-02 0.  1.
       -2   -1    0    0    0  501  0.00000000000E+00  0.00000000000E+00 -0.13861885178E+04  0.13861885178E+04  0.25500000920E-02 0. -1.
    10030    2    1    2    0    0  0.00000000000E+00  0.00000000000E+00  0.14592531198E+04  0.42316301554E+04  0.39720616944E+04 0.  0.
        5    1    3    3  502    0 -0.19537836741E+04  0.14118944006E+03  0.10782598706E+04  0.22360392532E+04  0.46999998093E+01 0. -1.
       -5    1    3    3    0  502  0.19537836741E+04 -0.14118944006E+03  0.38099324920E+03  0.19955909022E+04  0.46999998093E+01 0.  1.
</event>
<event>
 5   0  0.5161550E-07  0.1990827E+04  0.7818609E-02  0.8610922E-01
        2   -1    0    0  501    0  0.00000000000E+00  0.00000000000E+00  0.10149939004E+04  0.10149939004E+04  0.25500000920E-02 0. -1.
       -2   -1    0    0    0  501  0.00000000000E+00  0.00000000000E+00 -0.97621036277E+03  0.97621036277E+03  0.25500000920E-02 0.  1.
    10030    2    1    2    0    0  0.00000000000E+00  0.00000000000E+00  0.38783537625E+02  0.19912042632E+04  0.19908265256E+04 0.  0.
        2    1    3    3  502    0  0.11631628096E+03  0.46971324215E+03  0.88943471621E+03  0.10125483304E+04  0.25500000920E-02 0. -1.
       -2    1    3    3    0  502 -0.11631628096E+03 -0.46971324215E+03 -0.85065117858E+03  0.97865593274E+03  0.25500000920E-02 0.  1.
</event>
<event>
 5   0  0.4449262E-07  0.3933920E+04  0.7818609E-02  0.8018011E-01
        2   -1    0    0  501    0  0.00000000000E+00  0.00000000000E+00  0.21620632622E+04  0.21620632622E+04  0.25500000920E-02 0.  1.
       -2   -1    0    0    0  501  0.00000000000E+00  0.00000000000E+00 -0.17894628741E+04  0.17894628741E+04  0.25500000920E-02 0. -1.
    10030    2    1    2    0    0  0.00000000000E+00  0.00000000000E+00  0.37260038810E+03  0.39515261363E+04  0.39339201513E+04 0.  0.
        1    1    3    3  502    0  0.99523038474E+02  0.86774204725E+03 -0.15839864730E+04  0.18088378154E+04  0.50400001928E-02 0. -1.
       -1    1    3    3    0  502 -0.99523038474E+02 -0.86774204725E+03  0.19565868611E+04  0.21426883209E+04  0.50400001928E-02 0.  1.
</event>
<event>
 5   0  0.5161550E-07  0.3212755E+04  0.7818609E-02  0.8185457E-01
       -2   -1    0    0    0  501  0.00000000000E+00  0.00000000000E+00  0.15257267357E+04  0.15257267357E+04  0.25500000920E-02 0.  1.
        2   -1    0    0  501    0  0.00000000000E+00  0.00000000000E+00 -0.16912910056E+04  0.16912910056E+04  0.25500000920E-02 0. -1.
    10030    2    1    2    0    0  0.00000000000E+00  0.00000000000E+00 -0.16556426990E+03  0.32170177413E+04  0.32127545223E+04 0.  0.
        2    1    3    3  502    0  0.74861219888E+03 -0.13512214884E+04 -0.52408019840E+03  0.16312203375E+04  0.25500000920E-02 0. -1.
       -2    1    3    3    0  502 -0.74861219888E+03  0.13512214884E+04  0.35851592850E+03  0.15857974038E+04  0.25500000920E-02 0.  1.
</event>
<event>
 5   0  0.2601252E-07  0.3791632E+04  0.7818609E-02  0.8047953E-01
       -1   -1    0    0    0  501  0.00000000000E+00  0.00000000000E+00  0.24363163198E+04  0.24363163198E+04  0.50400001928E-02 0. -1.
        1   -1    0    0  501    0  0.00000000000E+00  0.00000000000E+00 -0.14752264121E+04  0.14752264121E+04  0.50400001928E-02 0.  1.
    10030    2    1    2    0    0  0.00000000000E+00  0.00000000000E+00  0.96108990767E+03  0.39115427320E+04  0.37916319354E+04 0.  0.
        3    1    3    3  502    0 -0.12551144982E+04 -0.42261355987E+03  0.18799867434E+04  0.22996227496E+04  0.10100000352E+00 0. -1.
       -3    1    3    3    0  502  0.12551144982E+04  0.42261355987E+03 -0.91889683577E+03  0.16119199824E+04  0.10100000352E+00 0.  1.
</event>
<event>
 5   0  0.7256473E-07  0.4004671E+04  0.7818609E-02  0.8003605E-01
       -2   -1    0    0    0  501  0.00000000000E+00  0.00000000000E+00  0.13989556271E+04  0.13989556271E+04  0.25500000920E-02 0. -1.
        2   -1    0    0  501    0  0.00000000000E+00  0.00000000000E+00 -0.28659575528E+04  0.28659575528E+04  0.25500000920E-02 0.  1.
    10030    2    1    2    0    0  0.00000000000E+00  0.00000000000E+00 -0.14670019257E+04  0.42649131800E+04  0.40046709955E+04 0.  0.
        4    1    3    3  502    0 -0.11948039921E+04  0.15851773969E+04 -0.45374858028E+03  0.20362301801E+04  0.12699999809E+01 0. -1.
       -4    1    3    3    0  502  0.11948039921E+04 -0.15851773969E+04 -0.10132533454E+04  0.22286829999E+04  0.12699999809E+01 0.  1.
</event>
<event>
 5   0  0.6043512E-07  0.2122637E+04  0.7818609E-02  0.8551337E-01
       -2   -1    0    0    0  501  0.00000000000E+00  0.00000000000E+00  0.95584456829E+03  0.95584456830E+03  0.25500000920E-02 0.  1.
        2   -1    0    0  501    0  0.00000000000E+00  0.00000000000E+00 -0.11784306458E+04  0.11784306458E+04  0.25500000920E-02 0. -1.
    10030    2    1    2    0    0  0.00000000000E+00  0.00000000000E+00 -0.22258607748E+03  0.21342752141E+04  0.21226365981E+04 0.  0.
        3    1    3    3  502    0 -0.99590481115E+03  0.88579486954E+02  0.24664171819E+03  0.10298081694E+04  0.10100000352E+00 0. -1.
       -3    1    3    3    0  502  0.99590481115E+03 -0.88579486954E+02 -0.46922779566E+03  0.11044670447E+04  0.10100000352E+00 0.  1.
</event>
<event>
 5   0  0.2647879E-07  0.3875271E+04  0.7818609E-02  0.8030192E-01
       -1   -1    0    0    0  501  0.00000000000E+00  0.00000000000E+00  0.28205456374E+04  0.28205456374E+04  0.50400001928E-02 0.  1.
        1   -1    0    0  501    0  0.00000000000E+00  0.00000000000E+00 -0.13311012816E+04  0.13311012816E+04  0.50400001928E-02 0. -1.
    10030    2    1    2    0    0  0.00000000000E+00  0.00000000000E+00  0.14894443559E+04  0.41516469190E+04  0.38752713003E+04 0.  0.
        2    1    3    3  502    0  0.10410797534E+04 -0.13161222678E+04 -0.29307844501E+03  0.17035022312E+04  0.25500000920E-02 0. -1.
       -2    1    3    3    0  502 -0.10410797534E+04  0.13161222678E+04  0.17825228009E+04  0.24481446878E+04  0.25500000920E-02 0.  1.
</event>
<event>
 5   0  0.7570277E-07  0.3956327E+04  0.7818609E-02  0.8013415E-01
       -2   -1    0    0    0  501  0.00000000000E+00  0.00000000000E+00  0.19378086575E+04  0.19378086575E+04  0.25500000920E-02 0. -1.
        2   -1    0    0  501    0  0.00000000000E+00  0.00000000000E+00 -0.20193591495E+04  0.20193591495E+04  0.25500000920E-02 0.  1.
    10030    2    1    2    0    0  0.00000000000E+00  0.00000000000E+00 -0.81550492015E+02  0.39571678071E+04  0.39563274094E+04 0.  0.
        5    1    3    3  502    0 -0.10531540756E+04 -0.62464116868E+02  0.16329224513E+04  0.19440918432E+04  0.46999998093E+01 0. -1.
       -5    1    3    3    0  502  0.10531540756E+04  0.62464116868E+02 -0.17144729433E+04  0.20130759639E+04  0.46999998093E+01 0.  1.
</event>
<event>
 5   0  0.7570277E-07  0.3589213E+04  0.7818609E-02  0.8092967E-01
       -2   -1    0    0    0  501  0.00000000000E+00  0.00000000000E+00  0.16282724053E+04  0.16282724053E+04  0.25500000920E-02 0. -1.
        2   -1    0    0  501    0  0.00000000000E+00  0.00000000000E+00 -0.19779325107E+04  0.19779325107E+04  0.25500000920E-02 0.  1.
    10030    2    1    2    0    0  0.00000000000E+00  0.00000000000E+00 -0.34966010534E+03  0.36062049160E+04  0.35892132434E+04 0.  0.
        5    1    3    3  502    0 -0.30087190883E+03 -0.11905160962E+04  0.11400818339E+04  0.16756076984E+04  0.46999998093E+01 0. -1.
       -5    1    3    3    0  502  0.30087190883E+03  0.11905160962E+04 -0.14897419393E+04  0.19305972176E+04  0.46999998093E+01 0.  1.
</event>
<event>
 5   0  0.2601252E-07  0.4016664E+04  0.7818609E-02  0.8001193E-01
        1   -1    0    0  501    0  0.00000000000E+00  0.00000000000E+00  0.27635059387E+04  0.27635059387E+04  0.50400001928E-02 0.  1.
       -1   -1    0    0    0  501  0.00000000000E+00  0.00000000000E+00 -0.14595217887E+04  0.14595217887E+04  0.50400001928E-02 0. -1.
    10030    2    1    2    0    0  0.00000000000E+00  0.00000000000E+00  0.13039841500E+04  0.42230277275E+04  0.40166638549E+04 0.  0.
        3    1    3    3  502    0 -0.12332601911E+02 -0.50190156838E+03 -0.13924805514E+04  0.14802227446E+04  0.10100000352E+00 0. -1.
       -3    1    3    3    0  502  0.12332601911E+02  0.50190156838E+03  0.26964647015E+04  0.27428049828E+04  0.10100000352E+00 0.  1.
</event>
<event>
 5   0  0.7570277E-07  0.4060710E+04  0.7818609E-02  0.7992410E-01
       -2   -1    0    0    0  501  0.00000000000E+00  0.00000000000E+00  0.30619738942E+04  0.30619738942E+04  0.25500000920E-02 0. -1.
        2   -1    0    0  501    0  0.00000000000E+00  0.00000000000E+00 -0.13463022819E+04  0.13463022819E+04  0.25500000920E-02 0.  1.
    10030    2    1    2    0    0  0.00000000000E+00  0.00000000000E+00  0.17156716123E+04  0.44082761761E+04  0.40607104998E+04 0.  0.
        5    1    3    3  502    0  0.85987725334E+03 -0.10329883193E+04 -0.79421551832E+03  0.15611707588E+04  0.46999998093E+01 0.  1.
       -5    1    3    3    0  502 -0.85987725334E+03  0.10329883193E+04  0.25098871306E+04  0.28471054172E+04  0.46999998093E+01 0. -1.
</event>
<event>
 5   0  0.5161550E-07  0.4002792E+04  0.7818609E-02  0.8003984E-01
        2   -1    0    0  501    0  0.00000000000E+00  0.00000000000E+00  0.13624049366E+04  0.13624049366E+04  0.25500000920E-02 0.  1.
       -2   -1    0    0    0  501  0.00000000000E+00  0.00000000000E+00 -0.29400845369E+04  0.29400845369E+04  0.25500000920E-02 0. -1.
    10030    2    1    2    0    0  0.00000000000E+00  0.00000000000E+00 -0.15776796003E+04  0.43024894734E+04  0.40027918692E+04 0.  0.
        2    1    3    3  502    0  0.97792596803E+03 -0.36736588856E+03 -0.26237850078E+04  0.28241006820E+04  0.25500000920E-02 0. -1.
       -2    1    3    3    0  502 -0.97792596803E+03  0.36736588856E+03  0.10461054075E+04  0.14783887914E+04  0.25500000920E-02 0.  1.
</event>
<event>
 5   0  0.5161550E-07  0.3788715E+04  0.7818609E-02  0.8048581E-01
       -2   -1    0    0    0  501  0.00000000000E+00  0.00000000000E+00  0.19095545580E+04  0.19095545580E+04  0.25500000920E-02 0. -1.
        2   -1    0    0  501    0  0.00000000000E+00  0.00000000000E+00 -0.18792814207E+04  0.18792814207E+04  0.25500000920E-02 0.  1.
    10030    2    1    2    0    0  0.00000000000E+00  0.00000000000E+00  0.30273137313E+02  0.37888359787E+04  0.37887150343E+04 0.  0.
        2    1    3    3  502    0  0.79325454262E+03 -0.95416973588E+03 -0.14163062564E+04  0.18829806335E+04  0.25500000920E-02 0.  1.
       -2    1    3    3    0  502 -0.79325454262E+03  0.95416973588E+03  0.14465793938E+04  0.19058553452E+04  0.25500000920E-02 0. -1.
</event>
<event>
 5   0  0.4449262E-07  0.4002781E+04  0.7818609E-02  0.8003986E-01
       -2   -1    0    0    0  501  0.00000000000E+00  0.00000000000E+00  0.21383893769E+04  0.21383893769E+04  0.25500000920E-02 0. -1.
        2   -1    0    0  501    0  0.00000000000E+00  0.00000000000E+00 -0.18731683305E+04  0.18731683305E+04  0.25500000920E-02 0.  1.
    10030    2    1    2    0    0  0.00000000000E+00  0.00000000000E+00  0.26522104642E+03  0.40115577074E+04  0.40027806630E+04 0.  0.
        1    1    3    3  502    0 -0.36278155742E+03  0.44491546869E+03 -0.17888841333E+04  0.18787407152E+04  0.50400001928E-02 0.  1.
       -1    1    3    3    0  502  0.36278155742E+03 -0.44491546869E+03  0.20541051797E+04  0.21328169922E+04  0.50400001928E-02 0. -1.
</event>
<event>
 5   0  0.2401125E-07  0.4001265E+04  0.7818609E-02  0.8004291E-01
        1   -1    0    0  501    0  0.00000000000E+00  0.00000000000E+00  0.13983748122E+04  0.13983748122E+04  0.50400001928E-02 0.  1.
       -1   -1    0    0    0  501  0.00000000000E+00  0.00000000000E+00 -0.28622731379E+04  0.28622731379E+04  0.50400001928E-02 0. -1.
    10030    2    1    2    0    0  0.00000000000E+00  0.00000000000E+00 -0.14638983257E+04  0.42606479502E+04  0.40012651308E+04 0.  0.
        5    1    3    3  502    0  0.88859225949E+03 -0.21686636742E+03  0.11626861967E+04  0.14793540843E+04  0.46999998093E+01 0.  1.
       -5    1    3    3    0  502 -0.88859225949E+03  0.21686636742E+03 -0.26265845224E+04  0.27812938658E+04  0.46999998093E+01 0. -1.
</event>
<event>
 5   0  0.2647879E-07  0.3990491E+04  0.7818609E-02  0.8006467E-01
        1   -1    0    0  501    0  0.00000000000E+00  0.00000000000E+00  0.28174234662E+04  0.28174234662E+04  0.50400001928E-02 0. -1.
       -1   -1    0    0    0  501  0.00000000000E+00  0.00000000000E+00 -0.14129950572E+04  0.14129950572E+04  0.50400001928E-02 0.  1.
    10030    2    1    2    0    0  0.00000000000E+00  0.00000000000E+00  0.14044284090E+04  0.42304185234E+04  0.39904914143E+04 0.  0.
        2    1    3    3  502    0 -0.14735890631E+04 -0.99025463884E+03  0.16674147843E+04  0.24356397598E+04  0.25500000920E-02 0.  1.
       -2    1    3    3    0  502  0.14735890631E+04  0.99025463884E+03 -0.26298637532E+03  0.17947787636E+04  0.25500000920E-02 0. -1.
</event>
<event>
 5   0  0.9010818E-07  0.1987130E+04  0.7818609E-02  0.8612661E-01
        2   -1    0    0  501    0  0.00000000000E+00  0.00000000000E+00  0.16724662887E+04  0.16724662887E+04  0.25500000920E-02 0. -1.
       -2   -1    0    0    0  501  0.00000000000E+00  0.00000000000E+00 -0.59024897284E+03  0.59024897284E+03  0.25500000920E-02 0.  1.
    10030    2    1    2    0    0  0.00000000000E+00  0.00000000000E+00  0.10822173158E+04  0.22627152615E+04  0.19871301004E+04 0.  0.
        5    1    3    3  502    0 -0.33310364106E+02 -0.76430496580E+03 -0.18074737333E+03  0.78610645849E+03  0.46999998093E+01 0.  1.
       -5    1    3    3    0  502  0.33310364106E+02  0.76430496580E+03  0.12629646892E+04  0.14766088030E+04  0.46999998093E+01 0. -1.
</event>
<event>
 5   0  0.2401125E-07  0.4114449E+04  0.7818609E-02  0.7981848E-01
       -1   -1    0    0    0  501  0.00000000000E+00  0.00000000000E+00  0.21491365727E+04  0.21491365727E+04  0.50400001928E-02 0. -1.
        1   -1    0    0  501    0  0.00000000000E+00  0.00000000000E+00 -0.19692431768E+04  0.19692431768E+04  0.50400001928E-02 0.  1.
    10030    2    1    2    0    0  0.00000000000E+00  0.00000000000E+00  0.17989339592E+03  0.41183797495E+04  0.41144489457E+04 0.  0.
        5    1    3    3  502    0 -0.82356967440E+02  0.41966249203E+03  0.21041442782E+04  0.21471712812E+04  0.46999998093E+01 0. -1.
       -5    1    3    3    0  502  0.82356967440E+02 -0.41966249203E+03 -0.19242508823E+04  0.19712084683E+04  0.46999998093E+01 0.  1.
</event>
<event>
 5   0  0.7570277E-07  0.2479186E+04  0.7818609E-02  0.8410438E-01
       -2   -1    0    0    0  501  0.00000000000E+00  0.00000000000E+00  0.10619416719E+04  0.10619416719E+04  0.25500000920E-02 0.  1.
        2   -1    0    0  501    0  0.00000000000E+00  0.00000000000E+00 -0.14469639810E+04  0.14469639810E+04  0.25500000920E-02 0. -1.
    10030    2    1    2    0    0  0.00000000000E+00  0.00000000000E+00 -0.38502230911E+03  0.25089056529E+04  0.24791864384E+04 0.  0.
        5    1    3    3  502    0  0.58454917667E+03 -0.64796278594E+03  0.69839181364E+03  0.11177328515E+04  0.46999998093E+01 0.  1.
       -5    1    3    3    0  502 -0.58454917667E+03  0.64796278594E+03 -0.10834141227E+04  0.13911728014E+04  0.46999998093E+01 0. -1.
</event>
<event>
 5   0  0.7673044E-07  0.2035328E+04  0.7818609E-02  0.8590280E-01
        2   -1    0    0  501    0  0.00000000000E+00  0.00000000000E+00  0.14815645274E+04  0.14815645274E+04  0.25500000920E-02 0. -1.
       -2   -1    0    0    0  501  0.00000000000E+00  0.00000000000E+00 -0.69901774305E+03  0.69901774306E+03  0.25500000920E-02 0.  1.
    10030    2    1    2    0    0  0.00000000000E+00  0.00000000000E+00  0.78254678439E+03  0.21805822705E+04  0.20353278774E+04 0.  0.
        1    1    3    3  502    0 -0.47402283093E+03  0.44159106092E+03 -0.44955458338E+03  0.78854272731E+03  0.50400001928E-02 0.  1.
       -1    1    3    3    0  502  0.47402283093E+03 -0.44159106092E+03  0.12321013678E+04  0.13920395432E+04  0.50400001928E-02 0. -1.
</event>
<event>
 5   0  0.5161550E-07  0.3100508E+04  0.7818609E-02  0.8215598E-01
        2   -1    0    0  501    0  0.00000000000E+00  0.00000000000E+00  0.12510536051E+04  0.12510536051E+04  0.25500000920E-02 0.  1.
       -2   -1    0    0    0  501  0.00000000000E+00  0.00000000000E+00 -0.19210113822E+04  0.19210113822E+04  0.25500000920E-02 0. -1.
    10030    2    1    2    0    0  0.00000000000E+00  0.00000000000E+00 -0.66995777707E+03  0.31720649872E+04  0.31005084841E+04 0.  0.
        2    1    3    3  502    0  0.95286722128E+03 -0.43282068852E+03  0.83509363046E+03  0.13389066664E+04  0.25500000920E-02 0.  1.
       -2    1    3    3    0  502 -0.95286722128E+03  0.43282068852E+03 -0.15050514075E+04  0.18331583208E+04  0.25500000920E-02 0. -1.
</event>
<event>
 5   0  0.5161550E-07  0.3640538E+04  0.7818609E-02  0.8081268E-01
        2   -1    0    0  501    0  0.00000000000E+00  0.00000000000E+00  0.20377455448E+04  0.20377455448E+04  0.25500000920E-02 0. -1.
       -2   -1    0    0    0  501  0.00000000000E+00  0.00000000000E+00 -0.16260028498E+04  0.16260028498E+04  0.25500000920E-02 0.  1.
    10030    2    1    2    0    0  0.00000000000E+00  0.00000000000E+00  0.41174269500E+03  0.36637483945E+04  0.36405384563E+04 0.  0.
        2    1    3    3  502    0  0.12058526938E+03  0.16292167654E+04 -0.60204943382E+03  0.17410777113E+04  0.25500000920E-02 0.  1.
       -2    1    3    3    0  502 -0.12058526938E+03 -0.16292167654E+04  0.10137921288E+04  0.19226706833E+04  0.25500000920E-02 0. -1.
</event>
<event>
 5   0  0.7570277E-07  0.2006666E+04  0.7818609E-02  0.8603510E-01
        2   -1    0    0  501    0  0.00000000000E+00  0.00000000000E+00  0.25204403876E+04  0.25204403876E+04  0.25500000920E-02 0. -1.
       -2   -1    0    0    0  501  0.00000000000E+00  0.00000000000E+00 -0.39940533235E+03  0.39940533236E+03  0.25500000920E-02 0.  1.
    10030    2    1    2    0    0  0.00000000000E+00  0.00000000000E+00  0.21210350553E+04  0.29198457200E+04  0.20066662211E+04 0.  0.
        5    1    3    3  502    0  0.71555621247E+03 -0.13310411946E+03  0.20653798190E+04  0.21898751760E+04  0.46999998093E+01 0. -1.
       -5    1    3    3    0  502 -0.71555621247E+03  0.13310411946E+03  0.55655236346E+02  0.72997054403E+03  0.46999998093E+01 0.  1.
</event>
<event>
 5   0  0.2401125E-07  0.3884338E+04  0.7818609E-02  0.8028294E-01
        1   -1    0    0  501    0  0.00000000000E+00  0.00000000000E+00  0.26172122834E+04  0.26172122834E+04  0.50400001928E-02 0. -1.
       -1   -1    0    0    0  501  0.00000000000E+00  0.00000000000E+00 -0.14412363093E+04  0.14412363093E+04  0.50400001928E-02 0.  1.
    10030    2    1    2    0    0  0.00000000000E+00  0.00000000000E+00  0.11759759741E+04  0.40584485928E+04  0.38843384879E+04 0.  0.
        5    1    3    3  502    0  0.79092034446E+03 -0.17679349696E+04  0.43711953020E+03  0.19855086557E+04  0.46999998093E+01 0. -1.
       -5    1    3    3    0  502 -0.79092034446E+03  0.17679349696E+04  0.73885644390E+03  0.20729399371E+04  0.46999998093E+01 0.  1.
</event>
<event>
 5   0  0.2401125E-07  0.4030351E+04  0.7818609E-02  0.7998452E-01
       -1   -1    0    0    0  501  0.00000000000E+00  0.00000000000E+00  0.14075391594E+04  0.14075391594E+04  0.50400001928E-02 0. -1.
        1   -1    0    0  501    0  0.00000000000E+00  0.00000000000E+00 -0.28851298754E+04  0.28851298754E+04  0.50400001928E-02 0.  1.
    10030    2    1    2    0    0  0.00000000000E+00  0.00000000000E+00 -0.14775907160E+04  0.42926690348E+04  0.40303514882E+04 0.  0.
        5    1    3    3  502    0  0.12543731673E+04  0.12499194751E+04 -0.17632506562E+04  0.24989649264E+04  0.46999998093E+01 0.  1.
       -5    1    3    3    0  502 -0.12543731673E+04 -0.12499194751E+04  0.28565994018E+03  0.17937041084E+04  0.46999998093E+01 0. -1.
</event>
<event>
 5   0  0.7256473E-07  0.2235457E+04  0.7818609E-02  0.8503813E-01
       -2   -1    0    0    0  501  0.00000000000E+00  0.00000000000E+00  0.27788029745E+04  0.27788029745E+04  0.25500000920E-02 0. -1.
        2   -1    0    0  501    0  0.00000000000E+00  0.00000000000E+00 -0.44958814259E+03  0.44958814260E+03  0.25500000920E-02 0.  1.
    10030    2    1    2    0    0  0.00000000000E+00  0.00000000000E+00  0.23292148319E+04  0.32283911171E+04  0.22354568821E+04 0.  0.
        4    1    3    3  502    0 -0.23129775518E+03 -0.10711628212E+03 -0.40705236965E+03  0.48027678893E+03  0.12699999809E+01 0.  1.
       -4    1    3    3    0  502  0.23129775518E+03  0.10711628212E+03  0.27362672016E+04  0.27481143282E+04  0.12699999809E+01 0. -1.
</event>
<event>
 5   0  0.4449262E-07  0.3979956E+04  0.7818609E-02  0.8008602E-01
        2   -1    0    0  501    0  0.00000000000E+00  0.00000000000E+00  0.22471173195E+04  0.22471173195E+04  0.25500000920E-02 0. -1.
       -2   -1    0    0    0  501  0.00000000000E+00  0.00000000000E+00 -0.17622636340E+04  0.17622636340E+04  0.25500000920E-02 0.  1.
    10030    2    1    2    0    0  0.00000000000E+00  0.00000000000E+00  0.48485368551E+03  0.40093809534E+04  0.39799563482E+04 0.  0.
        1    1    3    3  502    0 -0.89652325091E+03 -0.33496130240E+02  0.20318297513E+04  0.22210826343E+04  0.50400001928E-02 0. -1.
       -1    1    3    3    0  502  0.89652325091E+03  0.33496130240E+02 -0.15469760658E+04  0.17882983191E+04  0.50400001928E-02 0.  1.
</event>
<event>
 5   0  0.6043512E-07  0.3933478E+04  0.7818609E-02  0.8018102E-01
       -2   -1    0    0    0  501  0.00000000000E+00  0.00000000000E+00  0.12857630051E+04  0.12857630051E+04  0.25500000920E-02 0. -1.
        2   -1    0    0  501    0  0.00000000000E+00  0.00000000000E+00 -0.30083795877E+04  0.30083795877E+04  0.25500000920E-02 0.  1.
    10030    2    1    2    0    0  0.00000000000E+00  0.00000000000E+00 -0.17226165826E+04  0.42941425927E+04  0.39334784499E+04 0.  0.
        3    1    3    3  502    0  0.16830227238E+04  0.72998668670E+03 -0.16352679493E+04  0.24575490489E+04  0.10100000352E+00 0.  1.
       -3    1    3    3    0  502 -0.16830227238E+04 -0.72998668670E+03 -0.87348633330E+02  0.18365935439E+04  0.10100000352E+00 0. -1.
</event>
<event>
 5   0  0.2401125E-07  0.3308128E+04  0.7818609E-02  0.8160830E-01
        3   -1    0    0  501    0  0.00000000000E+00  0.00000000000E+00  0.14374626077E+04  0.14374626113E+04  0.10100000352E+00 0. -1.
       -3   -1    0    0    0  501  0.00000000000E+00  0.00000000000E+00 -0.19033032770E+04  0.19033032797E+04  0.10100000352E+00 0.  1.
    10030    2    1    2    0    0  0.00000000000E+00  0.00000000000E+00 -0.46584066933E+03  0.33407658910E+04  0.33081277498E+04 0.  0.
        1    1    3    3  502    0  0.11103232598E+04  0.81529372706E+03 -0.11575990939E+04  0.17993213345E+04  0.50400001928E-02 0.  1.
       -1    1    3    3    0  502 -0.11103232598E+04 -0.81529372706E+03  0.69175842452E+03  0.15414445565E+04  0.50400001928E-02 0. -1.
</event>
<event>
 5   0  0.4449262E-07  0.2837983E+04  0.7818609E-02  0.8291572E-01
        2   -1    0    0  501    0  0.00000000000E+00  0.00000000000E+00  0.18284663419E+04  0.18284663419E+04  0.25500000920E-02 0.  1.
       -2   -1    0    0    0  501  0.00000000000E+00  0.00000000000E+00 -0.11012162939E+04  0.11012162939E+04  0.25500000920E-02 0. -1.
    10030    2    1    2    0    0  0.00000000000E+00  0.00000000000E+00  0.72725004793E+03  0.29296826358E+04  0.28379830363E+04 0.  0.
        1    1    3    3  502    0  0.84293280798E+03  0.57484066306E+03  0.13816744294E+04  0.17175569089E+04  0.50400001928E-02 0.  1.
       -1    1    3    3    0  502 -0.84293280798E+03 -0.57484066306E+03 -0.65442438143E+03  0.12121257269E+04  0.50400001928E-02 0. -1.
</event>
<event>
 5   0  0.5161550E-07  0.3976686E+04  0.7818609E-02  0.8009266E-01
        2   -1    0    0  501    0  0.00000000000E+00  0.00000000000E+00  0.15102119365E+04  0.15102119365E+04  0.25500000920E-02 0.  1.
       -2   -1    0    0    0  501  0.00000000000E+00  0.00000000000E+00 -0.26178496356E+04  0.26178496356E+04  0.25500000920E-02 0. -1.
    10030    2    1    2    0    0  0.00000000000E+00  0.00000000000E+00 -0.11076376991E+04  0.41280615721E+04  0.39766859407E+04 0.  0.
        2    1    3    3  502    0 -0.72940935228E+03 -0.50264814395E+03  0.12940591217E+04  0.15682098617E+04  0.25500000920E-02 0.  1.
       -2    1    3    3    0  502  0.72940935228E+03  0.50264814395E+03 -0.24016968209E+04  0.25598517104E+04  0.25500000920E-02 0. -1.
</event>
<event>
 5   0  0.4449262E-07  0.4010423E+04  0.7818609E-02  0.8002447E-01
        2   -1    0    0  501    0  0.00000000000E+00  0.00000000000E+00  0.17517223056E+04  0.17517223056E+04  0.25500000920E-02 0. -1.
       -2   -1    0    0    0  501  0.00000000000E+00  0.00000000000E+00 -0.22953822634E+04  0.22953822635E+04  0.25500000920E-02 0.  1.
    10030    2    1    2    0    0  0.00000000000E+00  0.00000000000E+00 -0.54365995788E+03  0.40471045690E+04  0.40104225766E+04 0.  0.
        1    1    3    3  502    0 -0.10404721217E+04  0.10306992556E+04  0.11103506969E+04  0.18378797190E+04  0.50400001928E-02 0. -1.
       -1    1    3    3    0  502  0.10404721217E+04 -0.10306992556E+04 -0.16540106548E+04  0.22092248500E+04  0.50400001928E-02 0.  1.
</event>
<event>
 5   0  0.2601252E-07  0.4010091E+04  0.7818609E-02  0.8002514E-01
        1   -1    0    0  501    0  0.00000000000E+00  0.00000000000E+00  0.14803761829E+04  0.14803761830E+04  0.50400001928E-02 0. -1.
       -1   -1    0    0    0  501  0.00000000000E+00  0.00000000000E+00 -0.27156667493E+04  0.27156667493E+04  0.50400001928E-02 0.  1.
    10030    2    1    2    0    0  0.00000000000E+00  0.00000000000E+00 -0.12352905664E+04  0.41960429323E+04  0.40100914586E+04 0.  0.
        3    1    3    3  502    0 -0.18980631878E+04  0.55581340519E+03 -0.27276175792E+03  0.19964897678E+04  0.10100000352E+00 0. -1.
       -3    1    3    3    0  502  0.18980631878E+04 -0.55581340519E+03 -0.96252880847E+03  0.21995531645E+04  0.10100000352E+00 0.  1.
</event>
<event>
 5   0  0.2601252E-07  0.2228486E+04  0.7818609E-02  0.8506664E-01
        1   -1    0    0  501    0  0.00000000000E+00  0.00000000000E+00  0.10257715318E+04  0.10257715318E+04  0.50400001928E-02 0. -1.
       -1   -1    0    0    0  501  0.00000000000E+00  0.00000000000E+00 -0.12103447660E+04  0.12103447660E+04  0.50400001928E-02 0.  1.
    10030    2    1    2    0    0  0.00000000000E+00  0.00000000000E+00 -0.18457323423E+03  0.22361162978E+04  0.22284857681E+04 0.  0.
        3    1    3    3  502    0  0.17049706776E+03  0.14809955223E+03 -0.11871388505E+04  0.12084293062E+04  0.10100000352E+00 0.  1.
       -3    1    3    3    0  502 -0.17049706776E+03 -0.14809955223E+03  0.10025656163E+04  0.10276869916E+04  0.10100000352E+00 0. -1.
</event>
<event>
 5   0  0.4449262E-07  0.3932699E+04  0.7818609E-02  0.8018263E-01
       -2   -1    0    0    0  501  0.00000000000E+00  0.00000000000E+00  0.22604218999E+04  0.22604218999E+04  0.25500000920E-02 0. -1.
        2   -1    0    0  501    0  0.00000000000E+00  0.00000000000E+00 -0.17105348376E+04  0.17105348376E+04  0.25500000920E-02 0.  1.
    10030    2    1    2    0    0  0.00000000000E+00  0.00000000000E+00  0.54988706225E+03  0.39709567375E+04  0.39326990261E+04 0.  0.
        1    1    3    3  502    0 -0.18208540284E+04  0.15168981865E+03  0.10086561997E+04  0.20870808617E+04  0.50400001928E-02 0. -1.
       -1    1    3    3    0  502  0.18208540284E+04 -0.15168981865E+03 -0.45876913747E+03  0.18838758758E+04  0.50400001928E-02 0.  1.
</event>
<event>
 5   0  0.7570277E-07  0.2412933E+04  0.7818609E-02  0.8434677E-01
        2   -1    0    0  501    0  0.00000000000E+00  0.00000000000E+00  0.14452625764E+04  0.14452625764E+04  0.25500000920E-02 0. -1.
       -2   -1    0    0    0  501  0.00000000000E+00  0.00000000000E+00 -0.10071260133E+04  0.10071260133E+04  0.25500000920E-02 0.  1.
    10030    2    1    2    0    0  0.00000000000E+00  0.00000000000E+00  0.43813656315E+03  0.24523885897E+04  0.24129331004E+04 0.  0.
        5    1    3    3  502    0  0.21429662482E+03  0.10494692924E+04 -0.34519512567E+03  0.11253846471E+04  0.46999998093E+01 0. -1.
       -5    1    3    3    0  502 -0.21429662482E+03 -0.10494692924E+04  0.78333168881E+03  0.13270039426E+04  0.46999998093E+01 0.  1.
</event>
<event>
 5   0  0.5161550E-07  0.3571512E+04  0.7818609E-02  0.8097048E-01
       -2   -1    0    0    0  501  0.00000000000E+00  0.00000000000E+00  0.11819623655E+04  0.11819623655E+04  0.25500000920E-02 0. -1.
        2   -1    0    0  501    0  0.00000000000E+00  0.00000000000E+00 -0.26979922603E+04  0.26979922603E+04  0.25500000920E-02 0.  1.
    10030    2    1    2    0    0  0.00000000000E+00  0.00000000000E+00 -0.15160298948E+04  0.38799546258E+04  0.35715124606E+04 0.  0.
        2    1    3    3  502    0  0.10530717252E+04 -0.14060145358E+04 -0.11068172442E+04  0.20762662029E+04  0.25500000920E-02 0. -1.
       -2    1    3    3    0  502 -0.10530717252E+04  0.14060145358E+04 -0.40921265060E+03  0.18036884228E+04  0.25500000920E-02 0.  1.
</event>
<event>
 5   0  0.3579559E-07  0.4086525E+04  0.7818609E-02  0.7987316E-01
       -1   -1    0    0    0  501  0.00000000000E+00  0.00000000000E+00  0.25424517939E+04  0.25424517939E+04  0.50400001928E-02 0.  1.
        1   -1    0    0  501    0  0.00000000000E+00  0.00000000000E+00 -0.16420851355E+04  0.16420851356E+04  0.50400001928E-02 0. -1.
    10030    2    1    2    0    0  0.00000000000E+00  0.00000000000E+00  0.90036665834E+03  0.41845369294E+04  0.40865253204E+04 0.  0.
        4    1    3    3  502    0  0.20157341719E+01 -0.14456017919E+04 -0.10284554052E+04  0.17741168894E+04  0.12699999809E+01 0. -1.
       -4    1    3    3    0  502 -0.20157341719E+01  0.14456017919E+04  0.19288220635E+04  0.24104200401E+04  0.12699999809E+01 0.  1.
</event>
<event>
 5   0  0.7256473E-07  0.3869080E+04  0.7818609E-02  0.8031491E-01
       -2   -1    0    0    0  501  0.00000000000E+00  0.00000000000E+00  0.18865079565E+04  0.18865079565E+04  0.25500000920E-02 0. -1.
        2   -1    0    0  501    0  0.00000000000E+00  0.00000000000E+00 -0.19837947865E+04  0.19837947865E+04  0.25500000920E-02 0.  1.
    10030    2    1    2    0    0  0.00000000000E+00  0.00000000000E+00 -0.97286829989E+02  0.38703027431E+04  0.38690798125E+04 0.  0.
        4    1    3    3  502    0 -0.11898296869E+04 -0.14373615764E+04  0.46214509828E+03  0.19223118087E+04  0.12699999809E+01 0. -1.
       -4    1    3    3    0  502  0.11898296869E+04  0.14373615764E+04 -0.55943192827E+03  0.19479909344E+04  0.12699999809E+01 0.  1.
</event>
<event>
 5   0  0.2647879E-07  0.3557486E+04  0.7818609E-02  0.8100300E-01
       -1   -1    0    0    0  501  0.00000000000E+00  0.00000000000E+00  0.17745925551E+04  0.17745925551E+04  0.50400001928E-02 0. -1.
        1   -1    0    0  501    0  0.00000000000E+00  0.00000000000E+00 -0.17829034134E+04  0.17829034134E+04  0.50400001928E-02 0.  1.
    10030    2    1    2    0    0  0.00000000000E+00  0.00000000000E+00 -0.83108582964E+01  0.35574959685E+04  0.35574862607E+04 0.  0.
        2    1    3    3  502    0 -0.57850757013E+03 -0.19049317580E+03  0.16670667907E+04  0.17748437518E+04  0.25500000920E-02 0. -1.
       -2    1    3    3    0  502  0.57850757013E+03  0.19049317580E+03 -0.16753776490E+04  0.17826522166E+04  0.25500000920E-02 0.  1.
</event>
<event>
 5   0  0.6043512E-07  0.3361555E+04  0.7818609E-02  0.8147407E-01
        2   -1    0    0  501    0  0.00000000000E+00  0.00000000000E+00  0.19958593350E+04  0.19958593350E+04  0.25500000920E-02 0.  1.
       -2   -1    0    0    0  501  0.00000000000E+00  0.00000000000E+00 -0.14154370748E+04  0.14154370748E+04  0.25500000920E-02 0. -1.
    10030    2    1    2    0    0  0.00000000000E+00  0.00000000000E+00  0.58042226021E+03  0.34112964098E+04  0.33615551752E+04 0.  0.
        3    1    3    3  502    0  0.11319471120E+04 -0.12424510693E+04  0.29522021985E+03  0.17065004871E+04  0.10100000352E+00 0.  1.
       -3    1    3    3    0  502 -0.11319471120E+04  0.12424510693E+04  0.28520204036E+03  0.17047959227E+04  0.10100000352E+00 0. -1.
</event>
<event>
 5   0  0.7570277E-07  0.2903221E+04  0.7818609E-02  0.8271920E-01
       -2   -1    0    0    0  501  0.00000000000E+00  0.00000000000E+00  0.82183229153E+03  0.82183229153E+03  0.25500000920E-02 0.  1.
        2   -1    0    0  501    0  0.00000000000E+00  0.00000000000E+00 -0.25639931961E+04  0.25639931961E+04  0.25500000920E-02 0. -1.
    10030    2    1    2    0    0  0.00000000000E+00  0.00000000000E+00 -0.17421609046E+04  0.33858254876E+04  0.29032205592E+04 0.  0.
        5    1    3    3  502    0 -0.88378281547E+03  0.17113645283E+03  0.45698494108E+03  0.10095628147E+04  0.46999998093E+01 0.  1.
       -5    1    3    3    0  502  0.88378281547E+03 -0.17113645283E+03 -0.21991458457E+04  0.23762626730E+04  0.46999998093E+01 0. -1.
</event>
<event>
 5   0  0.2601252E-07  0.3923802E+04  0.7818609E-02  0.8020097E-01
        1   -1    0    0  501    0  0.00000000000E+00  0.00000000000E+00  0.23187151904E+04  0.23187151904E+04  0.50400001928E-02 0. -1.
       -1   -1    0    0    0  501  0.00000000000E+00  0.00000000000E+00 -0.16599949214E+04  0.16599949214E+04  0.50400001928E-02 0.  1.
    10030    2    1    2    0    0  0.00000000000E+00  0.00000000000E+00  0.65872026902E+03  0.39787101118E+04  0.39238019523E+04 0.  0.
        3    1    3    3  502    0  0.14708453762E+04 -0.97423934958E+02  0.16421501715E+04  0.22067022318E+04  0.10100000352E+00 0. -1.
       -3    1    3    3    0  502 -0.14708453762E+04  0.97423934958E+02 -0.98342990248E+03  0.17720078801E+04  0.10100000352E+00 0.  1.
</event>
<event>
 5   0  0.7256473E-07  0.4014126E+04  0.7818609E-02  0.8001703E-01
       -2   -1    0    0    0  501  0.00000000000E+00  0.00000000000E+00  0.23053710180E+04  0.23053710180E+04  0.25500000920E-02 0. -1.
        2   -1    0    0  501    0  0.00000000000E+00  0.00000000000E+00 -0.17473551536E+04  0.17473551536E+04  0.25500000920E-02 0.  1.
    10030    2    1    2    0    0  0.00000000000E+00  0.00000000000E+00  0.55801586438E+03  0.40527261716E+04  0.40141260215E+04 0.  0.
        4    1    3    3  502    0  0.17777874218E+04 -0.68180750356E+03  0.91986425465E+03  0.21146019600E+04  0.12699999809E+01 0. -1.
       -4    1    3    3    0  502 -0.17777874218E+04  0.68180750356E+03 -0.36184839027E+03  0.19381242116E+04  0.12699999809E+01 0.  1.
</event>
<event>
 5   0  0.2601252E-07  0.2216369E+04  0.7818609E-02  0.8511646E-01
       -1   -1    0    0    0  501  0.00000000000E+00  0.00000000000E+00  0.96842465539E+03  0.96842465540E+03  0.50400001928E-02 0.  1.
        1   -1    0    0  501    0  0.00000000000E+00  0.00000000000E+00 -0.12681136289E+04  0.12681136289E+04  0.50400001928E-02 0. -1.
    10030    2    1    2    0    0  0.00000000000E+00  0.00000000000E+00 -0.29968897352E+03  0.22365382843E+04  0.22163686553E+04 0.  0.
        3    1    3    3  502    0 -0.10196394727E+04 -0.43333413944E+03 -0.12452907384E+03  0.11148769578E+04  0.10100000352E+00 0.  1.
       -3    1    3    3    0  502  0.10196394727E+04  0.43333413944E+03 -0.17515989968E+03  0.11216613265E+04  0.10100000352E+00 0. -1.
</event>
<event>
 5   0  0.4449262E-07  0.3565165E+04  0.7818609E-02  0.8098518E-01
       -2   -1    0    0    0  501  0.00000000000E+00  0.00000000000E+00  0.13763094361E+04  0.13763094361E+04  0.25500000920E-02 0.  1.
        2   -1    0    0  501    0  0.00000000000E+00  0.00000000000E+00 -0.23087832429E+04  0.23087832429E+04  0.25500000920E-02 0. -1.
    10030    2    1    2    0    0  0.00000000000E+00  0.00000000000E+00 -0.93247380680E+03  0.36850926789E+04  0.35651648843E+04 0.  0.
        1    1    3    3  502    0  0.17760917097E+04 -0.11435536180E+03 -0.56971056279E+03  0.18687292568E+04  0.50400001928E-02 0.  1.
       -1    1    3    3    0  502 -0.17760917097E+04  0.11435536180E+03 -0.36276324401E+03  0.18163634221E+04  0.50400001928E-02 0. -1.
</event>
<event>
 5   0  0.2713405E-07  0.3707035E+04  0.7818609E-02  0.8066405E-01
        1   -1    0    0  501    0  0.00000000000E+00  0.00000000000E+00  0.22397575469E+04  0.22397575469E+04  0.50400001928E-02 0.  1.
       -1   -1    0    0    0  501  0.00000000000E+00  0.00000000000E+00 -0.15338830901E+04  0.15338830901E+04  0.50400001928E-02 0. -1.
    10030    2    1    2    0    0  0.00000000000E+00  0.00000000000E+00  0.70587445680E+03  0.37736406371E+04  0.37070345168E+04 0.  0.
        1    1    3    3  502    0  0.85249030225E+03 -0.13131382786E+04 -0.65708680170E+03  0.16978913154E+04  0.50400001928E-02 0.  1.
       -1    1    3    3    0  502 -0.85249030225E+03  0.13131382786E+04  0.13629612585E+04  0.20757493216E+04  0.50400001928E-02 0. -1.
</event>
<event>
 5   0  0.2943920E-07  0.2249050E+04  0.7818609E-02  0.8498286E-01
       -1   -1    0    0    0  501  0.00000000000E+00  0.00000000000E+00  0.90866130169E+03  0.90866130170E+03  0.50400001928E-02 0. -1.
        1   -1    0    0  501    0  0.00000000000E+00  0.00000000000E+00 -0.13916692031E+04  0.13916692031E+04  0.50400001928E-02 0.  1.
    10030    2    1    2    0    0  0.00000000000E+00  0.00000000000E+00 -0.48300790144E+03  0.23003305048E+04  0.22490495323E+04 0.  0.
        3    1    3    3  502    0  0.53121643309E+03  0.57735225240E+03 -0.10654967362E+04  0.13231817060E+04  0.10100000352E+00 0.  1.
       -3    1    3    3    0  502 -0.53121643309E+03 -0.57735225240E+03  0.58248883477E+03  0.97714879879E+03  0.10100000352E+00 0. -1.
</event>
<event>
 5   0  0.5161550E-07  0.4009176E+04  0.7818609E-02  0.8002698E-01
       -2   -1    0    0    0  501  0.00000000000E+00  0.00000000000E+00  0.17134854210E+04  0.17134854210E+04  0.25500000920E-02 0. -1.
        2   -1    0    0  501    0  0.00000000000E+00  0.00000000000E+00 -0.23451456356E+04  0.23451456356E+04  0.25500000920E-02 0.  1.
    10030    2    1    2    0    0  0.00000000000E+00  0.00000000000E+00 -0.63166021460E+03  0.40586310565E+04  0.40091759036E+04 0.  0.
        2    1    3    3  502    0 -0.32233405099E+03 -0.15167258087E+04 -0.16019410680E+04  0.22294778771E+04  0.25500000920E-02 0.  1.
       -2    1    3    3    0  502  0.32233405099E+03  0.15167258087E+04  0.97028085343E+03  0.18291531794E+04  0.25500000920E-02 0. -1.
</event>
<event>
 5   0  0.5161550E-07  0.2793219E+04  0.7818609E-02  0.8305377E-01
        2   -1    0    0  501    0  0.00000000000E+00  0.00000000000E+00  0.21314123932E+04  0.21314123932E+04  0.25500000920E-02 0. -1.
       -2   -1    0    0    0  501  0.00000000000E+00  0.00000000000E+00 -0.91512933510E+03  0.91512933510E+03  0.25500000920E-02 0.  1.
    10030    2    1    2    0    0  0.00000000000E+00  0.00000000000E+00  0.12162830581E+04  0.30465417283E+04  0.27932189361E+04 0.  0.
        2    1    3    3  502    0 -0.10499095603E+04  0.27951922158E+03  0.15652677383E+04  0.19053881948E+04  0.25500000920E-02 0. -1.
       -2    1    3    3    0  502  0.10499095603E+04 -0.27951922158E+03 -0.34898468021E+03  0.11411535336E+04  0.25500000920E-02 0.  1.
</event>
<event>
 5   0  0.2647879E-07  0.3451797E+04  0.7818609E-02  0.8125309E-01
        1   -1    0    0  501    0  0.00000000000E+00  0.00000000000E+00  0.26054881303E+04  0.26054881304E+04  0.50400001928E-02 0. -1.
       -1   -1    0    0    0  501  0.00000000000E+00  0.00000000000E+00 -0.11432507406E+04  0.11432507406E+04  0.50400001928E-02 0.  1.
    10030    2    1    2    0    0  0.00000000000E+00  0.00000000000E+00  0.14622373897E+04  0.37487388710E+04  0.34517973490E+04 0.  0.
        2    1    3    3  502    0 -0.14472289252E+04 -0.60974071509E+02  0.17502113296E+04  0.22718778791E+04  0.25500000920E-02 0. -1.
       -2    1    3    3    0  502  0.14472289252E+04  0.60974071509E+02 -0.28797393985E+03  0.14768609919E+04  0.25500000920E-02 0.  1.
</event>
<event>
 5   0  0.2401125E-07  0.3929003E+04  0.7818609E-02  0.8019024E-01
       -1   -1    0    0    0  501  0.00000000000E+00  0.00000000000E+00  0.20730794582E+04  0.20730794582E+04  0.50400001928E-02 0.  1.
        1   -1    0    0  501    0  0.00000000000E+00  0.00000000000E+00 -0.18616101863E+04  0.18616101864E+04  0.50400001928E-02 0. -1.
    10030    2    1    2    0    0  0.00000000000E+00  0.00000000000E+00  0.21146927188E+03  0.39346896446E+04  0.39290028438E+04 0.  0.
        5    1    3    3  502    0 -0.18290909418E+04 -0.19100125836E+03  0.79752286105E+03  0.20045248709E+04  0.46999998093E+01 0.  1.
       -5    1    3    3    0  502  0.18290909418E+04  0.19100125836E+03 -0.58605358917E+03  0.19301647737E+04  0.46999998093E+01 0. -1.
</event>
<event>
 5   0  0.6043512E-07  0.3932766E+04  0.7818609E-02  0.8018249E-01
       -2   -1    0    0    0  501  0.00000000000E+00  0.00000000000E+00  0.19300979632E+04  0.19300979632E+04  0.25500000920E-02 0.  1.
        2   -1    0    0  501    0  0.00000000000E+00  0.00000000000E+00 -0.20033503677E+04  0.20033503677E+04  0.25500000920E-02 0. -1.
    10030    2    1    2    0    0  0.00000000000E+00  0.00000000000E+00 -0.73252404550E+02  0.39334483309E+04  0.39327661839E+04 0.  0.
        3    1    3    3  502    0 -0.37842723981E+03 -0.59943265952E+03  0.17978499900E+04  0.19325608104E+04  0.10100000352E+00 0.  1.
       -3    1    3    3    0  502  0.37842723981E+03  0.59943265952E+03 -0.18711023945E+04  0.20008875206E+04  0.10100000352E+00 0. -1.
</event>
<event>
 5   0  0.2647879E-07  0.4076305E+04  0.7818609E-02  0.7989328E-01
       -1   -1    0    0    0  501  0.00000000000E+00  0.00000000000E+00  0.14177555158E+04  0.14177555158E+04  0.50400001928E-02 0. -1.
        1   -1    0    0  501    0  0.00000000000E+00  0.00000000000E+00 -0.29300293771E+04  0.29300293771E+04  0.50400001928E-02 0.  1.
    10030    2    1    2    0    0  0.00000000000E+00  0.00000000000E+00 -0.15122738613E+04  0.43477848929E+04  0.40763048517E+04 0.  0.
        2    1    3    3  502    0 -0.52615236633E+03 -0.19519935503E+04 -0.10321167086E+04  0.22698854670E+04  0.25500000920E-02 0. -1.
       -2    1    3    3    0  502  0.52615236633E+03  0.19519935503E+04 -0.48015715266E+03  0.20778994259E+04  0.25500000920E-02 0.  1.
</event>
<event>
 5   0  0.5161550E-07  0.4160784E+04  0.7818609E-02  0.7972874E-01
       -2   -1    0    0    0  501  0.00000000000E+00  0.00000000000E+00  0.15175917416E+04  0.15175917416E+04  0.25500000920E-02 0. -1.
        2   -1    0    0  501    0  0.00000000000E+00  0.00000000000E+00 -0.28519074667E+04  0.28519074667E+04  0.25500000920E-02 0.  1.
    10030    2    1    2    0    0  0.00000000000E+00  0.00000000000E+00 -0.13343157250E+04  0.43694992083E+04  0.41607841661E+04 0.  0.
        2    1    3    3  502    0 -0.50957010461E+03  0.18843597221E+04  0.88344758648E+02  0.19540414658E+04  0.25500000920E-02 0. -1.
       -2    1    3    3    0  502  0.50957010461E+03 -0.18843597221E+04 -0.14226604837E+04  0.24154577425E+04  0.25500000920E-02 0.  1.
</event>
<event>
 5   0  0.7570277E-07  0.3982059E+04  0.7818609E-02  0.8008176E-01
        2   -1    0    0  501    0  0.00000000000E+00  0.00000000000E+00  0.13816363986E+04  0.13816363986E+04  0.25500000920E-02 0.  1.
       -2   -1    0    0    0  501  0.00000000000E+00  0.00000000000E+00 -0.28692056597E+04  0.28692056597E+04  0.25500000920E-02 0. -1.
    10030    2    1    2    0    0  0.00000000000E+00  0.00000000000E+00 -0.14875692611E+04  0.42508420583E+04  0.39820592535E+04 0.  0.
        5    1    3    3  502    0  0.18383367958E+04  0.35470093030E+03 -0.20652359728E+02  0.18723630884E+04  0.46999998093E+01 0.  1.
       -5    1    3    3    0  502 -0.18383367958E+04 -0.35470093030E+03 -0.14669169013E+04  0.23784789699E+04  0.46999998093E+01 0. -1.
</event>
<event>
 5   0  0.7570277E-07  0.3391610E+04  0.7818609E-02  0.8139969E-01
       -2   -1    0    0    0  501  0.00000000000E+00  0.00000000000E+00  0.25493425207E+04  0.25493425207E+04  0.25500000920E-02 0.  1.
        2   -1    0    0  501    0  0.00000000000E+00  0.00000000000E+00 -0.11280374448E+04  0.11280374448E+04  0.25500000920E-02 0. -1.
    10030    2    1    2    0    0  0.00000000000E+00  0.00000000000E+00  0.14213050759E+04  0.36773799655E+04  0.33916095429E+04 0.  0.
        5    1    3    3  502    0 -0.72669547006E+02  0.74139766519E+03  0.23624229352E+04  0.24770982168E+04  0.46999998093E+01 0.  1.
       -5    1    3    3    0  502  0.72669547006E+02 -0.74139766519E+03 -0.94111785932E+03  0.12002817486E+04  0.46999998093E+01 0. -1.
</event>
<event>
 5   0  0.5161550E-07  0.3823418E+04  0.7818609E-02  0.8041148E-01
        2   -1    0    0  501    0  0.00000000000E+00  0.00000000000E+00  0.19647359744E+04  0.19647359744E+04  0.25500000920E-02 0. -1.
       -2   -1    0    0    0  501  0.00000000000E+00  0.00000000000E+00 -0.18601135212E+04  0.18601135212E+04  0.25500000920E-02 0.  1.
    10030    2    1    2    0    0  0.00000000000E+00  0.00000000000E+00  0.10462245317E+03  0.38248494956E+04  0.38234183405E+04 0.  0.
        2    1    3    3  502    0 -0.79267483788E+03 -0.15315514330E+04 -0.77301198756E+03  0.18898493917E+04  0.25500000920E-02 0.  1.
       -2    1    3    3    0  502  0.79267483788E+03  0.15315514330E+04  0.87763444074E+03  0.19350001039E+04  0.25500000920E-02 0. -1.
</event>
<event>
 5   0  0.2401125E-07  0.3213954E+04  0.7818609E-02  0.8185142E-01
       -1   -1    0    0    0  501  0.00000000000E+00  0.00000000000E+00  0.10491027315E+04  0.10491027315E+04  0.50400001928E-02 0.  1.
        1   -1    0    0  501    0  0.00000000000E+00  0.00000000000E+00 -0.24615083435E+04  0.24615083435E+04  0.50400001928E-02 0. -1.
    10030    2    1    2    0    0  0.00000000000E+00  0.00000000000E+00 -0.14124056120E+04  0.35106110750E+04  0.32139540300E+04 0.  0.
        5    1    3    3  502    0  0.12358712931E+04  0.19611055289E+03 -0.18074888407E+04  0.21983801312E+04  0.46999998093E+01 0. -1.
       -5    1    3    3    0  502 -0.12358712931E+04 -0.19611055289E+03  0.39508322868E+03  0.13122309438E+04  0.46999998093E+01 0.  1.
</event>
<event>
 5   0  0.2647879E-07  0.2199465E+04  0.7818609E-02  0.8518651E-01
        1   -1    0    0  501    0  0.00000000000E+00  0.00000000000E+00  0.60626867521E+03  0.60626867523E+03  0.50400001928E-02 0. -1.
       -1   -1    0    0    0  501  0.00000000000E+00  0.00000000000E+00 -0.19948437702E+04  0.19948437702E+04  0.50400001928E-02 0.  1.
    10030    2    1    2    0    0  0.00000000000E+00  0.00000000000E+00 -0.13885750949E+04  0.26011124454E+04  0.21994647438E+04 0.  0.
        2    1    3    3  502    0 -0.23025749676E+03  0.10891950445E+03 -0.19594770588E+04  0.19759636427E+04  0.25500000920E-02 0.  1.
       -2    1    3    3    0  502  0.23025749676E+03 -0.10891950445E+03  0.57090196382E+03  0.62514880274E+03  0.25500000920E-02 0. -1.
</event>
<event>
 5   0  0.2601252E-07  0.2345438E+04  0.7818609E-02  0.8460218E-01
        1   -1    0    0  501    0  0.00000000000E+00  0.00000000000E+00  0.18813748040E+04  0.18813748040E+04  0.50400001928E-02 0. -1.
       -1   -1    0    0    0  501  0.00000000000E+00  0.00000000000E+00 -0.73099212492E+03  0.73099212493E+03  0.50400001928E-02 0.  1.
    10030    2    1    2    0    0  0.00000000000E+00  0.00000000000E+00  0.11503826791E+04  0.26123669290E+04  0.23454382668E+04 0.  0.
        3    1    3    3  502    0  0.47592788845E+03  0.28076651166E+03  0.17272867730E+04  0.18135205528E+04  0.10100000352E+00 0. -1.
       -3    1    3    3    0  502 -0.47592788845E+03 -0.28076651166E+03 -0.57690409384E+03  0.79884637620E+03  0.10100000352E+00 0.  1.
</event>
<event>
 5   0  0.5161550E-07  0.3034451E+04  0.7818609E-02  0.8233961E-01
        2   -1    0    0  501    0  0.00000000000E+00  0.00000000000E+00  0.27526665961E+04  0.27526665961E+04  0.25500000920E-02 0.  1.
       -2   -1    0    0    0  501  0.00000000000E+00  0.00000000000E+00 -0.83627004848E+03  0.83627004848E+03  0.25500000920E-02 0. -1.
    10030    2    1    2    0    0  0.00000000000E+00  0.00000000000E+00  0.19163965477E+04  0.35889366446E+04  0.30344506111E+04 0.  0.
        2    1    3    3  502    0  0.10502324899E+04  0.10313166386E+04  0.13933567747E+04  0.20268313678E+04  0.25500000920E-02 0.  1.
       -2    1    3    3    0  502 -0.10502324899E+04 -0.10313166386E+04  0.52303977294E+03  0.15621052768E+04  0.25500000920E-02 0. -1.
</event>
<event>
 5   0  0.5161550E-07  0.3742967E+04  0.7818609E-02  0.8058506E-01
       -2   -1    0    0    0  501  0.00000000000E+00  0.00000000000E+00  0.15687367489E+04  0.15687367489E+04  0.25500000920E-02 0. -1.
        2   -1    0    0  501    0  0.00000000000E+00  0.00000000000E+00 -0.22326565438E+04  0.22326565438E+04  0.25500000920E-02 0.  1.
    10030    2    1    2    0    0  0.00000000000E+00  0.00000000000E+00 -0.66391979496E+03  0.38013932927E+04  0.37429669344E+04 0.  0.
        2    1    3    3  502    0  0.77923758598E+03  0.14304127596E+04  0.60392231172E+03  0.17372432290E+04  0.25500000920E-02 0. -1.
       -2    1    3    3    0  502 -0.77923758598E+03 -0.14304127596E+04 -0.12678421067E+04  0.20641500637E+04  0.25500000920E-02 0.  1.
</event>
<event>
 5   0  0.2647879E-07  0.3927280E+04  0.7818609E-02  0.8019379E-01
       -1   -1    0    0    0  501  0.00000000000E+00  0.00000000000E+00  0.17088343250E+04  0.17088343250E+04  0.50400001928E-02 0.  1.
        1   -1    0    0  501    0  0.00000000000E+00  0.00000000000E+00 -0.22564401040E+04  0.22564401040E+04  0.50400001928E-02 0. -1.
    10030    2    1    2    0    0  0.00000000000E+00  0.00000000000E+00 -0.54760577903E+03  0.39652744290E+04  0.39272801285E+04 0.  0.
        2    1    3    3  502    0 -0.77639301227E+03  0.11794362062E+04 -0.16515651664E+04  0.21729066646E+04  0.25500000920E-02 0. -1.
       -2    1    3    3    0  502  0.77639301227E+03 -0.11794362062E+04  0.11039593874E+04  0.17923677644E+04  0.25500000920E-02 0.  1.
</event>
<event>
 5   0  0.4449262E-07  0.2133874E+04  0.7818609E-02  0.8546467E-01
        2   -1    0    0  501    0  0.00000000000E+00  0.00000000000E+00  0.24266909113E+04  0.24266909113E+04  0.25500000920E-02 0.  1.
       -2   -1    0    0    0  501  0.00000000000E+00  0.00000000000E+00 -0.46909737920E+03  0.46909737921E+03  0.25500000920E-02 0. -1.
    10030    2    1    2    0    0  0.00000000000E+00  0.00000000000E+00  0.19575935321E+04  0.28957882905E+04  0.21338737982E+04 0.  0.
        1    1    3    3  502    0  0.59627961436E+03 -0.33583481850E+03 -0.13201876076E+03  0.69696725679E+03  0.50400001928E-02 0. -1.
       -1    1    3    3    0  502 -0.59627961436E+03  0.33583481850E+03  0.20896122929E+04  0.21988210337E+04  0.50400001928E-02 0.  1.
</event>
<event>
 5   0  0.4449262E-07  0.4012156E+04  0.7818609E-02  0.8002099E-01
        2   -1    0    0  501    0  0.00000000000E+00  0.00000000000E+00  0.21201984230E+04  0.21201984230E+04  0.25500000920E-02 0.  1.
       -2   -1    0    0    0  501  0.00000000000E+00  0.00000000000E+00 -0.18981004095E+04  0.18981004095E+04  0.25500000920E-02 0. -1.
    10030    2    1    2    0    0  0.00000000000E+00  0.00000000000E+00  0.22209801346E+03  0.40182988325E+04  0.40121562756E+04 0.  0.
        1    1    3    3  502    0 -0.61746467867E+03  0.48092994855E+03  0.19609809151E+04  0.21113982083E+04  0.50400001928E-02 0.  1.
       -1    1    3    3    0  502  0.61746467867E+03 -0.48092994855E+03 -0.17388829016E+04  0.19069006242E+04  0.50400001928E-02 0. -1.
</event>
<event>
 5   0  0.7256473E-07  0.3906587E+04  0.7818609E-02  0.8023661E-01
       -2   -1    0    0    0  501  0.00000000000E+00  0.00000000000E+00  0.17097877645E+04  0.17097877645E+04  0.25500000920E-02 0. -1.
        2   -1    0    0  501    0  0.00000000000E+00  0.00000000000E+00 -0.22314784954E+04  0.22314784954E+04  0.25500000920E-02 0.  1.
    10030    2    1    2    0    0  0.00000000000E+00  0.00000000000E+00 -0.52169073090E+03  0.39412662599E+04  0.39065865551E+04 0.  0.
        4    1    3    3  502    0  0.16571688437E+04  0.10019018977E+04 -0.51872556995E+03  0.20047677718E+04  0.12699999809E+01 0.  1.
       -4    1    3    3    0  502 -0.16571688437E+04 -0.10019018977E+04 -0.29651609467E+01  0.19364984881E+04  0.12699999809E+01 0. -1.
</event>
<event>
 5   0  0.2647879E-07  0.3809542E+04  0.7818609E-02  0.8044110E-01
        1   -1    0    0  501    0  0.00000000000E+00  0.00000000000E+00  0.14173141225E+04  0.14173141225E+04  0.50400001928E-02 0. -1.
       -1   -1    0    0    0  501  0.00000000000E+00  0.00000000000E+00 -0.25598789699E+04  0.25598789699E+04  0.50400001928E-02 0.  1.
    10030    2    1    2    0    0  0.00000000000E+00  0.00000000000E+00 -0.11425648474E+04  0.39771930924E+04  0.38095420281E+04 0.  0.
        2    1    3    3  502    0 -0.11576310821E+04 -0.79932370868E+03 -0.19119793986E+04  0.23737508998E+04  0.25500000920E-02 0.  1.
       -2    1    3    3    0  502  0.11576310821E+04  0.79932370868E+03  0.76941455120E+03  0.16034421926E+04  0.25500000920E-02 0. -1.
</event>
<event>
 5   0  0.2647879E-07  0.3493743E+04  0.7818609E-02  0.8115274E-01
       -1   -1    0    0    0  501  0.00000000000E+00  0.00000000000E+00  0.15401972050E+04  0.15401972050E+04  0.50400001928E-02 0.  1.
        1   -1    0    0  501    0  0.00000000000E+00  0.00000000000E+00 -0.19812788706E+04  0.19812788706E+04  0.50400001928E-02 0. -1.
    10030    2    1    2    0    0  0.00000000000E+00  0.00000000000E+00 -0.44108166563E+03  0.35214760757E+04  0.34937430809E+04 0.  0.
        2    1    3    3  502    0 -0.78659297998E+03 -0.13230072397E+04 -0.10532241377E+04  0.18650355912E+04  0.25500000920E-02 0. -1.
       -2    1    3    3    0  502  0.78659297998E+03  0.13230072397E+04  0.61214247203E+03  0.16564404844E+04  0.25500000920E-02 0.  1.
</event>
<event>
 5   0  0.6043512E-07  0.4056612E+04  0.7818609E-02  0.7993222E-01
        2   -1    0    0  501    0  0.00000000000E+00  0.00000000000E+00  0.19252733092E+04  0.19252733092E+04  0.25500000920E-02 0. -1.
       -2   -1    0    0    0  501  0.00000000000E+00  0.00000000000E+00 -0.21368526101E+04  0.21368526101E+04  0.25500000920E-02 0.  1.
    10030    2    1    2    0    0  0.00000000000E+00  0.00000000000E+00 -0.21157930087E+03  0.40621259193E+04  0.40566120327E+04 0.  0.
        3    1    3    3  502    0 -0.93804100692E+03  0.71840510941E+03  0.15450865622E+04  0.19450756609E+04  0.10100000352E+00 0. -1.
       -3    1    3    3    0  502  0.93804100692E+03 -0.71840510941E+03 -0.17566658631E+04  0.21170502584E+04  0.10100000352E+00 0.  1.
</event>
<event>
 5   0  0.2647879E-07  0.4014037E+04  0.7818609E-02  0.8001721E-01
       -1   -1    0    0    0  501  0.00000000000E+00  0.00000000000E+00  0.22027920285E+04  0.22027920285E+04  0.50400001928E-02 0. -1.
        1   -1    0    0  501    0  0.00000000000E+00  0.00000000000E+00 -0.18286441823E+04  0.18286441823E+04  0.50400001928E-02 0.  1.
    10030    2    1    2    0    0  0.00000000000E+00  0.00000000000E+00  0.37414784617E+03  0.40314362108E+04  0.40140367849E+04 0.  0.
        2    1    3    3  502    0 -0.14032680650E+03 -0.17657261208E+03 -0.18158759071E+04  0.18298291750E+04  0.25500000920E-02 0.  1.
       -2    1    3    3    0  502  0.14032680650E+03  0.17657261208E+03  0.21900237532E+04  0.22016070357E+04  0.25500000920E-02 0. -1.
</event>
<event>
 5   0  0.4449262E-07  0.3381950E+04  0.7818609E-02  0.8142351E-01
        2   -1    0    0  501    0  0.00000000000E+00  0.00000000000E+00  0.17763296316E+04  0.17763296316E+04  0.25500000920E-02 0.  1.
       -2   -1    0    0    0  501  0.00000000000E+00  0.00000000000E+00 -0.16097215782E+04  0.16097215782E+04  0.25500000920E-02 0. -1.
    10030    2    1    2    0    0  0.00000000000E+00  0.00000000000E+00  0.16660805339E+03  0.33860512098E+04  0.33819498151E+04 0.  0.
        1    1    3    3  502    0 -0.34536326552E+03  0.16232312683E+04  0.40810552645E+03  0.17090072137E+04  0.50400001928E-02 0.  1.
       -1    1    3    3    0  502  0.34536326552E+03 -0.16232312683E+04 -0.24149747306E+03  0.16770439962E+04  0.50400001928E-02 0. -1.
</event>
<event>
 5   0  0.4449262E-07  0.3439325E+04  0.7818609E-02  0.8128322E-01
        2   -1    0    0  501    0  0.00000000000E+00  0.00000000000E+00  0.16926642199E+04  0.16926642199E+04  0.25500000920E-02 0.  1.
       -2   -1    0    0    0  501  0.00000000000E+00  0.00000000000E+00 -0.17470915659E+04  0.17470915659E+04  0.25500000920E-02 0. -1.
    10030    2    1    2    0    0  0.00000000000E+00  0.00000000000E+00 -0.54427346015E+02  0.34397557858E+04  0.34393251562E+04 0.  0.
        1    1    3    3  502    0  0.42497958728E+02 -0.11717010021E+04 -0.12853656460E+04  0.17397856646E+04  0.50400001928E-02 0. -1.
       -1    1    3    3    0  502 -0.42497958728E+02  0.11717010021E+04  0.12309382999E+04  0.16999701212E+04  0.50400001928E-02 0.  1.
</event>
<event>
 5   0  0.2647879E-07  0.4001525E+04  0.7818609E-02  0.8004239E-01
        1   -1    0    0  501    0  0.00000000000E+00  0.00000000000E+00  0.32357408273E+04  0.32357408273E+04  0.50400001928E-02 0. -1.
       -1   -1    0    0    0  501  0.00000000000E+00  0.00000000000E+00 -0.12371357382E+04  0.12371357382E+04  0.50400001928E-02 0.  1.
    10030    2    1    2    0    0  0.00000000000E+00  0.00000000000E+00  0.19986050891E+04  0.44728765655E+04  0.40015250178E+04 0.  0.
        2    1    3    3  502    0 -0.27175464688E+03 -0.91808537390E+03 -0.96442758048E+03  0.13589892935E+04  0.25500000920E-02 0.  1.
       -2    1    3    3    0  502  0.27175464688E+03  0.91808537390E+03  0.29630326696E+04  0.31138872720E+04  0.25500000920E-02 0. -1.
</event>
<event>
 5   0  0.2713405E-07  0.3788061E+04  0.7818609E-02  0.8048722E-01
        1   -1    0    0  501    0  0.00000000000E+00  0.00000000000E+00  0.22810106641E+04  0.22810106641E+04  0.50400001928E-02 0.  1.
       -1   -1    0    0    0  501  0.00000000000E+00  0.00000000000E+00 -0.15727023350E+04  0.15727023350E+04  0.50400001928E-02 0. -1.
    10030    2    1    2    0    0  0.00000000000E+00  0.00000000000E+00  0.70830832916E+03  0.38537129991E+04  0.37880606107E+04 0.  0.
        1    1    3    3  502    0 -0.14282123682E+04 -0.21417393612E+03  0.16008271751E+04  0.21559936660E+04  0.50400001928E-02 0.  1.
       -1    1    3    3    0  502  0.14282123682E+04  0.21417393612E+03 -0.89251884590E+03  0.16977193331E+04  0.50400001928E-02 0. -1.
</event>
<event>
 5   0  0.2647879E-07  0.4067564E+04  0.7818609E-02  0.7991054E-01
        1   -1    0    0  501    0  0.00000000000E+00  0.00000000000E+00  0.22476286069E+04  0.22476286069E+04  0.50400001928E-02 0. -1.
       -1   -1    0    0    0  501  0.00000000000E+00  0.00000000000E+00 -0.18402817687E+04  0.18402817688E+04  0.50400001928E-02 0.  1.
    10030    2    1    2    0    0  0.00000000000E+00  0.00000000000E+00  0.40734683812E+03  0.40879103756E+04  0.40675643563E+04 0.  0.
        2    1    3    3  502    0 -0.59683686326E+02 -0.20168389996E+04  0.46003415782E+03  0.20695006932E+04  0.25500000920E-02 0.  1.
       -2    1    3    3    0  502  0.59683686326E+02  0.20168389996E+04 -0.52687319702E+02  0.20184096825E+04  0.25500000920E-02 0. -1.
</event>
<event>
 5   0  0.6043512E-07  0.2483274E+04  0.7818609E-02  0.8408969E-01
        2   -1    0    0  501    0  0.00000000000E+00  0.00000000000E+00  0.15099574393E+04  0.15099574393E+04  0.25500000920E-02 0. -1.
       -2   -1    0    0    0  501  0.00000000000E+00  0.00000000000E+00 -0.10209970368E+04  0.10209970368E+04  0.25500000920E-02 0.  1.
    10030    2    1    2    0    0  0.00000000000E+00  0.00000000000E+00  0.48896040257E+03  0.25309544761E+04  0.24832737032E+04 0.  0.
        3    1    3    3  502    0  0.60773526494E+03 -0.72476605929E+03 -0.57534887695E+03  0.11070927393E+04  0.10100000352E+00 0.  1.
       -3    1    3    3    0  502 -0.60773526494E+03  0.72476605929E+03  0.10643092795E+04  0.14238617368E+04  0.10100000352E+00 0. -1.
</event>
<event>
 5   0  0.2647879E-07  0.2181209E+04  0.7818609E-02  0.8526290E-01
        1   -1    0    0  501    0  0.00000000000E+00  0.00000000000E+00  0.15707834109E+04  0.15707834109E+04  0.50400001928E-02 0. -1.
       -1   -1    0    0    0  501  0.00000000000E+00  0.00000000000E+00 -0.75721359257E+03  0.75721359259E+03  0.50400001928E-02 0.  1.
    10030    2    1    2    0    0  0.00000000000E+00  0.00000000000E+00  0.81356981833E+03  0.23279970035E+04  0.21812093432E+04 0.  0.
        2    1    3    3  502    0 -0.85332509040E+03 -0.67093271269E+03  0.51925251023E+03  0.12033027816E+04  0.25500000920E-02 0.  1.
       -2    1    3    3    0  502  0.85332509040E+03  0.67093271269E+03  0.29431730810E+03  0.11246942219E+04  0.25500000920E-02 0. -1.
</event>
<event>
 5   0  0.2401125E-07  0.2166051E+04  0.7818609E-02  0.8532693E-01
       -1   -1    0    0    0  501  0.00000000000E+00  0.00000000000E+00  0.10404761675E+04  0.10404761675E+04  0.50400001928E-02 0.  1.
        1   -1    0    0  501    0  0.00000000000E+00  0.00000000000E+00 -0.11273152970E+04  0.11273152970E+04  0.50400001928E-02 0. -1.
    10030    2    1    2    0    0  0.00000000000E+00  0.00000000000E+00 -0.86839129453E+02  0.21677914645E+04  0.21660514304E+04 0.  0.
        5    1    3    3  502    0 -0.97700497068E+03 -0.46590417959E+03 -0.70972633834E+01  0.10824407044E+04  0.46999998093E+01 0. -1.
       -5    1    3    3    0  502  0.97700497068E+03  0.46590417959E+03 -0.79741866069E+02  0.10853507601E+04  0.46999998093E+01 0.  1.
</event>
<event>
 5   0  0.7570277E-07  0.2481723E+04  0.7818609E-02  0.8409526E-01
       -2   -1    0    0    0  501  0.00000000000E+00  0.00000000000E+00  0.14760785915E+04  0.14760785915E+04  0.25500000920E-02 0.  1.
        2   -1    0    0  501    0  0.00000000000E+00  0.00000000000E+00 -0.10431267220E+04  0.10431267220E+04  0.25500000920E-02 0. -1.
    10030    2    1    2    0    0  0.00000000000E+00  0.00000000000E+00  0.43295186950E+03  0.25192053135E+04  0.24817228069E+04 0.  0.
        5    1    3    3  502    0  0.10827173677E+04 -0.32030873640E+03  0.73887497027E+03  0.13493824130E+04  0.46999998093E+01 0.  1.
       -5    1    3    3    0  502 -0.10827173677E+04  0.32030873640E+03 -0.30592310077E+03  0.11698229005E+04  0.46999998093E+01 0. -1.
</event>
<event>
 5   0  0.2401125E-07  0.2733665E+04  0.7818609E-02  0.8324164E-01
       -1   -1    0    0    0  501  0.00000000000E+00  0.00000000000E+00  0.11516518945E+04  0.11516518945E+04  0.50400001928E-02 0.  1.
        1   -1    0    0  501    0  0.00000000000E+00  0.00000000000E+00 -0.16222183323E+04  0.16222183323E+04  0.50400001928E-02 0. -1.
    10030    2    1    2    0    0  0.00000000000E+00  0.00000000000E+00 -0.47056643787E+03  0.27738702268E+04  0.27336648044E+04 0.  0.
        5    1    3    3  502    0  0.32842472096E+02 -0.26645206425E+03  0.11246267945E+04  0.11562365015E+04  0.46999998093E+01 0.  1.
       -5    1    3    3    0  502 -0.32842472096E+02  0.26645206425E+03 -0.15951932324E+04  0.16176337253E+04  0.46999998093E+01 0. -1.
</event>
<event>
 5   0  0.5161550E-07  0.3983484E+04  0.7818609E-02  0.8007887E-01
        2   -1    0    0  501    0  0.00000000000E+00  0.00000000000E+00  0.23484808301E+04  0.23484808301E+04  0.25500000920E-02 0.  1.
       -2   -1    0    0    0  501  0.00000000000E+00  0.00000000000E+00 -0.16891927890E+04  0.16891927890E+04  0.25500000920E-02 0. -1.
    10030    2    1    2    0    0  0.00000000000E+00  0.00000000000E+00  0.65928804116E+03  0.40376736191E+04  0.39834843458E+04 0.  0.
        2    1    3    3  502    0 -0.11534381121E+04 -0.83018461590E+03 -0.10848362515E+04  0.17878746230E+04  0.25500000920E-02 0. -1.
       -2    1    3    3    0  502  0.11534381121E+04  0.83018461590E+03  0.17441242927E+04  0.22497989962E+04  0.25500000920E-02 0.  1.
</event>
<event>
 5   0  0.7256473E-07  0.3946789E+04  0.7818609E-02  0.8015368E-01
       -2   -1    0    0    0  501  0.00000000000E+00  0.00000000000E+00  0.15536744015E+04  0.15536744015E+04  0.25500000920E-02 0. -1.
        2   -1    0    0  501    0  0.00000000000E+00  0.00000000000E+00 -0.25065008900E+04  0.25065008900E+04  0.25500000920E-02 0.  1.
    10030    2    1    2    0    0  0.00000000000E+00  0.00000000000E+00 -0.95282648850E+03  0.40601752915E+04  0.39467892116E+04 0.  0.
        4    1    3    3  502    0 -0.10014687303E+04 -0.16188943964E+04  0.58650267057E+02  0.19045209768E+04  0.12699999809E+01 0. -1.
       -4    1    3    3    0  502  0.10014687303E+04  0.16188943964E+04 -0.10114767556E+04  0.21556543147E+04  0.12699999809E+01 0.  1.
</event>
<event>
 5   0  0.4449262E-07  0.3222483E+04  0.7818609E-02  0.8182905E-01
       -2   -1    0    0    0  501  0.00000000000E+00  0.00000000000E+00  0.12024193627E+04  0.12024193627E+04  0.25500000920E-02 0.  1.
        2   -1    0    0  501    0  0.00000000000E+00  0.00000000000E+00 -0.21590634538E+04  0.21590634538E+04  0.25500000920E-02 0. -1.
    10030    2    1    2    0    0  0.00000000000E+00  0.00000000000E+00 -0.95664409115E+03  0.33614828165E+04  0.32224833295E+04 0.  0.
        1    1    3    3  502    0  0.55286876715E+03 -0.74445937571E+03 -0.18528136820E+04  0.20719078589E+04  0.50400001928E-02 0. -1.
       -1    1    3    3    0  502 -0.55286876715E+03  0.74445937571E+03  0.89616959082E+03  0.12895749576E+04  0.50400001928E-02 0.  1.
</event>
<event>
 5   0  0.2647879E-07  0.2269606E+04  0.7818609E-02  0.8490002E-01
       -1   -1    0    0    0  501  0.00000000000E+00  0.00000000000E+00  0.11577660080E+04  0.11577660080E+04  0.50400001928E-02 0. -1.
        1   -1    0    0  501    0  0.00000000000E+00  0.00000000000E+00 -0.11122953556E+04  0.11122953556E+04  0.50400001928E-02 0.  1.
    10030    2    1    2    0    0  0.00000000000E+00  0.00000000000E+00  0.45470652342E+02  0.22700613636E+04  0.22696059161E+04 0.  0.
        2    1    3    3  502    0 -0.75762606873E+03 -0.83898831158E+03  0.12214896673E+03  0.11370219950E+04  0.25500000920E-02 0. -1.
       -2    1    3    3    0  502  0.75762606873E+03  0.83898831158E+03 -0.76678314391E+02  0.11330393686E+04  0.25500000920E-02 0.  1.
</event>
<event>
 5   0  0.2758914E-07  0.2367659E+04  0.7818609E-02  0.8451712E-01
        1   -1    0    0  501    0  0.00000000000E+00  0.00000000000E+00  0.13355412595E+04  0.13355412595E+04  0.50400001928E-02 0. -1.
       -1   -1    0    0    0  501  0.00000000000E+00  0.00000000000E+00 -0.10493518934E+04  0.10493518934E+04  0.50400001928E-02 0.  1.
    10030    2    1    2    0    0  0.00000000000E+00  0.00000000000E+00  0.28618936612E+03  0.23848931529E+04  0.23676593922E+04 0.  0.
        1    1    3    3  502    0 -0.19837536027E+03  0.80709367200E+03 -0.70607169167E+03  0.10905458325E+04  0.50400001928E-02 0.  1.
       -1    1    3    3    0  502  0.19837536027E+03 -0.80709367200E+03  0.99226105780E+03  0.12943473204E+04  0.50400001928E-02 0. -1.
</event>
<event>
 5   0  0.2601252E-07  0.3435008E+04  0.7818609E-02  0.8129367E-01
       -1   -1    0    0    0  501  0.00000000000E+00  0.00000000000E+00  0.14934644373E+04  0.14934644373E+04  0.50400001928E-02 0.  1.
        1   -1    0    0  501    0  0.00000000000E+00  0.00000000000E+00 -0.19751527099E+04  0.19751527099E+04  0.50400001928E-02 0. -1.
    10030    2    1    2    0    0  0.00000000000E+00  0.00000000000E+00 -0.48168827257E+03  0.34686171472E+04  0.34350081982E+04 0.  0.
        3    1    3    3  502    0  0.12012295713E+04  0.12191218025E+04 -0.38581014891E+03  0.17544400627E+04  0.10100000352E+00 0.  1.
       -3    1    3    3    0  502 -0.12012295713E+04 -0.12191218025E+04 -0.95878123659E+02  0.17141770845E+04  0.10100000352E+00 0. -1.
</event>
<event>
 5   0  0.2601252E-07  0.2748817E+04  0.7818609E-02  0.8319337E-01
       -1   -1    0    0    0  501  0.00000000000E+00  0.00000000000E+00  0.12692999452E+04  0.12692999452E+04  0.50400001928E-02 0.  1.
        1   -1    0    0  501    0  0.00000000000E+00  0.00000000000E+00 -0.14882205154E+04  0.14882205154E+04  0.50400001928E-02 0. -1.
    10030    2    1    2    0    0  0.00000000000E+00  0.00000000000E+00 -0.21892057016E+03  0.27575204606E+04  0.27488166316E+04 0.  0.
        3    1    3    3  502    0 -0.23462914378E+03 -0.51651715035E+03  0.11463651749E+04  0.12790597821E+04  0.10100000352E+00 0.  1.
       -3    1    3    3    0  502  0.23462914378E+03  0.51651715035E+03 -0.13652857451E+04  0.14784606784E+04  0.10100000352E+00 0. -1.
</event>
<event>
 5   0  0.2401125E-07  0.4012704E+04  0.7818609E-02  0.8001989E-01
        3   -1    0    0  501    0  0.00000000000E+00  0.00000000000E+00  0.30020558005E+04  0.30020558022E+04  0.10100000352E+00 0.  1.
       -3   -1    0    0    0  501  0.00000000000E+00  0.00000000000E+00 -0.13408973331E+04  0.13408973369E+04  0.10100000352E+00 0. -1.
    10030    2    1    2    0    0  0.00000000000E+00  0.00000000000E+00  0.16611584675E+04  0.43429531391E+04  0.40127041399E+04 0.  0.
        1    1    3    3  502    0 -0.78365193174E+03 -0.15355330772E+04  0.19414420208E+04  0.25963761864E+04  0.50400001928E-02 0.  1.
       -1    1    3    3    0  502  0.78365193174E+03  0.15355330772E+04 -0.28028355328E+03  0.17465769527E+04  0.50400001928E-02 0. -1.
</event>
<event>
 5   0  0.5161550E-07  0.4008371E+04  0.7818609E-02  0.8002860E-01
        2   -1    0    0  501    0  0.00000000000E+00  0.00000000000E+00  0.27294365430E+04  0.27294365430E+04  0.25500000920E-02 0.  1.
       -2   -1    0    0    0  501  0.00000000000E+00  0.00000000000E+00 -0.14716439785E+04  0.14716439785E+04  0.25500000920E-02 0. -1.
    10030    2    1    2    0    0  0.00000000000E+00  0.00000000000E+00  0.12577925645E+04  0.42010805215E+04  0.40083706681E+04 0.  0.
        2    1    3    3  502    0  0.50033981848E+03 -0.86609829891E+03  0.24491413736E+04  0.26455168994E+04  0.25500000920E-02 0.  1.
       -2    1    3    3    0  502 -0.50033981848E+03  0.86609829891E+03 -0.11913488091E+04  0.15555636221E+04  0.25500000920E-02 0. -1.
</event>
<event>
 5   0  0.5161550E-07  0.3876655E+04  0.7818609E-02  0.8029902E-01
       -2   -1    0    0    0  501  0.00000000000E+00  0.00000000000E+00  0.22765224043E+04  0.22765224043E+04  0.25500000920E-02 0. -1.
        2   -1    0    0  501    0  0.00000000000E+00  0.00000000000E+00 -0.16503740954E+04  0.16503740954E+04  0.25500000920E-02 0.  1.
    10030    2    1    2    0    0  0.00000000000E+00  0.00000000000E+00  0.62614830890E+03  0.39268964998E+04  0.38766550550E+04 0.  0.
        2    1    3    3  502    0 -0.66517938500E+03 -0.19039956844E+02  0.21571865333E+04  0.22574941580E+04  0.25500000920E-02 0. -1.
       -2    1    3    3    0  502  0.66517938500E+03  0.19039956844E+02 -0.15310382244E+04  0.16694023417E+04  0.25500000920E-02 0.  1.
</event>
<event>
 5   0  0.2713405E-07  0.1999007E+04  0.7818609E-02  0.8607085E-01
        1   -1    0    0  501    0  0.00000000000E+00  0.00000000000E+00  0.86716943930E+03  0.86716943931E+03  0.50400001928E-02 0.  1.
       -1   -1    0    0    0  501  0.00000000000E+00  0.00000000000E+00 -0.11520325842E+04  0.11520325842E+04  0.50400001928E-02 0. -1.
    10030    2    1    2    0    0  0.00000000000E+00  0.00000000000E+00 -0.28486314488E+03  0.20192020235E+04  0.19990072037E+04 0.  0.
        1    1    3    3  502    0  0.85452243213E+03  0.50634508798E+03 -0.25497309834E+03  0.10254780427E+04  0.50400001928E-02 0. -1.
       -1    1    3    3    0  502 -0.85452243213E+03 -0.50634508798E+03 -0.29890046540E+02  0.99372398081E+03  0.50400001928E-02 0.  1.
</event>
<event>
 5   0  0.3579559E-07  0.2365660E+04  0.7818609E-02  0.8452473E-01
       -1   -1    0    0    0  501  0.00000000000E+00  0.00000000000E+00  0.15762708768E+04  0.15762708768E+04  0.50400001928E-02 0.  1.
        1   -1    0    0  501    0  0.00000000000E+00  0.00000000000E+00 -0.88759300815E+03  0.88759300816E+03  0.50400001928E-02 0. -1.
    10030    2    1    2    0    0  0.00000000000E+00  0.00000000000E+00  0.68867786867E+03  0.24638638850E+04  0.23656601694E+04 0.  0.
        4    1    3    3  502    0 -0.65833025278E+03  0.61766775975E+02 -0.67712465724E+03  0.94642129661E+03  0.12699999809E+01 0. -1.
       -4    1    3    3    0  502  0.65833025278E+03 -0.61766775975E+02  0.13658025259E+04  0.15174425884E+04  0.12699999809E+01 0.  1.
</event>
<event>
 5   0  0.4449262E-07  0.2051350E+04  0.7818609E-02  0.8582982E-01
       -2   -1    0    0    0  501  0.00000000000E+00  0.00000000000E+00  0.11069741375E+04  0.11069741375E+04  0.25500000920E-02 0. -1.
        2   -1    0    0  501    0  0.00000000000E+00  0.00000000000E+00 -0.95034689056E+03  0.95034689057E+03  0.25500000920E-02 0.  1.
    10030    2    1    2    0    0  0.00000000000E+00  0.00000000000E+00  0.15662724696E+03  0.20573210281E+04  0.20513502183E+04 0.  0.
        1    1    3    3  502    0  0.38131664680E+03 -0.95001877082E+03  0.14320538935E+02  0.10237886149E+04  0.50400001928E-02 0.  1.
       -1    1    3    3    0  502 -0.38131664680E+03  0.95001877082E+03  0.14230670803E+03  0.10335324132E+04  0.50400001928E-02 0. -1.
</event>
<event>
 5   0  0.6043512E-07  0.3184757E+04  0.7818609E-02  0.8192855E-01
        2   -1    0    0  501    0  0.00000000000E+00  0.00000000000E+00  0.21867584234E+04  0.21867584234E+04  0.25500000920E-02 0. -1.
       -2   -1    0    0    0  501  0.00000000000E+00  0.00000000000E+00 -0.11595559882E+04  0.11595559882E+04  0.25500000920E-02 0.  1.
    10030    2    1    2    0    0  0.00000000000E+00  0.00000000000E+00  0.10272024352E+04  0.33463144117E+04  0.31847567095E+04 0.  0.
        3    1    3    3  502    0  0.65797642863E+03  0.16983698371E+03 -0.99955396761E+03  0.12086710578E+04  0.10100000352E+00 0.  1.
       -3    1    3    3    0  502 -0.65797642863E+03 -0.16983698371E+03  0.20267564028E+04  0.21376433538E+04  0.10100000352E+00 0. -1.
</event>
<event>
 5   0  0.7570277E-07  0.4047492E+04  0.7818609E-02  0.7995034E-01
        2   -1    0    0  501    0  0.00000000000E+00  0.00000000000E+00  0.20236681467E+04  0.20236681467E+04  0.25500000920E-02 0.  1.
       -2   -1    0    0    0  501  0.00000000000E+00  0.00000000000E+00 -0.20238239514E+04  0.20238239514E+04  0.25500000920E-02 0. -1.
    10030    2    1    2    0    0  0.00000000000E+00  0.00000000000E+00 -0.15580470041E+00  0.40474920980E+04  0.40474920950E+04 0.  0.
        5    1    3    3  502    0  0.19809143178E+04  0.27101255091E+03  0.31306206258E+03  0.20237339950E+04  0.46999998093E+01 0.  1.
       -5    1    3    3    0  502 -0.19809143178E+04 -0.27101255091E+03 -0.31321786728E+03  0.20237581031E+04  0.46999998093E+01 0. -1.
</event>
<event>
 5   0  0.7570277E-07  0.2963642E+04  0.7818609E-02  0.8254190E-01
        2   -1    0    0  501    0  0.00000000000E+00  0.00000000000E+00  0.11574073131E+04  0.11574073131E+04  0.25500000920E-02 0. -1.
       -2   -1    0    0    0  501  0.00000000000E+00  0.00000000000E+00 -0.18971656014E+04  0.18971656014E+04  0.25500000920E-02 0.  1.
    10030    2    1    2    0    0  0.00000000000E+00  0.00000000000E+00 -0.73975828829E+03  0.30545729146E+04  0.29636419091E+04 0.  0.
        5    1    3    3  502    0 -0.93019855163E+03  0.10963182963E+03 -0.15533620733E+04  0.18139030582E+04  0.46999998093E+01 0.  1.
       -5    1    3    3    0  502  0.93019855163E+03 -0.10963182963E+03  0.81360378504E+03  0.12406698564E+04  0.46999998093E+01 0. -1.
</event>
<event>
 5   0  0.4034531E-07  0.2075261E+04  0.7818609E-02  0.8572220E-01
       -1   -1    0    0    0  501  0.00000000000E+00  0.00000000000E+00  0.65275433222E+03  0.65275433224E+03  0.50400001928E-02 0.  1.
        1   -1    0    0  501    0  0.00000000000E+00  0.00000000000E+00 -0.16494369781E+04  0.16494369781E+04  0.50400001928E-02 0. -1.
    10030    2    1    2    0    0  0.00000000000E+00  0.00000000000E+00 -0.99668264584E+03  0.23021913103E+04  0.20752610758E+04 0.  0.
        1    1    3    3  502    0 -0.82927500745E+03  0.32071826481E+03  0.95052053723E+02  0.89419915919E+03  0.50400001928E-02 0.  1.
       -1    1    3    3    0  502  0.82927500745E+03 -0.32071826481E+03 -0.10917346996E+04  0.14079921511E+04  0.50400001928E-02 0. -1.
</event>
<event>
 5   0  0.4449262E-07  0.4145231E+04  0.7818609E-02  0.7975873E-01
        2   -1    0    0  501    0  0.00000000000E+00  0.00000000000E+00  0.20944428736E+04  0.20944428736E+04  0.25500000920E-02 0. -1.
       -2   -1    0    0    0  501  0.00000000000E+00  0.00000000000E+00 -0.20510154031E+04  0.20510154031E+04  0.25500000920E-02 0.  1.
    10030    2    1    2    0    0  0.00000000000E+00  0.00000000000E+00  0.43427470459E+02  0.41454582767E+04  0.41452307992E+04 0.  0.
        1    1    3    3  502    0  0.13631725950E+04 -0.11612113127E+03 -0.15352952582E+04  0.20564180438E+04  0.50400001928E-02 0.  1.
       -1    1    3    3    0  502 -0.13631725950E+04  0.11612113127E+03  0.15787227287E+04  0.20890402329E+04  0.50400001928E-02 0. -1.
</event>
<event>
 5   0  0.2601252E-07  0.3610795E+04  0.7818609E-02  0.8088023E-01
       -1   -1    0    0    0  501  0.00000000000E+00  0.00000000000E+00  0.15919471088E+04  0.15919471088E+04  0.50400001928E-02 0. -1.
        1   -1    0    0  501    0  0.00000000000E+00  0.00000000000E+00 -0.20474681500E+04  0.20474681500E+04  0.50400001928E-02 0.  1.
    10030    2    1    2    0    0  0.00000000000E+00  0.00000000000E+00 -0.45552104127E+03  0.36394152588E+04  0.36107954812E+04 0.  0.
        3    1    3    3  502    0 -0.29672249807E+03  0.11921519729E+04 -0.15611940551E+04  0.19866045040E+04  0.10100000352E+00 0.  1.
       -3    1    3    3    0  502  0.29672249807E+03 -0.11921519729E+04  0.11056730139E+04  0.16528107548E+04  0.10100000352E+00 0. -1.
</event>
<event>
 5   0  0.7570277E-07  0.4081153E+04  0.7818609E-02  0.7988372E-01
        2   -1    0    0  501    0  0.00000000000E+00  0.00000000000E+00  0.22705498843E+04  0.22705498843E+04  0.25500000920E-02 0. -1.
       -2   -1    0    0    0  501  0.00000000000E+00  0.00000000000E+00 -0.18338964419E+04  0.18338964419E+04  0.25500000920E-02 0.  1.
    10030    2    1    2    0    0  0.00000000000E+00  0.00000000000E+00  0.43665344240E+03  0.41044463263E+04  0.40811534419E+04 0.  0.
        5    1    3    3  502    0 -0.65544491319E+03 -0.14167177437E+03 -0.17199124218E+04  0.18460226852E+04  0.46999998093E+01 0.  1.
       -5    1    3    3    0  502  0.65544491319E+03  0.14167177437E+03  0.21565658642E+04  0.22584236410E+04  0.46999998093E+01 0. -1.
</event>
<event>
 5   0  0.4449262E-07  0.3983823E+04  0.7818609E-02  0.8007818E-01
        2   -1    0    0  501    0  0.00000000000E+00  0.00000000000E+00  0.23748551763E+04  0.23748551763E+04  0.25500000920E-02 0.  1.
       -2   -1    0    0    0  501  0.00000000000E+00  0.00000000000E+00 -0.16707173674E+04  0.16707173674E+04  0.25500000920E-02 0. -1.
    10030    2    1    2    0    0  0.00000000000E+00  0.00000000000E+00  0.70413780887E+03  0.40455725437E+04  0.39838231829E+04 0.  0.
        1    1    3    3  502    0  0.19522659093E+04 -0.25866557528E+03  0.65580652013E+03  0.20756522474E+04  0.50400001928E-02 0.  1.
       -1    1    3    3    0  502 -0.19522659093E+04  0.25866557528E+03  0.48331288740E+02  0.19699202963E+04  0.50400001928E-02 0. -1.
</event>
<event>
 5   0  0.6043512E-07  0.4069377E+04  0.7818609E-02  0.7990695E-01
       -2   -1    0    0    0  501  0.00000000000E+00  0.00000000000E+00  0.23827762025E+04  0.23827762025E+04  0.25500000920E-02 0. -1.
        2   -1    0    0  501    0  0.00000000000E+00  0.00000000000E+00 -0.17374513020E+04  0.17374513020E+04  0.25500000920E-02 0.  1.
    10030    2    1    2    0    0  0.00000000000E+00  0.00000000000E+00  0.64532490044E+03  0.41202275045E+04  0.40693771589E+04 0.  0.
        3    1    3    3  502    0  0.41605626630E+03  0.19720667929E+04  0.60508773433E+03  0.21043482194E+04  0.10100000352E+00 0. -1.
       -3    1    3    3    0  502 -0.41605626630E+03 -0.19720667929E+04  0.40237166114E+02  0.20158792851E+04  0.10100000352E+00 0.  1.
</event>
<event>
 5   0  0.6043512E-07  0.3926414E+04  0.7818609E-02  0.8019558E-01
        2   -1    0    0  501    0  0.00000000000E+00  0.00000000000E+00  0.10205718403E+04  0.10205718403E+04  0.25500000920E-02 0. -1.
       -2   -1    0    0    0  501  0.00000000000E+00  0.00000000000E+00 -0.37764927855E+04  0.37764927855E+04  0.25500000920E-02 0.  1.
    10030    2    1    2    0    0  0.00000000000E+00  0.00000000000E+00 -0.27559209452E+04  0.47970646258E+04  0.39264142380E+04 0.  0.
        3    1    3    3  502    0 -0.12265893279E+04  0.89593540208E+03  0.14160379922E+03  0.15255403208E+04  0.10100000352E+00 0. -1.
       -3    1    3    3    0  502  0.12265893279E+04 -0.89593540208E+03 -0.28975247444E+04  0.32715243051E+04  0.10100000352E+00 0.  1.
</event>
<event>
 5   0  0.6043512E-07  0.4099156E+04  0.7818609E-02  0.7984837E-01
       -2   -1    0    0    0  501  0.00000000000E+00  0.00000000000E+00  0.17103056214E+04  0.17103056214E+04  0.25500000920E-02 0. -1.
        2   -1    0    0  501    0  0.00000000000E+00  0.00000000000E+00 -0.24561519510E+04  0.24561519510E+04  0.25500000920E-02 0.  1.
    10030    2    1    2    0    0  0.00000000000E+00  0.00000000000E+00 -0.74584632960E+03  0.41664575725E+04  0.40991562493E+04 0.  0.
        3    1    3    3  502    0  0.10289481110E+03 -0.31762290075E+03 -0.24283258284E+04  0.24511707383E+04  0.10100000352E+00 0.  1.
       -3    1    3    3    0  502 -0.10289481110E+03  0.31762290075E+03  0.16824794988E+04  0.17152868342E+04  0.10100000352E+00 0. -1.
</event>
<event>
 5   0  0.5161550E-07  0.2092426E+04  0.7818609E-02  0.8564587E-01
        2   -1    0    0  501    0  0.00000000000E+00  0.00000000000E+00  0.89709103115E+03  0.89709103116E+03  0.25500000920E-02 0.  1.
       -2   -1    0    0    0  501  0.00000000000E+00  0.00000000000E+00 -0.12201229246E+04  0.12201229246E+04  0.25500000920E-02 0. -1.
    10030    2    1    2    0    0  0.00000000000E+00  0.00000000000E+00 -0.32303189344E+03  0.21172139558E+04  0.20924257048E+04 0.  0.
        2    1    3    3  502    0  0.49323873677E+03 -0.66451107504E+03  0.48614647132E+03  0.95979050416E+03  0.25500000920E-02 0.  1.
       -2    1    3    3    0  502 -0.49323873677E+03  0.66451107504E+03 -0.80917836476E+03  0.11574234516E+04  0.25500000920E-02 0. -1.
</event>
<event>
 5   0  0.5161550E-07  0.4027202E+04  0.7818609E-02  0.7999081E-01
       -2   -1    0    0    0  501  0.00000000000E+00  0.00000000000E+00  0.14712418493E+04  0.14712418493E+04  0.25500000920E-02 0. -1.
        2   -1    0    0  501    0  0.00000000000E+00  0.00000000000E+00 -0.27558953770E+04  0.27558953770E+04  0.25500000920E-02 0.  1.
    10030    2    1    2    0    0  0.00000000000E+00  0.00000000000E+00 -0.12846535277E+04  0.42271372263E+04  0.40272018132E+04 0.  0.
        2    1    3    3  502    0  0.77133774134E+03 -0.18311375339E+04 -0.29968192150E+03  0.20094366955E+04  0.25500000920E-02 0.  1.
       -2    1    3    3    0  502 -0.77133774134E+03  0.18311375339E+04 -0.98497160617E+03  0.22177005308E+04  0.25500000920E-02 0. -1.
</event>
<event>
 5   0  0.4449262E-07  0.3944124E+04  0.7818609E-02  0.8015914E-01
        2   -1    0    0  501    0  0.00000000000E+00  0.00000000000E+00  0.27555043057E+04  0.27555043057E+04  0.25500000920E-02 0.  1.
       -2   -1    0    0    0  501  0.00000000000E+00  0.00000000000E+00 -0.14113672071E+04  0.14113672071E+04  0.25500000920E-02 0. -1.
    10030    2    1    2    0    0  0.00000000000E+00  0.00000000000E+00  0.13441370986E+04  0.41668715128E+04  0.39441239413E+04 0.  0.
        1    1    3    3  502    0  0.32355471972E+02  0.19421877957E+04  0.10317176570E+04  0.21994503027E+04  0.50400001928E-02 0.  1.
       -1    1    3    3    0  502 -0.32355471972E+02 -0.19421877957E+04  0.31241944154E+03  0.19674212101E+04  0.50400001928E-02 0. -1.
</event>
<event>
 5   0  0.6043512E-07  0.2926456E+04  0.7818609E-02  0.8265049E-01
       -2   -1    0    0    0  501  0.00000000000E+00  0.00000000000E+00  0.11440075483E+04  0.11440075483E+04  0.25500000920E-02 0.  1.
        2   -1    0    0  501    0  0.00000000000E+00  0.00000000000E+00 -0.18715225774E+04  0.18715225774E+04  0.25500000920E-02 0. -1.
    10030    2    1    2    0    0  0.00000000000E+00  0.00000000000E+00 -0.72751502903E+03  0.30155301257E+04  0.29264558465E+04 0.  0.
        3    1    3    3  502    0 -0.19805349929E+03 -0.90050060548E+03 -0.15345221077E+04  0.17902191593E+04  0.10100000352E+00 0. -1.
       -3    1    3    3    0  502  0.19805349929E+03  0.90050060548E+03  0.80700707871E+03  0.12253109664E+04  0.10100000352E+00 0.  1.
</event>
<event>
 5   0  0.7256473E-07  0.2294443E+04  0.7818609E-02  0.8480115E-01
       -2   -1    0    0    0  501  0.00000000000E+00  0.00000000000E+00  0.16300635850E+04  0.16300635850E+04  0.25500000920E-02 0.  1.
        2   -1    0    0  501    0  0.00000000000E+00  0.00000000000E+00 -0.80740250142E+03  0.80740250143E+03  0.25500000920E-02 0. -1.
    10030    2    1    2    0    0  0.00000000000E+00  0.00000000000E+00  0.82266108360E+03  0.24374660865E+04  0.22944432144E+04 0.  0.
        4    1    3    3  502    0  0.78411793903E+03  0.58393236134E+03  0.10489948491E+04  0.14339490058E+04  0.12699999809E+01 0.  1.
       -4    1    3    3    0  502 -0.78411793903E+03 -0.58393236134E+03 -0.22633376546E+03  0.10035170807E+04  0.12699999809E+01 0. -1.
</event>
<event>
 5   0  0.2401125E-07  0.4224178E+04  0.7818609E-02  0.7960789E-01
       -1   -1    0    0    0  501  0.00000000000E+00  0.00000000000E+00  0.15487449133E+04  0.15487449133E+04  0.50400001928E-02 0. -1.
        1   -1    0    0  501    0  0.00000000000E+00  0.00000000000E+00 -0.28803451280E+04  0.28803451280E+04  0.50400001928E-02 0.  1.
    10030    2    1    2    0    0  0.00000000000E+00  0.00000000000E+00 -0.13316002146E+04  0.44290900413E+04  0.42241779629E+04 0.  0.
        5    1    3    3  502    0  0.13218152597E+04 -0.78596066680E+03  0.85217492845E+03  0.17581677819E+04  0.46999998093E+01 0. -1.
       -5    1    3    3    0  502 -0.13218152597E+04  0.78596066680E+03 -0.21837751431E+04  0.26709222594E+04  0.46999998093E+01 0.  1.
</event>
<event>
 5   0  0.4449262E-07  0.3976645E+04  0.7818609E-02  0.8009275E-01
        2   -1    0    0  501    0  0.00000000000E+00  0.00000000000E+00  0.21184812718E+04  0.21184812718E+04  0.25500000920E-02 0.  1.
       -2   -1    0    0    0  501  0.00000000000E+00  0.00000000000E+00 -0.18661608328E+04  0.18661608328E+04  0.25500000920E-02 0. -1.
    10030    2    1    2    0    0  0.00000000000E+00  0.00000000000E+00  0.25232043899E+03  0.39846421045E+04  0.39766452064E+04 0.  0.
        1    1    3    3  502    0  0.83156711382E+03 -0.17760626454E+04  0.45472875098E+03  0.20131270755E+04  0.50400001928E-02 0.  1.
       -1    1    3    3    0  502 -0.83156711382E+03  0.17760626454E+04 -0.20240831199E+03  0.19715150291E+04  0.50400001928E-02 0. -1.
</event>
<event>
 5   0  0.7570277E-07  0.3860265E+04  0.7818609E-02  0.8033344E-01
        2   -1    0    0  501    0  0.00000000000E+00  0.00000000000E+00  0.16768146565E+04  0.16768146565E+04  0.25500000920E-02 0. -1.
       -2   -1    0    0    0  501  0.00000000000E+00  0.00000000000E+00 -0.22217193431E+04  0.22217193431E+04  0.25500000920E-02 0.  1.
    10030    2    1    2    0    0  0.00000000000E+00  0.00000000000E+00 -0.54490468657E+03  0.38985339996E+04  0.38602650464E+04 0.  0.
        5    1    3    3  502    0  0.72809391690E+03  0.21670806046E+03  0.15194844760E+04  0.16988049618E+04  0.46999998093E+01 0. -1.
       -5    1    3    3    0  502 -0.72809391690E+03 -0.21670806046E+03 -0.20643891626E+04  0.21997290378E+04  0.46999998093E+01 0.  1.
</event>
<event>
 5   0  0.4449262E-07  0.3987945E+04  0.7818609E-02  0.8006983E-01
        2   -1    0    0  501    0  0.00000000000E+00  0.00000000000E+00  0.22481543333E+04  0.22481543333E+04  0.25500000920E-02 0.  1.
       -2   -1    0    0    0  501  0.00000000000E+00  0.00000000000E+00 -0.17685287807E+04  0.17685287807E+04  0.25500000920E-02 0. -1.
    10030    2    1    2    0    0  0.00000000000E+00  0.00000000000E+00  0.47962555261E+03  0.40166831141E+04  0.39879446546E+04 0.  0.
        1    1    3    3  502    0  0.16966427975E+04  0.11585410352E+03 -0.80879819121E+03  0.18831286387E+04  0.50400001928E-02 0. -1.
       -1    1    3    3    0  502 -0.16966427975E+04 -0.11585410352E+03  0.12884237438E+04  0.21335544754E+04  0.50400001928E-02 0.  1.
</event>
<event>
 5   0  0.2647879E-07  0.2651880E+04  0.7818609E-02  0.8350789E-01
       -1   -1    0    0    0  501  0.00000000000E+00  0.00000000000E+00  0.11469365810E+04  0.11469365810E+04  0.50400001928E-02 0. -1.
        1   -1    0    0  501    0  0.00000000000E+00  0.00000000000E+00 -0.15328807607E+04  0.15328807607E+04  0.50400001928E-02 0.  1.
    10030    2    1    2    0    0  0.00000000000E+00  0.00000000000E+00 -0.38594417969E+03  0.26798173417E+04  0.26518801019E+04 0.  0.
        2    1    3    3  502    0  0.25404368942E+03 -0.84331388189E+03 -0.11945750519E+04  0.14841583656E+04  0.25500000920E-02 0.  1.
       -2    1    3    3    0  502 -0.25404368942E+03  0.84331388189E+03  0.80863087224E+03  0.11956589761E+04  0.25500000920E-02 0. -1.
</event>
<event>
 5   0  0.3579559E-07  0.2795655E+04  0.7818609E-02  0.8304619E-01
        1   -1    0    0  501    0  0.00000000000E+00  0.00000000000E+00  0.14438521279E+04  0.14438521279E+04  0.50400001928E-02 0. -1.
       -1   -1    0    0    0  501  0.00000000000E+00  0.00000000000E+00 -0.13532700448E+04  0.13532700448E+04  0.50400001928E-02 0.  1.
    10030    2    1    2    0    0  0.00000000000E+00  0.00000000000E+00  0.90582083136E+02  0.27971221727E+04  0.27956550816E+04 0.  0.
        4    1    3    3  502    0  0.53018533460E+03  0.82518000233E+03  0.10417563044E+04  0.14308306455E+04  0.12699999809E+01 0. -1.
       -4    1    3    3    0  502 -0.53018533460E+03 -0.82518000233E+03 -0.95117422131E+03  0.13662915273E+04  0.12699999809E+01 0.  1.
</event>
<event>
 5   0  0.2401125E-07  0.4256669E+04  0.7818609E-02  0.7954679E-01
        1   -1    0    0  501    0  0.00000000000E+00  0.00000000000E+00  0.21295290922E+04  0.21295290922E+04  0.50400001928E-02 0. -1.
       -1   -1    0    0    0  501  0.00000000000E+00  0.00000000000E+00 -0.21271402485E+04  0.21271402485E+04  0.50400001928E-02 0.  1.
    10030    2    1    2    0    0  0.00000000000E+00  0.00000000000E+00  0.23888436484E+01  0.42566693407E+04  0.42566686704E+04 0.  0.
        5    1    3    3  502    0  0.83800112351E+03 -0.17969441854E+04  0.77484217911E+03  0.21287688416E+04  0.46999998093E+01 0. -1.
       -5    1    3    3    0  502 -0.83800112351E+03  0.17969441854E+04 -0.77245333546E+03  0.21279004991E+04  0.46999998093E+01 0.  1.
</event>
<event>
 5   0  0.7256473E-07  0.3989334E+04  0.7818609E-02  0.8006702E-01
        2   -1    0    0  501    0  0.00000000000E+00  0.00000000000E+00  0.27320631108E+04  0.27320631108E+04  0.25500000920E-02 0. -1.
       -2   -1    0    0    0  501  0.00000000000E+00  0.00000000000E+00 -0.14562974525E+04  0.14562974525E+04  0.25500000920E-02 0.  1.
    10030    2    1    2    0    0  0.00000000000E+00  0.00000000000E+00  0.12757656583E+04  0.41883605633E+04  0.39893340538E+04 0.  0.
        4    1    3    3  502    0 -0.18606018165E+04  0.48322397076E+03  0.79019542950E+02  0.19239517214E+04  0.12699999809E+01 0.  1.
       -4    1    3    3    0  502  0.18606018165E+04 -0.48322397076E+03  0.11967461154E+04  0.22644088418E+04  0.12699999809E+01 0. -1.
</event>
<event>
 5   0  0.7570277E-07  0.2326207E+04  0.7818609E-02  0.8467659E-01
        2   -1    0    0  501    0  0.00000000000E+00  0.00000000000E+00  0.14933129324E+04  0.14933129324E+04  0.25500000920E-02 0. -1.
       -2   -1    0    0    0  501  0.00000000000E+00  0.00000000000E+00 -0.90591152862E+03  0.90591152863E+03  0.25500000920E-02 0.  1.
    10030    2    1    2    0    0  0.00000000000E+00  0.00000000000E+00  0.58740140373E+03  0.23992244610E+04  0.23262066987E+04 0.  0.
        5    1    3    3  502    0  0.89641095346E+02 -0.11294400479E+04  0.56485400759E+03  0.12659986128E+04  0.46999998093E+01 0. -1.
       -5    1    3    3    0  502 -0.89641095346E+02  0.11294400479E+04  0.22547396144E+02  0.11332258481E+04  0.46999998093E+01 0.  1.
</event>
<event>
 5   0  0.5403555E-07  0.2063180E+04  0.7818609E-02  0.8577639E-01
        2   -1    0    0  501    0  0.00000000000E+00  0.00000000000E+00  0.18847276113E+04  0.18847276113E+04  0.25500000920E-02 0. -1.
       -2   -1    0    0    0  501  0.00000000000E+00  0.00000000000E+00 -0.56463208276E+03  0.56463208276E+03  0.25500000920E-02 0.  1.
    10030    2    1    2    0    0  0.00000000000E+00  0.00000000000E+00  0.13200955286E+04  0.24493596941E+04  0.20631797562E+04 0.  0.
        2    1    3    3  502    0  0.84792566750E+03  0.12498138729E+02  0.13574004000E+04  0.16005217858E+04  0.25500000920E-02 0. -1.
       -2    1    3    3    0  502 -0.84792566750E+03 -0.12498138729E+02 -0.37304871401E+02  0.84883790826E+03  0.25500000920E-02 0.  1.
</event>
<event>
 5   0  0.2401125E-07  0.2092131E+04  0.7818609E-02  0.8564718E-01
       -1   -1    0    0    0  501  0.00000000000E+00  0.00000000000E+00  0.11188225517E+04  0.11188225517E+04  0.50400001928E-02 0.  1.
        1   -1    0    0  501    0  0.00000000000E+00  0.00000000000E+00 -0.97804013034E+03  0.97804013036E+03  0.50400001928E-02 0. -1.
    10030    2    1    2    0    0  0.00000000000E+00  0.00000000000E+00  0.14078242134E+03  0.20968626821E+04  0.20921313097E+04 0.  0.
        5    1    3    3  502    0 -0.82549793145E+03 -0.14987353985E+03  0.69656194000E+03  0.10904721633E+04  0.46999998093E+01 0.  1.
       -5    1    3    3    0  502  0.82549793145E+03  0.14987353985E+03 -0.55577951866E+03  0.10063905187E+04  0.46999998093E+01 0. -1.
</event>
<event>
 5   0  0.2401125E-07  0.3997490E+04  0.7818609E-02  0.8005053E-01
       -1   -1    0    0    0  501  0.00000000000E+00  0.00000000000E+00  0.27699549175E+04  0.27699549175E+04  0.50400001928E-02 0.  1.
        1   -1    0    0  501    0  0.00000000000E+00  0.00000000000E+00 -0.14422553261E+04  0.14422553261E+04  0.50400001928E-02 0. -1.
    10030    2    1    2    0    0  0.00000000000E+00  0.00000000000E+00  0.13276995913E+04  0.42122102436E+04  0.39974903291E+04 0.  0.
        5    1    3    3  502    0 -0.18145252274E+03 -0.19902616666E+04  0.69534902337E+03  0.21160337601E+04  0.46999998093E+01 0.  1.
       -5    1    3    3    0  502  0.18145252274E+03  0.19902616666E+04  0.63235056797E+03  0.20961764836E+04  0.46999998093E+01 0. -1.
</event>
<event>
 5   0  0.4449262E-07  0.2098282E+04  0.7818609E-02  0.8562001E-01
       -2   -1    0    0    0  501  0.00000000000E+00  0.00000000000E+00  0.84630847504E+03  0.84630847504E+03  0.25500000920E-02 0. -1.
        2   -1    0    0  501    0  0.00000000000E+00  0.00000000000E+00 -0.13005852907E+04  0.13005852907E+04  0.25500000920E-02 0.  1.
    10030    2    1    2    0    0  0.00000000000E+00  0.00000000000E+00 -0.45427681568E+03  0.21468937658E+04  0.20982815388E+04 0.  0.
        1    1    3    3  502    0 -0.64152338346E+02 -0.35471733607E+02  0.84368490377E+03  0.84686361551E+03  0.50400001928E-02 0. -1.
       -1    1    3    3    0  502  0.64152338346E+02  0.35471733607E+02 -0.12979617195E+04  0.13000301503E+04  0.50400001928E-02 0.  1.
</event>
<event>
 5   0  0.6043512E-07  0.3580224E+04  0.7818609E-02  0.8095037E-01
       -2   -1    0    0    0  501  0.00000000000E+00  0.00000000000E+00  0.17260824602E+04  0.17260824602E+04  0.25500000920E-02 0. -1.
        2   -1    0    0  501    0  0.00000000000E+00  0.00000000000E+00 -0.18565167475E+04  0.18565167475E+04  0.25500000920E-02 0.  1.
    10030    2    1    2    0    0  0.00000000000E+00  0.00000000000E+00 -0.13043428722E+03  0.35825992077E+04  0.35802240125E+04 0.  0.
        3    1    3    3  502    0  0.16684342609E+04  0.60298498712E+03 -0.30461884995E+03  0.18000156754E+04  0.10100000352E+00 0.  1.
       -3    1    3    3    0  502 -0.16684342609E+04 -0.60298498712E+03  0.17418456273E+03  0.17825835323E+04  0.10100000352E+00 0. -1.
</event>
<event>
 5   0  0.7570277E-07  0.3912047E+04  0.7818609E-02  0.8022528E-01
        2   -1    0    0  501    0  0.00000000000E+00  0.00000000000E+00  0.23300782009E+04  0.23300782009E+04  0.25500000920E-02 0. -1.
       -2   -1    0    0    0  501  0.00000000000E+00  0.00000000000E+00 -0.16420168551E+04  0.16420168551E+04  0.25500000920E-02 0.  1.
    10030    2    1    2    0    0  0.00000000000E+00  0.00000000000E+00  0.68806134575E+03  0.39720950560E+04  0.39120468707E+04 0.  0.
        5    1    3    3  502    0  0.11415316322E+04 -0.76978882021E+03  0.17547222451E+04  0.22304128637E+04  0.46999998093E+01 0. -1.
       -5    1    3    3    0  502 -0.11415316322E+04  0.76978882021E+03 -0.10666608993E+04  0.17416821923E+04  0.46999998093E+01 0.  1.
</event>
<event>
 5   0  0.2647879E-07  0.2405523E+04  0.7818609E-02  0.8437439E-01
        1   -1    0    0  501    0  0.00000000000E+00  0.00000000000E+00  0.15441806084E+04  0.15441806084E+04  0.50400001928E-02 0. -1.
       -1   -1    0    0    0  501  0.00000000000E+00  0.00000000000E+00 -0.93683060338E+03  0.93683060339E+03  0.50400001928E-02 0.  1.
    10030    2    1    2    0    0  0.00000000000E+00  0.00000000000E+00  0.60735000505E+03  0.24810112118E+04  0.24055233536E+04 0.  0.
        2    1    3    3  502    0  0.14365489266E+03  0.15435176652E+03  0.15249688655E+04  0.15394775857E+04  0.25500000920E-02 0. -1.
       -2    1    3    3    0  502 -0.14365489266E+03 -0.15435176652E+03 -0.91761886049E+03  0.94153362613E+03  0.25500000920E-02 0.  1.
</event>
<event>
 5   0  0.7256473E-07  0.3378064E+04  0.7818609E-02  0.8143311E-01
       -2   -1    0    0    0  501  0.00000000000E+00  0.00000000000E+00  0.17496873695E+04  0.17496873695E+04  0.25500000920E-02 0. -1.
        2   -1    0    0  501    0  0.00000000000E+00  0.00000000000E+00 -0.16304796566E+04  0.16304796566E+04  0.25500000920E-02 0.  1.
    10030    2    1    2    0    0  0.00000000000E+00  0.00000000000E+00  0.11920771291E+03  0.33801670261E+04  0.33780643342E+04 0.  0.
        4    1    3    3  502    0  0.22767645064E+03  0.64944536513E+03 -0.14838257744E+04  0.16356516714E+04  0.12699999809E+01 0.  1.
       -4    1    3    3    0  502 -0.22767645064E+03 -0.64944536513E+03  0.16030334873E+04  0.17445153547E+04  0.12699999809E+01 0. -1.
</event>
<event>
 5   0  0.4449262E-07  0.4051323E+04  0.7818609E-02  0.7994272E-01
        2   -1    0    0  501    0  0.00000000000E+00  0.00000000000E+00  0.18243670062E+04  0.18243670062E+04  0.25500000920E-02 0. -1.
       -2   -1    0    0    0  501  0.00000000000E+00  0.00000000000E+00 -0.22491664715E+04  0.22491664715E+04  0.25500000920E-02 0.  1.
    10030    2    1    2    0    0  0.00000000000E+00  0.00000000000E+00 -0.42479946537E+03  0.40735334777E+04  0.40513232910E+04 0.  0.
        1    1    3    3  502    0 -0.14960531766E+04  0.10883020598E+04 -0.10419856950E+04  0.21232782835E+04  0.50400001928E-02 0.  1.
       -1    1    3    3    0  502  0.14960531766E+04 -0.10883020598E+04  0.61718622968E+03  0.19502551942E+04  0.50400001928E-02 0. -1.
</event>
<event>
 5   0  0.3579559E-07  0.3989287E+04  0.7818609E-02  0.8006711E-01
        1   -1    0    0  501    0  0.00000000000E+00  0.00000000000E+00  0.17411603940E+04  0.17411603940E+04  0.50400001928E-02 0. -1.
       -1   -1    0    0    0  501  0.00000000000E+00  0.00000000000E+00 -0.22850294266E+04  0.22850294266E+04  0.50400001928E-02 0.  1.
    10030    2    1    2    0    0  0.00000000000E+00  0.00000000000E+00 -0.54386903263E+03  0.40261898206E+04  0.39892870223E+04 0.  0.
        4    1    3    3  502    0  0.80412866016E+02  0.30637176703E+03  0.17156154334E+04  0.17446110790E+04  0.12699999809E+01 0. -1.
       -4    1    3    3    0  502 -0.80412866016E+02 -0.30637176703E+03 -0.22594844661E+04  0.22815787416E+04  0.12699999809E+01 0.  1.
</event>
<event>
 5   0  0.2713405E-07  0.2096083E+04  0.7818609E-02  0.8562971E-01
        1   -1    0    0  501    0  0.00000000000E+00  0.00000000000E+00  0.13514008884E+04  0.13514008884E+04  0.50400001928E-02 0.  1.
       -1   -1    0    0    0  501  0.00000000000E+00  0.00000000000E+00 -0.81277944688E+03  0.81277944690E+03  0.50400001928E-02 0. -1.
    10030    2    1    2    0    0  0.00000000000E+00  0.00000000000E+00  0.53862144154E+03  0.21641803353E+04  0.20960828864E+04 0.  0.
        1    1    3    3  502    0  0.47960430989E+03  0.92735234171E+03  0.36387335477E+03  0.11056249265E+04  0.50400001928E-02 0.  1.
       -1    1    3    3    0  502 -0.47960430989E+03 -0.92735234171E+03  0.17474808678E+03  0.10585554088E+04  0.50400001928E-02 0. -1.
</event>
<event>
 5   0  0.7570277E-07  0.3973125E+04  0.7818609E-02  0.8009990E-01
       -2   -1    0    0    0  501  0.00000000000E+00  0.00000000000E+00  0.27587260784E+04  0.27587260785E+04  0.25500000920E-02 0. -1.
        2   -1    0    0  501    0  0.00000000000E+00  0.00000000000E+00 -0.14305264140E+04  0.14305264140E+04  0.25500000920E-02 0.  1.
    10030    2    1    2    0    0  0.00000000000E+00  0.00000000000E+00  0.13281996644E+04  0.41892524925E+04  0.39731249788E+04 0.  0.
        5    1    3    3  502    0 -0.28881823758E+03 -0.33424034911E+03 -0.13780791905E+04  0.14471547707E+04  0.46999998093E+01 0.  1.
       -5    1    3    3    0  502  0.28881823758E+03  0.33424034911E+03  0.27062788549E+04  0.27420977217E+04  0.46999998093E+01 0. -1.
</event>
<event>
 5   0  0.7570277E-07  0.2445105E+04  0.7818609E-02  0.8422807E-01
       -2   -1    0    0    0  501  0.00000000000E+00  0.00000000000E+00  0.67120544055E+03  0.67120544055E+03  0.25500000920E-02 0. -1.
        2   -1    0    0  501    0  0.00000000000E+00  0.00000000000E+00 -0.22267922798E+04  0.22267922798E+04  0.25500000920E-02 0.  1.
    10030    2    1    2    0    0  0.00000000000E+00  0.00000000000E+00 -0.15555868392E+04  0.28979977203E+04  0.24451053909E+04 0.  0.
        5    1    3    3  502    0 -0.99085479522E+02  0.22035009812E+03 -0.21982046655E+04  0.22114470239E+04  0.46999998093E+01 0.  1.
       -5    1    3    3    0  502  0.99085479522E+02 -0.22035009812E+03  0.64261782634E+03  0.68655069639E+03  0.46999998093E+01 0. -1.
</event>
<event>
 5   0  0.6043512E-07  0.2162004E+04  0.7818609E-02  0.8534411E-01
       -2   -1    0    0    0  501  0.00000000000E+00  0.00000000000E+00  0.91294679473E+03  0.91294679473E+03  0.25500000920E-02 0. -1.
        2   -1    0    0  501    0  0.00000000000E+00  0.00000000000E+00 -0.12799933893E+04  0.12799933893E+04  0.25500000920E-02 0.  1.
    10030    2    1    2    0    0  0.00000000000E+00  0.00000000000E+00 -0.36704659457E+03  0.21929401840E+04  0.21620044977E+04 0.  0.
        3    1    3    3  502    0 -0.10709278583E+04 -0.93060969475E+02 -0.67789684941E+02  0.10770990081E+04  0.10100000352E+00 0. -1.
       -3    1    3    3    0  502  0.10709278583E+04  0.93060969475E+02 -0.29925690963E+03  0.11158411759E+04  0.10100000352E+00 0.  1.
</event>
<event>
 5   0  0.2601252E-07  0.3699902E+04  0.7818609E-02  0.8067984E-01
        1   -1    0    0  501    0  0.00000000000E+00  0.00000000000E+00  0.26758978591E+04  0.26758978592E+04  0.50400001928E-02 0. -1.
       -1   -1    0    0    0  501  0.00000000000E+00  0.00000000000E+00 -0.12789422126E+04  0.12789422126E+04  0.50400001928E-02 0.  1.
    10030    2    1    2    0    0  0.00000000000E+00  0.00000000000E+00  0.13969556465E+04  0.39548400718E+04  0.36999020142E+04 0.  0.
        3    1    3    3  502    0  0.15423154081E+04  0.10213416334E+04  0.67597572078E+03  0.19694716894E+04  0.10100000352E+00 0. -1.
       -3    1    3    3    0  502 -0.15423154081E+04 -0.10213416334E+04  0.72097992576E+03  0.19853683824E+04  0.10100000352E+00 0.  1.
</event>
<event>
 5   0  0.3034544E-07  0.2269330E+04  0.7818609E-02  0.8490113E-01
        1   -1    0    0  501    0  0.00000000000E+00  0.00000000000E+00  0.93638077224E+03  0.93638077225E+03  0.50400001928E-02 0. -1.
       -1   -1    0    0    0  501  0.00000000000E+00  0.00000000000E+00 -0.13749372093E+04  0.13749372093E+04  0.50400001928E-02 0.  1.
    10030    2    1    2    0    0  0.00000000000E+00  0.00000000000E+00 -0.43855643702E+03  0.23113179815E+04  0.22693300913E+04 0.  0.
        1    1    3    3  502    0 -0.31462502334E+03  0.37360417606E+03 -0.12623836221E+04  0.13535809526E+04  0.50400001928E-02 0.  1.
       -1    1    3    3    0  502  0.31462502334E+03 -0.37360417606E+03  0.82382718511E+03  0.95773702896E+03  0.50400001928E-02 0. -1.
</event>
<event>
 5   0  0.2601252E-07  0.3635391E+04  0.7818609E-02  0.8082433E-01
       -1   -1    0    0    0  501  0.00000000000E+00  0.00000000000E+00  0.11986068552E+04  0.11986068553E+04  0.50400001928E-02 0.  1.
        1   -1    0    0  501    0  0.00000000000E+00  0.00000000000E+00 -0.27565479099E+04  0.27565479099E+04  0.50400001928E-02 0. -1.
    10030    2    1    2    0    0  0.00000000000E+00  0.00000000000E+00 -0.15579410547E+04  0.39551547652E+04  0.36353911601E+04 0.  0.
        3    1    3    3  502    0 -0.65278167269E+03 -0.28065633350E+03 -0.25991889550E+04  0.26945639951E+04  0.10100000352E+00 0. -1.
       -3    1    3    3    0  502  0.65278167269E+03  0.28065633350E+03  0.10412479003E+04  0.12605907701E+04  0.10100000352E+00 0.  1.
</event>
<event>
 5   0  0.2647879E-07  0.2591750E+04  0.7818609E-02  0.8371009E-01
        1   -1    0    0  501    0  0.00000000000E+00  0.00000000000E+00  0.23416176605E+04  0.23416176605E+04  0.50400001928E-02 0. -1.
       -1   -1    0    0    0  501  0.00000000000E+00  0.00000000000E+00 -0.71715041659E+03  0.71715041661E+03  0.50400001928E-02 0.  1.
    10030    2    1    2    0    0  0.00000000000E+00  0.00000000000E+00  0.16244672439E+04  0.30587680771E+04  0.25917500503E+04 0.  0.
        2    1    3    3  502    0  0.60988890173E+03  0.21441802107E+03  0.21377090255E+04  0.22333247498E+04  0.25500000920E-02 0. -1.
       -2    1    3    3    0  502 -0.60988890173E+03 -0.21441802107E+03 -0.51324178161E+03  0.82544332732E+03  0.25500000920E-02 0.  1.
</event>
<event>
 5   0  0.5161550E-07  0.3966528E+04  0.7818609E-02  0.8011333E-01
       -2   -1    0    0    0  501  0.00000000000E+00  0.00000000000E+00  0.22286521327E+04  0.22286521327E+04  0.25500000920E-02 0. -1.
        2   -1    0    0  501    0  0.00000000000E+00  0.00000000000E+00 -0.17648945368E+04  0.17648945368E+04  0.25500000920E-02 0.  1.
    10030    2    1    2    0    0  0.00000000000E+00  0.00000000000E+00  0.46375759588E+03  0.39935466694E+04  0.39665279393E+04 0.  0.
        2    1    3    3  502    0 -0.11895931511E+04  0.15747545849E+04  0.42904971296E+03  0.20196701523E+04  0.25500000920E-02 0. -1.
       -2    1    3    3    0  502  0.11895931511E+04 -0.15747545849E+04  0.34707882921E+02  0.19738765172E+04  0.25500000920E-02 0.  1.
</event>
<event>
 5   0  0.4449262E-07  0.3968301E+04  0.7818609E-02  0.8010972E-01
        2   -1    0    0  501    0  0.00000000000E+00  0.00000000000E+00  0.16568583956E+04  0.16568583956E+04  0.25500000920E-02 0.  1.
       -2   -1    0    0    0  501  0.00000000000E+00  0.00000000000E+00 -0.23760947614E+04  0.23760947614E+04  0.25500000920E-02 0. -1.
    10030    2    1    2    0    0  0.00000000000E+00  0.00000000000E+00 -0.71923636574E+03  0.40329531570E+04  0.39683006712E+04 0.  0.
        1    1    3    3  502    0 -0.12609730233E+04  0.69947054709E+03 -0.17447393239E+04  0.22634989110E+04  0.50400001928E-02 0. -1.
       -1    1    3    3    0  502  0.12609730233E+04 -0.69947054709E+03  0.10255029582E+04  0.17694542460E+04  0.50400001928E-02 0.  1.
</event>
<event>
 5   0  0.2401125E-07  0.2538023E+04  0.7818609E-02  0.8389563E-01
       -1   -1    0    0    0  501  0.00000000000E+00  0.00000000000E+00  0.20481756239E+04  0.20481756239E+04  0.50400001928E-02 0. -1.
        1   -1    0    0  501    0  0.00000000000E+00  0.00000000000E+00 -0.78625610521E+03  0.78625610523E+03  0.50400001928E-02 0.  1.
    10030    2    1    2    0    0  0.00000000000E+00  0.00000000000E+00  0.12619195187E+04  0.28344317291E+04  0.25380233166E+04 0.  0.
        5    1    3    3  502    0  0.33320388693E+03  0.72703133300E+03  0.17313034751E+04  0.19071007321E+04  0.46999998093E+01 0. -1.
       -5    1    3    3    0  502 -0.33320388693E+03 -0.72703133300E+03 -0.46938395646E+03  0.92733099701E+03  0.46999998093E+01 0.  1.
</event>
<event>
 5   0  0.7570277E-07  0.4022998E+04  0.7818609E-02  0.7999923E-01
       -2   -1    0    0    0  501  0.00000000000E+00  0.00000000000E+00  0.18222793172E+04  0.18222793172E+04  0.25500000920E-02 0. -1.
        2   -1    0    0  501    0  0.00000000000E+00  0.00000000000E+00 -0.22203671501E+04  0.22203671501E+04  0.25500000920E-02 0.  1.
    10030    2    1    2    0    0  0.00000000000E+00  0.00000000000E+00 -0.39808783295E+03  0.40426464673E+04  0.40229984510E+04 0.  0.
        5    1    3    3  502    0  0.21609268073E+03 -0.15822762246E+04 -0.14280514419E+04  0.21423461691E+04  0.46999998093E+01 0.  1.
       -5    1    3    3    0  502 -0.21609268073E+03  0.15822762246E+04  0.10299636089E+04  0.19003002982E+04  0.46999998093E+01 0. -1.
</event>
<event>
 5   0  0.2713405E-07  0.2968119E+04  0.7818609E-02  0.8252894E-01
        1   -1    0    0  501    0  0.00000000000E+00  0.00000000000E+00  0.17682665341E+04  0.17682665341E+04  0.50400001928E-02 0.  1.
       -1   -1    0    0    0  501  0.00000000000E+00  0.00000000000E+00 -0.12455321749E+04  0.12455321749E+04  0.50400001928E-02 0. -1.
    10030    2    1    2    0    0  0.00000000000E+00  0.00000000000E+00  0.52273435924E+03  0.30137987090E+04  0.29681191769E+04 0.  0.
        1    1    3    3  502    0  0.73522834405E+03  0.12362610873E+04 -0.10967511631E+03  0.14425431796E+04  0.50400001928E-02 0.  1.
       -1    1    3    3    0  502 -0.73522834405E+03 -0.12362610873E+04  0.63240947555E+03  0.15712555294E+04  0.50400001928E-02 0. -1.
</event>
<event>
 5   0  0.5161550E-07  0.4105094E+04  0.7818609E-02  0.7983675E-01
        2   -1    0    0  501    0  0.00000000000E+00  0.00000000000E+00  0.15436861564E+04  0.15436861564E+04  0.25500000920E-02 0. -1.
       -2   -1    0    0    0  501  0.00000000000E+00  0.00000000000E+00 -0.27291494222E+04  0.27291494222E+04  0.25500000920E-02 0.  1.
    10030    2    1    2    0    0  0.00000000000E+00  0.00000000000E+00 -0.11854632658E+04  0.42728355786E+04  0.41050944846E+04 0.  0.
        2    1    3    3  502    0 -0.15287751501E+04 -0.11926372111E+04 -0.12936058852E+04  0.23308696152E+04  0.25500000920E-02 0.  1.
       -2    1    3    3    0  502  0.15287751501E+04  0.11926372111E+04  0.10814261938E+03  0.19419659634E+04  0.25500000920E-02 0. -1.
</event>
<event>
 5   0  0.4449262E-07  0.2413770E+04  0.7818609E-02  0.8434366E-01
       -2   -1    0    0    0  501  0.00000000000E+00  0.00000000000E+00  0.76303891275E+03  0.76303891276E+03  0.25500000920E-02 0.  1.
        2   -1    0    0  501    0  0.00000000000E+00  0.00000000000E+00 -0.19089090118E+04  0.19089090118E+04  0.25500000920E-02 0. -1.
    10030    2    1    2    0    0  0.00000000000E+00  0.00000000000E+00 -0.11458700991E+04  0.26719479246E+04  0.24137703759E+04 0.  0.
        1    1    3    3  502    0 -0.11264293767E+04 -0.42288387182E+03 -0.46851667063E+03  0.12911939360E+04  0.50400001928E-02 0. -1.
       -1    1    3    3    0  502  0.11264293767E+04  0.42288387182E+03 -0.67735342843E+03  0.13807539885E+04  0.50400001928E-02 0.  1.
</event>
<event>
 5   0  0.3579559E-07  0.2384619E+04  0.7818609E-02  0.8445284E-01
       -1   -1    0    0    0  501  0.00000000000E+00  0.00000000000E+00  0.10528295674E+04  0.10528295674E+04  0.50400001928E-02 0. -1.
        1   -1    0    0  501    0  0.00000000000E+00  0.00000000000E+00 -0.13502678978E+04  0.13502678978E+04  0.50400001928E-02 0.  1.
    10030    2    1    2    0    0  0.00000000000E+00  0.00000000000E+00 -0.29743833035E+03  0.24030974652E+04  0.23846190193E+04 0.  0.
        4    1    3    3  502    0 -0.83701382786E+03 -0.78355986331E+03 -0.47842739404E+03  0.12423576746E+04  0.12699999809E+01 0.  1.
       -4    1    3    3    0  502  0.83701382786E+03  0.78355986331E+03  0.18098906368E+03  0.11607397906E+04  0.12699999809E+01 0. -1.
</event>
<event>
 5   0  0.5161550E-07  0.2154668E+04  0.7818609E-02  0.8537537E-01
        2   -1    0    0  501    0  0.00000000000E+00  0.00000000000E+00  0.73479075150E+03  0.73479075150E+03  0.25500000920E-02 0. -1.
       -2   -1    0    0    0  501  0.00000000000E+00  0.00000000000E+00 -0.15795630685E+04  0.15795630685E+04  0.25500000920E-02 0.  1.
    10030    2    1    2    0    0  0.00000000000E+00  0.00000000000E+00 -0.84477231697E+03  0.23143538200E+04  0.21546678019E+04 0.  0.
        2    1    3    3  502    0 -0.81760880673E+03  0.14115863703E+03 -0.11605114529E+04  0.14266032223E+04  0.25500000920E-02 0.  1.
       -2    1    3    3    0  502  0.81760880673E+03 -0.14115863703E+03  0.31573913593E+03  0.88775059764E+03  0.25500000920E-02 0. -1.
</event>
<event>
 5   0  0.7570277E-07  0.3056655E+04  0.7818609E-02  0.8227735E-01
       -2   -1    0    0    0  501  0.00000000000E+00  0.00000000000E+00  0.11393612302E+04  0.11393612302E+04  0.25500000920E-02 0. -1.
        2   -1    0    0  501    0  0.00000000000E+00  0.00000000000E+00 -0.20500823094E+04  0.20500823094E+04  0.25500000920E-02 0.  1.
    10030    2    1    2    0    0  0.00000000000E+00  0.00000000000E+00 -0.91072107918E+03  0.31894435396E+04  0.30566545778E+04 0.  0.
        5    1    3    3  502    0  0.52325917351E+02  0.15210683808E+04 -0.60060231668E+03  0.16361944425E+04  0.46999998093E+01 0.  1.
       -5    1    3    3    0  502 -0.52325917351E+02 -0.15210683808E+04 -0.31011876250E+03  0.15532490971E+04  0.46999998093E+01 0. -1.
</event>
<event>
 5   0  0.2401125E-07  0.2778809E+04  0.7818609E-02  0.8309878E-01
        1   -1    0    0  501    0  0.00000000000E+00  0.00000000000E+00  0.11676197150E+04  0.11676197150E+04  0.50400001928E-02 0.  1.
       -1   -1    0    0    0  501  0.00000000000E+00  0.00000000000E+00 -0.16533167464E+04  0.16533167464E+04  0.50400001928E-02 0. -1.
    10030    2    1    2    0    0  0.00000000000E+00  0.00000000000E+00 -0.48569703136E+03  0.28209364615E+04  0.27788092618E+04 0.  0.
        5    1    3    3  502    0 -0.12588303019E+03 -0.17206345269E+03  0.11509078902E+04  0.11704970871E+04  0.46999998093E+01 0.  1.
       -5    1    3    3    0  502  0.12588303019E+03  0.17206345269E+03 -0.16366049216E+04  0.16504393744E+04  0.46999998093E+01 0. -1.
</event>
<event>
 5   0  0.2713405E-07  0.3348372E+04  0.7818609E-02  0.8150695E-01
        1   -1    0    0  501    0  0.00000000000E+00  0.00000000000E+00  0.19607196278E+04  0.19607196278E+04  0.50400001928E-02 0. -1.
       -1   -1    0    0    0  501  0.00000000000E+00  0.00000000000E+00 -0.14295255696E+04  0.14295255696E+04  0.50400001928E-02 0.  1.
    10030    2    1    2    0    0  0.00000000000E+00  0.00000000000E+00  0.53119405824E+03  0.33902451974E+04  0.33483720479E+04 0.  0.
        1    1    3    3  502    0 -0.82475942882E+03 -0.29538835012E+03 -0.11789245756E+04  0.14687905051E+04  0.50400001928E-02 0.  1.
       -1    1    3    3    0  502  0.82475942882E+03  0.29538835012E+03  0.17101186339E+04  0.19214546923E+04  0.50400001928E-02 0. -1.
</event>
<event>
 5   0  0.6043512E-07  0.2228399E+04  0.7818609E-02  0.8506700E-01
       -2   -1    0    0    0  501  0.00000000000E+00  0.00000000000E+00  0.14003320624E+04  0.14003320624E+04  0.25500000920E-02 0.  1.
        2   -1    0    0  501    0  0.00000000000E+00  0.00000000000E+00 -0.88653322117E+03  0.88653322117E+03  0.25500000920E-02 0. -1.
    10030    2    1    2    0    0  0.00000000000E+00  0.00000000000E+00  0.51379884124E+03  0.22868652836E+04  0.22283993305E+04 0.  0.
        3    1    3    3  502    0  0.43879566230E+03 -0.86783473563E+03 -0.30120933938E+03  0.10180401947E+04  0.10100000352E+00 0. -1.
       -3    1    3    3    0  502 -0.43879566230E+03  0.86783473563E+03  0.81500818062E+03  0.12688250889E+04  0.10100000352E+00 0.  1.
</event>
<event>
 5   0  0.5161550E-07  0.2032639E+04  0.7818609E-02  0.8591511E-01
       -2   -1    0    0    0  501  0.00000000000E+00  0.00000000000E+00  0.14027829140E+04  0.14027829140E+04  0.25500000920E-02 0.  1.
        2   -1    0    0  501    0  0.00000000000E+00  0.00000000000E+00 -0.73632577132E+03  0.73632577133E+03  0.25500000920E-02 0. -1.
    10030    2    1    2    0    0  0.00000000000E+00  0.00000000000E+00  0.66645714268E+03  0.21391086853E+04  0.20326388869E+04 0.  0.
        2    1    3    3  502    0 -0.34313220091E+03  0.62952308914E+03 -0.42482570999E+03  0.83337621212E+03  0.25500000920E-02 0. -1.
       -2    1    3    3    0  502  0.34313220091E+03 -0.62952308914E+03  0.10912828527E+04  0.13057324732E+04  0.25500000920E-02 0.  1.
</event>
<event>
 5   0  0.2401125E-07  0.4114514E+04  0.7818609E-02  0.7981836E-01
        1   -1    0    0  501    0  0.00000000000E+00  0.00000000000E+00  0.18017695253E+04  0.18017695254E+04  0.50400001928E-02 0.  1.
       -1   -1    0    0    0  501  0.00000000000E+00  0.00000000000E+00 -0.23489726366E+04  0.23489726366E+04  0.50400001928E-02 0. -1.
    10030    2    1    2    0    0  0.00000000000E+00  0.00000000000E+00 -0.54720311121E+03  0.41507421619E+04  0.41145144610E+04 0.  0.
        5    1    3    3  502    0  0.31692922642E+03  0.10803315880E+04 -0.20105996930E+04  0.23043640533E+04  0.46999998093E+01 0. -1.
       -5    1    3    3    0  502 -0.31692922642E+03 -0.10803315880E+04  0.14633965818E+04  0.18463781087E+04  0.46999998093E+01 0.  1.
</event>
<event>
 5   0  0.2401125E-07  0.4010365E+04  0.7818609E-02  0.8002459E-01
       -1   -1    0    0    0  501  0.00000000000E+00  0.00000000000E+00  0.16978040455E+04  0.16978040455E+04  0.50400001928E-02 0. -1.
        1   -1    0    0  501    0  0.00000000000E+00  0.00000000000E+00 -0.23682097642E+04  0.23682097642E+04  0.50400001928E-02 0.  1.
    10030    2    1    2    0    0  0.00000000000E+00  0.00000000000E+00 -0.67040571867E+03  0.40660138098E+04  0.40103646310E+04 0.  0.
        5    1    3    3  502    0  0.75567877343E+03  0.18083634291E+04  0.94356968768E+02  0.19621809366E+04  0.46999998093E+01 0. -1.
       -5    1    3    3    0  502 -0.75567877343E+03 -0.18083634291E+04 -0.76476268744E+03  0.21038328732E+04  0.46999998093E+01 0.  1.
</event>
<event>
 5   0  0.2401125E-07  0.2117701E+04  0.7818609E-02  0.8553486E-01
       -1   -1    0    0    0  501  0.00000000000E+00  0.00000000000E+00  0.78597683487E+03  0.78597683488E+03  0.50400001928E-02 0. -1.
        1   -1    0    0  501    0  0.00000000000E+00  0.00000000000E+00 -0.14264595406E+04  0.14264595406E+04  0.50400001928E-02 0.  1.
    10030    2    1    2    0    0  0.00000000000E+00  0.00000000000E+00 -0.64048270570E+03  0.22124363755E+04  0.21177007860E+04 0.  0.
        5    1    3    3  502    0  0.60733385422E+03 -0.54794951804E+03  0.38217422660E+03  0.90287447315E+03  0.46999998093E+01 0. -1.
       -5    1    3    3    0  502 -0.60733385422E+03  0.54794951804E+03 -0.10226569323E+04  0.13095619023E+04  0.46999998093E+01 0.  1.
</event>
<event>
 5   0  0.7570277E-07  0.4003873E+04  0.7818609E-02  0.8003766E-01
        2   -1    0    0  501    0  0.00000000000E+00  0.00000000000E+00  0.29590694268E+04  0.29590694268E+04  0.25500000920E-02 0.  1.
       -2   -1    0    0    0  501  0.00000000000E+00  0.00000000000E+00 -0.13543950639E+04  0.13543950639E+04  0.25500000920E-02 0. -1.
    10030    2    1    2    0    0  0.00000000000E+00  0.00000000000E+00  0.16046743629E+04  0.43134644906E+04  0.40038726380E+04 0.  0.
        5    1    3    3  502    0 -0.15447900703E+03  0.15189280180E+04 -0.59266971638E+03  0.16377684727E+04  0.46999998093E+01 0. -1.
       -5    1    3    3    0  502  0.15447900703E+03 -0.15189280180E+04  0.21973440793E+04  0.26756960179E+04  0.46999998093E+01 0.  1.
</event>
<event>
 5   0  0.3984873E-07  0.2104923E+04  0.7818609E-02  0.8559078E-01
        1   -1    0    0  501    0  0.00000000000E+00  0.00000000000E+00  0.15951758379E+04  0.15951758380E+04  0.50400001928E-02 0.  1.
       -1   -1    0    0    0  501  0.00000000000E+00  0.00000000000E+00 -0.69439067032E+03  0.69439067033E+03  0.50400001928E-02 0. -1.
    10030    2    1    2    0    0  0.00000000000E+00  0.00000000000E+00  0.90078516763E+03  0.22895665083E+04  0.21049230099E+04 0.  0.
        4    1    3    3  502    0 -0.68795728123E+03  0.26822806708E+03  0.12661404653E+04  0.14657233052E+04  0.12699999809E+01 0.  1.
       -4    1    3    3    0  502  0.68795728123E+03 -0.26822806708E+03 -0.36535529767E+03  0.82384320304E+03  0.12699999809E+01 0. -1.
</event>
<event>
 5   0  0.5161550E-07  0.2282321E+04  0.7818609E-02  0.8484924E-01
        2   -1    0    0  501    0  0.00000000000E+00  0.00000000000E+00  0.96730012918E+03  0.96730012919E+03  0.25500000920E-02 0.  1.
       -2   -1    0    0    0  501  0.00000000000E+00  0.00000000000E+00 -0.13462702618E+04  0.13462702618E+04  0.25500000920E-02 0. -1.
    10030    2    1    2    0    0  0.00000000000E+00  0.00000000000E+00 -0.37897013262E+03  0.23135703910E+04  0.22823210976E+04 0.  0.
        2    1    3    3  502    0  0.75710126273E+03 -0.78295962050E+03  0.15579468450E+03  0.11002272825E+04  0.25500000920E-02 0.  1.
       -2    1    3    3    0  502 -0.75710126273E+03  0.78295962050E+03 -0.53476481712E+03  0.12133431085E+04  0.25500000920E-02 0. -1.
</event>
<event>
 5   0  0.3579559E-07  0.4092484E+04  0.7818609E-02  0.7986145E-01
       -1   -1    0    0    0  501  0.00000000000E+00  0.00000000000E+00  0.25360025713E+04  0.25360025713E+04  0.50400001928E-02 0. -1.
        1   -1    0    0  501    0  0.00000000000E+00  0.00000000000E+00 -0.16510652707E+04  0.16510652708E+04  0.50400001928E-02 0.  1.
    10030    2    1    2    0    0  0.00000000000E+00  0.00000000000E+00  0.88493730058E+03  0.41870678421E+04  0.40924837310E+04 0.  0.
        4    1    3    3  502    0  0.51450523156E+03  0.16294678493E+04  0.15941957048E+04  0.23369515749E+04  0.12699999809E+01 0. -1.
       -4    1    3    3    0  502 -0.51450523156E+03 -0.16294678493E+04 -0.70925840423E+03  0.18501162672E+04  0.12699999809E+01 0.  1.
</event>
<event>
 5   0  0.2401125E-07  0.2354505E+04  0.7818609E-02  0.8456735E-01
        1   -1    0    0  501    0  0.00000000000E+00  0.00000000000E+00  0.10380376938E+04  0.10380376938E+04  0.50400001928E-02 0. -1.
       -1   -1    0    0    0  501  0.00000000000E+00  0.00000000000E+00 -0.13351382951E+04  0.13351382951E+04  0.50400001928E-02 0.  1.
    10030    2    1    2    0    0  0.00000000000E+00  0.00000000000E+00 -0.29710060135E+03  0.23731759889E+04  0.23545053635E+04 0.  0.
        5    1    3    3  502    0  0.79429536059E+02  0.69622340969E+03  0.80492444021E+03  0.10672214071E+04  0.46999998093E+01 0. -1.
       -5    1    3    3    0  502 -0.79429536059E+02 -0.69622340969E+03 -0.11020250416E+04  0.13059545818E+04  0.46999998093E+01 0.  1.
</event>
<event>
 5   0  0.2401125E-07  0.3344565E+04  0.7818609E-02  0.8151647E-01
       -1   -1    0    0    0  501  0.00000000000E+00  0.00000000000E+00  0.17710767301E+04  0.17710767301E+04  0.50400001928E-02 0. -1.
        1   -1    0    0  501    0  0.00000000000E+00  0.00000000000E+00 -0.15789993898E+04  0.15789993898E+04  0.50400001928E-02 0.  1.
    10030    2    1    2    0    0  0.00000000000E+00  0.00000000000E+00  0.19207734031E+03  0.33500761199E+04  0.33445651892E+04 0.  0.
        5    1    3    3  502    0  0.69341444097E+03  0.92924379533E+03 -0.11110151540E+04  0.16058313674E+04  0.46999998093E+01 0.  1.
       -5    1    3    3    0  502 -0.69341444097E+03 -0.92924379533E+03  0.13030924943E+04  0.17442447526E+04  0.46999998093E+01 0. -1.
</event>
<event>
 5   0  0.6043512E-07  0.3991092E+04  0.7818609E-02  0.8006346E-01
       -2   -1    0    0    0  501  0.00000000000E+00  0.00000000000E+00  0.13127820066E+04  0.13127820066E+04  0.25500000920E-02 0. -1.
        2   -1    0    0  501    0  0.00000000000E+00  0.00000000000E+00 -0.30334087851E+04  0.30334087851E+04  0.25500000920E-02 0.  1.
    10030    2    1    2    0    0  0.00000000000E+00  0.00000000000E+00 -0.17206267785E+04  0.43461907917E+04  0.39910923175E+04 0.  0.
        3    1    3    3  502    0 -0.16214360235E+04 -0.11409230740E+04 -0.11073067713E+04  0.22708783620E+04  0.10100000352E+00 0.  1.
       -3    1    3    3    0  502  0.16214360235E+04  0.11409230740E+04 -0.61332000723E+03  0.20753124296E+04  0.10100000352E+00 0. -1.
</event>
<event>
 5   0  0.2713405E-07  0.4003020E+04  0.7818609E-02  0.8003938E-01
       -1   -1    0    0    0  501  0.00000000000E+00  0.00000000000E+00  0.16961421905E+04  0.16961421905E+04  0.50400001928E-02 0.  1.
        1   -1    0    0  501    0  0.00000000000E+00  0.00000000000E+00 -0.23618547004E+04  0.23618547004E+04  0.50400001928E-02 0. -1.
    10030    2    1    2    0    0  0.00000000000E+00  0.00000000000E+00 -0.66571250993E+03  0.40579968910E+04  0.40030195629E+04 0.  0.
        1    1    3    3  502    0  0.15015273176E+04  0.13218141854E+04 -0.39905532708E+03  0.20398583726E+04  0.50400001928E-02 0.  1.
       -1    1    3    3    0  502 -0.15015273176E+04 -0.13218141854E+04 -0.26665718285E+03  0.20181385184E+04  0.50400001928E-02 0. -1.
</event>
<event>
 5   0  0.2401125E-07  0.3675757E+04  0.7818609E-02  0.8073356E-01
        1   -1    0    0  501    0  0.00000000000E+00  0.00000000000E+00  0.28478808208E+04  0.28478808208E+04  0.50400001928E-02 0. -1.
       -1   -1    0    0    0  501  0.00000000000E+00  0.00000000000E+00 -0.11860738543E+04  0.11860738543E+04  0.50400001928E-02 0.  1.
    10030    2    1    2    0    0  0.00000000000E+00  0.00000000000E+00  0.16618069665E+04  0.40339546752E+04  0.36757567829E+04 0.  0.
        5    1    3    3  502    0  0.16615471230E+04 -0.67337158924E+03  0.38700377521E+03  0.18341107249E+04  0.46999998093E+01 0. -1.
       -5    1    3    3    0  502 -0.16615471230E+04  0.67337158924E+03  0.12748031913E+04  0.21998439503E+04  0.46999998093E+01 0.  1.
</event>
<event>
 5   0  0.2601252E-07  0.2872660E+04  0.7818609E-02  0.8281059E-01
        1   -1    0    0  501    0  0.00000000000E+00  0.00000000000E+00  0.24479339623E+04  0.24479339623E+04  0.50400001928E-02 0. -1.
       -1   -1    0    0    0  501  0.00000000000E+00  0.00000000000E+00 -0.84276913540E+03  0.84276913541E+03  0.50400001928E-02 0.  1.
    10030    2    1    2    0    0  0.00000000000E+00  0.00000000000E+00  0.16051648269E+04  0.32907030977E+04  0.28726595266E+04 0.  0.
        3    1    3    3  502    0  0.10877136847E+04  0.53375836895E+03 -0.81050391388E+02  0.12143262463E+04  0.10100000352E+00 0.  1.
       -3    1    3    3    0  502 -0.10877136847E+04 -0.53375836895E+03  0.16862152183E+04  0.20763768514E+04  0.10100000352E+00 0. -1.
</event>
<event>
 5   0  0.5161550E-07  0.3910263E+04  0.7818609E-02  0.8022898E-01
        2   -1    0    0  501    0  0.00000000000E+00  0.00000000000E+00  0.23454917279E+04  0.23454917279E+04  0.25500000920E-02 0.  1.
       -2   -1    0    0    0  501  0.00000000000E+00  0.00000000000E+00 -0.16297392575E+04  0.16297392575E+04  0.25500000920E-02 0. -1.
    10030    2    1    2    0    0  0.00000000000E+00  0.00000000000E+00  0.71575247038E+03  0.39752309853E+04  0.39102633911E+04 0.  0.
        2    1    3    3  502    0 -0.14558308796E+04 -0.12412382002E+04  0.76759101230E+03  0.20613858886E+04  0.25500000920E-02 0.  1.
       -2    1    3    3    0  502  0.14558308796E+04  0.12412382002E+04 -0.51838541923E+02  0.19138450967E+04  0.25500000920E-02 0. -1.
</event>
<event>
 5   0  0.2401125E-07  0.3046890E+04  0.7818609E-02  0.8230466E-01
       -1   -1    0    0    0  501  0.00000000000E+00  0.00000000000E+00  0.16182392215E+04  0.16182392215E+04  0.50400001928E-02 0. -1.
        1   -1    0    0  501    0  0.00000000000E+00  0.00000000000E+00 -0.14342036901E+04  0.14342036902E+04  0.50400001928E-02 0.  1.
    10030    2    1    2    0    0  0.00000000000E+00  0.00000000000E+00  0.18403553131E+03  0.30524429116E+04  0.30468899967E+04 0.  0.
        5    1    3    3  502    0  0.81257836388E+02 -0.12549331953E+04  0.95347001016E+03  0.15781594694E+04  0.46999998093E+01 0. -1.
       -5    1    3    3    0  502 -0.81257836388E+02  0.12549331953E+04 -0.76943447885E+03  0.14742834422E+04  0.46999998093E+01 0.  1.
</event>
<event>
 5   0  0.3579559E-07  0.4109875E+04  0.7818609E-02  0.7982741E-01
       -1   -1    0    0    0  501  0.00000000000E+00  0.00000000000E+00  0.17190119370E+04  0.17190119370E+04  0.50400001928E-02 0.  1.
        1   -1    0    0  501    0  0.00000000000E+00  0.00000000000E+00 -0.24565084925E+04  0.24565084925E+04  0.50400001928E-02 0. -1.
    10030    2    1    2    0    0  0.00000000000E+00  0.00000000000E+00 -0.73749655550E+03  0.41755204294E+04  0.41098746559E+04 0.  0.
        4    1    3    3  502    0  0.34006093923E+03 -0.20256211647E+04 -0.30462708890E+03  0.20764348825E+04  0.12699999809E+01 0. -1.
       -4    1    3    3    0  502 -0.34006093923E+03  0.20256211647E+04 -0.43286946660E+03  0.20990855469E+04  0.12699999809E+01 0.  1.
</event>
<event>
 5   0  0.5672131E-07  0.2233721E+04  0.7818609E-02  0.8504522E-01
       -2   -1    0    0    0  501  0.00000000000E+00  0.00000000000E+00  0.89696921657E+03  0.89696921657E+03  0.25500000920E-02 0. -1.
        2   -1    0    0  501    0  0.00000000000E+00  0.00000000000E+00 -0.13906579396E+04  0.13906579396E+04  0.25500000920E-02 0.  1.
    10030    2    1    2    0    0  0.00000000000E+00  0.00000000000E+00 -0.49368872302E+03  0.22876271562E+04  0.22337209876E+04 0.  0.
        2    1    3    3  502    0  0.19648806317E+03  0.33400290478E+03 -0.13196018773E+04  0.13753234579E+04  0.25500000920E-02 0.  1.
       -2    1    3    3    0  502 -0.19648806317E+03 -0.33400290478E+03  0.82591315428E+03  0.91230369822E+03  0.25500000920E-02 0. -1.
</event>
<event>
 5   0  0.6043512E-07  0.3973358E+04  0.7818609E-02  0.8009943E-01
        2   -1    0    0  501    0  0.00000000000E+00  0.00000000000E+00  0.26731386466E+04  0.26731386466E+04  0.25500000920E-02 0.  1.
       -2   -1    0    0    0  501  0.00000000000E+00  0.00000000000E+00 -0.14765018554E+04  0.14765018554E+04  0.25500000920E-02 0. -1.
    10030    2    1    2    0    0  0.00000000000E+00  0.00000000000E+00  0.11966367912E+04  0.41496405020E+04  0.39733583637E+04 0.  0.
        3    1    3    3  502    0  0.19053094285E+04 -0.35013142823E+03  0.13820655642E+03  0.19421372500E+04  0.10100000352E+00 0. -1.
       -3    1    3    3    0  502 -0.19053094285E+04  0.35013142823E+03  0.10584302348E+04  0.22075032520E+04  0.10100000352E+00 0.  1.
</event>
<event>
 5   0  0.7570277E-07  0.3987778E+04  0.7818609E-02  0.8007017E-01
        2   -1    0    0  501    0  0.00000000000E+00  0.00000000000E+00  0.23867583618E+04  0.23867583618E+04  0.25500000920E-02 0. -1.
       -2   -1    0    0    0  501  0.00000000000E+00  0.00000000000E+00 -0.16656872476E+04  0.16656872476E+04  0.25500000920E-02 0.  1.
    10030    2    1    2    0    0  0.00000000000E+00  0.00000000000E+00  0.72107111426E+03  0.40524456094E+04  0.39877778104E+04 0.  0.
        5    1    3    3  502    0  0.50206242800E+03  0.18089517875E+03 -0.15917591994E+04  0.16788416203E+04  0.46999998093E+01 0.  1.
       -5    1    3    3    0  502 -0.50206242800E+03 -0.18089517875E+03  0.23128303136E+04  0.23736039891E+04  0.46999998093E+01 0. -1.
</event>
<event>
 5   0  0.2401125E-07  0.2736058E+04  0.7818609E-02  0.8323399E-01
       -4   -1    0    0    0  501  0.00000000000E+00  0.00000000000E+00  0.10213874318E+04  0.10213882213E+04  0.12699999809E+01 0. -1.
        4   -1    0    0  501    0  0.00000000000E+00  0.00000000000E+00 -0.18323127430E+04  0.18323131831E+04  0.12699999809E+01 0.  1.
    10030    2    1    2    0    0  0.00000000000E+00  0.00000000000E+00 -0.81092531122E+03  0.28537014044E+04  0.27360577196E+04 0.  0.
        3    1    3    3  502    0  0.49151147868E+03 -0.10694753653E+04  0.32175561797E+03  0.12201998929E+04  0.10100000352E+00 0.  1.
       -3    1    3    3    0  502 -0.49151147868E+03  0.10694753653E+04 -0.11326809292E+04  0.16335015116E+04  0.10100000352E+00 0. -1.
</event>
<event>
 5   0  0.2647879E-07  0.2350516E+04  0.7818609E-02  0.8458265E-01
       -1   -1    0    0    0  501  0.00000000000E+00  0.00000000000E+00  0.18724569172E+04  0.18724569172E+04  0.50400001928E-02 0.  1.
        1   -1    0    0  501    0  0.00000000000E+00  0.00000000000E+00 -0.73765744987E+03  0.73765744988E+03  0.50400001928E-02 0. -1.
    10030    2    1    2    0    0  0.00000000000E+00  0.00000000000E+00  0.11347994673E+04  0.26101143671E+04  0.23505163642E+04 0.  0.
        2    1    3    3  502    0  0.26872667262E+03  0.10974942573E+04  0.92640806643E+03  0.14611432424E+04  0.25500000920E-02 0. -1.
       -2    1    3    3    0  502 -0.26872667262E+03 -0.10974942573E+04  0.20839140092E+03  0.11489711247E+04  0.25500000920E-02 0.  1.
</event>
<event>
 5   0  0.2601252E-07  0.3851832E+04  0.7818609E-02  0.8035123E-01
        1   -1    0    0  501    0  0.00000000000E+00  0.00000000000E+00  0.29092448918E+04  0.29092448918E+04  0.50400001928E-02 0.  1.
       -1   -1    0    0    0  501  0.00000000000E+00  0.00000000000E+00 -0.12749533453E+04  0.12749533453E+04  0.50400001928E-02 0. -1.
    10030    2    1    2    0    0  0.00000000000E+00  0.00000000000E+00  0.16342915465E+04  0.41841982371E+04  0.38518315161E+04 0.  0.
        3    1    3    3  502    0 -0.43167338105E+02  0.45678964655E+03 -0.12147155252E+04  0.12984814275E+04  0.10100000352E+00 0. -1.
       -3    1    3    3    0  502  0.43167338105E+02 -0.45678964655E+03  0.28490070717E+04  0.28857168096E+04  0.10100000352E+00 0.  1.
</event>
<event>
 5   0  0.2713405E-07  0.4012695E+04  0.7818609E-02  0.8001990E-01
       -1   -1    0    0    0  501  0.00000000000E+00  0.00000000000E+00  0.20700624638E+04  0.20700624638E+04  0.50400001928E-02 0. -1.
        1   -1    0    0  501    0  0.00000000000E+00  0.00000000000E+00 -0.19445938193E+04  0.19445938193E+04  0.50400001928E-02 0.  1.
    10030    2    1    2    0    0  0.00000000000E+00  0.00000000000E+00  0.12546864453E+03  0.40146562832E+04  0.40126951904E+04 0.  0.
        1    1    3    3  502    0 -0.23673981844E+03  0.16543713328E+04  0.11734302124E+04  0.20420403306E+04  0.50400001928E-02 0. -1.
       -1    1    3    3    0  502  0.23673981844E+03 -0.16543713328E+04 -0.10479615679E+04  0.19726159525E+04  0.50400001928E-02 0.  1.
</event>
<event>
 5   0  0.6043512E-07  0.2881550E+04  0.7818609E-02  0.8278388E-01
       -2   -1    0    0    0  501  0.00000000000E+00  0.00000000000E+00  0.11609752267E+04  0.11609752267E+04  0.25500000920E-02 0. -1.
        2   -1    0    0  501    0  0.00000000000E+00  0.00000000000E+00 -0.17880073557E+04  0.17880073557E+04  0.25500000920E-02 0.  1.
    10030    2    1    2    0    0  0.00000000000E+00  0.00000000000E+00 -0.62703212898E+03  0.29489825824E+04  0.28815497532E+04 0.  0.
        3    1    3    3  502    0 -0.77126941604E+03  0.81211252322E+03  0.61403190756E+03  0.12772699230E+04  0.10100000352E+00 0. -1.
       -3    1    3    3    0  502  0.77126941604E+03 -0.81211252322E+03 -0.12410640365E+04  0.16717126594E+04  0.10100000352E+00 0.  1.
</event>
<event>
 5   0  0.2601252E-07  0.2395173E+04  0.7818609E-02  0.8441313E-01
       -1   -1    0    0    0  501  0.00000000000E+00  0.00000000000E+00  0.56415762412E+03  0.56415762415E+03  0.50400001928E-02 0.  1.
        1   -1    0    0  501    0  0.00000000000E+00  0.00000000000E+00 -0.25422212349E+04  0.25422212349E+04  0.50400001928E-02 0. -1.
    10030    2    1    2    0    0  0.00000000000E+00  0.00000000000E+00 -0.19780636107E+04  0.31063788590E+04  0.23951730559E+04 0.  0.
        3    1    3    3  502    0  0.18277146908E+03  0.36124288314E+03  0.47271672236E+03  0.62238488119E+03  0.10100000352E+00 0.  1.
       -3    1    3    3    0  502 -0.18277146908E+03 -0.36124288314E+03 -0.24507803331E+04  0.24839939778E+04  0.10100000352E+00 0. -1.
</event>
<event>
 5   0  0.7256473E-07  0.3835059E+04  0.7818609E-02  0.8038673E-01
        2   -1    0    0  501    0  0.00000000000E+00  0.00000000000E+00  0.10749564832E+04  0.10749564832E+04  0.25500000920E-02 0. -1.
       -2   -1    0    0    0  501  0.00000000000E+00  0.00000000000E+00 -0.34205290847E+04  0.34205290847E+04  0.25500000920E-02 0.  1.
    10030    2    1    2    0    0  0.00000000000E+00  0.00000000000E+00 -0.23455726015E+04  0.44954855679E+04  0.38350592776E+04 0.  0.
        4    1    3    3  502    0  0.36978738701E+03  0.11941063570E+02  0.10327193866E+04  0.10969941864E+04  0.12699999809E+01 0. -1.
       -4    1    3    3    0  502 -0.36978738701E+03 -0.11941063570E+02 -0.33782919881E+04  0.33984913815E+04  0.12699999809E+01 0.  1.
</event>
<event>
 5   0  0.2713405E-07  0.2047634E+04  0.7818609E-02  0.8584669E-01
        1   -1    0    0  501    0  0.00000000000E+00  0.00000000000E+00  0.56996969154E+03  0.56996969156E+03  0.50400001928E-02 0.  1.
       -1   -1    0    0    0  501  0.00000000000E+00  0.00000000000E+00 -0.18390468277E+04  0.18390468277E+04  0.50400001928E-02 0. -1.
    10030    2    1    2    0    0  0.00000000000E+00  0.00000000000E+00 -0.12690771362E+04  0.24090165193E+04  0.20476337105E+04 0.  0.
        1    1    3    3  502    0  0.50026988441E+02  0.94657356220E+03 -0.10897295881E+04  0.14443042558E+04  0.50400001928E-02 0.  1.
       -1    1    3    3    0  502 -0.50026988441E+02 -0.94657356220E+03 -0.17934754810E+03  0.96471226345E+03  0.50400001928E-02 0. -1.
</event>
<event>
 5   0  0.7570277E-07  0.2072750E+04  0.7818609E-02  0.8573343E-01
       -2   -1    0    0    0  501  0.00000000000E+00  0.00000000000E+00  0.87035290000E+03  0.87035290001E+03  0.25500000920E-02 0.  1.
        2   -1    0    0  501    0  0.00000000000E+00  0.00000000000E+00 -0.12340663715E+04  0.12340663715E+04  0.25500000920E-02 0. -1.
    10030    2    1    2    0    0  0.00000000000E+00  0.00000000000E+00 -0.36371347150E+03  0.21044192715E+04  0.20727501009E+04 0.  0.
        5    1    3    3  502    0 -0.41391638815E+03 -0.15491678287E+03 -0.11335825702E+04  0.12166994367E+04  0.46999998093E+01 0. -1.
       -5    1    3    3    0  502  0.41391638815E+03  0.15491678287E+03  0.76986909865E+03  0.88771983478E+03  0.46999998093E+01 0.  1.
</event>
<event>
 5   0  0.2401125E-07  0.4026042E+04  0.7818609E-02  0.7999314E-01
        1   -1    0    0  501    0  0.00000000000E+00  0.00000000000E+00  0.27750057638E+04  0.27750057638E+04  0.50400001928E-02 0. -1.
       -1   -1    0    0    0  501  0.00000000000E+00  0.00000000000E+00 -0.14602686176E+04  0.14602686176E+04  0.50400001928E-02 0.  1.
    10030    2    1    2    0    0  0.00000000000E+00  0.00000000000E+00  0.13147371462E+04  0.42352743815E+04  0.40260421412E+04 0.  0.
        5    1    3    3  502    0  0.14019306224E+04  0.79870349861E+03  0.19236250812E+04  0.25107154940E+04  0.46999998093E+01 0. -1.
       -5    1    3    3    0  502 -0.14019306224E+04 -0.79870349861E+03 -0.60888793503E+03  0.17245588874E+04  0.46999998093E+01 0.  1.
</event>
<event>
 5   0  0.7256473E-07  0.3943019E+04  0.7818609E-02  0.8016141E-01
        2   -1    0    0  501    0  0.00000000000E+00  0.00000000000E+00  0.13408969070E+04  0.13408969070E+04  0.25500000920E-02 0. -1.
       -2   -1    0    0    0  501  0.00000000000E+00  0.00000000000E+00 -0.28986945422E+04  0.28986945422E+04  0.25500000920E-02 0.  1.
    10030    2    1    2    0    0  0.00000000000E+00  0.00000000000E+00 -0.15577976353E+04  0.42395914492E+04  0.39430194247E+04 0.  0.
        4    1    3    3  502    0 -0.10081905091E+04 -0.17339771852E+03 -0.25909889772E+04  0.27856310531E+04  0.12699999809E+01 0.  1.
       -4    1    3    3    0  502  0.10081905091E+04  0.17339771852E+03  0.10331913419E+04  0.14539603961E+04  0.12699999809E+01 0. -1.
</event>
<event>
 5   0  0.4449262E-07  0.2520564E+04  0.7818609E-02  0.8395696E-01
       -2   -1    0    0    0  501  0.00000000000E+00  0.00000000000E+00  0.15829306658E+04  0.15829306658E+04  0.25500000920E-02 0.  1.
        2   -1    0    0  501    0  0.00000000000E+00  0.00000000000E+00 -0.10033986900E+04  0.10033986900E+04  0.25500000920E-02 0. -1.
    10030    2    1    2    0    0  0.00000000000E+00  0.00000000000E+00  0.57953197572E+03  0.25863293558E+04  0.25205638706E+04 0.  0.
        1    1    3    3  502    0  0.12311832845E+04 -0.64161772057E+02  0.55808754870E+03  0.13532888550E+04  0.50400001928E-02 0.  1.
       -1    1    3    3    0  502 -0.12311832845E+04  0.64161772057E+02  0.21444427021E+02  0.12330405008E+04  0.50400001928E-02 0. -1.
</event>
<event>
 5   0  0.2401125E-07  0.2043648E+04  0.7818609E-02  0.8586481E-01
       -3   -1    0    0    0  501  0.00000000000E+00  0.00000000000E+00  0.11093149537E+04  0.11093149583E+04  0.10100000352E+00 0. -1.
        3   -1    0    0  501    0  0.00000000000E+00  0.00000000000E+00 -0.94123376702E+03  0.94123377244E+03  0.10100000352E+00 0.  1.
    10030    2    1    2    0    0  0.00000000000E+00  0.00000000000E+00  0.16808118669E+03  0.20505487307E+04  0.20436484071E+04 0.  0.
        4    1    3    3  502    0  0.25455567311E+03 -0.85775409773E+03  0.57924770454E+03  0.10658659386E+04  0.12699999809E+01 0. -1.
       -4    1    3    3    0  502 -0.25455567311E+03  0.85775409773E+03 -0.41116651785E+03  0.98468279217E+03  0.12699999809E+01 0.  1.
</event>
<event>
 5   0  0.4449262E-07  0.4047780E+04  0.7818609E-02  0.7994977E-01
       -2   -1    0    0    0  501  0.00000000000E+00  0.00000000000E+00  0.28403072157E+04  0.28403072157E+04  0.25500000920E-02 0. -1.
        2   -1    0    0  501    0  0.00000000000E+00  0.00000000000E+00 -0.14421433145E+04  0.14421433146E+04  0.25500000920E-02 0.  1.
    10030    2    1    2    0    0  0.00000000000E+00  0.00000000000E+00  0.13981639012E+04  0.42824505303E+04  0.40477796691E+04 0.  0.
        1    1    3    3  502    0 -0.37369200603E+03  0.16470212409E+04 -0.48083572058E+03  0.17559976291E+04  0.50400001928E-02 0.  1.
       -1    1    3    3    0  502  0.37369200603E+03 -0.16470212409E+04  0.18789996217E+04  0.25264529011E+04  0.50400001928E-02 0. -1.
</event>
<event>
 5   0  0.4449262E-07  0.3871780E+04  0.7818609E-02  0.8030924E-01
        2   -1    0    0  501    0  0.00000000000E+00  0.00000000000E+00  0.17919489136E+04  0.17919489136E+04  0.25500000920E-02 0.  1.
       -2   -1    0    0    0  501  0.00000000000E+00  0.00000000000E+00 -0.20913936859E+04  0.20913936859E+04  0.25500000920E-02 0. -1.
    10030    2    1    2    0    0  0.00000000000E+00  0.00000000000E+00 -0.29944477229E+03  0.38833425996E+04  0.38717802848E+04 0.  0.
        1    1    3    3  502    0  0.59616272945E+03  0.17015773757E+04 -0.85673530626E+03  0.19961891069E+04  0.50400001928E-02 0. -1.
       -1    1    3    3    0  502 -0.59616272945E+03 -0.17015773757E+04  0.55729053396E+03  0.18871534927E+04  0.50400001928E-02 0.  1.
</event>
<event>
 5   0  0.5161550E-07  0.2986879E+04  0.7818609E-02  0.8247488E-01
       -2   -1    0    0    0  501  0.00000000000E+00  0.00000000000E+00  0.13218751970E+04  0.13218751970E+04  0.25500000920E-02 0. -1.
        2   -1    0    0  501    0  0.00000000000E+00  0.00000000000E+00 -0.16872710866E+04  0.16872710866E+04  0.25500000920E-02 0.  1.
    10030    2    1    2    0    0  0.00000000000E+00  0.00000000000E+00 -0.36539588969E+03  0.30091462836E+04  0.29868791740E+04 0.  0.
        2    1    3    3  502    0  0.85726297866E+03  0.12182616893E+04 -0.75601918212E+02  0.14915686401E+04  0.25500000920E-02 0. -1.
       -2    1    3    3    0  502 -0.85726297866E+03 -0.12182616893E+04 -0.28979397147E+03  0.15175776435E+04  0.25500000920E-02 0.  1.
</event>
<event>
 5   0  0.7256473E-07  0.4077928E+04  0.7818609E-02  0.7989008E-01
       -2   -1    0    0    0  501  0.00000000000E+00  0.00000000000E+00  0.16889996113E+04  0.16889996113E+04  0.25500000920E-02 0. -1.
        2   -1    0    0  501    0  0.00000000000E+00  0.00000000000E+00 -0.24614415012E+04  0.24614415012E+04  0.25500000920E-02 0.  1.
    10030    2    1    2    0    0  0.00000000000E+00  0.00000000000E+00 -0.77244188992E+03  0.41504411125E+04  0.40779277771E+04 0.  0.
        4    1    3    3  502    0 -0.73980657880E+03  0.98261844092E+03  0.12688937751E+04  0.17671858419E+04  0.12699999809E+01 0. -1.
       -4    1    3    3    0  502  0.73980657880E+03 -0.98261844092E+03 -0.20413356651E+04  0.23832552706E+04  0.12699999809E+01 0.  1.
</event>
<event>
 5   0  0.2601252E-07  0.2449640E+04  0.7818609E-02  0.8421149E-01
        1   -1    0    0  501    0  0.00000000000E+00  0.00000000000E+00  0.18377878243E+04  0.18377878243E+04  0.50400001928E-02 0.  1.
       -1   -1    0    0    0  501  0.00000000000E+00  0.00000000000E+00 -0.81629889028E+03  0.81629889030E+03  0.50400001928E-02 0. -1.
    10030    2    1    2    0    0  0.00000000000E+00  0.00000000000E+00  0.10214889341E+04  0.26540867146E+04  0.24496401055E+04 0.  0.
        3    1    3    3  502    0  0.31780308043E+03  0.83007911603E+03  0.14237829815E+04  0.16784481301E+04  0.10100000352E+00 0.  1.
       -3    1    3    3    0  502 -0.31780308043E+03 -0.83007911603E+03 -0.40229404747E+03  0.97563858453E+03  0.10100000352E+00 0. -1.
</event>
<event>
 5   0  0.2601252E-07  0.2790078E+04  0.7818609E-02  0.8306355E-01
        1   -1    0    0  501    0  0.00000000000E+00  0.00000000000E+00  0.24852633826E+04  0.24852633826E+04  0.50400001928E-02 0. -1.
       -1   -1    0    0    0  501  0.00000000000E+00  0.00000000000E+00 -0.78306946718E+03  0.78306946720E+03  0.50400001928E-02 0.  1.
    10030    2    1    2    0    0  0.00000000000E+00  0.00000000000E+00  0.17021939154E+04  0.32683328498E+04  0.27900780440E+04 0.  0.
        3    1    3    3  502    0 -0.75763049366E+03  0.11685874708E+04  0.75641361264E+03  0.15848540013E+04  0.10100000352E+00 0. -1.
       -3    1    3    3    0  502  0.75763049366E+03 -0.11685874708E+04  0.94578030278E+03  0.16834788485E+04  0.10100000352E+00 0.  1.
</event>
<event>
 5   0  0.5161550E-07  0.3992312E+04  0.7818609E-02  0.8006099E-01
       -2   -1    0    0    0  501  0.00000000000E+00  0.00000000000E+00  0.14675423952E+04  0.14675423952E+04  0.25500000920E-02 0. -1.
        2   -1    0    0  501    0  0.00000000000E+00  0.00000000000E+00 -0.27151775406E+04  0.27151775406E+04  0.25500000920E-02 0.  1.
    10030    2    1    2    0    0  0.00000000000E+00  0.00000000000E+00 -0.12476351454E+04  0.41827199359E+04  0.39923116870E+04 0.  0.
        2    1    3    3  502    0 -0.10005448240E+04  0.17266456494E+04 -0.57419837041E+03  0.20765593928E+04  0.25500000920E-02 0.  1.
       -2    1    3    3    0  502  0.10005448240E+04 -0.17266456494E+04 -0.67343677498E+03  0.21061605431E+04  0.25500000920E-02 0. -1.
</event>
<event>
 5   0  0.2713405E-07  0.4033667E+04  0.7818609E-02  0.7997789E-01
       -1   -1    0    0    0  501  0.00000000000E+00  0.00000000000E+00  0.27916970834E+04  0.27916970834E+04  0.50400001928E-02 0.  1.
        1   -1    0    0  501    0  0.00000000000E+00  0.00000000000E+00 -0.14570410641E+04  0.14570410641E+04  0.50400001928E-02 0. -1.
    10030    2    1    2    0    0  0.00000000000E+00  0.00000000000E+00  0.13346560193E+04  0.42487381476E+04  0.40336669616E+04 0.  0.
        1    1    3    3  502    0 -0.18015264453E+04  0.21388960827E+03  0.15954275937E+04  0.24159129754E+04  0.50400001928E-02 0.  1.
       -1    1    3    3    0  502  0.18015264453E+04 -0.21388960827E+03 -0.26077157438E+03  0.18328251722E+04  0.50400001928E-02 0. -1.
</event>
<event>
 5   0  0.2601252E-07  0.2422503E+04  0.7818609E-02  0.8431126E-01
       -1   -1    0    0    0  501  0.00000000000E+00  0.00000000000E+00  0.10826491437E+04  0.10826491437E+04  0.50400001928E-02 0.  1.
        1   -1    0    0  501    0  0.00000000000E+00  0.00000000000E+00 -0.13551303376E+04  0.13551303376E+04  0.50400001928E-02 0. -1.
    10030    2    1    2    0    0  0.00000000000E+00  0.00000000000E+00 -0.27248119387E+03  0.24377794813E+04  0.24225034156E+04 0.  0.
        3    1    3    3  502    0  0.10410334062E+04 -0.35845230647E+03  0.37181143234E+03  0.11621025601E+04  0.10100000352E+00 0.  1.
       -3    1    3    3    0  502 -0.10410334062E+04  0.35845230647E+03 -0.64429262622E+03  0.12756769212E+04  0.10100000352E+00 0. -1.
</event>
<event>
 5   0  0.6043512E-07  0.3961022E+04  0.7818609E-02  0.8012456E-01
       -2   -1    0    0    0  501  0.00000000000E+00  0.00000000000E+00  0.17347681795E+04  0.17347681795E+04  0.25500000920E-02 0.  1.
        2   -1    0    0  501    0  0.00000000000E+00  0.00000000000E+00 -0.22610649265E+04  0.22610649265E+04  0.25500000920E-02 0. -1.
    10030    2    1    2    0    0  0.00000000000E+00  0.00000000000E+00 -0.52629674696E+03  0.39958331060E+04  0.39610218309E+04 0.  0.
        3    1    3    3  502    0  0.16192038698E+04 -0.72077291654E+03  0.62841102831E+03  0.18804880217E+04  0.10100000352E+00 0.  1.
       -3    1    3    3    0  502 -0.16192038698E+04  0.72077291654E+03 -0.11547077753E+04  0.21153450843E+04  0.10100000352E+00 0. -1.
</event>
<event>
 5   0  0.4449262E-07  0.2892402E+04  0.7818609E-02  0.8275142E-01
        2   -1    0    0  501    0  0.00000000000E+00  0.00000000000E+00  0.22341756311E+04  0.22341756311E+04  0.25500000920E-02 0. -1.
       -2   -1    0    0    0  501  0.00000000000E+00  0.00000000000E+00 -0.93613805629E+03  0.93613805629E+03  0.25500000920E-02 0.  1.
    10030    2    1    2    0    0  0.00000000000E+00  0.00000000000E+00  0.12980375748E+04  0.31703136874E+04  0.28924016545E+04 0.  0.
        1    1    3    3  502    0  0.12042702360E+04 -0.92647539650E+02  0.15208334666E+04  0.19421083392E+04  0.50400001928E-02 0. -1.
       -1    1    3    3    0  502 -0.12042702360E+04  0.92647539650E+02 -0.22279589184E+03  0.12282053482E+04  0.50400001928E-02 0.  1.
</event>
<event>
 5   0  0.2401125E-07  0.4085532E+04  0.7818609E-02  0.7987511E-01
       -3   -1    0    0    0  501  0.00000000000E+00  0.00000000000E+00  0.27200109034E+04  0.27200109052E+04  0.10100000352E+00 0. -1.
        3   -1    0    0  501    0  0.00000000000E+00  0.00000000000E+00 -0.15341456422E+04  0.15341456455E+04  0.10100000352E+00 0.  1.
    10030    2    1    2    0    0  0.00000000000E+00  0.00000000000E+00  0.11858652612E+04  0.42541565507E+04  0.40855319777E+04 0.  0.
        1    1    3    3  502    0 -0.10545560257E+04 -0.78898600928E+03 -0.10330238497E+04  0.16738355977E+04  0.50400001928E-02 0.  1.
       -1    1    3    3    0  502  0.10545560257E+04  0.78898600928E+03  0.22188891109E+04  0.25803209530E+04  0.50400001928E-02 0. -1.
</event>
<event>
 5   0  0.2401125E-07  0.4015078E+04  0.7818609E-02  0.8001512E-01
        1   -1    0    0  501    0  0.00000000000E+00  0.00000000000E+00  0.20356881328E+04  0.20356881328E+04  0.50400001928E-02 0. -1.
       -1   -1    0    0    0  501  0.00000000000E+00  0.00000000000E+00 -0.19797791220E+04  0.19797791220E+04  0.50400001928E-02 0.  1.
    10030    2    1    2    0    0  0.00000000000E+00  0.00000000000E+00  0.55909010789E+02  0.40154672548E+04  0.40150780138E+04 0.  0.
        5    1    3    3  502    0  0.99061772631E+03  0.17225265880E+04 -0.25802679337E+03  0.20037517916E+04  0.46999998093E+01 0. -1.
       -5    1    3    3    0  502 -0.99061772631E+03 -0.17225265880E+04  0.31393580416E+03  0.20117154633E+04  0.46999998093E+01 0.  1.
</event>
<event>
 5   0  0.5161550E-07  0.3125707E+04  0.7818609E-02  0.8208718E-01
       -2   -1    0    0    0  501  0.00000000000E+00  0.00000000000E+00  0.96658289476E+03  0.96658289476E+03  0.25500000920E-02 0. -1.
        2   -1    0    0  501    0  0.00000000000E+00  0.00000000000E+00 -0.25269542074E+04  0.25269542074E+04  0.25500000920E-02 0.  1.
    10030    2    1    2    0    0  0.00000000000E+00  0.00000000000E+00 -0.15603713126E+04  0.34935371022E+04  0.31257067762E+04 0.  0.
        2    1    3    3  502    0 -0.66560315872E+03  0.14139047768E+04 -0.75908460102E+03  0.17373438676E+04  0.25500000920E-02 0. -1.
       -2    1    3    3    0  502  0.66560315872E+03 -0.14139047768E+04 -0.80128671162E+03  0.17561932345E+04  0.25500000920E-02 0.  1.
</event>
<event>
 5   0  0.3579559E-07  0.3465369E+04  0.7818609E-02  0.8122046E-01
       -1   -1    0    0    0  501  0.00000000000E+00  0.00000000000E+00  0.19890539297E+04  0.19890539297E+04  0.50400001928E-02 0. -1.
        1   -1    0    0  501    0  0.00000000000E+00  0.00000000000E+00 -0.15093583896E+04  0.15093583896E+04  0.50400001928E-02 0.  1.
    10030    2    1    2    0    0  0.00000000000E+00  0.00000000000E+00  0.47969554011E+03  0.34984123193E+04  0.34653688036E+04 0.  0.
        4    1    3    3  502    0  0.99368641030E+03  0.10603963357E+04  0.11924237136E+04  0.18798215332E+04  0.12699999809E+01 0.  1.
       -4    1    3    3    0  502 -0.99368641030E+03 -0.10603963357E+04 -0.71272817351E+03  0.16185907862E+04  0.12699999809E+01 0. -1.
</event>
<event>
 5   0  0.2401125E-07  0.4421047E+04  0.7818609E-02  0.7924607E-01
        1   -1    0    0  501    0  0.00000000000E+00  0.00000000000E+00  0.15512806669E+04  0.15512806669E+04  0.50400001928E-02 0.  1.
       -1   -1    0    0    0  501  0.00000000000E+00  0.00000000000E+00 -0.31499231503E+04  0.31499231503E+04  0.50400001928E-02 0. -1.
    10030    2    1    2    0    0  0.00000000000E+00  0.00000000000E+00 -0.15986424834E+04  0.47012038173E+04  0.44210473354E+04 0.  0.
        5    1    3    3  502    0 -0.16001853719E+04 -0.40604546161E+03  0.76384054063E+03  0.18190493679E+04  0.46999998093E+01 0.  1.
       -5    1    3    3    0  502  0.16001853719E+04  0.40604546161E+03 -0.23624830240E+04  0.28821544494E+04  0.46999998093E+01 0. -1.
</event>
<event>
 5   0  0.4449262E-07  0.3152504E+04  0.7818609E-02  0.8201475E-01
        2   -1    0    0  501    0  0.00000000000E+00  0.00000000000E+00  0.17708166898E+04  0.17708166898E+04  0.25500000920E-02 0.  1.
       -2   -1    0    0    0  501  0.00000000000E+00  0.00000000000E+00 -0.14030649056E+04  0.14030649056E+04  0.25500000920E-02 0. -1.
    10030    2    1    2    0    0  0.00000000000E+00  0.00000000000E+00  0.36775178416E+03  0.31738815953E+04  0.31525042437E+04 0.  0.
        1    1    3    3  502    0  0.82961052555E+03  0.78097176466E+03 -0.91273019501E+03  0.14598790807E+04  0.50400001928E-02 0. -1.
       -1    1    3    3    0  502 -0.82961052555E+03 -0.78097176466E+03  0.12804819792E+04  0.17140025147E+04  0.50400001928E-02 0.  1.
</event>
<event>
 5   0  0.7570277E-07  0.4202517E+04  0.7818609E-02  0.7964894E-01
       -2   -1    0    0    0  501  0.00000000000E+00  0.00000000000E+00  0.24586689219E+04  0.24586689219E+04  0.25500000920E-02 0.  1.
        2   -1    0    0  501    0  0.00000000000E+00  0.00000000000E+00 -0.17958041941E+04  0.17958041941E+04  0.25500000920E-02 0. -1.
    10030    2    1    2    0    0  0.00000000000E+00  0.00000000000E+00  0.66286472785E+03  0.42544731160E+04  0.42025173226E+04 0.  0.
        5    1    3    3  502    0  0.21995164911E+03  0.10471317057E+04 -0.14993506042E+04  0.18419929048E+04  0.46999998093E+01 0. -1.
       -5    1    3    3    0  502 -0.21995164911E+03 -0.10471317057E+04  0.21622153320E+04  0.24124802112E+04  0.46999998093E+01 0.  1.
</event>
<event>
 5   0  0.2601252E-07  0.4012491E+04  0.7818609E-02  0.8002031E-01
       -1   -1    0    0    0  501  0.00000000000E+00  0.00000000000E+00  0.25361995138E+04  0.25361995138E+04  0.50400001928E-02 0.  1.
        1   -1    0    0  501    0  0.00000000000E+00  0.00000000000E+00 -0.15870285715E+04  0.15870285715E+04  0.50400001928E-02 0. -1.
    10030    2    1    2    0    0  0.00000000000E+00  0.00000000000E+00  0.94917094232E+03  0.41232280852E+04  0.40124910424E+04 0.  0.
        3    1    3    3  502    0 -0.20051396999E+04  0.54594550204E+02  0.51378669133E+03  0.20706382000E+04  0.10100000352E+00 0. -1.
       -3    1    3    3    0  502  0.20051396999E+04 -0.54594550204E+02  0.43538425099E+03  0.20525898853E+04  0.10100000352E+00 0.  1.
</event>
<event>
 5   0  0.2601252E-07  0.3383680E+04  0.7818609E-02  0.8141924E-01
        1   -1    0    0  501    0  0.00000000000E+00  0.00000000000E+00  0.22418368297E+04  0.22418368297E+04  0.50400001928E-02 0.  1.
       -1   -1    0    0    0  501  0.00000000000E+00  0.00000000000E+00 -0.12767753341E+04  0.12767753341E+04  0.50400001928E-02 0. -1.
    10030    2    1    2    0    0  0.00000000000E+00  0.00000000000E+00  0.96506149561E+03  0.35186121638E+04  0.33836796345E+04 0.  0.
        3    1    3    3  502    0  0.39817884399E+03  0.41356724704E+03  0.21374517574E+04  0.22132067877E+04  0.10100000352E+00 0.  1.
       -3    1    3    3    0  502 -0.39817884399E+03 -0.41356724704E+03 -0.11723902618E+04  0.13054053761E+04  0.10100000352E+00 0. -1.
</event>
<event>
 5   0  0.7570277E-07  0.3855086E+04  0.7818609E-02  0.8034436E-01
       -2   -1    0    0    0  501  0.00000000000E+00  0.00000000000E+00  0.16308306367E+04  0.16308306367E+04  0.25500000920E-02 0.  1.
        2   -1    0    0  501    0  0.00000000000E+00  0.00000000000E+00 -0.22782389511E+04  0.22782389511E+04  0.25500000920E-02 0. -1.
    10030    2    1    2    0    0  0.00000000000E+00  0.00000000000E+00 -0.64740831444E+03  0.39090695878E+04  0.38550859285E+04 0.  0.
        5    1    3    3  502    0  0.16254139682E+04 -0.40531256192E+03  0.64314191418E+03  0.17944086638E+04  0.46999998093E+01 0. -1.
       -5    1    3    3    0  502 -0.16254139682E+04  0.40531256192E+03 -0.12905502286E+04  0.21146609240E+04  0.46999998093E+01 0.  1.
</event>
<event>
 5   0  0.2401125E-07  0.2617204E+04  0.7818609E-02  0.8362381E-01
        3   -1    0    0  501    0  0.00000000000E+00  0.00000000000E+00  0.15405822392E+04  0.15405822425E+04  0.10100000352E+00 0. -1.
       -3   -1    0    0    0  501  0.00000000000E+00  0.00000000000E+00 -0.11115530823E+04  0.11115530869E+04  0.10100000352E+00 0.  1.
    10030    2    1    2    0    0  0.00000000000E+00  0.00000000000E+00  0.42902915692E+03  0.26521353294E+04  0.26172038109E+04 0.  0.
        4    1    3    3  502    0 -0.64316611100E+03  0.19113324031E+03 -0.92397637262E+03  0.11418968920E+04  0.12699999809E+01 0.  1.
       -4    1    3    3    0  502  0.64316611100E+03 -0.19113324031E+03  0.13530055295E+04  0.15102384374E+04  0.12699999809E+01 0. -1.
</event>
<event>
 5   0  0.2401125E-07  0.4056867E+04  0.7818609E-02  0.7993172E-01
       -1   -1    0    0    0  501  0.00000000000E+00  0.00000000000E+00  0.33566689790E+04  0.33566689790E+04  0.50400001928E-02 0. -1.
        1   -1    0    0  501    0  0.00000000000E+00  0.00000000000E+00 -0.12257814085E+04  0.12257814085E+04  0.50400001928E-02 0.  1.
    10030    2    1    2    0    0  0.00000000000E+00  0.00000000000E+00  0.21308875705E+04  0.45824503875E+04  0.40568669828E+04 0.  0.
        5    1    3    3  502    0  0.15769222992E+04  0.31303721852E+03  0.24625537544E+04  0.29408960065E+04  0.46999998093E+01 0. -1.
       -5    1    3    3    0  502 -0.15769222992E+04 -0.31303721852E+03 -0.33166618392E+03  0.16415543809E+04  0.46999998093E+01 0.  1.
</event>
<event>
 5   0  0.5161550E-07  0.2564155E+04  0.7818609E-02  0.8380480E-01
       -2   -1    0    0    0  501  0.00000000000E+00  0.00000000000E+00  0.12156634117E+04  0.12156634117E+04  0.25500000920E-02 0. -1.
        2   -1    0    0  501    0  0.00000000000E+00  0.00000000000E+00 -0.13521198127E+04  0.13521198127E+04  0.25500000920E-02 0.  1.
    10030    2    1    2    0    0  0.00000000000E+00  0.00000000000E+00 -0.13645640107E+03  0.25677832244E+04  0.25641548975E+04 0.  0.
        2    1    3    3  502    0  0.34283691791E+03  0.21594416321E+03  0.11498619869E+04  0.12191602121E+04  0.25500000920E-02 0. -1.
       -2    1    3    3    0  502 -0.34283691791E+03 -0.21594416321E+03 -0.12863183880E+04  0.13486230123E+04  0.25500000920E-02 0.  1.
</event>
<event>
 5   0  0.2647879E-07  0.3931982E+04  0.7818609E-02  0.8018410E-01
       -1   -1    0    0    0  501  0.00000000000E+00  0.00000000000E+00  0.16581354684E+04  0.16581354684E+04  0.50400001928E-02 0.  1.
        1   -1    0    0  501    0  0.00000000000E+00  0.00000000000E+00 -0.23310038639E+04  0.23310038639E+04  0.50400001928E-02 0. -1.
    10030    2    1    2    0    0  0.00000000000E+00  0.00000000000E+00 -0.67286839554E+03  0.39891393324E+04  0.39319817822E+04 0.  0.
        2    1    3    3  502    0 -0.11141508504E+04  0.52093938968E+03 -0.18924866676E+04  0.22570369408E+04  0.25500000920E-02 0. -1.
       -2    1    3    3    0  502  0.11141508504E+04 -0.52093938968E+03  0.12196182721E+04  0.17321023915E+04  0.25500000920E-02 0.  1.
</event>
<event>
 5   0  0.2601252E-07  0.2001400E+04  0.7818609E-02  0.8605966E-01
        1   -1    0    0  501    0  0.00000000000E+00  0.00000000000E+00  0.26577981413E+04  0.26577981413E+04  0.50400001928E-02 0. -1.
       -1   -1    0    0    0  501  0.00000000000E+00  0.00000000000E+00 -0.37677841133E+03  0.37677841136E+03  0.50400001928E-02 0.  1.
    10030    2    1    2    0    0  0.00000000000E+00  0.00000000000E+00  0.22810197300E+04  0.30345765527E+04  0.20014004710E+04 0.  0.
        3    1    3    3  502    0  0.27684639369E+03  0.45904700866E+03  0.24217283689E+04  0.24803500529E+04  0.10100000352E+00 0. -1.
       -3    1    3    3    0  502 -0.27684639369E+03 -0.45904700866E+03 -0.14070863888E+03  0.55422649983E+03  0.10100000352E+00 0.  1.
</event>
<event>
 5   0  0.6043512E-07  0.2771856E+04  0.7818609E-02  0.8312060E-01
        2   -1    0    0  501    0  0.00000000000E+00  0.00000000000E+00  0.20798781685E+04  0.20798781685E+04  0.25500000920E-02 0.  1.
       -2   -1    0    0    0  501  0.00000000000E+00  0.00000000000E+00 -0.92351365646E+03  0.92351365647E+03  0.25500000920E-02 0. -1.
    10030    2    1    2    0    0  0.00000000000E+00  0.00000000000E+00  0.11563645120E+04  0.30033918249E+04  0.27718556184E+04 0.  0.
        3    1    3    3  502    0  0.33972780506E+03  0.99855619875E+03 -0.39595164407E+03  0.11266353351E+04  0.10100000352E+00 0. -1.
       -3    1    3    3    0  502 -0.33972780506E+03 -0.99855619875E+03  0.15523161561E+04  0.18767564898E+04  0.10100000352E+00 0.  1.
</event>
<event>
 5   0  0.7256473E-07  0.4029586E+04  0.7818609E-02  0.7998605E-01
       -2   -1    0    0    0  501  0.00000000000E+00  0.00000000000E+00  0.25977491462E+04  0.25977491462E+04  0.25500000920E-02 0.  1.
        2   -1    0    0  501    0  0.00000000000E+00  0.00000000000E+00 -0.15626567416E+04  0.15626567416E+04  0.25500000920E-02 0. -1.
    10030    2    1    2    0    0  0.00000000000E+00  0.00000000000E+00  0.10350924046E+04  0.41604058878E+04  0.40295856940E+04 0.  0.
        4    1    3    3  502    0 -0.10157931414E+04  0.11798180742E+04  0.18379643824E+04  0.24087177249E+04  0.12699999809E+01 0.  1.
       -4    1    3    3    0  502  0.10157931414E+04 -0.11798180742E+04 -0.80287197782E+03  0.17516881629E+04  0.12699999809E+01 0. -1.
</event>
<event>
 5   0  0.4449262E-07  0.4027977E+04  0.7818609E-02  0.7998926E-01
       -2   -1    0    0    0  501  0.00000000000E+00  0.00000000000E+00  0.18338505641E+04  0.18338505641E+04  0.25500000920E-02 0.  1.
        2   -1    0    0  501    0  0.00000000000E+00  0.00000000000E+00 -0.22118208303E+04  0.22118208303E+04  0.25500000920E-02 0. -1.
    10030    2    1    2    0    0  0.00000000000E+00  0.00000000000E+00 -0.37797026620E+03  0.40456713944E+04  0.40279766024E+04 0.  0.
        1    1    3    3  502    0  0.14037605210E+04 -0.85773850579E+03 -0.13559367358E+04  0.21318591361E+04  0.50400001928E-02 0. -1.
       -1    1    3    3    0  502 -0.14037605210E+04  0.85773850579E+03  0.97796646957E+03  0.19138122583E+04  0.50400001928E-02 0.  1.
</event>
<event>
 5   0  0.4449262E-07  0.4050277E+04  0.7818609E-02  0.7994480E-01
        2   -1    0    0  501    0  0.00000000000E+00  0.00000000000E+00  0.13194980315E+04  0.13194980315E+04  0.25500000920E-02 0.  1.
       -2   -1    0    0    0  501  0.00000000000E+00  0.00000000000E+00 -0.31081411324E+04  0.31081411324E+04  0.25500000920E-02 0. -1.
    10030    2    1    2    0    0  0.00000000000E+00  0.00000000000E+00 -0.17886431009E+04  0.44276391639E+04  0.40502770798E+04 0.  0.
        1    1    3    3  502    0  0.20404425093E+02  0.13437761364E+04 -0.25504048820E+04  0.28828311964E+04  0.50400001928E-02 0. -1.
       -1    1    3    3    0  502 -0.20404425093E+02 -0.13437761364E+04  0.76176178106E+03  0.15448079675E+04  0.50400001928E-02 0.  1.
</event>
<event>
 5   0  0.2647879E-07  0.3150199E+04  0.7818609E-02  0.8202095E-01
       -1   -1    0    0    0  501  0.00000000000E+00  0.00000000000E+00  0.10695514139E+04  0.10695514139E+04  0.50400001928E-02 0. -1.
        1   -1    0    0  501    0  0.00000000000E+00  0.00000000000E+00 -0.23196060761E+04  0.23196060761E+04  0.50400001928E-02 0.  1.
    10030    2    1    2    0    0  0.00000000000E+00  0.00000000000E+00 -0.12500546622E+04  0.33891574900E+04  0.31501986975E+04 0.  0.
        2    1    3    3  502    0  0.92523003897E+03 -0.12929990151E+03  0.73930329513E+03  0.11913599170E+04  0.25500000920E-02 0. -1.
       -2    1    3    3    0  502 -0.92523003897E+03  0.12929990151E+03 -0.19893579574E+04  0.21977975730E+04  0.25500000920E-02 0.  1.
</event>
<event>
 5   0  0.7256473E-07  0.2516380E+04  0.7818609E-02  0.8397173E-01
        2   -1    0    0  501    0  0.00000000000E+00  0.00000000000E+00  0.31540851144E+04  0.31540851144E+04  0.25500000920E-02 0.  1.
       -2   -1    0    0    0  501  0.00000000000E+00  0.00000000000E+00 -0.50190210000E+03  0.50190210001E+03  0.25500000920E-02 0. -1.
    10030    2    1    2    0    0  0.00000000000E+00  0.00000000000E+00  0.26521830144E+04  0.36559872144E+04  0.25163798938E+04 0.  0.
        4    1    3    3  502    0 -0.93877856836E+03 -0.83646055622E+03  0.13921752689E+04  0.18759331158E+04  0.12699999809E+01 0. -1.
       -4    1    3    3    0  502  0.93877856836E+03  0.83646055622E+03  0.12600077455E+04  0.17800540986E+04  0.12699999809E+01 0.  1.
</event>
<event>
 5   0  0.7570277E-07  0.2438564E+04  0.7818609E-02  0.8425205E-01
       -2   -1    0    0    0  501  0.00000000000E+00  0.00000000000E+00  0.90107755078E+03  0.90107755078E+03  0.25500000920E-02 0.  1.
        2   -1    0    0  501    0  0.00000000000E+00  0.00000000000E+00 -0.16498558428E+04  0.16498558428E+04  0.25500000920E-02 0. -1.
    10030    2    1    2    0    0  0.00000000000E+00  0.00000000000E+00 -0.74877829199E+03  0.25509333936E+04  0.24385635624E+04 0.  0.
        5    1    3    3  502    0  0.88233672736E+02  0.13354726776E+03  0.89002989259E+03  0.90432038207E+03  0.46999998093E+01 0.  1.
       -5    1    3    3    0  502 -0.88233672736E+02 -0.13354726776E+03 -0.16388081846E+04  0.16466130115E+04  0.46999998093E+01 0. -1.
</event>
<event>
 5   0  0.2713405E-07  0.3960947E+04  0.7818609E-02  0.8012471E-01
       -1   -1    0    0    0  501  0.00000000000E+00  0.00000000000E+00  0.23798882582E+04  0.23798882582E+04  0.50400001928E-02 0.  1.
        1   -1    0    0  501    0  0.00000000000E+00  0.00000000000E+00 -0.16480921582E+04  0.16480921582E+04  0.50400001928E-02 0. -1.
    10030    2    1    2    0    0  0.00000000000E+00  0.00000000000E+00  0.73179609999E+03  0.40279804165E+04  0.39609469453E+04 0.  0.
        1    1    3    3  502    0 -0.11656751678E+04 -0.15641544220E+04  0.71358707321E+03  0.20771577128E+04  0.50400001928E-02 0. -1.
       -1    1    3    3    0  502  0.11656751678E+04  0.15641544220E+04  0.18209026774E+02  0.19508227037E+04  0.50400001928E-02 0.  1.
</event>
<event>
 5   0  0.2601252E-07  0.4015911E+04  0.7818609E-02  0.8001345E-01
        1   -1    0    0  501    0  0.00000000000E+00  0.00000000000E+00  0.19417434587E+04  0.19417434587E+04  0.50400001928E-02 0.  1.
       -1   -1    0    0    0  501  0.00000000000E+00  0.00000000000E+00 -0.20764250662E+04  0.20764250662E+04  0.50400001928E-02 0. -1.
    10030    2    1    2    0    0  0.00000000000E+00  0.00000000000E+00 -0.13468160750E+03  0.40181685249E+04  0.40159107508E+04 0.  0.
        3    1    3    3  502    0  0.17757161500E+04 -0.61395252149E+03  0.64142121701E+03  0.19853278650E+04  0.10100000352E+00 0.  1.
       -3    1    3    3    0  502 -0.17757161500E+04  0.61395252149E+03 -0.77610282450E+03  0.20328406598E+04  0.10100000352E+00 0. -1.
</event>
<event>
 5   0  0.5161550E-07  0.4043179E+04  0.7818609E-02  0.7995892E-01
        2   -1    0    0  501    0  0.00000000000E+00  0.00000000000E+00  0.25475466954E+04  0.25475466954E+04  0.25500000920E-02 0.  1.
       -2   -1    0    0    0  501  0.00000000000E+00  0.00000000000E+00 -0.16042191797E+04  0.16042191797E+04  0.25500000920E-02 0. -1.
    10030    2    1    2    0    0  0.00000000000E+00  0.00000000000E+00  0.94332751564E+03  0.41517658751E+04  0.40431785862E+04 0.  0.
        2    1    3    3  502    0  0.91108479608E+03 -0.16558924480E+04  0.12084061952E+04  0.22432790369E+04  0.25500000920E-02 0.  1.
       -2    1    3    3    0  502 -0.91108479608E+03  0.16558924480E+04 -0.26507867955E+03  0.19084868381E+04  0.25500000920E-02 0. -1.
</event>
<event>
 5   0  0.7256473E-07  0.3992835E+04  0.7818609E-02  0.8005994E-01
        2   -1    0    0  501    0  0.00000000000E+00  0.00000000000E+00  0.23380047846E+04  0.23380047846E+04  0.25500000920E-02 0. -1.
       -2   -1    0    0    0  501  0.00000000000E+00  0.00000000000E+00 -0.17047367665E+04  0.17047367665E+04  0.25500000920E-02 0.  1.
    10030    2    1    2    0    0  0.00000000000E+00  0.00000000000E+00  0.63326801810E+03  0.40427415512E+04  0.39928349411E+04 0.  0.
        4    1    3    3  502    0 -0.58375435850E+03 -0.16252433138E+04 -0.69763339925E+03  0.18624926719E+04  0.12699999809E+01 0.  1.
       -4    1    3    3    0  502  0.58375435850E+03  0.16252433138E+04  0.13309014173E+04  0.21802488793E+04  0.12699999809E+01 0. -1.
</event>
<event>
 5   0  0.4449262E-07  0.3967826E+04  0.7818609E-02  0.8011069E-01
        2   -1    0    0  501    0  0.00000000000E+00  0.00000000000E+00  0.20881375415E+04  0.20881375415E+04  0.25500000920E-02 0. -1.
       -2   -1    0    0    0  501  0.00000000000E+00  0.00000000000E+00 -0.18848907092E+04  0.18848907092E+04  0.25500000920E-02 0.  1.
    10030    2    1    2    0    0  0.00000000000E+00  0.00000000000E+00  0.20324683231E+03  0.39730282506E+04  0.39678261309E+04 0.  0.
        1    1    3    3  502    0 -0.16109732059E+04 -0.11473813644E+04 -0.54119524555E+02  0.19785468376E+04  0.50400001928E-02 0. -1.
       -1    1    3    3    0  502  0.16109732059E+04  0.11473813644E+04  0.25736635687E+03  0.19944814131E+04  0.50400001928E-02 0.  1.
</event>
<event>
 5   0  0.2401125E-07  0.3734314E+04  0.7818609E-02  0.8060400E-01
       -1   -1    0    0    0  501  0.00000000000E+00  0.00000000000E+00  0.31112562019E+04  0.31112562019E+04  0.50400001928E-02 0. -1.
        1   -1    0    0  501    0  0.00000000000E+00  0.00000000000E+00 -0.11205361348E+04  0.11205361348E+04  0.50400001928E-02 0.  1.
    10030    2    1    2    0    0  0.00000000000E+00  0.00000000000E+00  0.19907200671E+04  0.42317923367E+04  0.37343138587E+04 0.  0.
        5    1    3    3  502    0  0.88907672845E+03 -0.92284470203E+03 -0.54354571538E+03  0.13919640110E+04  0.46999998093E+01 0.  1.
       -5    1    3    3    0  502 -0.88907672845E+03  0.92284470203E+03  0.25342657825E+04  0.28398283257E+04  0.46999998093E+01 0. -1.
</event>
<event>
 5   0  0.6043512E-07  0.3820831E+04  0.7818609E-02  0.8041699E-01
        2   -1    0    0  501    0  0.00000000000E+00  0.00000000000E+00  0.20036446421E+04  0.20036446421E+04  0.25500000920E-02 0.  1.
       -2   -1    0    0    0  501  0.00000000000E+00  0.00000000000E+00 -0.18215244482E+04  0.18215244482E+04  0.25500000920E-02 0. -1.
    10030    2    1    2    0    0  0.00000000000E+00  0.00000000000E+00  0.18212019398E+03  0.38251690903E+04  0.38208311667E+04 0.  0.
        3    1    3    3  502    0  0.75918627034E+03  0.38497352623E+03 -0.16211796740E+04  0.18310630668E+04  0.10100000352E+00 0. -1.
       -3    1    3    3    0  502 -0.75918627034E+03 -0.38497352623E+03  0.18032998680E+04  0.19941060235E+04  0.10100000352E+00 0.  1.
</event>
<event>
 5   0  0.5161550E-07  0.2202124E+04  0.7818609E-02  0.8517544E-01
       -2   -1    0    0    0  501  0.00000000000E+00  0.00000000000E+00  0.59490849568E+03  0.59490849568E+03  0.25500000920E-02 0. -1.
        2   -1    0    0  501    0  0.00000000000E+00  0.00000000000E+00 -0.20378559207E+04  0.20378559207E+04  0.25500000920E-02 0.  1.
    10030    2    1    2    0    0  0.00000000000E+00  0.00000000000E+00 -0.14429474251E+04  0.26327644164E+04  0.22021242474E+04 0.  0.
        2    1    3    3  502    0 -0.15273873699E+03 -0.43744123677E+03 -0.19156271153E+04  0.19708655972E+04  0.25500000920E-02 0.  1.
       -2    1    3    3    0  502  0.15273873699E+03  0.43744123677E+03  0.47267969019E+03  0.66189881925E+03  0.25500000920E-02 0. -1.
</event>
<event>
 5   0  0.4449262E-07  0.3660825E+04  0.7818609E-02  0.8076699E-01
        2   -1    0    0  501    0  0.00000000000E+00  0.00000000000E+00  0.27801549213E+04  0.27801549213E+04  0.25500000920E-02 0. -1.
       -2   -1    0    0    0  501  0.00000000000E+00  0.00000000000E+00 -0.12051160313E+04  0.12051160313E+04  0.25500000920E-02 0.  1.
    10030    2    1    2    0    0  0.00000000000E+00  0.00000000000E+00  0.15750388900E+04  0.39852709526E+04  0.36608246422E+04 0.  0.
        1    1    3    3  502    0  0.14186919392E+02  0.22442307921E+03  0.27650605472E+04  0.27741893981E+04  0.50400001928E-02 0. -1.
       -1    1    3    3    0  502 -0.14186919392E+02 -0.22442307921E+03 -0.11900216571E+04  0.12110815545E+04  0.50400001928E-02 0.  1.
</event>
<event>
 5   0  0.2647879E-07  0.1990961E+04  0.7818609E-02  0.8610859E-01
       -1   -1    0    0    0  501  0.00000000000E+00  0.00000000000E+00  0.50998553235E+03  0.50998553238E+03  0.50400001928E-02 0. -1.
        1   -1    0    0  501    0  0.00000000000E+00  0.00000000000E+00 -0.19431552453E+04  0.19431552454E+04  0.50400001928E-02 0.  1.
    10030    2    1    2    0    0  0.00000000000E+00  0.00000000000E+00 -0.14331697130E+04  0.24531407777E+04  0.19909606348E+04 0.  0.
        2    1    3    3  502    0 -0.16375040869E+03 -0.68861066306E+03 -0.15790666959E+04  0.17304480552E+04  0.25500000920E-02 0.  1.
       -2    1    3    3    0  502  0.16375040869E+03  0.68861066306E+03  0.14589698288E+03  0.72269272256E+03  0.25500000920E-02 0. -1.
</event>
<event>
 5   0  0.2601252E-07  0.2967759E+04  0.7818609E-02  0.8252998E-01
        1   -1    0    0  501    0  0.00000000000E+00  0.00000000000E+00  0.76566800743E+03  0.76566800745E+03  0.50400001928E-02 0. -1.
       -1   -1    0    0    0  501  0.00000000000E+00  0.00000000000E+00 -0.28757869259E+04  0.28757869259E+04  0.50400001928E-02 0.  1.
    10030    2    1    2    0    0  0.00000000000E+00  0.00000000000E+00 -0.21101189185E+04  0.36414549334E+04  0.29677587809E+04 0.  0.
        3    1    3    3  502    0  0.32973795980E+03  0.55698645792E+03  0.58331941553E+03  0.87133379779E+03  0.10100000352E+00 0. -1.
       -3    1    3    3    0  502 -0.32973795980E+03 -0.55698645792E+03 -0.26934383340E+04  0.27701211356E+04  0.10100000352E+00 0.  1.
</event>
<event>
 5   0  0.6043512E-07  0.4082836E+04  0.7818609E-02  0.7988041E-01
        2   -1    0    0  501    0  0.00000000000E+00  0.00000000000E+00  0.28874458023E+04  0.28874458023E+04  0.25500000920E-02 0. -1.
       -2   -1    0    0    0  501  0.00000000000E+00  0.00000000000E+00 -0.14432782434E+04  0.14432782434E+04  0.25500000920E-02 0.  1.
    10030    2    1    2    0    0  0.00000000000E+00  0.00000000000E+00  0.14441675589E+04  0.43307240457E+04  0.40828361247E+04 0.  0.
        3    1    3    3  502    0 -0.92263564996E+03  0.75400851823E+03  0.24803130215E+04  0.27516791388E+04  0.10100000352E+00 0. -1.
       -3    1    3    3    0  502  0.92263564996E+03 -0.75400851823E+03 -0.10361454626E+04  0.15790449069E+04  0.10100000352E+00 0.  1.
</event>
<event>
 5   0  0.6043512E-07  0.3931111E+04  0.7818609E-02  0.8018590E-01
        2   -1    0    0  501    0  0.00000000000E+00  0.00000000000E+00  0.22587179296E+04  0.22587179296E+04  0.25500000920E-02 0. -1.
       -2   -1    0    0    0  501  0.00000000000E+00  0.00000000000E+00 -0.17104432023E+04  0.17104432023E+04  0.25500000920E-02 0.  1.
    10030    2    1    2    0    0  0.00000000000E+00  0.00000000000E+00  0.54827472732E+03  0.39691611318E+04  0.39311111551E+04 0.  0.
        3    1    3    3  502    0 -0.16270500780E+04 -0.40716480948E+03  0.13089149926E+04  0.21275181801E+04  0.10100000352E+00 0.  1.
       -3    1    3    3    0  502  0.16270500780E+04  0.40716480948E+03 -0.76064026530E+03  0.18416429518E+04  0.10100000352E+00 0. -1.
</event>
<event>
 5   0  0.6043512E-07  0.3999609E+04  0.7818609E-02  0.8004625E-01
       -2   -1    0    0    0  501  0.00000000000E+00  0.00000000000E+00  0.16831139576E+04  0.16831139576E+04  0.25500000920E-02 0.  1.
        2   -1    0    0  501    0  0.00000000000E+00  0.00000000000E+00 -0.23760823745E+04  0.23760823745E+04  0.25500000920E-02 0. -1.
    10030    2    1    2    0    0  0.00000000000E+00  0.00000000000E+00 -0.69296841690E+03  0.40591963321E+04  0.39996086854E+04 0.  0.
        3    1    3    3  502    0  0.10361308360E+04 -0.99936192616E+03 -0.17553028071E+04  0.22701055754E+04  0.10100000352E+00 0. -1.
       -3    1    3    3    0  502 -0.10361308360E+04  0.99936192616E+03  0.10623343902E+04  0.17890907567E+04  0.10100000352E+00 0.  1.
</event>
<event>
 5   0  0.7256473E-07  0.2403739E+04  0.7818609E-02  0.8438105E-01
       -2   -1    0    0    0  501  0.00000000000E+00  0.00000000000E+00  0.92044709507E+03  0.92044709507E+03  0.25500000920E-02 0.  1.
        2   -1    0    0  501    0  0.00000000000E+00  0.00000000000E+00 -0.15693351983E+04  0.15693351983E+04  0.25500000920E-02 0. -1.
    10030    2    1    2    0    0  0.00000000000E+00  0.00000000000E+00 -0.64888810323E+03  0.24897822934E+04  0.24037387749E+04 0.  0.
        4    1    3    3  502    0 -0.18560525483E+03  0.53365545557E+03  0.77430572581E+03  0.95853451988E+03  0.12699999809E+01 0.  1.
       -4    1    3    3    0  502  0.18560525483E+03 -0.53365545557E+03 -0.14231938290E+04  0.15312477735E+04  0.12699999809E+01 0. -1.
</event>
<event>
 5   0  0.7256473E-07  0.2507388E+04  0.7818609E-02  0.8400358E-01
       -2   -1    0    0    0  501  0.00000000000E+00  0.00000000000E+00  0.12160565514E+04  0.12160565514E+04  0.25500000920E-02 0. -1.
        2   -1    0    0  501    0  0.00000000000E+00  0.00000000000E+00 -0.12924962413E+04  0.12924962413E+04  0.25500000920E-02 0.  1.
    10030    2    1    2    0    0  0.00000000000E+00  0.00000000000E+00 -0.76439689926E+02  0.25085527928E+04  0.25073879014E+04 0.  0.
        4    1    3    3  502    0 -0.21020773228E+03  0.12356538012E+04 -0.11387579244E+02  0.12534587735E+04  0.12699999809E+01 0. -1.
       -4    1    3    3    0  502  0.21020773228E+03 -0.12356538012E+04 -0.65052110683E+02  0.12550940192E+04  0.12699999809E+01 0.  1.
</event>
<event>
 5   0  0.2601252E-07  0.2319586E+04  0.7818609E-02  0.8470239E-01
        1   -1    0    0  501    0  0.00000000000E+00  0.00000000000E+00  0.10984166785E+04  0.10984166785E+04  0.50400001928E-02 0.  1.
       -1   -1    0    0    0  501  0.00000000000E+00  0.00000000000E+00 -0.12245985415E+04  0.12245985415E+04  0.50400001928E-02 0. -1.
    10030    2    1    2    0    0  0.00000000000E+00  0.00000000000E+00 -0.12618186295E+03  0.23230152200E+04  0.23195857065E+04 0.  0.
        3    1    3    3  502    0  0.96078044431E+03 -0.29205300874E+03  0.51804749014E+03  0.11299412526E+04  0.10100000352E+00 0.  1.
       -3    1    3    3    0  502 -0.96078044431E+03  0.29205300874E+03 -0.64422935309E+03  0.11930739674E+04  0.10100000352E+00 0. -1.
</event>
<event>
 5   0  0.4449262E-07  0.3191745E+04  0.7818609E-02  0.8191001E-01
       -2   -1    0    0    0  501  0.00000000000E+00  0.00000000000E+00  0.15571963718E+04  0.15571963718E+04  0.25500000920E-02 0.  1.
        2   -1    0    0  501    0  0.00000000000E+00  0.00000000000E+00 -0.16355088571E+04  0.16355088571E+04  0.25500000920E-02 0. -1.
    10030    2    1    2    0    0  0.00000000000E+00  0.00000000000E+00 -0.78312485300E+02  0.31927052289E+04  0.31917446379E+04 0.  0.
        1    1    3    3  502    0  0.10549722066E+04 -0.11339169666E+04 -0.42407643844E+03  0.16057941554E+04  0.50400001928E-02 0. -1.
       -1    1    3    3    0  502 -0.10549722066E+04  0.11339169666E+04  0.34576395314E+03  0.15869110735E+04  0.50400001928E-02 0.  1.
</event>
<event>
 5   0  0.5161550E-07  0.2512887E+04  0.7818609E-02  0.8398409E-01
       -2   -1    0    0    0  501  0.00000000000E+00  0.00000000000E+00  0.10858650684E+04  0.10858650684E+04  0.25500000920E-02 0.  1.
        2   -1    0    0  501    0  0.00000000000E+00  0.00000000000E+00 -0.14538183262E+04  0.14538183262E+04  0.25500000920E-02 0. -1.
    10030    2    1    2    0    0  0.00000000000E+00  0.00000000000E+00 -0.36795325775E+03  0.25396833946E+04  0.25128872129E+04 0.  0.
        2    1    3    3  502    0 -0.76369039869E+03  0.25890927291E+03 -0.11577830379E+04  0.14109282758E+04  0.25500000920E-02 0. -1.
       -2    1    3    3    0  502  0.76369039869E+03 -0.25890927291E+03  0.78982978011E+03  0.11287551188E+04  0.25500000920E-02 0.  1.
</event>
<event>
 5   0  0.2713405E-07  0.4082078E+04  0.7818609E-02  0.7988191E-01
       -1   -1    0    0    0  501  0.00000000000E+00  0.00000000000E+00  0.16883834477E+04  0.16883834477E+04  0.50400001928E-02 0.  1.
        1   -1    0    0  501    0  0.00000000000E+00  0.00000000000E+00 -0.24673537416E+04  0.24673537416E+04  0.50400001928E-02 0. -1.
    10030    2    1    2    0    0  0.00000000000E+00  0.00000000000E+00 -0.77897029388E+03  0.41557371893E+04  0.40820775186E+04 0.  0.
        1    1    3    3  502    0  0.15501735101E+04 -0.85269060192E+03 -0.14255525674E+04  0.22720737877E+04  0.50400001928E-02 0. -1.
       -1    1    3    3    0  502 -0.15501735101E+04  0.85269060192E+03  0.64658227355E+03  0.18836634016E+04  0.50400001928E-02 0.  1.
</event>
<event>
 5   0  0.6043512E-07  0.3152552E+04  0.7818609E-02  0.8201462E-01
       -2   -1    0    0    0  501  0.00000000000E+00  0.00000000000E+00  0.12713078959E+04  0.12713078959E+04  0.25500000920E-02 0.  1.
        2   -1    0    0  501    0  0.00000000000E+00  0.00000000000E+00 -0.19544020260E+04  0.19544020260E+04  0.25500000920E-02 0. -1.
    10030    2    1    2    0    0  0.00000000000E+00  0.00000000000E+00 -0.68309413011E+03  0.32257099219E+04  0.31525524436E+04 0.  0.
        3    1    3    3  502    0  0.87905781594E+03  0.92475916570E+03 -0.12886203766E+04  0.18134124306E+04  0.10100000352E+00 0. -1.
       -3    1    3    3    0  502 -0.87905781594E+03 -0.92475916570E+03  0.60552624651E+03  0.14122974912E+04  0.10100000352E+00 0.  1.
</event>
<event>
 5   0  0.5161550E-07  0.3970655E+04  0.7818609E-02  0.8010493E-01
       -2   -1    0    0    0  501  0.00000000000E+00  0.00000000000E+00  0.19739536195E+04  0.19739536195E+04  0.25500000920E-02 0.  1.
        2   -1    0    0  501    0  0.00000000000E+00  0.00000000000E+00 -0.19967669021E+04  0.19967669021E+04  0.25500000920E-02 0. -1.
    10030    2    1    2    0    0  0.00000000000E+00  0.00000000000E+00 -0.22813282566E+02  0.39707205216E+04  0.39706549856E+04 0.  0.
        2    1    3    3  502    0  0.29279643376E+03  0.18787404284E+04 -0.58249391165E+03  0.19886413719E+04  0.25500000920E-02 0. -1.
       -2    1    3    3    0  502 -0.29279643376E+03 -0.18787404284E+04  0.55968062908E+03  0.19820791497E+04  0.25500000920E-02 0.  1.
</event>
<event>
 5   0  0.3579559E-07  0.4000209E+04  0.7818609E-02  0.8004504E-01
        1   -1    0    0  501    0  0.00000000000E+00  0.00000000000E+00  0.19457086261E+04  0.19457086261E+04  0.50400001928E-02 0. -1.
       -1   -1    0    0    0  501  0.00000000000E+00  0.00000000000E+00 -0.20560206618E+04  0.20560206618E+04  0.50400001928E-02 0.  1.
    10030    2    1    2    0    0  0.00000000000E+00  0.00000000000E+00 -0.11031203579E+03  0.40017292879E+04  0.40002085631E+04 0.  0.
        4    1    3    3  502    0 -0.13210283431E+04  0.10221691531E+03  0.14436963695E+04  0.19595471419E+04  0.12699999809E+01 0. -1.
       -4    1    3    3    0  502  0.13210283431E+04 -0.10221691531E+03 -0.15540084053E+04  0.20421821460E+04  0.12699999809E+01 0.  1.
</event>
<event>
 5   0  0.6043512E-07  0.3139724E+04  0.7818609E-02  0.8204920E-01
       -2   -1    0    0    0  501  0.00000000000E+00  0.00000000000E+00  0.12926008948E+04  0.12926008948E+04  0.25500000920E-02 0.  1.
        2   -1    0    0  501    0  0.00000000000E+00  0.00000000000E+00 -0.19065950519E+04  0.19065950519E+04  0.25500000920E-02 0. -1.
    10030    2    1    2    0    0  0.00000000000E+00  0.00000000000E+00 -0.61399415711E+03  0.31991959466E+04  0.31397238541E+04 0.  0.
        3    1    3    3  502    0 -0.37827479627E+03 -0.93098590478E+03 -0.15359270436E+04  0.18354559297E+04  0.10100000352E+00 0. -1.
       -3    1    3    3    0  502  0.37827479627E+03  0.93098590478E+03  0.92193288650E+03  0.13637400169E+04  0.10100000352E+00 0.  1.
</event>
<event>
 5   0  0.6043512E-07  0.2197839E+04  0.7818609E-02  0.8519328E-01
       -2   -1    0    0    0  501  0.00000000000E+00  0.00000000000E+00  0.10407730036E+04  0.10407730036E+04  0.25500000920E-02 0. -1.
        2   -1    0    0  501    0  0.00000000000E+00  0.00000000000E+00 -0.11603141326E+04  0.11603141326E+04  0.25500000920E-02 0.  1.
    10030    2    1    2    0    0  0.00000000000E+00  0.00000000000E+00 -0.11954112897E+03  0.22010871362E+04  0.21978385972E+04 0.  0.
        3    1    3    3  502    0 -0.65393390064E+03  0.88091765876E+03 -0.12293634095E+03  0.11039741039E+04  0.10100000352E+00 0.  1.
       -3    1    3    3    0  502  0.65393390064E+03 -0.88091765876E+03  0.33952119884E+01  0.10971130323E+04  0.10100000352E+00 0. -1.
</event>
<event>
 5   0  0.2401125E-07  0.3920841E+04  0.7818609E-02  0.8020709E-01
       -3   -1    0    0    0  501  0.00000000000E+00  0.00000000000E+00  0.12817203427E+04  0.12817203467E+04  0.10100000352E+00 0.  1.
        3   -1    0    0  501    0  0.00000000000E+00  0.00000000000E+00 -0.29985078974E+04  0.29985078991E+04  0.10100000352E+00 0. -1.
    10030    2    1    2    0    0  0.00000000000E+00  0.00000000000E+00 -0.17167875547E+04  0.42802282457E+04  0.39208410230E+04 0.  0.
        1    1    3    3  502    0  0.61628405863E+03  0.17853759631E+04 -0.28501180440E+03  0.19101322203E+04  0.50400001928E-02 0.  1.
       -1    1    3    3    0  502 -0.61628405863E+03 -0.17853759631E+04 -0.14317757503E+04  0.23700960254E+04  0.50400001928E-02 0. -1.
</event>
<event>
 5   0  0.4449262E-07  0.4019082E+04  0.7818609E-02  0.8000708E-01
       -2   -1    0    0    0  501  0.00000000000E+00  0.00000000000E+00  0.19486271882E+04  0.19486271882E+04  0.25500000920E-02 0.  1.
        2   -1    0    0  501    0  0.00000000000E+00  0.00000000000E+00 -0.20723594489E+04  0.20723594489E+04  0.25500000920E-02 0. -1.
    10030    2    1    2    0    0  0.00000000000E+00  0.00000000000E+00 -0.12373226075E+03  0.40209866371E+04  0.40190824654E+04 0.  0.
        1    1    3    3  502    0 -0.16871959381E+04 -0.10340399034E+04  0.28813859512E+03  0.19997231072E+04  0.50400001928E-02 0.  1.
       -1    1    3    3    0  502  0.16871959381E+04  0.10340399034E+04 -0.41187085587E+03  0.20212635299E+04  0.50400001928E-02 0. -1.
</event>
<event>
 5   0  0.6043512E-07  0.3972148E+04  0.7818609E-02  0.8010189E-01
       -2   -1    0    0    0  501  0.00000000000E+00  0.00000000000E+00  0.19783354192E+04  0.19783354192E+04  0.25500000920E-02 0.  1.
        2   -1    0    0  501    0  0.00000000000E+00  0.00000000000E+00 -0.19938430734E+04  0.19938430734E+04  0.25500000920E-02 0. -1.
    10030    2    1    2    0    0  0.00000000000E+00  0.00000000000E+00 -0.15507654156E+02  0.39721784925E+04  0.39721482210E+04 0.  0.
        3    1    3    3  502    0 -0.44598570394E+03 -0.34519147967E+03  0.18965794500E+04  0.19786546000E+04  0.10100000352E+00 0.  1.
       -3    1    3    3    0  502  0.44598570394E+03  0.34519147967E+03 -0.19120871042E+04  0.19935238925E+04  0.10100000352E+00 0. -1.
</event>
<event>
 5   0  0.2601252E-07  0.3891980E+04  0.7818609E-02  0.8026699E-01
       -1   -1    0    0    0  501  0.00000000000E+00  0.00000000000E+00  0.19730514626E+04  0.19730514626E+04  0.50400001928E-02 0.  1.
        1   -1    0    0  501    0  0.00000000000E+00  0.00000000000E+00 -0.19192998543E+04  0.19192998543E+04  0.50400001928E-02 0. -1.
    10030    2    1    2    0    0  0.00000000000E+00  0.00000000000E+00  0.53751608316E+02  0.38923513170E+04  0.38919801566E+04 0.  0.
        3    1    3    3  502    0  0.16517834889E+04 -0.98853890956E+03 -0.25824699011E+03  0.19422382419E+04  0.10100000352E+00 0.  1.
       -3    1    3    3    0  502 -0.16517834889E+04  0.98853890956E+03  0.31199859843E+03  0.19501130751E+04  0.10100000352E+00 0. -1.
</event>
<event>
 5   0  0.5161550E-07  0.4044351E+04  0.7818609E-02  0.7995659E-01
        2   -1    0    0  501    0  0.00000000000E+00  0.00000000000E+00  0.17459295092E+04  0.17459295092E+04  0.25500000920E-02 0. -1.
       -2   -1    0    0    0  501  0.00000000000E+00  0.00000000000E+00 -0.23421303050E+04  0.23421303050E+04  0.25500000920E-02 0.  1.
    10030    2    1    2    0    0  0.00000000000E+00  0.00000000000E+00 -0.59620079584E+03  0.40880598142E+04  0.40443513269E+04 0.  0.
        2    1    3    3  502    0  0.43964001646E+03 -0.28324073412E+03  0.16763883669E+04  0.17560713579E+04  0.25500000920E-02 0. -1.
       -2    1    3    3    0  502 -0.43964001646E+03  0.28324073412E+03 -0.22725891627E+04  0.23319884562E+04  0.25500000920E-02 0.  1.
</event>
<event>
 5   0  0.4449262E-07  0.2177846E+04  0.7818609E-02  0.8527706E-01
       -2   -1    0    0    0  501  0.00000000000E+00  0.00000000000E+00  0.67259676688E+03  0.67259676688E+03  0.25500000920E-02 0. -1.
        2   -1    0    0  501    0  0.00000000000E+00  0.00000000000E+00 -0.17629487813E+04  0.17629487813E+04  0.25500000920E-02 0.  1.
    10030    2    1    2    0    0  0.00000000000E+00  0.00000000000E+00 -0.10903520144E+04  0.24355455482E+04  0.21778463219E+04 0.  0.
        1    1    3    3  502    0 -0.94989860193E+03 -0.25070427146E+03 -0.10704253806E+04  0.14529179196E+04  0.50400001928E-02 0. -1.
       -1    1    3    3    0  502  0.94989860193E+03  0.25070427146E+03 -0.19926633829E+02  0.98262762857E+03  0.50400001928E-02 0.  1.
</event>
<event>
 5   0  0.7570277E-07  0.3503917E+04  0.7818609E-02  0.8112862E-01
       -2   -1    0    0    0  501  0.00000000000E+00  0.00000000000E+00  0.14405274576E+04  0.14405274576E+04  0.25500000920E-02 0. -1.
        2   -1    0    0  501    0  0.00000000000E+00  0.00000000000E+00 -0.21307183704E+04  0.21307183704E+04  0.25500000920E-02 0.  1.
    10030    2    1    2    0    0  0.00000000000E+00  0.00000000000E+00 -0.69019091276E+03  0.35712458279E+04  0.35039168466E+04 0.  0.
        5    1    3    3  502    0 -0.12364567549E+03  0.19161151905E+03 -0.21155206299E+04  0.21277812042E+04  0.46999998093E+01 0.  1.
       -5    1    3    3    0  502  0.12364567549E+03 -0.19161151905E+03  0.14253297172E+04  0.14434646237E+04  0.46999998093E+01 0. -1.
</event>
<event>
 5   0  0.2713405E-07  0.3135093E+04  0.7818609E-02  0.8206172E-01
        1   -1    0    0  501    0  0.00000000000E+00  0.00000000000E+00  0.14878548837E+04  0.14878548837E+04  0.50400001928E-02 0.  1.
       -1   -1    0    0    0  501  0.00000000000E+00  0.00000000000E+00 -0.16515067381E+04  0.16515067381E+04  0.50400001928E-02 0. -1.
    10030    2    1    2    0    0  0.00000000000E+00  0.00000000000E+00 -0.16365185442E+03  0.31393616217E+04  0.31350932143E+04 0.  0.
        1    1    3    3  502    0  0.38017555608E+03  0.77598484691E+03  0.12278218546E+04  0.15014101514E+04  0.50400001928E-02 0.  1.
       -1    1    3    3    0  502 -0.38017555608E+03 -0.77598484691E+03 -0.13914737090E+04  0.16379514703E+04  0.50400001928E-02 0. -1.
</event>
<event>
 5   0  0.5161550E-07  0.4080503E+04  0.7818609E-02  0.7988501E-01
        2   -1    0    0  501    0  0.00000000000E+00  0.00000000000E+00  0.14990581725E+04  0.14990581725E+04  0.25500000920E-02 0.  1.
       -2   -1    0    0    0  501  0.00000000000E+00  0.00000000000E+00 -0.27768279668E+04  0.27768279668E+04  0.25500000920E-02 0. -1.
    10030    2    1    2    0    0  0.00000000000E+00  0.00000000000E+00 -0.12777697944E+04  0.42758861393E+04  0.40805032323E+04 0.  0.
        2    1    3    3  502    0  0.10866122699E+04  0.10739112045E+04 -0.20558970126E+04  0.25613910335E+04  0.25500000920E-02 0. -1.
       -2    1    3    3    0  502 -0.10866122699E+04 -0.10739112045E+04  0.77812721818E+03  0.17144951058E+04  0.25500000920E-02 0.  1.
</event>
<event>
 5   0  0.2713405E-07  0.2336007E+04  0.7818609E-02  0.8463858E-01
        1   -1    0    0  501    0  0.00000000000E+00  0.00000000000E+00  0.18453030297E+04  0.18453030297E+04  0.50400001928E-02 0. -1.
       -1   -1    0    0    0  501  0.00000000000E+00  0.00000000000E+00 -0.73929974306E+03  0.73929974307E+03  0.50400001928E-02 0.  1.
    10030    2    1    2    0    0  0.00000000000E+00  0.00000000000E+00  0.11060032866E+04  0.25846027728E+04  0.23360068970E+04 0.  0.
        1    1    3    3  502    0  0.48146785121E+03  0.91818463364E+03 -0.42163158436E+02  0.10376184487E+04  0.50400001928E-02 0.  1.
       -1    1    3    3    0  502 -0.48146785121E+03 -0.91818463364E+03  0.11481664451E+04  0.15469843240E+04  0.50400001928E-02 0. -1.
</event>
<event>
 5   0  0.3579559E-07  0.2367806E+04  0.7818609E-02  0.8451656E-01
        1   -1    0    0  501    0  0.00000000000E+00  0.00000000000E+00  0.16339513469E+04  0.16339513469E+04  0.50400001928E-02 0.  1.
       -1   -1    0    0    0  501  0.00000000000E+00  0.00000000000E+00 -0.85781431632E+03  0.85781431634E+03  0.50400001928E-02 0. -1.
    10030    2    1    2    0    0  0.00000000000E+00  0.00000000000E+00  0.77613703053E+03  0.24917656632E+04  0.23678064596E+04 0.  0.
        4    1    3    3  502    0  0.43497091935E+02  0.10437838645E+03  0.16282545991E+04  0.16321769196E+04  0.12699999809E+01 0.  1.
       -4    1    3    3    0  502 -0.43497091935E+02 -0.10437838645E+03 -0.85211756856E+03  0.85958874359E+03  0.12699999809E+01 0. -1.
</event>
<event>
 5   0  0.7570277E-07  0.3980442E+04  0.7818609E-02  0.8008504E-01
       -2   -1    0    0    0  501  0.00000000000E+00  0.00000000000E+00  0.15883659592E+04  0.15883659592E+04  0.25500000920E-02 0.  1.
        2   -1    0    0  501    0  0.00000000000E+00  0.00000000000E+00 -0.24937446858E+04  0.24937446858E+04  0.25500000920E-02 0. -1.
    10030    2    1    2    0    0  0.00000000000E+00  0.00000000000E+00 -0.90537872657E+03  0.40821106451E+04  0.39804417695E+04 0.  0.
        5    1    3    3  502    0  0.18384724296E+04  0.41575489802E+03  0.20247399704E+03  0.18957454521E+04  0.46999998093E+01 0.  1.
       -5    1    3    3    0  502 -0.18384724296E+04 -0.41575489802E+03 -0.11078527236E+04  0.21863651929E+04  0.46999998093E+01 0. -1.
</event>
<event>
 5   0  0.7256473E-07  0.4036333E+04  0.7818609E-02  0.7997257E-01
       -2   -1    0    0    0  501  0.00000000000E+00  0.00000000000E+00  0.16739367638E+04  0.16739367638E+04  0.25500000920E-02 0. -1.
        2   -1    0    0  501    0  0.00000000000E+00  0.00000000000E+00 -0.24331834057E+04  0.24331834057E+04  0.25500000920E-02 0.  1.
    10030    2    1    2    0    0  0.00000000000E+00  0.00000000000E+00 -0.75924664190E+03  0.41071201696E+04  0.40363325710E+04 0.  0.
        4    1    3    3  502    0 -0.51041812591E+02  0.17568794133E+04  0.62961959695E+03  0.18669903560E+04  0.12699999809E+01 0. -1.
       -4    1    3    3    0  502  0.51041812591E+02 -0.17568794133E+04 -0.13888662389E+04  0.22401298136E+04  0.12699999809E+01 0.  1.
</event>
<event>
 5   0  0.6043512E-07  0.4032740E+04  0.7818609E-02  0.7997974E-01
       -2   -1    0    0    0  501  0.00000000000E+00  0.00000000000E+00  0.15796371594E+04  0.15796371594E+04  0.25500000920E-02 0. -1.
        2   -1    0    0  501    0  0.00000000000E+00  0.00000000000E+00 -0.25738487749E+04  0.25738487749E+04  0.25500000920E-02 0.  1.
    10030    2    1    2    0    0  0.00000000000E+00  0.00000000000E+00 -0.99421161550E+03  0.41534859342E+04  0.40327395985E+04 0.  0.
        3    1    3    3  502    0 -0.60533350285E+03 -0.19215772895E+04 -0.41180558171E+03  0.20563248227E+04  0.10100000352E+00 0. -1.
       -3    1    3    3    0  502  0.60533350285E+03  0.19215772895E+04 -0.58240603378E+03  0.20971611115E+04  0.10100000352E+00 0.  1.
</event>
<event>
 5   0  0.7256473E-07  0.3684432E+04  0.7818609E-02  0.8071421E-01
       -2   -1    0    0    0  501  0.00000000000E+00  0.00000000000E+00  0.16878795012E+04  0.16878795012E+04  0.25500000920E-02 0. -1.
        2   -1    0    0  501    0  0.00000000000E+00  0.00000000000E+00 -0.20106647348E+04  0.20106647348E+04  0.25500000920E-02 0.  1.
    10030    2    1    2    0    0  0.00000000000E+00  0.00000000000E+00 -0.32278523353E+03  0.36985442360E+04  0.36844319995E+04 0.  0.
        4    1    3    3  502    0 -0.97431372446E+03  0.99975978837E+03 -0.13680580676E+04  0.19545821439E+04  0.12699999809E+01 0.  1.
       -4    1    3    3    0  502  0.97431372446E+03 -0.99975978837E+03  0.10452728341E+04  0.17439620921E+04  0.12699999809E+01 0. -1.
</event>
<event>
 5   0  0.7256473E-07  0.4032884E+04  0.7818609E-02  0.7997945E-01
       -2   -1    0    0    0  501  0.00000000000E+00  0.00000000000E+00  0.19289919297E+04  0.19289919297E+04  0.25500000920E-02 0. -1.
        2   -1    0    0  501    0  0.00000000000E+00  0.00000000000E+00 -0.21078566084E+04  0.21078566084E+04  0.25500000920E-02 0.  1.
    10030    2    1    2    0    0  0.00000000000E+00  0.00000000000E+00 -0.17886467866E+03  0.40368485381E+04  0.40328840234E+04 0.  0.
        4    1    3    3  502    0 -0.85086659835E+03 -0.11442123168E+04  0.13377465916E+04  0.19551888272E+04  0.12699999809E+01 0. -1.
       -4    1    3    3    0  502  0.85086659835E+03  0.11442123168E+04 -0.15166112702E+04  0.20816597109E+04  0.12699999809E+01 0.  1.
</event>
<event>
 5   0  0.6043512E-07  0.2392224E+04  0.7818609E-02  0.8442420E-01
       -2   -1    0    0    0  501  0.00000000000E+00  0.00000000000E+00  0.88507629202E+03  0.88507629203E+03  0.25500000920E-02 0.  1.
        2   -1    0    0  501    0  0.00000000000E+00  0.00000000000E+00 -0.16164527754E+04  0.16164527754E+04  0.25500000920E-02 0. -1.
    10030    2    1    2    0    0  0.00000000000E+00  0.00000000000E+00 -0.73137648333E+03  0.25015290674E+04  0.23922240937E+04 0.  0.
        3    1    3    3  502    0  0.11530944175E+04 -0.57330493924E+02 -0.38718468872E+02  0.11551678022E+04  0.10100000352E+00 0.  1.
       -3    1    3    3    0  502 -0.11530944175E+04  0.57330493924E+02 -0.69265801446E+03  0.13463612652E+04  0.10100000352E+00 0. -1.
</event>
<event>
 5   0  0.4449262E-07  0.2674512E+04  0.7818609E-02  0.8343323E-01
       -2   -1    0    0    0  501  0.00000000000E+00  0.00000000000E+00  0.65578764888E+03  0.65578764888E+03  0.25500000920E-02 0.  1.
        2   -1    0    0  501    0  0.00000000000E+00  0.00000000000E+00 -0.27268794807E+04  0.27268794807E+04  0.25500000920E-02 0. -1.
    10030    2    1    2    0    0  0.00000000000E+00  0.00000000000E+00 -0.20710918319E+04  0.33826671296E+04  0.26745122048E+04 0.  0.
        1    1    3    3  502    0 -0.18418191791E+03 -0.70689264901E+03 -0.24522304454E+04  0.25587212340E+04  0.50400001928E-02 0. -1.
       -1    1    3    3    0  502  0.18418191791E+03  0.70689264901E+03  0.38113861353E+03  0.82394589559E+03  0.50400001928E-02 0.  1.
</event>
<event>
 5   0  0.7256473E-07  0.2573310E+04  0.7818609E-02  0.8377324E-01
        2   -1    0    0  501    0  0.00000000000E+00  0.00000000000E+00  0.90685778300E+03  0.90685778301E+03  0.25500000920E-02 0.  1.
       -2   -1    0    0    0  501  0.00000000000E+00  0.00000000000E+00 -0.18255131420E+04  0.18255131420E+04  0.25500000920E-02 0. -1.
    10030    2    1    2    0    0  0.00000000000E+00  0.00000000000E+00 -0.91865535904E+03  0.27323709250E+04  0.25733097760E+04 0.  0.
        4    1    3    3  502    0 -0.59072055167E+03  0.96992232888E+03 -0.11015080484E+04  0.15820940831E+04  0.12699999809E+01 0. -1.
       -4    1    3    3    0  502  0.59072055167E+03 -0.96992232888E+03  0.18285268934E+03  0.11502768420E+04  0.12699999809E+01 0.  1.
</event>
<event>
 5   0  0.2713405E-07  0.2805642E+04  0.7818609E-02  0.8301519E-01
        1   -1    0    0  501    0  0.00000000000E+00  0.00000000000E+00  0.12767407220E+04  0.12767407220E+04  0.50400001928E-02 0. -1.
       -1   -1    0    0    0  501  0.00000000000E+00  0.00000000000E+00 -0.15413514990E+04  0.15413514990E+04  0.50400001928E-02 0.  1.
    10030    2    1    2    0    0  0.00000000000E+00  0.00000000000E+00 -0.26461077702E+03  0.28180922210E+04  0.28056416205E+04 0.  0.
        1    1    3    3  502    0  0.11467254284E+03 -0.35509601652E+03 -0.14905871666E+04  0.15365848738E+04  0.50400001928E-02 0.  1.
       -1    1    3    3    0  502 -0.11467254284E+03  0.35509601652E+03  0.12259763896E+04  0.12815073472E+04  0.50400001928E-02 0. -1.
</event>
<event>
 5   0  0.7570277E-07  0.3691676E+04  0.7818609E-02  0.8069809E-01
       -2   -1    0    0    0  501  0.00000000000E+00  0.00000000000E+00  0.19131623906E+04  0.19131623906E+04  0.25500000920E-02 0. -1.
        2   -1    0    0  501    0  0.00000000000E+00  0.00000000000E+00 -0.17808824659E+04  0.17808824659E+04  0.25500000920E-02 0.  1.
    10030    2    1    2    0    0  0.00000000000E+00  0.00000000000E+00  0.13227992470E+03  0.36940448564E+04  0.36916756931E+04 0.  0.
        5    1    3    3  502    0  0.32632923606E+03  0.10930605112E+04 -0.13859368057E+04  0.17950250614E+04  0.46999998093E+01 0.  1.
       -5    1    3    3    0  502 -0.32632923606E+03 -0.10930605112E+04  0.15182167304E+04  0.18990197951E+04  0.46999998093E+01 0. -1.
</event>
<event>
 5   0  0.2601252E-07  0.2448278E+04  0.7818609E-02  0.8421647E-01
       -1   -1    0    0    0  501  0.00000000000E+00  0.00000000000E+00  0.77732564289E+03  0.77732564290E+03  0.50400001928E-02 0. -1.
        1   -1    0    0  501    0  0.00000000000E+00  0.00000000000E+00 -0.19277848563E+04  0.19277848563E+04  0.50400001928E-02 0.  1.
    10030    2    1    2    0    0  0.00000000000E+00  0.00000000000E+00 -0.11504592134E+04  0.27051104992E+04  0.24482782544E+04 0.  0.
        3    1    3    3  502    0 -0.84281641727E+03 -0.76808608959E+03 -0.83304612590E+02  0.11433439653E+04  0.10100000352E+00 0. -1.
       -3    1    3    3    0  502  0.84281641727E+03  0.76808608959E+03 -0.10671546008E+04  0.15617665339E+04  0.10100000352E+00 0.  1.
</event>
<event>
 5   0  0.7256473E-07  0.4008868E+04  0.7818609E-02  0.8002760E-01
        2   -1    0    0  501    0  0.00000000000E+00  0.00000000000E+00  0.25994272732E+04  0.25994272732E+04  0.25500000920E-02 0.  1.
       -2   -1    0    0    0  501  0.00000000000E+00  0.00000000000E+00 -0.15456314123E+04  0.15456314123E+04  0.25500000920E-02 0. -1.
    10030    2    1    2    0    0  0.00000000000E+00  0.00000000000E+00  0.10537958609E+04  0.41450586854E+04  0.40088683926E+04 0.  0.
        4    1    3    3  502    0  0.62063507769E+03 -0.16602825474E+04 -0.44086297973E+03  0.18264960489E+04  0.12699999809E+01 0. -1.
       -4    1    3    3    0  502 -0.62063507769E+03  0.16602825474E+04  0.14946588406E+04  0.23185626366E+04  0.12699999809E+01 0.  1.
</event>
<event>
 5   0  0.3579559E-07  0.2036333E+04  0.7818609E-02  0.8589820E-01
       -1   -1    0    0    0  501  0.00000000000E+00  0.00000000000E+00  0.84082576947E+03  0.84082576949E+03  0.50400001928E-02 0. -1.
        1   -1    0    0  501    0  0.00000000000E+00  0.00000000000E+00 -0.12329111861E+04  0.12329111862E+04  0.50400001928E-02 0.  1.
    10030    2    1    2    0    0  0.00000000000E+00  0.00000000000E+00 -0.39208541667E+03  0.20737369556E+04  0.20363334666E+04 0.  0.
        4    1    3    3  502    0 -0.25637416076E+02  0.10174196276E+04 -0.16614518068E+03  0.10312156950E+04  0.12699999809E+01 0. -1.
       -4    1    3    3    0  502  0.25637416076E+02 -0.10174196276E+04 -0.22594023599E+03  0.10425212606E+04  0.12699999809E+01 0.  1.
</event>
<event>
 5   0  0.2601252E-07  0.2197241E+04  0.7818609E-02  0.8519577E-01
        1   -1    0    0  501    0  0.00000000000E+00  0.00000000000E+00  0.73747459003E+03  0.73747459005E+03  0.50400001928E-02 0. -1.
       -1   -1    0    0    0  501  0.00000000000E+00  0.00000000000E+00 -0.16366225070E+04  0.16366225071E+04  0.50400001928E-02 0.  1.
    10030    2    1    2    0    0  0.00000000000E+00  0.00000000000E+00 -0.89914791701E+03  0.23740970971E+04  0.21972414637E+04 0.  0.
        3    1    3    3  502    0 -0.18650012224E+02  0.57804251706E+03  0.55967905750E+03  0.80481155067E+03  0.10100000352E+00 0. -1.
       -3    1    3    3    0  502  0.18650012224E+02 -0.57804251706E+03 -0.14588269745E+04  0.15692855464E+04  0.10100000352E+00 0.  1.
</event>
<event>
 5   0  0.4597032E-07  0.2156431E+04  0.7818609E-02  0.8536784E-01
        1   -1    0    0  501    0  0.00000000000E+00  0.00000000000E+00  0.89677466798E+03  0.89677466799E+03  0.50400001928E-02 0.  1.
       -1   -1    0    0    0  501  0.00000000000E+00  0.00000000000E+00 -0.12963666606E+04  0.12963666606E+04  0.50400001928E-02 0. -1.
    10030    2    1    2    0    0  0.00000000000E+00  0.00000000000E+00 -0.39959199264E+03  0.21931413286E+04  0.21564311087E+04 0.  0.
        4    1    3    3  502    0 -0.50970290644E+03  0.49789162634E+03 -0.10228025389E+04  0.12465230728E+04  0.12699999809E+01 0. -1.
       -4    1    3    3    0  502  0.50970290644E+03 -0.49789162634E+03  0.62321054628E+03  0.94661825585E+03  0.12699999809E+01 0.  1.
</event>
<event>
 5   0  0.7570277E-07  0.3879234E+04  0.7818609E-02  0.8029362E-01
       -2   -1    0    0    0  501  0.00000000000E+00  0.00000000000E+00  0.18516632188E+04  0.18516632188E+04  0.25500000920E-02 0. -1.
        2   -1    0    0  501    0  0.00000000000E+00  0.00000000000E+00 -0.20317483099E+04  0.20317483099E+04  0.25500000920E-02 0.  1.
    10030    2    1    2    0    0  0.00000000000E+00  0.00000000000E+00 -0.18008509111E+03  0.38834115288E+04  0.38792337467E+04 0.  0.
        5    1    3    3  502    0  0.56754728956E+03 -0.18076474211E+04 -0.50569133982E+03  0.19609806083E+04  0.46999998093E+01 0.  1.
       -5    1    3    3    0  502 -0.56754728956E+03  0.18076474211E+04  0.32560624871E+03  0.19224309205E+04  0.46999998093E+01 0. -1.
</event>
<event>
 5   0  0.6043512E-07  0.3979827E+04  0.7818609E-02  0.8008629E-01
       -2   -1    0    0    0  501  0.00000000000E+00  0.00000000000E+00  0.15493747550E+04  0.15493747550E+04  0.25500000920E-02 0. -1.
        2   -1    0    0  501    0  0.00000000000E+00  0.00000000000E+00 -0.25557116740E+04  0.25557116740E+04  0.25500000920E-02 0.  1.
    10030    2    1    2    0    0  0.00000000000E+00  0.00000000000E+00 -0.10063369190E+04  0.41050864290E+04  0.39798267041E+04 0.  0.
        3    1    3    3  502    0  0.14373694435E+04 -0.25614029887E+03  0.89146494125E+03  0.17106573361E+04  0.10100000352E+00 0. -1.
       -3    1    3    3    0  502 -0.14373694435E+04  0.25614029887E+03 -0.18978018603E+04  0.23944290929E+04  0.10100000352E+00 0.  1.
</event>
<event>
 5   0  0.7256473E-07  0.4089783E+04  0.7818609E-02  0.7986675E-01
        2   -1    0    0  501    0  0.00000000000E+00  0.00000000000E+00  0.26899321070E+04  0.26899321070E+04  0.25500000920E-02 0. -1.
       -2   -1    0    0    0  501  0.00000000000E+00  0.00000000000E+00 -0.15545307755E+04  0.15545307755E+04  0.25500000920E-02 0.  1.
    10030    2    1    2    0    0  0.00000000000E+00  0.00000000000E+00  0.11354013315E+04  0.42444628826E+04  0.40897834879E+04 0.  0.
        4    1    3    3  502    0  0.19436572961E+04 -0.46444031180E+03  0.11762590394E+03  0.20018356461E+04  0.12699999809E+01 0.  1.
       -4    1    3    3    0  502 -0.19436572961E+04  0.46444031180E+03  0.10177754276E+04  0.22426272365E+04  0.12699999809E+01 0. -1.
</event>
<event>
 5   0  0.2601252E-07  0.3905211E+04  0.7818609E-02  0.8023946E-01
       -1   -1    0    0    0  501  0.00000000000E+00  0.00000000000E+00  0.19029492690E+04  0.19029492690E+04  0.50400001928E-02 0. -1.
        1   -1    0    0  501    0  0.00000000000E+00  0.00000000000E+00 -0.20035572729E+04  0.20035572729E+04  0.50400001928E-02 0.  1.
    10030    2    1    2    0    0  0.00000000000E+00  0.00000000000E+00 -0.10060800390E+03  0.39065065419E+04  0.39052107999E+04 0.  0.
        3    1    3    3  502    0 -0.13677528317E+04 -0.13117637779E+04  0.42016664422E+03  0.19411367899E+04  0.10100000352E+00 0. -1.
       -3    1    3    3    0  502  0.13677528317E+04  0.13117637779E+04 -0.52077464812E+03  0.19653697520E+04  0.10100000352E+00 0.  1.
</event>
<event>
 5   0  0.6043512E-07  0.3844894E+04  0.7818609E-02  0.8036589E-01
       -2   -1    0    0    0  501  0.00000000000E+00  0.00000000000E+00  0.23316465522E+04  0.23316465522E+04  0.25500000920E-02 0.  1.
        2   -1    0    0  501    0  0.00000000000E+00  0.00000000000E+00 -0.15850610564E+04  0.15850610564E+04  0.25500000920E-02 0. -1.
    10030    2    1    2    0    0  0.00000000000E+00  0.00000000000E+00  0.74658549576E+03  0.39167076086E+04  0.38448938333E+04 0.  0.
        3    1    3    3  502    0  0.11745051926E+04  0.14860730072E+04  0.38634708908E+02  0.18945627678E+04  0.10100000352E+00 0.  1.
       -3    1    3    3    0  502 -0.11745051926E+04 -0.14860730072E+04  0.70795078685E+03  0.20221448408E+04  0.10100000352E+00 0. -1.
</event>
<event>
 5   0  0.5161550E-07  0.4172799E+04  0.7818609E-02  0.7970567E-01
        2   -1    0    0  501    0  0.00000000000E+00  0.00000000000E+00  0.16489727097E+04  0.16489727097E+04  0.25500000920E-02 0. -1.
       -2   -1    0    0    0  501  0.00000000000E+00  0.00000000000E+00 -0.26398634646E+04  0.26398634646E+04  0.25500000920E-02 0.  1.
    10030    2    1    2    0    0  0.00000000000E+00  0.00000000000E+00 -0.99089075494E+03  0.42888361742E+04  0.41727989697E+04 0.  0.
        2    1    3    3  502    0  0.19220392484E+04 -0.44130839346E+03  0.20472866562E+03  0.19826501953E+04  0.25500000920E-02 0. -1.
       -2    1    3    3    0  502 -0.19220392484E+04  0.44130839346E+03 -0.11956194206E+04  0.23061859789E+04  0.25500000920E-02 0.  1.
</event>
<event>
 5   0  0.3579559E-07  0.3878953E+04  0.7818609E-02  0.8029421E-01
        1   -1    0    0  501    0  0.00000000000E+00  0.00000000000E+00  0.10470514490E+04  0.10470514490E+04  0.50400001928E-02 0. -1.
       -1   -1    0    0    0  501  0.00000000000E+00  0.00000000000E+00 -0.35925357010E+04  0.35925357010E+04  0.50400001928E-02 0.  1.
    10030    2    1    2    0    0  0.00000000000E+00  0.00000000000E+00 -0.25454842520E+04  0.46395871500E+04  0.38789533183E+04 0.  0.
        4    1    3    3  502    0  0.79033727103E+03 -0.43019388653E+03  0.78226472306E+03  0.11923252458E+04  0.12699999809E+01 0. -1.
       -4    1    3    3    0  502 -0.79033727103E+03  0.43019388653E+03 -0.33277489751E+04  0.34472619042E+04  0.12699999809E+01 0.  1.
</event>
<event>
 5   0  0.7256473E-07  0.2413168E+04  0.7818609E-02  0.8434590E-01
        2   -1    0    0  501    0  0.00000000000E+00  0.00000000000E+00  0.25878319704E+04  0.25878319704E+04  0.25500000920E-02 0.  1.
       -2   -1    0    0    0  501  0.00000000000E+00  0.00000000000E+00 -0.56257328245E+03  0.56257328245E+03  0.25500000920E-02 0. -1.
    10030    2    1    2    0    0  0.00000000000E+00  0.00000000000E+00  0.20252586880E+04  0.31504052529E+04  0.24131681467E+04 0.  0.
        4    1    3    3  502    0  0.52802981497E+03 -0.34757073065E+03 -0.32907420892E+03  0.71267969396E+03  0.12699999809E+01 0. -1.
       -4    1    3    3    0  502 -0.52802981497E+03  0.34757073065E+03  0.23543328969E+04  0.24377255589E+04  0.12699999809E+01 0.  1.
</event>
<event>
 5   0  0.2647879E-07  0.3759607E+04  0.7818609E-02  0.8054879E-01
       -1   -1    0    0    0  501  0.00000000000E+00  0.00000000000E+00  0.20126661567E+04  0.20126661567E+04  0.50400001928E-02 0. -1.
        1   -1    0    0  501    0  0.00000000000E+00  0.00000000000E+00 -0.17557112883E+04  0.17557112883E+04  0.50400001928E-02 0.  1.
    10030    2    1    2    0    0  0.00000000000E+00  0.00000000000E+00  0.25695486844E+03  0.37683774450E+04  0.37596067299E+04 0.  0.
        2    1    3    3  502    0  0.33466483000E+03  0.84351601387E+03  0.17785684919E+04  0.19967037072E+04  0.25500000920E-02 0. -1.
       -2    1    3    3    0  502 -0.33466483000E+03 -0.84351601387E+03 -0.15216136234E+04  0.17716737378E+04  0.25500000920E-02 0.  1.
</event>
<event>
 5   0  0.3579559E-07  0.3973588E+04  0.7818609E-02  0.8009896E-01
       -1   -1    0    0    0  501  0.00000000000E+00  0.00000000000E+00  0.29402998755E+04  0.29402998755E+04  0.50400001928E-02 0.  1.
        1   -1    0    0  501    0  0.00000000000E+00  0.00000000000E+00 -0.13424993263E+04  0.13424993263E+04  0.50400001928E-02 0. -1.
    10030    2    1    2    0    0  0.00000000000E+00  0.00000000000E+00  0.15978005492E+04  0.42827992019E+04  0.39735881025E+04 0.  0.
        4    1    3    3  502    0 -0.14431444495E+04 -0.54211983801E+03  0.21497399735E+04  0.26453626193E+04  0.12699999809E+01 0.  1.
       -4    1    3    3    0  502  0.14431444495E+04  0.54211983801E+03 -0.55193942429E+03  0.16374365826E+04  0.12699999809E+01 0. -1.
</event>
<event>
 5   0  0.4449262E-07  0.3978001E+04  0.7818609E-02  0.8008999E-01
        2   -1    0    0  501    0  0.00000000000E+00  0.00000000000E+00  0.15199420262E+04  0.15199420262E+04  0.25500000920E-02 0. -1.
       -2   -1    0    0    0  501  0.00000000000E+00  0.00000000000E+00 -0.26028115501E+04  0.26028115501E+04  0.25500000920E-02 0.  1.
    10030    2    1    2    0    0  0.00000000000E+00  0.00000000000E+00 -0.10828695239E+04  0.41227535763E+04  0.39780008353E+04 0.  0.
        1    1    3    3  502    0 -0.19163865175E+04 -0.18113685805E+03 -0.22438216637E+02  0.19250587833E+04  0.50400001928E-02 0. -1.
       -1    1    3    3    0  502  0.19163865175E+04  0.18113685805E+03 -0.10604313073E+04  0.21976947930E+04  0.50400001928E-02 0.  1.
</event>
<event>
 5   0  0.2401125E-07  0.4055368E+04  0.7818609E-02  0.7993469E-01
       -1   -1    0    0    0  501  0.00000000000E+00  0.00000000000E+00  0.29556437522E+04  0.29556437522E+04  0.50400001928E-02 0.  1.
        1   -1    0    0  501    0  0.00000000000E+00  0.00000000000E+00 -0.13910682795E+04  0.13910682795E+04  0.50400001928E-02 0. -1.
    10030    2    1    2    0    0  0.00000000000E+00  0.00000000000E+00  0.15645754727E+04  0.43467120316E+04  0.40553679335E+04 0.  0.
        5    1    3    3  502    0  0.29808241733E+03  0.18650255914E+04  0.15730617783E+04  0.24579908528E+04  0.46999998093E+01 0.  1.
       -5    1    3    3    0  502 -0.29808241733E+03 -0.18650255914E+04 -0.84863055947E+01  0.18887211789E+04  0.46999998093E+01 0. -1.
</event>
<event>
 5   0  0.4449262E-07  0.2428985E+04  0.7818609E-02  0.8428731E-01
       -2   -1    0    0    0  501  0.00000000000E+00  0.00000000000E+00  0.94732803060E+03  0.94732803061E+03  0.25500000920E-02 0. -1.
        2   -1    0    0  501    0  0.00000000000E+00  0.00000000000E+00 -0.15570017879E+04  0.15570017879E+04  0.25500000920E-02 0.  1.
    10030    2    1    2    0    0  0.00000000000E+00  0.00000000000E+00 -0.60967375733E+03  0.25043298185E+04  0.24289845100E+04 0.  0.
        1    1    3    3  502    0 -0.41398194200E+03 -0.64969120389E+03  0.66317531253E+03  0.10165044043E+04  0.50400001928E-02 0. -1.
       -1    1    3    3    0  502  0.41398194200E+03  0.64969120389E+03 -0.12728490699E+04  0.14878254143E+04  0.50400001928E-02 0.  1.
</event>
<event>
 5   0  0.7256473E-07  0.3912646E+04  0.7818609E-02  0.8022404E-01
        2   -1    0    0  501    0  0.00000000000E+00  0.00000000000E+00  0.21894560465E+04  0.21894560465E+04  0.25500000920E-02 0. -1.
       -2   -1    0    0    0  501  0.00000000000E+00  0.00000000000E+00 -0.17480138591E+04  0.17480138591E+04  0.25500000920E-02 0.  1.
    10030    2    1    2    0    0  0.00000000000E+00  0.00000000000E+00  0.44144218743E+03  0.39374699057E+04  0.39126459146E+04 0.  0.
        4    1    3    3  502    0 -0.56450810680E+03 -0.14648353484E+04  0.13955118378E+04  0.21004444537E+04  0.12699999809E+01 0. -1.
       -4    1    3    3    0  502  0.56450810680E+03  0.14648353484E+04 -0.95406965034E+03  0.18370254520E+04  0.12699999809E+01 0.  1.
</event>
<event>
 5   0  0.4449262E-07  0.4109270E+04  0.7818609E-02  0.7982859E-01
       -2   -1    0    0    0  501  0.00000000000E+00  0.00000000000E+00  0.17229857106E+04  0.17229857106E+04  0.25500000920E-02 0.  1.
        2   -1    0    0  501    0  0.00000000000E+00  0.00000000000E+00 -0.24501213585E+04  0.24501213585E+04  0.25500000920E-02 0. -1.
    10030    2    1    2    0    0  0.00000000000E+00  0.00000000000E+00 -0.72713564790E+03  0.41731070691E+04  0.41092695653E+04 0.  0.
        1    1    3    3  502    0  0.13805625439E+04  0.10597711165E+04 -0.14725284792E+04  0.22797824192E+04  0.50400001928E-02 0. -1.
       -1    1    3    3    0  502 -0.13805625439E+04 -0.10597711165E+04  0.74539283132E+03  0.18933246499E+04  0.50400001928E-02 0.  1.
</event>
<event>
 5   0  0.4449262E-07  0.3941360E+04  0.7818609E-02  0.8016482E-01
       -2   -1    0    0    0  501  0.00000000000E+00  0.00000000000E+00  0.15631545256E+04  0.15631545256E+04  0.25500000920E-02 0. -1.
        2   -1    0    0  501    0  0.00000000000E+00  0.00000000000E+00 -0.24844496575E+04  0.24844496575E+04  0.25500000920E-02 0.  1.
    10030    2    1    2    0    0  0.00000000000E+00  0.00000000000E+00 -0.92129513195E+03  0.40476041831E+04  0.39413595247E+04 0.  0.
        1    1    3    3  502    0 -0.14363367513E+04  0.65666567822E+03  0.74981366601E+03  0.17482830462E+04  0.50400001928E-02 0. -1.
       -1    1    3    3    0  502  0.14363367513E+04 -0.65666567822E+03 -0.16711087980E+04  0.22993211369E+04  0.50400001928E-02 0.  1.
</event>
<event>
 5   0  0.6043512E-07  0.4192251E+04  0.7818609E-02  0.7966848E-01
        2   -1    0    0  501    0  0.00000000000E+00  0.00000000000E+00  0.21648853368E+04  0.21648853368E+04  0.25500000920E-02 0. -1.
       -2   -1    0    0    0  501  0.00000000000E+00  0.00000000000E+00 -0.20295495758E+04  0.20295495758E+04  0.25500000920E-02 0.  1.
    10030    2    1    2    0    0  0.00000000000E+00  0.00000000000E+00  0.13533576098E+03  0.41944349127E+04  0.41922510026E+04 0.  0.
        3    1    3    3  502    0  0.86563032323E+03  0.11683153518E+04  0.15782442725E+04  0.21459570386E+04  0.10100000352E+00 0. -1.
       -3    1    3    3    0  502 -0.86563032323E+03 -0.11683153518E+04 -0.14429085115E+04  0.20484778741E+04  0.10100000352E+00 0.  1.
</event>
<event>
 5   0  0.2647879E-07  0.2558154E+04  0.7818609E-02  0.8382556E-01
       -1   -1    0    0    0  501  0.00000000000E+00  0.00000000000E+00  0.91118733237E+03  0.91118733239E+03  0.50400001928E-02 0. -1.
        1   -1    0    0  501    0  0.00000000000E+00  0.00000000000E+00 -0.17955013804E+04  0.17955013804E+04  0.50400001928E-02 0.  1.
    10030    2    1    2    0    0  0.00000000000E+00  0.00000000000E+00 -0.88431404806E+03  0.27066887128E+04  0.25581541104E+04 0.  0.
        2    1    3    3  502    0  0.21590975336E+02  0.66825215403E+03 -0.15958879772E+04  0.17302848168E+04  0.25500000920E-02 0.  1.
       -2    1    3    3    0  502 -0.21590975336E+02 -0.66825215403E+03  0.71157392910E+03  0.97640389602E+03  0.25500000920E-02 0. -1.
</event>
<event>
 5   0  0.6043512E-07  0.3734579E+04  0.7818609E-02  0.8060342E-01
        2   -1    0    0  501    0  0.00000000000E+00  0.00000000000E+00  0.21787705612E+04  0.21787705612E+04  0.25500000920E-02 0.  1.
       -2   -1    0    0    0  501  0.00000000000E+00  0.00000000000E+00 -0.16003382124E+04  0.16003382124E+04  0.25500000920E-02 0. -1.
    10030    2    1    2    0    0  0.00000000000E+00  0.00000000000E+00  0.57843234881E+03  0.37791087736E+04  0.37345788438E+04 0.  0.
        3    1    3    3  502    0 -0.95094720644E+03 -0.80085681416E+03  0.16990614076E+04  0.21053460294E+04  0.10100000352E+00 0.  1.
       -3    1    3    3    0  502  0.95094720644E+03  0.80085681416E+03 -0.11206290588E+04  0.16737627442E+04  0.10100000352E+00 0. -1.
</event>
<event>
 5   0  0.3579559E-07  0.4177620E+04  0.7818609E-02  0.7969643E-01
        1   -1    0    0  501    0  0.00000000000E+00  0.00000000000E+00  0.18812865663E+04  0.18812865663E+04  0.50400001928E-02 0.  1.
       -1   -1    0    0    0  501  0.00000000000E+00  0.00000000000E+00 -0.23192253948E+04  0.23192253948E+04  0.50400001928E-02 0. -1.
    10030    2    1    2    0    0  0.00000000000E+00  0.00000000000E+00 -0.43793882853E+03  0.42005119611E+04  0.41776201740E+04 0.  0.
        4    1    3    3  502    0 -0.13303871429E+04  0.46115564396E+03 -0.17703210190E+04  0.22619974803E+04  0.12699999809E+01 0. -1.
       -4    1    3    3    0  502  0.13303871429E+04 -0.46115564396E+03  0.13323821905E+04  0.19385144808E+04  0.12699999809E+01 0.  1.
</event>
<event>
 5   0  0.2401125E-07  0.4001027E+04  0.7818609E-02  0.8004339E-01
        1   -1    0    0  501    0  0.00000000000E+00  0.00000000000E+00  0.28706425076E+04  0.28706425076E+04  0.50400001928E-02 0. -1.
       -1   -1    0    0    0  501  0.00000000000E+00  0.00000000000E+00 -0.13941317328E+04  0.13941317328E+04  0.50400001928E-02 0.  1.
    10030    2    1    2    0    0  0.00000000000E+00  0.00000000000E+00  0.14765107748E+04  0.42647742404E+04  0.40010267749E+04 0.  0.
        5    1    3    3  502    0 -0.12067118469E+04 -0.10728250293E+04 -0.52066993923E+03  0.16965336132E+04  0.46999998093E+01 0.  1.
       -5    1    3    3    0  502  0.12067118469E+04  0.10728250293E+04  0.19971807141E+04  0.25682406273E+04  0.46999998093E+01 0. -1.
</event>
<event>
 5   0  0.2647879E-07  0.2700466E+04  0.7818609E-02  0.8334854E-01
       -1   -1    0    0    0  501  0.00000000000E+00  0.00000000000E+00  0.99019041022E+03  0.99019041023E+03  0.50400001928E-02 0. -1.
        1   -1    0    0  501    0  0.00000000000E+00  0.00000000000E+00 -0.18411910232E+04  0.18411910233E+04  0.50400001928E-02 0.  1.
    10030    2    1    2    0    0  0.00000000000E+00  0.00000000000E+00 -0.85100061303E+03  0.28313814335E+04  0.27004664002E+04 0.  0.
        2    1    3    3  502    0 -0.61220786149E+03  0.97374029746E+03  0.31600547419E+03  0.11928235797E+04  0.25500000920E-02 0. -1.
       -2    1    3    3    0  502  0.61220786149E+03 -0.97374029746E+03 -0.11670060872E+04  0.16385578538E+04  0.25500000920E-02 0.  1.
</event>
<event>
 5   0  0.2601252E-07  0.3784399E+04  0.7818609E-02  0.8049511E-01
        1   -1    0    0  501    0  0.00000000000E+00  0.00000000000E+00  0.20345001253E+04  0.20345001253E+04  0.50400001928E-02 0.  1.
       -1   -1    0    0    0  501  0.00000000000E+00  0.00000000000E+00 -0.17598518650E+04  0.17598518651E+04  0.50400001928E-02 0. -1.
    10030    2    1    2    0    0  0.00000000000E+00  0.00000000000E+00  0.27464826024E+03  0.37943519903E+04  0.37843989430E+04 0.  0.
        3    1    3    3  502    0  0.15315130939E+04 -0.47287225472E+03  0.11455922812E+04  0.19701579152E+04  0.10100000352E+00 0.  1.
       -3    1    3    3    0  502 -0.15315130939E+04  0.47287225472E+03 -0.87094402092E+03  0.18241940751E+04  0.10100000352E+00 0. -1.
</event>
<event>
 5   0  0.5161550E-07  0.2783392E+04  0.7818609E-02  0.8308443E-01
       -2   -1    0    0    0  501  0.00000000000E+00  0.00000000000E+00  0.95185429836E+03  0.95185429837E+03  0.25500000920E-02 0. -1.
        2   -1    0    0  501    0  0.00000000000E+00  0.00000000000E+00 -0.20347841144E+04  0.20347841144E+04  0.25500000920E-02 0.  1.
    10030    2    1    2    0    0  0.00000000000E+00  0.00000000000E+00 -0.10829298161E+04  0.29866384128E+04  0.27833921790E+04 0.  0.
        2    1    3    3  502    0  0.42456389364E+03 -0.46312061022E+03 -0.18739491795E+04  0.19764667280E+04  0.25500000920E-02 0.  1.
       -2    1    3    3    0  502 -0.42456389364E+03  0.46312061022E+03  0.79101936346E+03  0.10101716848E+04  0.25500000920E-02 0. -1.
</event>
<event>
 5   0  0.3579559E-07  0.4019447E+04  0.7818609E-02  0.8000635E-01
        1   -1    0    0  501    0  0.00000000000E+00  0.00000000000E+00  0.17002490501E+04  0.17002490501E+04  0.50400001928E-02 0.  1.
       -1   -1    0    0    0  501  0.00000000000E+00  0.00000000000E+00 -0.23755281114E+04  0.23755281115E+04  0.50400001928E-02 0. -1.
    10030    2    1    2    0    0  0.00000000000E+00  0.00000000000E+00 -0.67527906139E+03  0.40757771615E+04  0.40194474321E+04 0.  0.
        4    1    3    3  502    0  0.73968948193E+03  0.79947744817E+03 -0.20502982958E+04  0.23216436924E+04  0.12699999809E+01 0. -1.
       -4    1    3    3    0  502 -0.73968948193E+03 -0.79947744817E+03  0.13750192344E+04  0.17541334691E+04  0.12699999809E+01 0.  1.
</event>
<event>
 5   0  0.5161550E-07  0.4027734E+04  0.7818609E-02  0.7998975E-01
       -2   -1    0    0    0  501  0.00000000000E+00  0.00000000000E+00  0.19956981502E+04  0.19956981502E+04  0.25500000920E-02 0.  1.
        2   -1    0    0  501    0  0.00000000000E+00  0.00000000000E+00 -0.20322014164E+04  0.20322014164E+04  0.25500000920E-02 0. -1.
    10030    2    1    2    0    0  0.00000000000E+00  0.00000000000E+00 -0.36503266144E+02  0.40278995666E+04  0.40277341558E+04 0.  0.
        2    1    3    3  502    0 -0.13174116134E+04  0.48242600363E+03 -0.14630782142E+04  0.20270436771E+04  0.25500000920E-02 0. -1.
       -2    1    3    3    0  502  0.13174116134E+04 -0.48242600363E+03  0.14265749481E+04  0.20008558895E+04  0.25500000920E-02 0.  1.
</event>
<event>
 5   0  0.6527618E-07  0.2255489E+04  0.7818609E-02  0.8495681E-01
       -2   -1    0    0    0  501  0.00000000000E+00  0.00000000000E+00  0.89732443231E+03  0.89732443232E+03  0.25500000920E-02 0. -1.
        2   -1    0    0  501    0  0.00000000000E+00  0.00000000000E+00 -0.14173331112E+04  0.14173331113E+04  0.25500000920E-02 0.  1.
    10030    2    1    2    0    0  0.00000000000E+00  0.00000000000E+00 -0.52000867893E+03  0.23146575436E+04  0.22554889753E+04 0.  0.
        3    1    3    3  502    0 -0.74236179921E+02  0.71147906015E+03  0.63470039142E+03  0.95632529011E+03  0.10100000352E+00 0. -1.
       -3    1    3    3    0  502  0.74236179921E+02 -0.71147906015E+03 -0.11547090704E+04  0.13583322535E+04  0.10100000352E+00 0.  1.
</event>
<event>
 5   0  0.2713405E-07  0.3972344E+04  0.7818609E-02  0.8010149E-01
        1   -1    0    0  501    0  0.00000000000E+00  0.00000000000E+00  0.19711304753E+04  0.19711304753E+04  0.50400001928E-02 0.  1.
       -1   -1    0    0    0  501  0.00000000000E+00  0.00000000000E+00 -0.20013281845E+04  0.20013281845E+04  0.50400001928E-02 0. -1.
    10030    2    1    2    0    0  0.00000000000E+00  0.00000000000E+00 -0.30197709185E+02  0.39724586598E+04  0.39723438801E+04 0.  0.
        1    1    3    3  502    0  0.19691313202E+03  0.14381905321E+04  0.13405627511E+04  0.19759239048E+04  0.50400001928E-02 0. -1.
       -1    1    3    3    0  502 -0.19691313202E+03 -0.14381905321E+04 -0.13707604603E+04  0.19965347549E+04  0.50400001928E-02 0.  1.
</event>
<event>
 5   0  0.2401125E-07  0.2620585E+04  0.7818609E-02  0.8361242E-01
       -1   -1    0    0    0  501  0.00000000000E+00  0.00000000000E+00  0.11978490985E+04  0.11978490986E+04  0.50400001928E-02 0.  1.
        1   -1    0    0  501    0  0.00000000000E+00  0.00000000000E+00 -0.14332912138E+04  0.14332912138E+04  0.50400001928E-02 0. -1.
    10030    2    1    2    0    0  0.00000000000E+00  0.00000000000E+00 -0.23544211522E+03  0.26311403123E+04  0.26205851166E+04 0.  0.
        5    1    3    3  502    0 -0.27154512762E+03 -0.11456479256E+04  0.45957185461E+03  0.12639123013E+04  0.46999998093E+01 0.  1.
       -5    1    3    3    0  502  0.27154512762E+03  0.11456479256E+04 -0.69501396983E+03  0.13672280110E+04  0.46999998093E+01 0. -1.
</event>
<event>
 5   0  0.2601252E-07  0.2414412E+04  0.7818609E-02  0.8434127E-01
        1   -1    0    0  501    0  0.00000000000E+00  0.00000000000E+00  0.24476263968E+04  0.24476263969E+04  0.50400001928E-02 0. -1.
       -1   -1    0    0    0  501  0.00000000000E+00  0.00000000000E+00 -0.59541222737E+03  0.59541222739E+03  0.50400001928E-02 0.  1.
    10030    2    1    2    0    0  0.00000000000E+00  0.00000000000E+00  0.18522141695E+04  0.30430386242E+04  0.24144122968E+04 0.  0.
        3    1    3    3  502    0  0.46416274901E+03 -0.50306547437E+03 -0.32719480207E+03  0.75866881957E+03  0.10100000352E+00 0.  1.
       -3    1    3    3    0  502 -0.46416274901E+03  0.50306547437E+03  0.21794089715E+04  0.22843698047E+04  0.10100000352E+00 0. -1.
</event>
<event>
 5   0  0.5161550E-07  0.4102356E+04  0.7818609E-02  0.7984211E-01
        2   -1    0    0  501    0  0.00000000000E+00  0.00000000000E+00  0.14822066641E+04  0.14822066641E+04  0.25500000920E-02 0.  1.
       -2   -1    0    0    0  501  0.00000000000E+00  0.00000000000E+00 -0.28385586626E+04  0.28385586626E+04  0.25500000920E-02 0. -1.
    10030    2    1    2    0    0  0.00000000000E+00  0.00000000000E+00 -0.13563519985E+04  0.43207653267E+04  0.41023556970E+04 0.  0.
        2    1    3    3  502    0 -0.22672980289E+03  0.44265843993E+03  0.14177393305E+04  0.15024439115E+04  0.25500000920E-02 0.  1.
       -2    1    3    3    0  502  0.22672980289E+03 -0.44265843993E+03 -0.27740913290E+04  0.28183214152E+04  0.25500000920E-02 0. -1.
</event>
<event>
 5   0  0.2647879E-07  0.4006829E+04  0.7818609E-02  0.8003170E-01
       -1   -1    0    0    0  501  0.00000000000E+00  0.00000000000E+00  0.32010255542E+04  0.32010255542E+04  0.50400001928E-02 0.  1.
        1   -1    0    0  501    0  0.00000000000E+00  0.00000000000E+00 -0.12538700516E+04  0.12538700516E+04  0.50400001928E-02 0. -1.
    10030    2    1    2    0    0  0.00000000000E+00  0.00000000000E+00  0.19471555026E+04  0.44548956058E+04  0.40068292087E+04 0.  0.
        2    1    3    3  502    0 -0.15139731710E+04  0.12446391054E+04  0.14352583429E+04  0.24292401644E+04  0.25500000920E-02 0.  1.
       -2    1    3    3    0  502  0.15139731710E+04 -0.12446391054E+04  0.51189715962E+03  0.20256554414E+04  0.25500000920E-02 0. -1.
</event>
<event>
 5   0  0.4449262E-07  0.3384556E+04  0.7818609E-02  0.8141707E-01
       -2   -1    0    0    0  501  0.00000000000E+00  0.00000000000E+00  0.16467940007E+04  0.16467940007E+04  0.25500000920E-02 0.  1.
        2   -1    0    0  501    0  0.00000000000E+00  0.00000000000E+00 -0.17390184853E+04  0.17390184853E+04  0.25500000920E-02 0. -1.
    10030    2    1    2    0    0  0.00000000000E+00  0.00000000000E+00 -0.92224484670E+02  0.33858124860E+04  0.33845562242E+04 0.  0.
        1    1    3    3  502    0  0.14506234469E+04 -0.19943228023E+03  0.80256789485E+03  0.16697894613E+04  0.50400001928E-02 0.  1.
       -1    1    3    3    0  502 -0.14506234469E+04  0.19943228023E+03 -0.89479237952E+03  0.17160230248E+04  0.50400001928E-02 0. -1.
</event>
<event>
 5   0  0.6043512E-07  0.4024539E+04  0.7818609E-02  0.7999615E-01
        2   -1    0    0  501    0  0.00000000000E+00  0.00000000000E+00  0.18639002830E+04  0.18639002830E+04  0.25500000920E-02 0.  1.
       -2   -1    0    0    0  501  0.00000000000E+00  0.00000000000E+00 -0.21724489817E+04  0.21724489817E+04  0.25500000920E-02 0. -1.
    10030    2    1    2    0    0  0.00000000000E+00  0.00000000000E+00 -0.30854869866E+03  0.40363492647E+04  0.40245388664E+04 0.  0.
        3    1    3    3  502    0  0.74232861284E+03  0.20829514993E+03  0.17098866424E+04  0.18756734734E+04  0.10100000352E+00 0.  1.
       -3    1    3    3    0  502 -0.74232861284E+03 -0.20829514993E+03 -0.20184353410E+04  0.21606757913E+04  0.10100000352E+00 0. -1.
</event>
<event>
 5   0  0.7256473E-07  0.3845885E+04  0.7818609E-02  0.8036379E-01
        2   -1    0    0  501    0  0.00000000000E+00  0.00000000000E+00  0.23546398913E+04  0.23546398913E+04  0.25500000920E-02 0. -1.
       -2   -1    0    0    0  501  0.00000000000E+00  0.00000000000E+00 -0.15703919423E+04  0.15703919423E+04  0.25500000920E-02 0.  1.
    10030    2    1    2    0    0  0.00000000000E+00  0.00000000000E+00  0.78424794909E+03  0.39250318336E+04  0.38458848201E+04 0.  0.
        4    1    3    3  502    0 -0.10503656651E+04  0.10287932839E+03  0.20326414875E+04  0.22903024290E+04  0.12699999809E+01 0. -1.
       -4    1    3    3    0  502  0.10503656651E+04 -0.10287932839E+03 -0.12483935384E+04  0.16347294046E+04  0.12699999809E+01 0.  1.
</event>
<event>
 5   0  0.2647879E-07  0.3755094E+04  0.7818609E-02  0.8055861E-01
        1   -1    0    0  501    0  0.00000000000E+00  0.00000000000E+00  0.27712236746E+04  0.27712236746E+04  0.50400001928E-02 0. -1.
       -1   -1    0    0    0  501  0.00000000000E+00  0.00000000000E+00 -0.12720675034E+04  0.12720675034E+04  0.50400001928E-02 0.  1.
    10030    2    1    2    0    0  0.00000000000E+00  0.00000000000E+00  0.14991561713E+04  0.40432911780E+04  0.37550944494E+04 0.  0.
        2    1    3    3  502    0 -0.97294459698E+03  0.79452293637E+03 -0.75297597039E+03  0.14645342936E+04  0.25500000920E-02 0.  1.
       -2    1    3    3    0  502  0.97294459698E+03 -0.79452293637E+03  0.22521321417E+04  0.25787568844E+04  0.25500000920E-02 0. -1.
</event>
<event>
 5   0  0.4449262E-07  0.4101033E+04  0.7818609E-02  0.7984469E-01
        2   -1    0    0  501    0  0.00000000000E+00  0.00000000000E+00  0.29209067599E+04  0.29209067599E+04  0.25500000920E-02 0. -1.
       -2   -1    0    0    0  501  0.00000000000E+00  0.00000000000E+00 -0.14394909679E+04  0.14394909679E+04  0.25500000920E-02 0.  1.
    10030    2    1    2    0    0  0.00000000000E+00  0.00000000000E+00  0.14814157920E+04  0.43603977278E+04  0.41010334790E+04 0.  0.
        1    1    3    3  502    0  0.10407093868E+04 -0.17474011627E+04  0.10182369855E+04  0.22744875049E+04  0.50400001928E-02 0.  1.
       -1    1    3    3    0  502 -0.10407093868E+04  0.17474011627E+04  0.46317880649E+03  0.20859102229E+04  0.50400001928E-02 0. -1.
</event>
<event>
 5   0  0.2911097E-07  0.2193600E+04  0.7818609E-02  0.8521096E-01
       -1   -1    0    0    0  501  0.00000000000E+00  0.00000000000E+00  0.11807931850E+04  0.11807931851E+04  0.50400001928E-02 0.  1.
        1   -1    0    0  501    0  0.00000000000E+00  0.00000000000E+00 -0.10187819334E+04  0.10187819334E+04  0.50400001928E-02 0. -1.
    10030    2    1    2    0    0  0.00000000000E+00  0.00000000000E+00  0.16201125169E+03  0.21995751184E+04  0.21936004777E+04 0.  0.
        2    1    3    3  502    0  0.30828990516E+03 -0.10079079105E+04  0.38522898333E+03  0.11221953445E+04  0.25500000920E-02 0.  1.
       -2    1    3    3    0  502 -0.30828990516E+03  0.10079079105E+04 -0.22321773164E+03  0.10773797739E+04  0.25500000920E-02 0. -1.
</event>
<event>
 5   0  0.5161550E-07  0.3241359E+04  0.7818609E-02  0.8177979E-01
       -2   -1    0    0    0  501  0.00000000000E+00  0.00000000000E+00  0.11663262117E+04  0.11663262117E+04  0.25500000920E-02 0. -1.
        2   -1    0    0  501    0  0.00000000000E+00  0.00000000000E+00 -0.22520308283E+04  0.22520308283E+04  0.25500000920E-02 0.  1.
    10030    2    1    2    0    0  0.00000000000E+00  0.00000000000E+00 -0.10857046166E+04  0.34183570399E+04  0.32413593349E+04 0.  0.
        2    1    3    3  502    0 -0.12363056412E+03 -0.89771697995E+03 -0.19598842595E+04  0.21592421363E+04  0.25500000920E-02 0.  1.
       -2    1    3    3    0  502  0.12363056412E+03  0.89771697995E+03  0.87417964290E+03  0.12591149036E+04  0.25500000920E-02 0. -1.
</event>
<event>
 5   0  0.3579559E-07  0.2273110E+04  0.7818609E-02  0.8488600E-01
       -1   -1    0    0    0  501  0.00000000000E+00  0.00000000000E+00  0.93137085086E+03  0.93137085087E+03  0.50400001928E-02 0. -1.
        1   -1    0    0  501    0  0.00000000000E+00  0.00000000000E+00 -0.13869416635E+04  0.13869416635E+04  0.50400001928E-02 0.  1.
    10030    2    1    2    0    0  0.00000000000E+00  0.00000000000E+00 -0.45557081267E+03  0.23183125144E+04  0.22731097970E+04 0.  0.
        4    1    3    3  502    0  0.77179257961E+03 -0.70698128774E+03 -0.67961797087E+03  0.12479457225E+04  0.12699999809E+01 0.  1.
       -4    1    3    3    0  502 -0.77179257961E+03  0.70698128774E+03  0.22404715819E+03  0.10703667919E+04  0.12699999809E+01 0. -1.
</event>
<event>
 5   0  0.6043512E-07  0.2290057E+04  0.7818609E-02  0.8481852E-01
       -2   -1    0    0    0  501  0.00000000000E+00  0.00000000000E+00  0.97984338959E+03  0.97984338959E+03  0.25500000920E-02 0.  1.
        2   -1    0    0  501    0  0.00000000000E+00  0.00000000000E+00 -0.13380610018E+04  0.13380610018E+04  0.25500000920E-02 0. -1.
    10030    2    1    2    0    0  0.00000000000E+00  0.00000000000E+00 -0.35821761224E+03  0.23179043914E+04  0.22900569666E+04 0.  0.
        3    1    3    3  502    0 -0.16888711288E+02 -0.76902233465E+03 -0.10376029920E+04  0.12916270975E+04  0.10100000352E+00 0. -1.
       -3    1    3    3    0  502  0.16888711288E+02  0.76902233465E+03  0.67938537971E+03  0.10262772940E+04  0.10100000352E+00 0.  1.
</event>
<event>
 5   0  0.6043512E-07  0.2886597E+04  0.7818609E-02  0.8276876E-01
       -2   -1    0    0    0  501  0.00000000000E+00  0.00000000000E+00  0.10453821553E+04  0.10453821553E+04  0.25500000920E-02 0. -1.
        2   -1    0    0  501    0  0.00000000000E+00  0.00000000000E+00 -0.19926790400E+04  0.19926790400E+04  0.25500000920E-02 0.  1.
    10030    2    1    2    0    0  0.00000000000E+00  0.00000000000E+00 -0.94729688463E+03  0.30380611953E+04  0.28865973808E+04 0.  0.
        3    1    3    3  502    0 -0.11678144824E+04  0.16013189261E+03  0.40292706347E+03  0.12457058710E+04  0.10100000352E+00 0. -1.
       -3    1    3    3    0  502  0.11678144824E+04 -0.16013189261E+03 -0.13502239481E+04  0.17923553243E+04  0.10100000352E+00 0.  1.
</event>
<event>
 5   0  0.5161550E-07  0.3997605E+04  0.7818609E-02  0.8005030E-01
        2   -1    0    0  501    0  0.00000000000E+00  0.00000000000E+00  0.18696686894E+04  0.18696686894E+04  0.25500000920E-02 0.  1.
       -2   -1    0    0    0  501  0.00000000000E+00  0.00000000000E+00 -0.21368554202E+04  0.21368554203E+04  0.25500000920E-02 0. -1.
    10030    2    1    2    0    0  0.00000000000E+00  0.00000000000E+00 -0.26718673088E+03  0.40065241096E+04  0.39976051195E+04 0.  0.
        2    1    3    3  502    0 -0.10206540839E+04  0.35301894806E+03 -0.18192657648E+04  0.21156760290E+04  0.25500000920E-02 0. -1.
       -2    1    3    3    0  502  0.10206540839E+04 -0.35301894806E+03  0.15520790339E+04  0.18908480807E+04  0.25500000920E-02 0.  1.
</event>
<event>
 5   0  0.5161550E-07  0.3906191E+04  0.7818609E-02  0.8023743E-01
        2   -1    0    0  501    0  0.00000000000E+00  0.00000000000E+00  0.20870647219E+04  0.20870647219E+04  0.25500000920E-02 0.  1.
       -2   -1    0    0    0  501  0.00000000000E+00  0.00000000000E+00 -0.18277257564E+04  0.18277257564E+04  0.25500000920E-02 0. -1.
    10030    2    1    2    0    0  0.00000000000E+00  0.00000000000E+00  0.25933896543E+03  0.39147904783E+04  0.39061909567E+04 0.  0.
        2    1    3    3  502    0  0.74499594242E+03  0.16680311409E+04 -0.56267342055E+03  0.19115303344E+04  0.25500000920E-02 0. -1.
       -2    1    3    3    0  502 -0.74499594242E+03 -0.16680311409E+04  0.82201238598E+03  0.20032601439E+04  0.25500000920E-02 0.  1.
</event>
<event>
 5   0  0.4449262E-07  0.2853254E+04  0.7818609E-02  0.8286923E-01
        2   -1    0    0  501    0  0.00000000000E+00  0.00000000000E+00  0.16336627497E+04  0.16336627497E+04  0.25500000920E-02 0. -1.
       -2   -1    0    0    0  501  0.00000000000E+00  0.00000000000E+00 -0.12458290860E+04  0.12458290860E+04  0.25500000920E-02 0.  1.
    10030    2    1    2    0    0  0.00000000000E+00  0.00000000000E+00  0.38783366376E+03  0.28794918357E+04  0.28532539812E+04 0.  0.
        1    1    3    3  502    0 -0.11625893271E+04 -0.21967620969E+02 -0.64022364012E+03  0.13273970126E+04  0.50400001928E-02 0.  1.
       -1    1    3    3    0  502  0.11625893271E+04  0.21967620969E+02  0.10280573039E+04  0.15520948231E+04  0.50400001928E-02 0. -1.
</event>
<event>
 5   0  0.2601252E-07  0.2531600E+04  0.7818609E-02  0.8391814E-01
       -1   -1    0    0    0  501  0.00000000000E+00  0.00000000000E+00  0.92163494293E+03  0.92163494295E+03  0.50400001928E-02 0. -1.
        1   -1    0    0  501    0  0.00000000000E+00  0.00000000000E+00 -0.17384862454E+04  0.17384862454E+04  0.50400001928E-02 0.  1.
    10030    2    1    2    0    0  0.00000000000E+00  0.00000000000E+00 -0.81685130248E+03  0.26601211884E+04  0.25316000250E+04 0.  0.
        3    1    3    3  502    0 -0.10567190946E+04  0.59865581293E+03 -0.33660236681E+02  0.12149802669E+04  0.10100000352E+00 0.  1.
       -3    1    3    3    0  502  0.10567190946E+04 -0.59865581293E+03 -0.78319106580E+03  0.14451409215E+04  0.10100000352E+00 0. -1.
</event>
<event>
 5   0  0.2713405E-07  0.2698619E+04  0.7818609E-02  0.8335453E-01
       -1   -1    0    0    0  501  0.00000000000E+00  0.00000000000E+00  0.12079874799E+04  0.12079874799E+04  0.50400001928E-02 0.  1.
        1   -1    0    0  501    0  0.00000000000E+00  0.00000000000E+00 -0.15071650515E+04  0.15071650515E+04  0.50400001928E-02 0. -1.
    10030    2    1    2    0    0  0.00000000000E+00  0.00000000000E+00 -0.29917757167E+03  0.27151525314E+04  0.26986192858E+04 0.  0.
        1    1    3    3  502    0 -0.23615284628E+03 -0.12438053324E+04 -0.61915640457E+03  0.14093170421E+04  0.50400001928E-02 0. -1.
       -1    1    3    3    0  502  0.23615284628E+03  0.12438053324E+04  0.31997883291E+03  0.13058354893E+04  0.50400001928E-02 0.  1.
</event>
<event>
 5   0  0.2401125E-07  0.3970895E+04  0.7818609E-02  0.8010444E-01
       -1   -1    0    0    0  501  0.00000000000E+00  0.00000000000E+00  0.19230142786E+04  0.19230142786E+04  0.50400001928E-02 0. -1.
        1   -1    0    0  501    0  0.00000000000E+00  0.00000000000E+00 -0.20499073919E+04  0.20499073919E+04  0.50400001928E-02 0.  1.
    10030    2    1    2    0    0  0.00000000000E+00  0.00000000000E+00 -0.12689311330E+03  0.39729216705E+04  0.39708947024E+04 0.  0.
        5    1    3    3  502    0 -0.42556439292E+03 -0.10839874990E+04  0.15454306106E+04  0.19350741104E+04  0.46999998093E+01 0. -1.
       -5    1    3    3    0  502  0.42556439292E+03  0.10839874990E+04 -0.16723237239E+04  0.20378475601E+04  0.46999998093E+01 0.  1.
</event>
<event>
 5   0  0.2401125E-07  0.3292812E+04  0.7818609E-02  0.8164727E-01
        3   -1    0    0  501    0  0.00000000000E+00  0.00000000000E+00  0.25334488730E+04  0.25334488750E+04  0.10100000352E+00 0. -1.
       -3   -1    0    0    0  501  0.00000000000E+00  0.00000000000E+00 -0.10699455099E+04  0.10699455146E+04  0.10100000352E+00 0.  1.
    10030    2    1    2    0    0  0.00000000000E+00  0.00000000000E+00  0.14635033631E+04  0.36033943896E+04  0.32928117215E+04 0.  0.
        5    1    3    3  502    0  0.89847270086E+03  0.41295184444E+03 -0.70878758921E+03  0.12166282738E+04  0.46999998093E+01 0.  1.
       -5    1    3    3    0  502 -0.89847270086E+03 -0.41295184444E+03  0.21722909523E+04  0.23867661158E+04  0.46999998093E+01 0. -1.
</event>
<event>
 5   0  0.4449262E-07  0.3024688E+04  0.7818609E-02  0.8236716E-01
        2   -1    0    0  501    0  0.00000000000E+00  0.00000000000E+00  0.15620204184E+04  0.15620204184E+04  0.25500000920E-02 0.  1.
       -2   -1    0    0    0  501  0.00000000000E+00  0.00000000000E+00 -0.14642471148E+04  0.14642471148E+04  0.25500000920E-02 0. -1.
    10030    2    1    2    0    0  0.00000000000E+00  0.00000000000E+00  0.97773303610E+02  0.30262675332E+04  0.30246876804E+04 0.  0.
        1    1    3    3  502    0 -0.47351752503E+03  0.13778582128E+04  0.45464969643E+03  0.15262432465E+04  0.50400001928E-02 0.  1.
       -1    1    3    3    0  502  0.47351752503E+03 -0.13778582128E+04 -0.35687639282E+03  0.15000242867E+04  0.50400001928E-02 0. -1.
</event>
<event>
 5   0  0.2401125E-07  0.2370180E+04  0.7818609E-02  0.8450753E-01
        3   -1    0    0  501    0  0.00000000000E+00  0.00000000000E+00  0.14825723939E+04  0.14825723974E+04  0.10100000352E+00 0.  1.
       -3   -1    0    0    0  501  0.00000000000E+00  0.00000000000E+00 -0.94729816051E+03  0.94729816590E+03  0.10100000352E+00 0. -1.
    10030    2    1    2    0    0  0.00000000000E+00  0.00000000000E+00  0.53527423342E+03  0.24298705633E+04  0.23701798348E+04 0.  0.
        2    1    3    3  502    0 -0.26187283475E+03 -0.16433222783E+03 -0.90522704715E+03  0.95656597765E+03  0.25500000920E-02 0. -1.
       -2    1    3    3    0  502  0.26187283475E+03  0.16433222783E+03  0.14405012806E+04  0.14733045856E+04  0.25500000920E-02 0.  1.
</event>
<event>
 5   0  0.3579559E-07  0.3541759E+04  0.7818609E-02  0.8103964E-01
        1   -1    0    0  501    0  0.00000000000E+00  0.00000000000E+00  0.10317780513E+04  0.10317780513E+04  0.50400001928E-02 0. -1.
       -1   -1    0    0    0  501  0.00000000000E+00  0.00000000000E+00 -0.30394269443E+04  0.30394269443E+04  0.50400001928E-02 0.  1.
    10030    2    1    2    0    0  0.00000000000E+00  0.00000000000E+00 -0.20076488930E+04  0.40712049955E+04  0.35417588905E+04 0.  0.
        4    1    3    3  502    0  0.13602032400E+04  0.91398825755E+03 -0.17753390465E+04  0.24160624438E+04  0.12699999809E+01 0.  1.
       -4    1    3    3    0  502 -0.13602032400E+04 -0.91398825755E+03 -0.23230984644E+03  0.16551425518E+04  0.12699999809E+01 0. -1.
</event>
<event>
 5   0  0.5161550E-07  0.4133671E+04  0.7818609E-02  0.7978111E-01
        2   -1    0    0  501    0  0.00000000000E+00  0.00000000000E+00  0.22360089798E+04  0.22360089798E+04  0.25500000920E-02 0. -1.
       -2   -1    0    0    0  501  0.00000000000E+00  0.00000000000E+00 -0.19104616645E+04  0.19104616645E+04  0.25500000920E-02 0.  1.
    10030    2    1    2    0    0  0.00000000000E+00  0.00000000000E+00  0.32554731530E+03  0.41464706443E+04  0.41336712193E+04 0.  0.
        2    1    3    3  502    0 -0.27239274979E+03  0.17383604625E+04 -0.92488746800E+03  0.19878409736E+04  0.25500000920E-02 0.  1.
       -2    1    3    3    0  502  0.27239274979E+03 -0.17383604625E+04  0.12504347833E+04  0.21586296707E+04  0.25500000920E-02 0. -1.
</event>
<event>
 5   0  0.2647879E-07  0.3951663E+04  0.7818609E-02  0.8014369E-01
       -1   -1    0    0    0  501  0.00000000000E+00  0.00000000000E+00  0.18447317448E+04  0.18447317448E+04  0.50400001928E-02 0.  1.
        1   -1    0    0  501    0  0.00000000000E+00  0.00000000000E+00 -0.21162477126E+04  0.21162477126E+04  0.50400001928E-02 0. -1.
    10030    2    1    2    0    0  0.00000000000E+00  0.00000000000E+00 -0.27151596776E+03  0.39609794574E+04  0.39516626047E+04 0.  0.
        2    1    3    3  502    0 -0.22401169419E+03  0.15847731425E+04 -0.12970326157E+04  0.20600924151E+04  0.25500000920E-02 0. -1.
       -2    1    3    3    0  502  0.22401169419E+03 -0.15847731425E+04  0.10255166480E+04  0.19008870423E+04  0.25500000920E-02 0.  1.
</event>
<event>
 5   0  0.3579559E-07  0.3997821E+04  0.7818609E-02  0.8004986E-01
        1   -1    0    0  501    0  0.00000000000E+00  0.00000000000E+00  0.22228706453E+04  0.22228706453E+04  0.50400001928E-02 0. -1.
       -1   -1    0    0    0  501  0.00000000000E+00  0.00000000000E+00 -0.17975150321E+04  0.17975150321E+04  0.50400001928E-02 0.  1.
    10030    2    1    2    0    0  0.00000000000E+00  0.00000000000E+00  0.42535561320E+03  0.40203856774E+04  0.39978211062E+04 0.  0.
        4    1    3    3  502    0  0.45497332271E+03  0.99110004244E+03  0.18973530282E+04  0.21884309779E+04  0.12699999809E+01 0. -1.
       -4    1    3    3    0  502 -0.45497332271E+03 -0.99110004244E+03 -0.14719974150E+04  0.18319546995E+04  0.12699999809E+01 0.  1.
</event>
<event>
 5   0  0.7570277E-07  0.3511430E+04  0.7818609E-02  0.8111087E-01
       -2   -1    0    0    0  501  0.00000000000E+00  0.00000000000E+00  0.17791986012E+04  0.17791986012E+04  0.25500000920E-02 0. -1.
        2   -1    0    0  501    0  0.00000000000E+00  0.00000000000E+00 -0.17325413783E+04  0.17325413783E+04  0.25500000920E-02 0.  1.
    10030    2    1    2    0    0  0.00000000000E+00  0.00000000000E+00  0.46657222928E+02  0.35117399794E+04  0.35114300202E+04 0.  0.
        5    1    3    3  502    0  0.16421826100E+04 -0.19120883143E+03 -0.56764534259E+03  0.17480182684E+04  0.46999998093E+01 0.  1.
       -5    1    3    3    0  502 -0.16421826100E+04  0.19120883143E+03  0.61430256552E+03  0.17637217110E+04  0.46999998093E+01 0. -1.
</event>
<event>
 5   0  0.2601252E-07  0.3796271E+04  0.7818609E-02  0.8046956E-01
        1   -1    0    0  501    0  0.00000000000E+00  0.00000000000E+00  0.17473383647E+04  0.17473383647E+04  0.50400001928E-02 0. -1.
       -1   -1    0    0    0  501  0.00000000000E+00  0.00000000000E+00 -0.20619464698E+04  0.20619464698E+04  0.50400001928E-02 0.  1.
    10030    2    1    2    0    0  0.00000000000E+00  0.00000000000E+00 -0.31460810514E+03  0.38092848345E+04  0.37962708926E+04 0.  0.
        3    1    3    3  502    0  0.15463291092E+04 -0.10983079980E+04 -0.23174725935E+03  0.19107906674E+04  0.10100000352E+00 0. -1.
       -3    1    3    3    0  502 -0.15463291092E+04  0.10983079980E+04 -0.82860845793E+02  0.18984941670E+04  0.10100000352E+00 0.  1.
</event>
<event>
 5   0  0.5161550E-07  0.2082814E+04  0.7818609E-02  0.8568852E-01
        2   -1    0    0  501    0  0.00000000000E+00  0.00000000000E+00  0.12342029499E+04  0.12342029499E+04  0.25500000920E-02 0. -1.
       -2   -1    0    0    0  501  0.00000000000E+00  0.00000000000E+00 -0.87872760556E+03  0.87872760556E+03  0.25500000920E-02 0.  1.
    10030    2    1    2    0    0  0.00000000000E+00  0.00000000000E+00  0.35547534437E+03  0.21129305555E+04  0.20828136767E+04 0.  0.
        2    1    3    3  502    0  0.23866738816E+03 -0.98336231838E+03  0.42739501430E+03  0.10984671455E+04  0.25500000920E-02 0.  1.
       -2    1    3    3    0  502 -0.23866738816E+03  0.98336231838E+03 -0.71919669927E+02  0.10144634100E+04  0.25500000920E-02 0. -1.
</event>
<event>
 5   0  0.5161550E-07  0.2412229E+04  0.7818609E-02  0.8434939E-01
       -2   -1    0    0    0  501  0.00000000000E+00  0.00000000000E+00  0.10707224805E+04  0.10707224805E+04  0.25500000920E-02 0. -1.
        2   -1    0    0  501    0  0.00000000000E+00  0.00000000000E+00 -0.13586271131E+04  0.13586271131E+04  0.25500000920E-02 0.  1.
    10030    2    1    2    0    0  0.00000000000E+00  0.00000000000E+00 -0.28790463257E+03  0.24293495936E+04  0.24122293362E+04 0.  0.
        2    1    3    3  502    0 -0.83588614915E+03 -0.79298450318E+03 -0.50310997138E+03  0.12572389271E+04  0.25500000920E-02 0.  1.
       -2    1    3    3    0  502  0.83588614915E+03  0.79298450318E+03  0.21520533881E+03  0.11721106665E+04  0.25500000920E-02 0. -1.
</event>
<event>
 5   0  0.7570277E-07  0.3799989E+04  0.7818609E-02  0.8046157E-01
        2   -1    0    0  501    0  0.00000000000E+00  0.00000000000E+00  0.25380058250E+04  0.25380058250E+04  0.25500000920E-02 0. -1.
       -2   -1    0    0    0  501  0.00000000000E+00  0.00000000000E+00 -0.14223685186E+04  0.14223685186E+04  0.25500000920E-02 0.  1.
    10030    2    1    2    0    0  0.00000000000E+00  0.00000000000E+00  0.11156373064E+04  0.39603743436E+04  0.37999892555E+04 0.  0.
        5    1    3    3  502    0  0.76958012086E+03 -0.89086814484E+03 -0.99645295038E+03  0.15423489184E+04  0.46999998093E+01 0.  1.
       -5    1    3    3    0  502 -0.76958012086E+03  0.89086814484E+03  0.21120902568E+04  0.24180254252E+04  0.46999998093E+01 0. -1.
</event>
<event>
 5   0  0.7697354E-07  0.2083056E+04  0.7818609E-02  0.8568744E-01
        2   -1    0    0  501    0  0.00000000000E+00  0.00000000000E+00  0.10520214647E+04  0.10520214648E+04  0.25500000920E-02 0.  1.
       -2   -1    0    0    0  501  0.00000000000E+00  0.00000000000E+00 -0.10311393575E+04  0.10311393575E+04  0.25500000920E-02 0. -1.
    10030    2    1    2    0    0  0.00000000000E+00  0.00000000000E+00  0.20882107241E+02  0.20831608223E+04  0.20830561560E+04 0.  0.
        4    1    3    3  502    0  0.25115880655E+03  0.22313644437E+03  0.99634479024E+03  0.10514633483E+04  0.12699999809E+01 0.  1.
       -4    1    3    3    0  502 -0.25115880655E+03 -0.22313644437E+03 -0.97546268300E+03  0.10316974739E+04  0.12699999809E+01 0. -1.
</event>
<event>
 5   0  0.7256473E-07  0.3800935E+04  0.7818609E-02  0.8045954E-01
       -2   -1    0    0    0  501  0.00000000000E+00  0.00000000000E+00  0.13648821215E+04  0.13648821215E+04  0.25500000920E-02 0. -1.
        2   -1    0    0  501    0  0.00000000000E+00  0.00000000000E+00 -0.26462189124E+04  0.26462189124E+04  0.25500000920E-02 0.  1.
    10030    2    1    2    0    0  0.00000000000E+00  0.00000000000E+00 -0.12813367909E+04  0.40111010340E+04  0.38009350867E+04 0.  0.
        4    1    3    3  502    0  0.56827825341E+03 -0.11934302272E+04 -0.20816593652E+04  0.24658716930E+04  0.12699999809E+01 0.  1.
       -4    1    3    3    0  502 -0.56827825341E+03  0.11934302272E+04  0.80032257434E+03  0.15452293410E+04  0.12699999809E+01 0. -1.
</event>
<event>
 5   0  0.2401125E-07  0.2602921E+04  0.7818609E-02  0.8367210E-01
        1   -1    0    0  501    0  0.00000000000E+00  0.00000000000E+00  0.17851503842E+04  0.17851503842E+04  0.50400001928E-02 0. -1.
       -1   -1    0    0    0  501  0.00000000000E+00  0.00000000000E+00 -0.94882724014E+03  0.94882724016E+03  0.50400001928E-02 0.  1.
    10030    2    1    2    0    0  0.00000000000E+00  0.00000000000E+00  0.83632314405E+03  0.27339776244E+04  0.26029209072E+04 0.  0.
        5    1    3    3  502    0  0.71602877821E+03 -0.41969566203E+03  0.14711002806E+04  0.16890825277E+04  0.46999998093E+01 0. -1.
       -5    1    3    3    0  502 -0.71602877821E+03  0.41969566203E+03 -0.63477713652E+03  0.10448950966E+04  0.46999998093E+01 0.  1.
</event>
<event>
 5   0  0.7256473E-07  0.3968238E+04  0.7818609E-02  0.8010985E-01
       -2   -1    0    0    0  501  0.00000000000E+00  0.00000000000E+00  0.14540316522E+04  0.14540316522E+04  0.25500000920E-02 0.  1.
        2   -1    0    0  501    0  0.00000000000E+00  0.00000000000E+00 -0.27074574077E+04  0.27074574077E+04  0.25500000920E-02 0. -1.
    10030    2    1    2    0    0  0.00000000000E+00  0.00000000000E+00 -0.12534257554E+04  0.41614890599E+04  0.39682382830E+04 0.  0.
        4    1    3    3  502    0  0.15130800363E+04  0.32100421280E+03  0.67649275656E+03  0.16882236118E+04  0.12699999809E+01 0.  1.
       -4    1    3    3    0  502 -0.15130800363E+04 -0.32100421280E+03 -0.19299185120E+04  0.24732654481E+04  0.12699999809E+01 0. -1.
</event>
<event>
 5   0  0.2601252E-07  0.3925563E+04  0.7818609E-02  0.8019733E-01
        1   -1    0    0  501    0  0.00000000000E+00  0.00000000000E+00  0.22678742133E+04  0.22678742133E+04  0.50400001928E-02 0. -1.
       -1   -1    0    0    0  501  0.00000000000E+00  0.00000000000E+00 -0.16987326702E+04  0.16987326702E+04  0.50400001928E-02 0.  1.
    10030    2    1    2    0    0  0.00000000000E+00  0.00000000000E+00  0.56914154313E+03  0.39666068836E+04  0.39255634083E+04 0.  0.
        3    1    3    3  502    0  0.95514396437E+03 -0.11214761711E+04  0.15952460729E+04  0.21713633593E+04  0.10100000352E+00 0. -1.
       -3    1    3    3    0  502 -0.95514396437E+03  0.11214761711E+04 -0.10261045298E+04  0.17952435242E+04  0.10100000352E+00 0.  1.
</event>
<event>
 5   0  0.6043512E-07  0.4048064E+04  0.7818609E-02  0.7994920E-01
        2   -1    0    0  501    0  0.00000000000E+00  0.00000000000E+00  0.26404497646E+04  0.26404497646E+04  0.25500000920E-02 0.  1.
       -2   -1    0    0    0  501  0.00000000000E+00  0.00000000000E+00 -0.15515183923E+04  0.15515183923E+04  0.25500000920E-02 0. -1.
    10030    2    1    2    0    0  0.00000000000E+00  0.00000000000E+00  0.10889313723E+04  0.41919681569E+04  0.40480644134E+04 0.  0.
        3    1    3    3  502    0  0.95751590197E+02 -0.92639951061E+03  0.24053793828E+04  0.25793864397E+04  0.10100000352E+00 0.  1.
       -3    1    3    3    0  502 -0.95751590197E+02  0.92639951061E+03 -0.13164480104E+04  0.16125817172E+04  0.10100000352E+00 0. -1.
</event>
<event>
 5   0  0.2601252E-07  0.2035406E+04  0.7818609E-02  0.8590244E-01
        1   -1    0    0  501    0  0.00000000000E+00  0.00000000000E+00  0.13164273112E+04  0.13164273113E+04  0.50400001928E-02 0.  1.
       -1   -1    0    0    0  501  0.00000000000E+00  0.00000000000E+00 -0.78676535084E+03  0.78676535086E+03  0.50400001928E-02 0. -1.
    10030    2    1    2    0    0  0.00000000000E+00  0.00000000000E+00  0.52966196041E+03  0.21031926621E+04  0.20354059992E+04 0.  0.
        3    1    3    3  502    0  0.18316745754E+03 -0.33273542538E+03 -0.71078299696E+03  0.80590052722E+03  0.10100000352E+00 0. -1.
       -3    1    3    3    0  502 -0.18316745754E+03  0.33273542538E+03  0.12404449574E+04  0.12972921349E+04  0.10100000352E+00 0.  1.
</event>
<event>
 5   0  0.2713405E-07  0.4043388E+04  0.7818609E-02  0.7995851E-01
        1   -1    0    0  501    0  0.00000000000E+00  0.00000000000E+00  0.23301661200E+04  0.23301661200E+04  0.50400001928E-02 0.  1.
       -1   -1    0    0    0  501  0.00000000000E+00  0.00000000000E+00 -0.17540581299E+04  0.17540581299E+04  0.50400001928E-02 0. -1.
    10030    2    1    2    0    0  0.00000000000E+00  0.00000000000E+00  0.57610799011E+03  0.40842242500E+04  0.40433880976E+04 0.  0.
        1    1    3    3  502    0 -0.19986915804E+04  0.20864035966E+03  0.51153035999E+03  0.20736350071E+04  0.50400001928E-02 0.  1.
       -1    1    3    3    0  502  0.19986915804E+04 -0.20864035966E+03  0.64577630113E+02  0.20105892429E+04  0.50400001928E-02 0. -1.
</event>
<event>
 5   0  0.4449262E-07  0.3908373E+04  0.7818609E-02  0.8023290E-01
        2   -1    0    0  501    0  0.00000000000E+00  0.00000000000E+00  0.28048654242E+04  0.28048654242E+04  0.25500000920E-02 0. -1.
       -2   -1    0    0    0  501  0.00000000000E+00  0.00000000000E+00 -0.13615072665E+04  0.13615072665E+04  0.25500000920E-02 0.  1.
    10030    2    1    2    0    0  0.00000000000E+00  0.00000000000E+00  0.14433581577E+04  0.41663726906E+04  0.39083728873E+04 0.  0.
        1    1    3    3  502    0  0.95396951241E+03 -0.16789475970E+04  0.40201443736E+03  0.19724447957E+04  0.50400001928E-02 0. -1.
       -1    1    3    3    0  502 -0.95396951241E+03  0.16789475970E+04  0.10413437203E+04  0.21939278949E+04  0.50400001928E-02 0.  1.
</event>
<event>
 5   0  0.2401125E-07  0.2232033E+04  0.7818609E-02  0.8505212E-01
        1   -1    0    0  501    0  0.00000000000E+00  0.00000000000E+00  0.13605561570E+04  0.13605561570E+04  0.50400001928E-02 0. -1.
       -1   -1    0    0    0  501  0.00000000000E+00  0.00000000000E+00 -0.91542929473E+03  0.91542929475E+03  0.50400001928E-02 0.  1.
    10030    2    1    2    0    0  0.00000000000E+00  0.00000000000E+00  0.44512686225E+03  0.22759854517E+04  0.22320331209E+04 0.  0.
        5    1    3    3  502    0  0.37650098381E+03 -0.11396137983E+03 -0.84238263285E+03  0.92971542798E+03  0.46999998093E+01 0.  1.
       -5    1    3    3    0  502 -0.37650098381E+03  0.11396137983E+03  0.12875094951E+04  0.13462700238E+04  0.46999998093E+01 0. -1.
</event>
<event>
 5   0  0.3579559E-07  0.2856884E+04  0.7818609E-02  0.8285823E-01
       -1   -1    0    0    0  501  0.00000000000E+00  0.00000000000E+00  0.15030476243E+04  0.15030476243E+04  0.50400001928E-02 0. -1.
        1   -1    0    0  501    0  0.00000000000E+00  0.00000000000E+00 -0.13575394247E+04  0.13575394247E+04  0.50400001928E-02 0.  1.
    10030    2    1    2    0    0  0.00000000000E+00  0.00000000000E+00  0.14550819964E+03  0.28605870490E+04  0.28568839018E+04 0.  0.
        4    1    3    3  502    0  0.71917875547E+03 -0.46627645027E+03 -0.10714488616E+04  0.13720918651E+04  0.12699999809E+01 0.  1.
       -4    1    3    3    0  502 -0.71917875547E+03  0.46627645027E+03  0.12169570613E+04  0.14884951838E+04  0.12699999809E+01 0. -1.
</event>
<event>
 5   0  0.2647879E-07  0.4546209E+04  0.7818609E-02  0.7902597E-01
        1   -1    0    0  501    0  0.00000000000E+00  0.00000000000E+00  0.19575373610E+04  0.19575373610E+04  0.50400001928E-02 0. -1.
       -1   -1    0    0    0  501  0.00000000000E+00  0.00000000000E+00 -0.26395432663E+04  0.26395432663E+04  0.50400001928E-02 0.  1.
    10030    2    1    2    0    0  0.00000000000E+00  0.00000000000E+00 -0.68200590529E+03  0.45970806273E+04  0.45462092163E+04 0.  0.
        2    1    3    3  502    0 -0.65180286360E+03  0.44622647648E+03  0.18142882690E+04  0.19787892673E+04  0.25500000920E-02 0. -1.
       -2    1    3    3    0  502  0.65180286360E+03 -0.44622647648E+03 -0.24962941743E+04  0.26182913600E+04  0.25500000920E-02 0.  1.
</event>
<event>
 5   0  0.2601252E-07  0.2932532E+04  0.7818609E-02  0.8263264E-01
        1   -1    0    0  501    0  0.00000000000E+00  0.00000000000E+00  0.16522524547E+04  0.16522524547E+04  0.50400001928E-02 0. -1.
       -1   -1    0    0    0  501  0.00000000000E+00  0.00000000000E+00 -0.13012150341E+04  0.13012150341E+04  0.50400001928E-02 0.  1.
    10030    2    1    2    0    0  0.00000000000E+00  0.00000000000E+00  0.35103742058E+03  0.29534674887E+04  0.29325318304E+04 0.  0.
        3    1    3    3  502    0  0.85519953298E+02  0.11798436216E+03 -0.12939044091E+04  0.13020839459E+04  0.10100000352E+00 0.  1.
       -3    1    3    3    0  502 -0.85519953298E+02 -0.11798436216E+03  0.16449418297E+04  0.16513835428E+04  0.10100000352E+00 0. -1.
</event>
<event>
 5   0  0.2401125E-07  0.4013777E+04  0.7818609E-02  0.8001773E-01
       -1   -1    0    0    0  501  0.00000000000E+00  0.00000000000E+00  0.25574072180E+04  0.25574072180E+04  0.50400001928E-02 0. -1.
        1   -1    0    0  501    0  0.00000000000E+00  0.00000000000E+00 -0.15748770553E+04  0.15748770553E+04  0.50400001928E-02 0.  1.
    10030    2    1    2    0    0  0.00000000000E+00  0.00000000000E+00  0.98253016273E+03  0.41322842733E+04  0.40137772478E+04 0.  0.
        5    1    3    3  502    0 -0.36553153696E+03 -0.65406611990E+03  0.24079974690E+04  0.25218821730E+04  0.46999998093E+01 0. -1.
       -5    1    3    3    0  502  0.36553153696E+03  0.65406611990E+03 -0.14254673062E+04  0.16104021004E+04  0.46999998093E+01 0.  1.
</event>
<event>
 5   0  0.2647879E-07  0.3796249E+04  0.7818609E-02  0.8046960E-01
       -1   -1    0    0    0  501  0.00000000000E+00  0.00000000000E+00  0.30538878292E+04  0.30538878292E+04  0.50400001928E-02 0.  1.
        1   -1    0    0  501    0  0.00000000000E+00  0.00000000000E+00 -0.11797674433E+04  0.11797674433E+04  0.50400001928E-02 0. -1.
    10030    2    1    2    0    0  0.00000000000E+00  0.00000000000E+00  0.18741203859E+04  0.42336552725E+04  0.37962494314E+04 0.  0.
        2    1    3    3  502    0 -0.15149457638E+04 -0.86710470493E+03  0.17685886864E+04  0.24849219663E+04  0.25500000920E-02 0.  1.
       -2    1    3    3    0  502  0.15149457638E+04  0.86710470493E+03  0.10553169951E+03  0.17487333062E+04  0.25500000920E-02 0. -1.
</event>
<event>
 5   0  0.3579559E-07  0.2092300E+04  0.7818609E-02  0.8564643E-01
        1   -1    0    0  501    0  0.00000000000E+00  0.00000000000E+00  0.27405344204E+04  0.27405344204E+04  0.50400001928E-02 0. -1.
       -1   -1    0    0    0  501  0.00000000000E+00  0.00000000000E+00 -0.39934911202E+03  0.39934911205E+03  0.50400001928E-02 0.  1.
    10030    2    1    2    0    0  0.00000000000E+00  0.00000000000E+00  0.23411853084E+04  0.31398835325E+04  0.20923001575E+04 0.  0.
        4    1    3    3  502    0 -0.29934133169E+03  0.93967165170E+03  0.64676902872E+03  0.11793641657E+04  0.12699999809E+01 0.  1.
       -4    1    3    3    0  502  0.29934133169E+03 -0.93967165170E+03  0.16944162797E+04  0.19605193668E+04  0.12699999809E+01 0. -1.
</event>
<event>
 5   0  0.7256473E-07  0.3759584E+04  0.7818609E-02  0.8054884E-01
       -2   -1    0    0    0  501  0.00000000000E+00  0.00000000000E+00  0.28320767416E+04  0.28320767416E+04  0.25500000920E-02 0. -1.
        2   -1    0    0  501    0  0.00000000000E+00  0.00000000000E+00 -0.12477129680E+04  0.12477129680E+04  0.25500000920E-02 0.  1.
    10030    2    1    2    0    0  0.00000000000E+00  0.00000000000E+00  0.15843637736E+04  0.40797897096E+04  0.37595844860E+04 0.  0.
        4    1    3    3  502    0 -0.45295875004E+03 -0.36574387603E+03 -0.11474146967E+04  0.12866632470E+04  0.12699999809E+01 0.  1.
       -4    1    3    3    0  502  0.45295875004E+03  0.36574387603E+03  0.27317784703E+04  0.27931264626E+04  0.12699999809E+01 0. -1.
</event>
<event>
 5   0  0.2647879E-07  0.3765316E+04  0.7818609E-02  0.8053639E-01
       -1   -1    0    0    0  501  0.00000000000E+00  0.00000000000E+00  0.25697534533E+04  0.25697534533E+04  0.50400001928E-02 0. -1.
        1   -1    0    0  501    0  0.00000000000E+00  0.00000000000E+00 -0.13792770312E+04  0.13792770312E+04  0.50400001928E-02 0.  1.
    10030    2    1    2    0    0  0.00000000000E+00  0.00000000000E+00  0.11904764221E+04  0.39490304845E+04  0.37653164085E+04 0.  0.
        2    1    3    3  502    0  0.17730493773E+04 -0.32129601743E+03  0.23222207843E+02  0.18020750528E+04  0.25500000920E-02 0.  1.
       -2    1    3    3    0  502 -0.17730493773E+04  0.32129601743E+03  0.11672542143E+04  0.21469554317E+04  0.25500000920E-02 0. -1.
</event>
<event>
 5   0  0.2647879E-07  0.2701650E+04  0.7818609E-02  0.8334470E-01
       -1   -1    0    0    0  501  0.00000000000E+00  0.00000000000E+00  0.99104328756E+03  0.99104328758E+03  0.50400001928E-02 0. -1.
        1   -1    0    0  501    0  0.00000000000E+00  0.00000000000E+00 -0.18412193749E+04  0.18412193750E+04  0.50400001928E-02 0.  1.
    10030    2    1    2    0    0  0.00000000000E+00  0.00000000000E+00 -0.85017608738E+03  0.28322626625E+04  0.27016499422E+04 0.  0.
        2    1    3    3  502    0  0.46736733626E+03 -0.39910104104E+03  0.83598677239E+03  0.10375874669E+04  0.25500000920E-02 0. -1.
       -2    1    3    3    0  502 -0.46736733626E+03  0.39910104104E+03 -0.16861628598E+04  0.17946751956E+04  0.25500000920E-02 0.  1.
</event>
<event>
 5   0  0.3318469E-07  0.2086832E+04  0.7818609E-02  0.8567066E-01
       -1   -1    0    0    0  501  0.00000000000E+00  0.00000000000E+00  0.78782765172E+03  0.78782765173E+03  0.50400001928E-02 0.  1.
        1   -1    0    0  501    0  0.00000000000E+00  0.00000000000E+00 -0.13819230557E+04  0.13819230557E+04  0.50400001928E-02 0. -1.
    10030    2    1    2    0    0  0.00000000000E+00  0.00000000000E+00 -0.59409540396E+03  0.21697507074E+04  0.20868322365E+04 0.  0.
        1    1    3    3  502    0  0.20707191643E+03  0.14713937394E+03 -0.13492814646E+04  0.13729855224E+04  0.50400001928E-02 0. -1.
       -1    1    3    3    0  502 -0.20707191643E+03 -0.14713937394E+03  0.75518606062E+03  0.79676518505E+03  0.50400001928E-02 0.  1.
</event>
<event>
 5   0  0.2601252E-07  0.3968415E+04  0.7818609E-02  0.8010949E-01
       -1   -1    0    0    0  501  0.00000000000E+00  0.00000000000E+00  0.25553655626E+04  0.25553655626E+04  0.50400001928E-02 0.  1.
        1   -1    0    0  501    0  0.00000000000E+00  0.00000000000E+00 -0.15407111857E+04  0.15407111857E+04  0.50400001928E-02 0. -1.
    10030    2    1    2    0    0  0.00000000000E+00  0.00000000000E+00  0.10146543769E+04  0.40960767484E+04  0.39684154551E+04 0.  0.
        3    1    3    3  502    0 -0.64932718035E+03  0.94018824412E+03 -0.11670476447E+04  0.16332727686E+04  0.10100000352E+00 0. -1.
       -3    1    3    3    0  502  0.64932718035E+03 -0.94018824412E+03  0.21817020216E+04  0.24628039798E+04  0.10100000352E+00 0.  1.
</event>
<event>
 5   0  0.2401125E-07  0.3831561E+04  0.7818609E-02  0.8039416E-01
        1   -1    0    0  501    0  0.00000000000E+00  0.00000000000E+00  0.15115186391E+04  0.15115186391E+04  0.50400001928E-02 0. -1.
       -1   -1    0    0    0  501  0.00000000000E+00  0.00000000000E+00 -0.24281634250E+04  0.24281634250E+04  0.50400001928E-02 0.  1.
    10030    2    1    2    0    0  0.00000000000E+00  0.00000000000E+00 -0.91664478583E+03  0.39396820641E+04  0.38315606615E+04 0.  0.
        5    1    3    3  502    0  0.11896249306E+04  0.14950845041E+04 -0.60266552510E+03  0.20034253105E+04  0.46999998093E+01 0. -1.
       -5    1    3    3    0  502 -0.11896249306E+04 -0.14950845041E+04 -0.31397926073E+03  0.19362567536E+04  0.46999998093E+01 0.  1.
</event>
<event>
 5   0  0.5161550E-07  0.3965735E+04  0.7818609E-02  0.8011495E-01
       -2   -1    0    0    0  501  0.00000000000E+00  0.00000000000E+00  0.23081947724E+04  0.23081947724E+04  0.25500000920E-02 0. -1.
        2   -1    0    0  501    0  0.00000000000E+00  0.00000000000E+00 -0.17033935534E+04  0.17033935534E+04  0.25500000920E-02 0.  1.
    10030    2    1    2    0    0  0.00000000000E+00  0.00000000000E+00  0.60480121900E+03  0.40115883258E+04  0.39657352889E+04 0.  0.
        2    1    3    3  502    0 -0.18568221359E+04  0.66264711044E+03  0.88115375368E+02  0.19734877645E+04  0.25500000920E-02 0.  1.
       -2    1    3    3    0  502  0.18568221359E+04 -0.66264711044E+03  0.51668584363E+03  0.20381005614E+04  0.25500000920E-02 0. -1.
</event>
<event>
 5   0  0.7570277E-07  0.3367180E+04  0.7818609E-02  0.8146009E-01
        2   -1    0    0  501    0  0.00000000000E+00  0.00000000000E+00  0.26900029863E+04  0.26900029863E+04  0.25500000920E-02 0.  1.
       -2   -1    0    0    0  501  0.00000000000E+00  0.00000000000E+00 -0.10537072519E+04  0.10537072519E+04  0.25500000920E-02 0. -1.
    10030    2    1    2    0    0  0.00000000000E+00  0.00000000000E+00  0.16362957345E+04  0.37437102382E+04  0.33671802175E+04 0.  0.
        5    1    3    3  502    0 -0.80224098423E+03 -0.21295027575E+03 -0.81040423848E+03  0.11600497991E+04  0.46999998093E+01 0. -1.
       -5    1    3    3    0  502  0.80224098423E+03  0.21295027575E+03  0.24466999729E+04  0.25836604390E+04  0.46999998093E+01 0.  1.
</event>
<event>
 5   0  0.2647879E-07  0.3679513E+04  0.7818609E-02  0.8072517E-01
       -1   -1    0    0    0  501  0.00000000000E+00  0.00000000000E+00  0.22831458546E+04  0.22831458546E+04  0.50400001928E-02 0.  1.
        1   -1    0    0  501    0  0.00000000000E+00  0.00000000000E+00 -0.14824738136E+04  0.14824738136E+04  0.50400001928E-02 0. -1.
    10030    2    1    2    0    0  0.00000000000E+00  0.00000000000E+00  0.80067204103E+03  0.37656196683E+04  0.36795129798E+04 0.  0.
        2    1    3    3  502    0 -0.32303248944E+03  0.13919583037E+04 -0.78557677898E+03  0.16306528705E+04  0.25500000920E-02 0. -1.
       -2    1    3    3    0  502  0.32303248944E+03 -0.13919583037E+04  0.15862488200E+04  0.21349667977E+04  0.25500000920E-02 0.  1.
</event>
<event>
 5   0  0.7256473E-07  0.4058894E+04  0.7818609E-02  0.7992770E-01
       -2   -1    0    0    0  501  0.00000000000E+00  0.00000000000E+00  0.12386891070E+04  0.12386891070E+04  0.25500000920E-02 0. -1.
        2   -1    0    0  501    0  0.00000000000E+00  0.00000000000E+00 -0.33250113010E+04  0.33250113010E+04  0.25500000920E-02 0.  1.
    10030    2    1    2    0    0  0.00000000000E+00  0.00000000000E+00 -0.20863221941E+04  0.45637004080E+04  0.40588940756E+04 0.  0.
        4    1    3    3  502    0 -0.23555414902E+03  0.66183464055E+03 -0.31839407551E+04  0.32605200802E+04  0.12699999809E+01 0.  1.
       -4    1    3    3    0  502  0.23555414902E+03 -0.66183464055E+03  0.10976185610E+04  0.13031803279E+04  0.12699999809E+01 0. -1.
</event>
<event>
 5   0  0.6043512E-07  0.3408713E+04  0.7818609E-02  0.8135771E-01
        2   -1    0    0  501    0  0.00000000000E+00  0.00000000000E+00  0.16574415423E+04  0.16574415423E+04  0.25500000920E-02 0.  1.
       -2   -1    0    0    0  501  0.00000000000E+00  0.00000000000E+00 -0.17525992664E+04  0.17525992664E+04  0.25500000920E-02 0. -1.
    10030    2    1    2    0    0  0.00000000000E+00  0.00000000000E+00 -0.95157724111E+02  0.34100408087E+04  0.34087128545E+04 0.  0.
        3    1    3    3  502    0 -0.15122554484E+04 -0.68395729182E+03  0.34002104660E+03  0.16942043681E+04  0.10100000352E+00 0.  1.
       -3    1    3    3    0  502  0.15122554484E+04  0.68395729182E+03 -0.43517877071E+03  0.17158364407E+04  0.10100000352E+00 0. -1.
</event>
<event>
 5   0  0.2647879E-07  0.4017398E+04  0.7818609E-02  0.8001046E-01
       -1   -1    0    0    0  501  0.00000000000E+00  0.00000000000E+00  0.13484174715E+04  0.13484174716E+04  0.50400001928E-02 0. -1.
        1   -1    0    0  501    0  0.00000000000E+00  0.00000000000E+00 -0.29923016646E+04  0.29923016646E+04  0.50400001928E-02 0.  1.
    10030    2    1    2    0    0  0.00000000000E+00  0.00000000000E+00 -0.16438841930E+04  0.43407191361E+04  0.40173980857E+04 0.  0.
        2    1    3    3  502    0  0.69916102544E+03 -0.91955513352E+03  0.95362062644E+03  0.14979319351E+04  0.25500000920E-02 0. -1.
       -2    1    3    3    0  502 -0.69916102544E+03  0.91955513352E+03 -0.25975048195E+04  0.28427872010E+04  0.25500000920E-02 0.  1.
</event>
<event>
 5   0  0.7256473E-07  0.3963351E+04  0.7818609E-02  0.8011981E-01
       -2   -1    0    0    0  501  0.00000000000E+00  0.00000000000E+00  0.29456012870E+04  0.29456012870E+04  0.25500000920E-02 0. -1.
        2   -1    0    0  501    0  0.00000000000E+00  0.00000000000E+00 -0.13331873951E+04  0.13331873951E+04  0.25500000920E-02 0.  1.
    10030    2    1    2    0    0  0.00000000000E+00  0.00000000000E+00  0.16124138920E+04  0.42787886821E+04  0.39633513630E+04 0.  0.
        4    1    3    3  502    0  0.16148277576E+03 -0.31831408191E+03  0.29106117272E+04  0.29324158608E+04  0.12699999809E+01 0. -1.
       -4    1    3    3    0  502 -0.16148277576E+03  0.31831408191E+03 -0.12981978352E+04  0.13463728213E+04  0.12699999809E+01 0.  1.
</event>
<event>
 5   0  0.4449262E-07  0.3182774E+04  0.7818609E-02  0.8193381E-01
       -2   -1    0    0    0  501  0.00000000000E+00  0.00000000000E+00  0.21097342027E+04  0.21097342027E+04  0.25500000920E-02 0.  1.
        2   -1    0    0  501    0  0.00000000000E+00  0.00000000000E+00 -0.12003941221E+04  0.12003941221E+04  0.25500000920E-02 0. -1.
    10030    2    1    2    0    0  0.00000000000E+00  0.00000000000E+00  0.90934008068E+03  0.33101283248E+04  0.31827739700E+04 0.  0.
        1    1    3    3  502    0  0.22592477837E+03 -0.68220886029E+03 -0.10220253935E+04  0.12493945892E+04  0.50400001928E-02 0. -1.
       -1    1    3    3    0  502 -0.22592477837E+03  0.68220886029E+03  0.19313654741E+04  0.20607337357E+04  0.50400001928E-02 0.  1.
</event>
<event>
 5   0  0.2601252E-07  0.3947049E+04  0.7818609E-02  0.8015314E-01
       -1   -1    0    0    0  501  0.00000000000E+00  0.00000000000E+00  0.24709248152E+04  0.24709248152E+04  0.50400001928E-02 0.  1.
        1   -1    0    0  501    0  0.00000000000E+00  0.00000000000E+00 -0.15762517803E+04  0.15762517804E+04  0.50400001928E-02 0. -1.
    10030    2    1    2    0    0  0.00000000000E+00  0.00000000000E+00  0.89467303484E+03  0.40471765955E+04  0.39470493481E+04 0.  0.
        3    1    3    3  502    0 -0.13677899039E+04 -0.14199151460E+04  0.53784451442E+03  0.20435960890E+04  0.10100000352E+00 0. -1.
       -3    1    3    3    0  502  0.13677899039E+04  0.14199151460E+04  0.35682852042E+03  0.20035805066E+04  0.10100000352E+00 0.  1.
</event>
<event>
 5   0  0.5161550E-07  0.3191163E+04  0.7818609E-02  0.8191155E-01
       -2   -1    0    0    0  501  0.00000000000E+00  0.00000000000E+00  0.97678510776E+03  0.97678510777E+03  0.25500000920E-02 0.  1.
        2   -1    0    0  501    0  0.00000000000E+00  0.00000000000E+00 -0.26063865418E+04  0.26063865418E+04  0.25500000920E-02 0. -1.
    10030    2    1    2    0    0  0.00000000000E+00  0.00000000000E+00 -0.16296014341E+04  0.35831716496E+04  0.31911625212E+04 0.  0.
        2    1    3    3  502    0  0.14436796819E+04 -0.18262583635E+03 -0.79946803331E+02  0.14573793986E+04  0.25500000920E-02 0.  1.
       -2    1    3    3    0  502 -0.14436796819E+04  0.18262583635E+03 -0.15496546307E+04  0.21257922510E+04  0.25500000920E-02 0. -1.
</event>
<event>
 5   0  0.2401125E-07  0.4081359E+04  0.7818609E-02  0.7988332E-01
        1   -1    0    0  501    0  0.00000000000E+00  0.00000000000E+00  0.29886745371E+04  0.29886745371E+04  0.50400001928E-02 0. -1.
       -1   -1    0    0    0  501  0.00000000000E+00  0.00000000000E+00 -0.13933844783E+04  0.13933844783E+04  0.50400001928E-02 0.  1.
    10030    2    1    2    0    0  0.00000000000E+00  0.00000000000E+00  0.15952900588E+04  0.43820590154E+04  0.40813589456E+04 0.  0.
        5    1    3    3  502    0  0.84196911804E+03 -0.12069885229E+04 -0.72023782394E+03  0.16384437443E+04  0.46999998093E+01 0.  1.
       -5    1    3    3    0  502 -0.84196911804E+03  0.12069885229E+04  0.23155278828E+04  0.27436152711E+04  0.46999998093E+01 0. -1.
</event>
<event>
 5   0  0.5161550E-07  0.2921271E+04  0.7818609E-02  0.8266577E-01
        2   -1    0    0  501    0  0.00000000000E+00  0.00000000000E+00  0.19524446492E+04  0.19524446492E+04  0.25500000920E-02 0. -1.
       -2   -1    0    0    0  501  0.00000000000E+00  0.00000000000E+00 -0.10927099718E+04  0.10927099718E+04  0.25500000920E-02 0.  1.
    10030    2    1    2    0    0  0.00000000000E+00  0.00000000000E+00  0.85973467738E+03  0.30451546211E+04  0.29212707767E+04 0.  0.
        2    1    3    3  502    0  0.10812898892E+04 -0.52260453535E+02  0.14520311022E+04  0.18111635213E+04  0.25500000920E-02 0. -1.
       -2    1    3    3    0  502 -0.10812898892E+04  0.52260453535E+02 -0.59229642478E+03  0.12339910997E+04  0.25500000920E-02 0.  1.
</event>
<event>
 5   0  0.2713405E-07  0.2512572E+04  0.7818609E-02  0.8398521E-01
       -1   -1    0    0    0  501  0.00000000000E+00  0.00000000000E+00  0.75697618180E+03  0.75697618181E+03  0.50400001928E-02 0. -1.
        1   -1    0    0  501    0  0.00000000000E+00  0.00000000000E+00 -0.20849452732E+04  0.20849452732E+04  0.50400001928E-02 0.  1.
    10030    2    1    2    0    0  0.00000000000E+00  0.00000000000E+00 -0.13279690914E+04  0.28419214550E+04  0.25125715211E+04 0.  0.
        1    1    3    3  502    0  0.70073674898E+03  0.60936352423E+03 -0.16210005867E+04  0.18681538476E+04  0.50400001928E-02 0.  1.
       -1    1    3    3    0  502 -0.70073674898E+03 -0.60936352423E+03  0.29303149532E+03  0.97376760745E+03  0.50400001928E-02 0. -1.
</event>
<event>
 5   0  0.4449262E-07  0.3938992E+04  0.7818609E-02  0.8016968E-01
       -2   -1    0    0    0  501  0.00000000000E+00  0.00000000000E+00  0.12505655398E+04  0.12505655398E+04  0.25500000920E-02 0.  1.
        2   -1    0    0  501    0  0.00000000000E+00  0.00000000000E+00 -0.31017280779E+04  0.31017280779E+04  0.25500000920E-02 0. -1.
    10030    2    1    2    0    0  0.00000000000E+00  0.00000000000E+00 -0.18511625381E+04  0.43522936177E+04  0.39389918751E+04 0.  0.
        1    1    3    3  502    0 -0.10722364600E+04 -0.48706945595E+03  0.81865755842E+03  0.14342691097E+04  0.50400001928E-02 0.  1.
       -1    1    3    3    0  502  0.10722364600E+04  0.48706945595E+03 -0.26698200966E+04  0.29180245080E+04  0.50400001928E-02 0. -1.
</event>
<event>
 5   0  0.7570277E-07  0.2170207E+04  0.7818609E-02  0.8530932E-01
        2   -1    0    0  501    0  0.00000000000E+00  0.00000000000E+00  0.19992216627E+04  0.19992216627E+04  0.25500000920E-02 0.  1.
       -2   -1    0    0    0  501  0.00000000000E+00  0.00000000000E+00 -0.58895422237E+03  0.58895422237E+03  0.25500000920E-02 0. -1.
    10030    2    1    2    0    0  0.00000000000E+00  0.00000000000E+00  0.14102674403E+04  0.25881758850E+04  0.21702073999E+04 0.  0.
        5    1    3    3  502    0 -0.10452092164E+04 -0.28299714955E+03  0.78842986164E+03  0.13394750574E+04  0.46999998093E+01 0.  1.
       -5    1    3    3    0  502  0.10452092164E+04  0.28299714955E+03  0.62183757865E+03  0.12487008276E+04  0.46999998093E+01 0. -1.
</event>
<event>
 5   0  0.3579559E-07  0.3594729E+04  0.7818609E-02  0.8091700E-01
       -1   -1    0    0    0  501  0.00000000000E+00  0.00000000000E+00  0.25916976782E+04  0.25916976782E+04  0.50400001928E-02 0. -1.
        1   -1    0    0  501    0  0.00000000000E+00  0.00000000000E+00 -0.12464877956E+04  0.12464877956E+04  0.50400001928E-02 0.  1.
    10030    2    1    2    0    0  0.00000000000E+00  0.00000000000E+00  0.13452098826E+04  0.38381854738E+04  0.35947292114E+04 0.  0.
        4    1    3    3  502    0 -0.15827400475E+04 -0.98214176652E+01 -0.23675370246E+03  0.16003800945E+04  0.12699999809E+01 0.  1.
       -4    1    3    3    0  502  0.15827400475E+04  0.98214176652E+01  0.15819635851E+04  0.22378053793E+04  0.12699999809E+01 0. -1.
</event>
<event>
 5   0  0.5161550E-07  0.3879426E+04  0.7818609E-02  0.8029322E-01
        2   -1    0    0  501    0  0.00000000000E+00  0.00000000000E+00  0.13094814429E+04  0.13094814429E+04  0.25500000920E-02 0. -1.
       -2   -1    0    0    0  501  0.00000000000E+00  0.00000000000E+00 -0.28732650336E+04  0.28732650336E+04  0.25500000920E-02 0.  1.
    10030    2    1    2    0    0  0.00000000000E+00  0.00000000000E+00 -0.15637835907E+04  0.41827464766E+04  0.38794263711E+04 0.  0.
        2    1    3    3  502    0  0.70625057595E+03  0.17975517532E+04 -0.97627982531E+03  0.21640481693E+04  0.25500000920E-02 0.  1.
       -2    1    3    3    0  502 -0.70625057595E+03 -0.17975517532E+04 -0.58750376539E+03  0.20186983073E+04  0.25500000920E-02 0. -1.
</event>
<event>
 5   0  0.2601252E-07  0.2668300E+04  0.7818609E-02  0.8345364E-01
       -1   -1    0    0    0  501  0.00000000000E+00  0.00000000000E+00  0.61857182968E+03  0.61857182970E+03  0.50400001928E-02 0. -1.
        1   -1    0    0  501    0  0.00000000000E+00  0.00000000000E+00 -0.28775248287E+04  0.28775248287E+04  0.50400001928E-02 0.  1.
    10030    2    1    2    0    0  0.00000000000E+00  0.00000000000E+00 -0.22589529990E+04  0.34960966584E+04  0.26682996820E+04 0.  0.
        3    1    3    3  502    0 -0.13264027149E+04 -0.42942837397E+02 -0.94998144499E+03  0.16320701594E+04  0.10100000352E+00 0.  1.
       -3    1    3    3    0  502  0.13264027149E+04  0.42942837397E+02 -0.13089715541E+04  0.18640264990E+04  0.10100000352E+00 0. -1.
</event>
<event>
 5   0  0.5161550E-07  0.3981970E+04  0.7818609E-02  0.8008194E-01
        2   -1    0    0  501    0  0.00000000000E+00  0.00000000000E+00  0.24151029598E+04  0.24151029598E+04  0.25500000920E-02 0.  1.
       -2   -1    0    0    0  501  0.00000000000E+00  0.00000000000E+00 -0.16413470316E+04  0.16413470316E+04  0.25500000920E-02 0. -1.
    10030    2    1    2    0    0  0.00000000000E+00  0.00000000000E+00  0.77375592820E+03  0.40564499914E+04  0.39819704038E+04 0.  0.
        2    1    3    3  502    0  0.37042902139E+03  0.14677825312E+04 -0.93053103615E+03  0.17769330961E+04  0.25500000920E-02 0. -1.
       -2    1    3    3    0  502 -0.37042902139E+03 -0.14677825312E+04  0.17042869644E+04  0.22795168953E+04  0.25500000920E-02 0.  1.
</event>
<event>
 5   0  0.4449262E-07  0.3540180E+04  0.7818609E-02  0.8104333E-01
        2   -1    0    0  501    0  0.00000000000E+00  0.00000000000E+00  0.21470044579E+04  0.21470044579E+04  0.25500000920E-02 0. -1.
       -2   -1    0    0    0  501  0.00000000000E+00  0.00000000000E+00 -0.14593442900E+04  0.14593442900E+04  0.25500000920E-02 0.  1.
    10030    2    1    2    0    0  0.00000000000E+00  0.00000000000E+00  0.68766016793E+03  0.36063487479E+04  0.35401800498E+04 0.  0.
        1    1    3    3  502    0 -0.15028844613E+04  0.92513056428E+03  0.20456186071E+03  0.17766186478E+04  0.50400001928E-02 0.  1.
       -1    1    3    3    0  502  0.15028844613E+04 -0.92513056428E+03  0.48309830722E+03  0.18297301001E+04  0.50400001928E-02 0. -1.
</event>
<event>
 5   0  0.6043512E-07  0.3739783E+04  0.7818609E-02  0.8059202E-01
        2   -1    0    0  501    0  0.00000000000E+00  0.00000000000E+00  0.22492351415E+04  0.22492351415E+04  0.25500000920E-02 0. -1.
       -2   -1    0    0    0  501  0.00000000000E+00  0.00000000000E+00 -0.15545254927E+04  0.15545254928E+04  0.25500000920E-02 0.  1.
    10030    2    1    2    0    0  0.00000000000E+00  0.00000000000E+00  0.69470964878E+03  0.38037606343E+04  0.37397825427E+04 0.  0.
        3    1    3    3  502    0  0.18807333429E+03 -0.16215300487E+04 -0.58025723847E+03  0.17324634920E+04  0.10100000352E+00 0.  1.
       -3    1    3    3    0  502 -0.18807333429E+03  0.16215300487E+04  0.12749668873E+04  0.20712971423E+04  0.10100000352E+00 0. -1.
</event>
<event>
 5   0  0.2647879E-07  0.2578027E+04  0.7818609E-02  0.8375703E-01
       -1   -1    0    0    0  501  0.00000000000E+00  0.00000000000E+00  0.96319046035E+03  0.96319046036E+03  0.50400001928E-02 0.  1.
        1   -1    0    0  501    0  0.00000000000E+00  0.00000000000E+00 -0.17250541930E+04  0.17250541930E+04  0.50400001928E-02 0. -1.
    10030    2    1    2    0    0  0.00000000000E+00  0.00000000000E+00 -0.76186373266E+03  0.26882446534E+04  0.25780269528E+04 0.  0.
        2    1    3    3  502    0  0.85870888115E+03 -0.69994351856E+03 -0.10680844539E+04  0.15388652548E+04  0.25500000920E-02 0. -1.
       -2    1    3    3    0  502 -0.85870888115E+03  0.69994351856E+03  0.30622072124E+03  0.11493793986E+04  0.25500000920E-02 0.  1.
</event>
<event>
 5   0  0.2713405E-07  0.3988103E+04  0.7818609E-02  0.8006951E-01
        1   -1    0    0  501    0  0.00000000000E+00  0.00000000000E+00  0.20021081864E+04  0.20021081864E+04  0.50400001928E-02 0. -1.
       -1   -1    0    0    0  501  0.00000000000E+00  0.00000000000E+00 -0.19860267867E+04  0.19860267867E+04  0.50400001928E-02 0.  1.
    10030    2    1    2    0    0  0.00000000000E+00  0.00000000000E+00  0.16081399684E+02  0.39881349731E+04  0.39881025504E+04 0.  0.
        1    1    3    3  502    0 -0.52835622960E+03  0.12822523858E+04  0.14408499620E+04  0.19998450188E+04  0.50400001928E-02 0. -1.
       -1    1    3    3    0  502  0.52835622960E+03 -0.12822523858E+04 -0.14247685623E+04  0.19882899543E+04  0.50400001928E-02 0.  1.
</event>
<event>
 5   0  0.2601252E-07  0.3945459E+04  0.7818609E-02  0.8015640E-01
       -1   -1    0    0    0  501  0.00000000000E+00  0.00000000000E+00  0.29140522095E+04  0.29140522095E+04  0.50400001928E-02 0.  1.
        1   -1    0    0  501    0  0.00000000000E+00  0.00000000000E+00 -0.13354813814E+04  0.13354813814E+04  0.50400001928E-02 0. -1.
    10030    2    1    2    0    0  0.00000000000E+00  0.00000000000E+00  0.15785708282E+04  0.42495335909E+04  0.39454594005E+04 0.  0.
        3    1    3    3  502    0  0.19051127590E+04  0.29501087153E+03  0.12400829282E+04  0.22922241858E+04  0.10100000352E+00 0.  1.
       -3    1    3    3    0  502 -0.19051127590E+04 -0.29501087153E+03  0.33848789993E+03  0.19573094051E+04  0.10100000352E+00 0. -1.
</event>
<event>
 5   0  0.5161550E-07  0.3199830E+04  0.7818609E-02  0.8188862E-01
        2   -1    0    0  501    0  0.00000000000E+00  0.00000000000E+00  0.13864036663E+04  0.13864036663E+04  0.25500000920E-02 0.  1.
       -2   -1    0    0    0  501  0.00000000000E+00  0.00000000000E+00 -0.18463083397E+04  0.18463083397E+04  0.25500000920E-02 0. -1.
    10030    2    1    2    0    0  0.00000000000E+00  0.00000000000E+00 -0.45990467339E+03  0.32327120060E+04  0.31998304025E+04 0.  0.
        2    1    3    3  502    0  0.14820158803E+04  0.50858300027E+03  0.96947942210E+02  0.15698492416E+04  0.25500000920E-02 0.  1.
       -2    1    3    3    0  502 -0.14820158803E+04 -0.50858300027E+03 -0.55685261560E+03  0.16628627644E+04  0.25500000920E-02 0. -1.
</event>
<event>
 5   0  0.7256473E-07  0.3407881E+04  0.7818609E-02  0.8135975E-01
        2   -1    0    0  501    0  0.00000000000E+00  0.00000000000E+00  0.16396343883E+04  0.16396343883E+04  0.25500000920E-02 0. -1.
       -2   -1    0    0    0  501  0.00000000000E+00  0.00000000000E+00 -0.17707684620E+04  0.17707684620E+04  0.25500000920E-02 0.  1.
    10030    2    1    2    0    0  0.00000000000E+00  0.00000000000E+00 -0.13113407378E+03  0.34104028503E+04  0.34078807866E+04 0.  0.
        4    1    3    3  502    0 -0.13099996055E+04  0.22177474548E+03 -0.11331875008E+04  0.17462527105E+04  0.12699999809E+01 0.  1.
       -4    1    3    3    0  502  0.13099996055E+04 -0.22177474548E+03  0.10020534270E+04  0.16641501398E+04  0.12699999809E+01 0. -1.
</event>
<event>
 5   0  0.6043512E-07  0.4029921E+04  0.7818609E-02  0.7998538E-01
        2   -1    0    0  501    0  0.00000000000E+00  0.00000000000E+00  0.14624996652E+04  0.14624996652E+04  0.25500000920E-02 0. -1.
       -2   -1    0    0    0  501  0.00000000000E+00  0.00000000000E+00 -0.27761141161E+04  0.27761141161E+04  0.25500000920E-02 0.  1.
    10030    2    1    2    0    0  0.00000000000E+00  0.00000000000E+00 -0.13136144510E+04  0.42386137813E+04  0.40299210738E+04 0.  0.
        3    1    3    3  502    0 -0.33024907217E+03 -0.18825354959E+04 -0.13278610863E+04  0.23272772542E+04  0.10100000352E+00 0. -1.
       -3    1    3    3    0  502  0.33024907217E+03  0.18825354959E+04  0.14246635352E+02  0.19113365271E+04  0.10100000352E+00 0.  1.
</event>
<event>
 5   0  0.7256473E-07  0.3617635E+04  0.7818609E-02  0.8086464E-01
        2   -1    0    0  501    0  0.00000000000E+00  0.00000000000E+00  0.23213652649E+04  0.23213652649E+04  0.25500000920E-02 0. -1.
       -2   -1    0    0    0  501  0.00000000000E+00  0.00000000000E+00 -0.14094383399E+04  0.14094383399E+04  0.25500000920E-02 0.  1.
    10030    2    1    2    0    0  0.00000000000E+00  0.00000000000E+00  0.91192692502E+03  0.37308036049E+04  0.36176352527E+04 0.  0.
        4    1    3    3  502    0  0.88476393135E+03  0.19489943454E+03 -0.11585869945E+04  0.14707543780E+04  0.12699999809E+01 0.  1.
       -4    1    3    3    0  502 -0.88476393135E+03 -0.19489943454E+03  0.20705139195E+04  0.22600492268E+04  0.12699999809E+01 0. -1.
</event>
<event>
 5   0  0.5161550E-07  0.2435759E+04  0.7818609E-02  0.8426236E-01
       -2   -1    0    0    0  501  0.00000000000E+00  0.00000000000E+00  0.72651203382E+03  0.72651203383E+03  0.25500000920E-02 0.  1.
        2   -1    0    0  501    0  0.00000000000E+00  0.00000000000E+00 -0.20415776511E+04  0.20415776511E+04  0.25500000920E-02 0. -1.
    10030    2    1    2    0    0  0.00000000000E+00  0.00000000000E+00 -0.13150656172E+04  0.27680896849E+04  0.24357592094E+04 0.  0.
        2    1    3    3  502    0  0.22322774837E+03  0.99283784818E+03  0.10283952862E+03  0.10228067213E+04  0.25500000920E-02 0.  1.
       -2    1    3    3    0  502 -0.22322774837E+03 -0.99283784818E+03 -0.14179051459E+04  0.17452829636E+04  0.25500000920E-02 0. -1.
</event>
<event>
 5   0  0.6043512E-07  0.4099369E+04  0.7818609E-02  0.7984795E-01
       -2   -1    0    0    0  501  0.00000000000E+00  0.00000000000E+00  0.21587519344E+04  0.21587519344E+04  0.25500000920E-02 0.  1.
        2   -1    0    0  501    0  0.00000000000E+00  0.00000000000E+00 -0.19461278023E+04  0.19461278023E+04  0.25500000920E-02 0. -1.
    10030    2    1    2    0    0  0.00000000000E+00  0.00000000000E+00  0.21262413216E+03  0.41048797367E+04  0.40993692967E+04 0.  0.
        3    1    3    3  502    0  0.12511262971E+04 -0.15116490142E+04  0.69939818981E+03  0.20831604815E+04  0.10100000352E+00 0.  1.
       -3    1    3    3    0  502 -0.12511262971E+04  0.15116490142E+04 -0.48677405765E+03  0.20217192552E+04  0.10100000352E+00 0. -1.
</event>
<event>
 5   0  0.6043512E-07  0.4454690E+04  0.7818609E-02  0.7918618E-01
       -2   -1    0    0    0  501  0.00000000000E+00  0.00000000000E+00  0.22796660317E+04  0.22796660317E+04  0.25500000920E-02 0. -1.
        2   -1    0    0  501    0  0.00000000000E+00  0.00000000000E+00 -0.21762248070E+04  0.21762248070E+04  0.25500000920E-02 0.  1.
    10030    2    1    2    0    0  0.00000000000E+00  0.00000000000E+00  0.10344122475E+03  0.44558908387E+04  0.44546900094E+04 0.  0.
        3    1    3    3  502    0  0.38359982818E+03  0.49183280023E+03 -0.20870834165E+04  0.21782941787E+04  0.10100000352E+00 0.  1.
       -3    1    3    3    0  502 -0.38359982818E+03 -0.49183280023E+03  0.21905246412E+04  0.22775966600E+04  0.10100000352E+00 0. -1.
</event>
<event>
 5   0  0.6043512E-07  0.2509209E+04  0.7818609E-02  0.8399712E-01
       -2   -1    0    0    0  501  0.00000000000E+00  0.00000000000E+00  0.24088522009E+04  0.24088522009E+04  0.25500000920E-02 0. -1.
        2   -1    0    0  501    0  0.00000000000E+00  0.00000000000E+00 -0.65343648157E+03  0.65343648158E+03  0.25500000920E-02 0.  1.
    10030    2    1    2    0    0  0.00000000000E+00  0.00000000000E+00  0.17554157193E+04  0.30622886825E+04  0.25092085659E+04 0.  0.
        3    1    3    3  502    0  0.32181897755E+03 -0.88438415045E+03  0.18902367839E+04  0.21115629020E+04  0.10100000352E+00 0. -1.
       -3    1    3    3    0  502 -0.32181897755E+03  0.88438415045E+03 -0.13482106460E+03  0.95072578041E+03  0.10100000352E+00 0.  1.
</event>
<event>
 5   0  0.7570277E-07  0.2104905E+04  0.7818609E-02  0.8559086E-01
        2   -1    0    0  501    0  0.00000000000E+00  0.00000000000E+00  0.26462970691E+04  0.26462970691E+04  0.25500000920E-02 0.  1.
       -2   -1    0    0    0  501  0.00000000000E+00  0.00000000000E+00 -0.41856840429E+03  0.41856840430E+03  0.25500000920E-02 0. -1.
    10030    2    1    2    0    0  0.00000000000E+00  0.00000000000E+00  0.22277286648E+04  0.30648654734E+04  0.21049050729E+04 0.  0.
        5    1    3    3  502    0  0.90480993852E+03 -0.52046554303E+03  0.91814032463E+03  0.13901687495E+04  0.46999998093E+01 0. -1.
       -5    1    3    3    0  502 -0.90480993852E+03  0.52046554303E+03  0.13095883401E+04  0.16746967239E+04  0.46999998093E+01 0.  1.
</event>
<event>
 5   0  0.6043512E-07  0.4057748E+04  0.7818609E-02  0.7992997E-01
        2   -1    0    0  501    0  0.00000000000E+00  0.00000000000E+00  0.16138490148E+04  0.16138490149E+04  0.25500000920E-02 0.  1.
       -2   -1    0    0    0  501  0.00000000000E+00  0.00000000000E+00 -0.25506286447E+04  0.25506286447E+04  0.25500000920E-02 0. -1.
    10030    2    1    2    0    0  0.00000000000E+00  0.00000000000E+00 -0.93677962988E+03  0.41644776596E+04  0.40577479101E+04 0.  0.
        3    1    3    3  502    0  0.58535939924E+03  0.10952502941E+04 -0.21149934975E+04  0.24526345707E+04  0.10100000352E+00 0. -1.
       -3    1    3    3    0  502 -0.58535939924E+03 -0.10952502941E+04  0.11782138676E+04  0.17118430889E+04  0.10100000352E+00 0.  1.
</event>
<event>
 5   0  0.2601252E-07  0.3958424E+04  0.7818609E-02  0.8012987E-01
        1   -1    0    0  501    0  0.00000000000E+00  0.00000000000E+00  0.25055973914E+04  0.25055973914E+04  0.50400001928E-02 0. -1.
       -1   -1    0    0    0  501  0.00000000000E+00  0.00000000000E+00 -0.15634113055E+04  0.15634113055E+04  0.50400001928E-02 0.  1.
    10030    2    1    2    0    0  0.00000000000E+00  0.00000000000E+00  0.94218608585E+03  0.40690086969E+04  0.39584235695E+04 0.  0.
        3    1    3    3  502    0  0.82766470646E+03  0.13876807591E+04  0.16460891793E+04  0.23065767605E+04  0.10100000352E+00 0. -1.
       -3    1    3    3    0  502 -0.82766470646E+03 -0.13876807591E+04 -0.70390309343E+03  0.17624319365E+04  0.10100000352E+00 0.  1.
</event>
<event>
 5   0  0.4449262E-07  0.4244236E+04  0.7818609E-02  0.7957011E-01
       -2   -1    0    0    0  501  0.00000000000E+00  0.00000000000E+00  0.22196995735E+04  0.22196995735E+04  0.25500000920E-02 0. -1.
        2   -1    0    0  501    0  0.00000000000E+00  0.00000000000E+00 -0.20288258559E+04  0.20288258559E+04  0.25500000920E-02 0.  1.
    10030    2    1    2    0    0  0.00000000000E+00  0.00000000000E+00  0.19087371765E+03  0.42485254294E+04  0.42442355670E+04 0.  0.
        1    1    3    3  502    0 -0.20575488455E+03  0.13013800320E+04 -0.15698126942E+04  0.20494479635E+04  0.50400001928E-02 0.  1.
       -1    1    3    3    0  502  0.20575488455E+03 -0.13013800320E+04  0.17606864118E+04  0.21990774659E+04  0.50400001928E-02 0. -1.
</event>
<event>
 5   0  0.2401125E-07  0.1976958E+04  0.7818609E-02  0.8617470E-01
        3   -1    0    0  501    0  0.00000000000E+00  0.00000000000E+00  0.85838777494E+03  0.85838778089E+03  0.10100000352E+00 0.  1.
       -3   -1    0    0    0  501  0.00000000000E+00  0.00000000000E+00 -0.11382858740E+04  0.11382858785E+04  0.10100000352E+00 0. -1.
    10030    2    1    2    0    0  0.00000000000E+00  0.00000000000E+00 -0.27989809904E+03  0.19966736593E+04  0.19769579551E+04 0.  0.
        5    1    3    3  502    0 -0.53025322882E+03  0.44467435231E+03 -0.85279582350E+03  0.10982652561E+04  0.46999998093E+01 0. -1.
       -5    1    3    3    0  502  0.53025322882E+03 -0.44467435231E+03  0.57289772446E+03  0.89840840321E+03  0.46999998093E+01 0.  1.
</event>
<event>
 5   0  0.2713405E-07  0.2037797E+04  0.7818609E-02  0.8589151E-01
       -1   -1    0    0    0  501  0.00000000000E+00  0.00000000000E+00  0.46233820787E+03  0.46233820789E+03  0.50400001928E-02 0. -1.
        1   -1    0    0  501    0  0.00000000000E+00  0.00000000000E+00 -0.22454427149E+04  0.22454427149E+04  0.50400001928E-02 0.  1.
    10030    2    1    2    0    0  0.00000000000E+00  0.00000000000E+00 -0.17831045070E+04  0.27077809228E+04  0.20377968110E+04 0.  0.
        1    1    3    3  502    0  0.17421289771E+03  0.66476474658E+03  0.10803173775E+03  0.69565304456E+03  0.50400001928E-02 0. -1.
       -1    1    3    3    0  502 -0.17421289771E+03 -0.66476474658E+03 -0.18911362447E+04  0.20121278782E+04  0.50400001928E-02 0.  1.
</event>
<event>
 5   0  0.7570277E-07  0.3938251E+04  0.7818609E-02  0.8017120E-01
       -2   -1    0    0    0  501  0.00000000000E+00  0.00000000000E+00  0.13849655693E+04  0.13849655693E+04  0.25500000920E-02 0.  1.
        2   -1    0    0  501    0  0.00000000000E+00  0.00000000000E+00 -0.27996758648E+04  0.27996758648E+04  0.25500000920E-02 0. -1.
    10030    2    1    2    0    0  0.00000000000E+00  0.00000000000E+00 -0.14147102956E+04  0.41846414341E+04  0.39382507172E+04 0.  0.
        5    1    3    3  502    0 -0.93048187280E+03 -0.67845517935E+03 -0.24045769542E+04  0.26661039673E+04  0.46999998093E+01 0. -1.
       -5    1    3    3    0  502  0.93048187280E+03  0.67845517935E+03  0.98986665865E+03  0.15185374667E+04  0.46999998093E+01 0.  1.
</event>
<event>
 5   0  0.2601252E-07  0.3631839E+04  0.7818609E-02  0.8083237E-01
       -1   -1    0    0    0  501  0.00000000000E+00  0.00000000000E+00  0.23763273683E+04  0.23763273683E+04  0.50400001928E-02 0. -1.
        1   -1    0    0  501    0  0.00000000000E+00  0.00000000000E+00 -0.13876725104E+04  0.13876725104E+04  0.50400001928E-02 0.  1.
    10030    2    1    2    0    0  0.00000000000E+00  0.00000000000E+00  0.98865485791E+03  0.37639998786E+04  0.36318392941E+04 0.  0.
        3    1    3    3  502    0  0.71099524072E+02 -0.75971476377E+03  0.22021206503E+04  0.23305701091E+04  0.10100000352E+00 0. -1.
       -3    1    3    3    0  502 -0.71099524072E+02  0.75971476377E+03 -0.12134657924E+04  0.14334297695E+04  0.10100000352E+00 0.  1.
</event>
<event>
 5   0  0.5161550E-07  0.3898175E+04  0.7818609E-02  0.8025409E-01
        2   -1    0    0  501    0  0.00000000000E+00  0.00000000000E+00  0.25678922787E+04  0.25678922787E+04  0.25500000920E-02 0.  1.
       -2   -1    0    0    0  501  0.00000000000E+00  0.00000000000E+00 -0.14794006583E+04  0.14794006583E+04  0.25500000920E-02 0. -1.
    10030    2    1    2    0    0  0.00000000000E+00  0.00000000000E+00  0.10884916204E+04  0.40472929371E+04  0.38981747153E+04 0.  0.
        2    1    3    3  502    0 -0.11833027369E+03 -0.11009806833E+04  0.22095928507E+04  0.24715301100E+04  0.25500000920E-02 0.  1.
       -2    1    3    3    0  502  0.11833027369E+03  0.11009806833E+04 -0.11211012303E+04  0.15757628271E+04  0.25500000920E-02 0. -1.
</event>
<event>
 5   0  0.5161550E-07  0.4071329E+04  0.7818609E-02  0.7990310E-01
        2   -1    0    0  501    0  0.00000000000E+00  0.00000000000E+00  0.26302374922E+04  0.26302374922E+04  0.25500000920E-02 0.  1.
       -2   -1    0    0    0  501  0.00000000000E+00  0.00000000000E+00 -0.15754966289E+04  0.15754966289E+04  0.25500000920E-02 0. -1.
    10030    2    1    2    0    0  0.00000000000E+00  0.00000000000E+00  0.10547408633E+04  0.42057341211E+04  0.40713291698E+04 0.  0.
        2    1    3    3  502    0  0.14123601016E+04 -0.28842693037E+03 -0.95743163855E+03  0.17304989145E+04  0.25500000920E-02 0. -1.
       -2    1    3    3    0  502 -0.14123601016E+04  0.28842693037E+03  0.20121725019E+04  0.24752352066E+04  0.25500000920E-02 0.  1.
</event>
<event>
 5   0  0.2713405E-07  0.4015883E+04  0.7818609E-02  0.8001350E-01
       -1   -1    0    0    0  501  0.00000000000E+00  0.00000000000E+00  0.18006097095E+04  0.18006097095E+04  0.50400001928E-02 0.  1.
        1   -1    0    0  501    0  0.00000000000E+00  0.00000000000E+00 -0.22391462871E+04  0.22391462871E+04  0.50400001928E-02 0. -1.
    10030    2    1    2    0    0  0.00000000000E+00  0.00000000000E+00 -0.43853657766E+03  0.40397559966E+04  0.40158827401E+04 0.  0.
        1    1    3    3  502    0  0.42351124327E+02 -0.10853344394E+04  0.14795826455E+04  0.18354588712E+04  0.50400001928E-02 0.  1.
       -1    1    3    3    0  502 -0.42351124327E+02  0.10853344394E+04 -0.19181192231E+04  0.22042971254E+04  0.50400001928E-02 0. -1.
</event>
<event>
 5   0  0.5161550E-07  0.4006900E+04  0.7818609E-02  0.8003156E-01
       -2   -1    0    0    0  501  0.00000000000E+00  0.00000000000E+00  0.21321247420E+04  0.21321247420E+04  0.25500000920E-02 0. -1.
        2   -1    0    0  501    0  0.00000000000E+00  0.00000000000E+00 -0.18825412084E+04  0.18825412084E+04  0.25500000920E-02 0.  1.
    10030    2    1    2    0    0  0.00000000000E+00  0.00000000000E+00  0.24958353356E+03  0.40146659504E+04  0.40069003922E+04 0.  0.
        2    1    3    3  502    0 -0.25555405837E+03  0.82994075715E+03 -0.16841721094E+04  0.18948734077E+04  0.25500000920E-02 0.  1.
       -2    1    3    3    0  502  0.25555405837E+03 -0.82994075715E+03  0.19337556430E+04  0.21197925426E+04  0.25500000920E-02 0. -1.
</event>
<event>
 5   0  0.2601252E-07  0.2177458E+04  0.7818609E-02  0.8527870E-01
       -1   -1    0    0    0  501  0.00000000000E+00  0.00000000000E+00  0.66893103797E+03  0.66893103799E+03  0.50400001928E-02 0. -1.
        1   -1    0    0  501    0  0.00000000000E+00  0.00000000000E+00 -0.17719777118E+04  0.17719777118E+04  0.50400001928E-02 0.  1.
    10030    2    1    2    0    0  0.00000000000E+00  0.00000000000E+00 -0.11030466738E+04  0.24409087498E+04  0.21774580501E+04 0.  0.
        3    1    3    3  502    0 -0.45849744811E+03  0.82400599275E+01  0.55539006990E+03  0.72024020191E+03  0.10100000352E+00 0. -1.
       -3    1    3    3    0  502  0.45849744811E+03 -0.82400599275E+01 -0.16584367437E+04  0.17206685479E+04  0.10100000352E+00 0.  1.
</event>
<event>
 5   0  0.2401125E-07  0.2393330E+04  0.7818609E-02  0.8442005E-01
        1   -1    0    0  501    0  0.00000000000E+00  0.00000000000E+00  0.17687816289E+04  0.17687816289E+04  0.50400001928E-02 0. -1.
       -1   -1    0    0    0  501  0.00000000000E+00  0.00000000000E+00 -0.80960086683E+03  0.80960086684E+03  0.50400001928E-02 0.  1.
    10030    2    1    2    0    0  0.00000000000E+00  0.00000000000E+00  0.95918076211E+03  0.25783824958E+04  0.23933300149E+04 0.  0.
        5    1    3    3  502    0 -0.77490171977E+03  0.87859368119E+03  0.74256577649E+03  0.13870203871E+04  0.46999998093E+01 0.  1.
       -5    1    3    3    0  502  0.77490171977E+03 -0.87859368119E+03  0.21661498562E+03  0.11913621086E+04  0.46999998093E+01 0. -1.
</event>
<event>
 5   0  0.2647879E-07  0.4144530E+04  0.7818609E-02  0.7976008E-01
       -1   -1    0    0    0  501  0.00000000000E+00  0.00000000000E+00  0.26289516794E+04  0.26289516794E+04  0.50400001928E-02 0. -1.
        1   -1    0    0  501    0  0.00000000000E+00  0.00000000000E+00 -0.16334580264E+04  0.16334580264E+04  0.50400001928E-02 0.  1.
    10030    2    1    2    0    0  0.00000000000E+00  0.00000000000E+00  0.99549365297E+03  0.42624097058E+04  0.41445299959E+04 0.  0.
        2    1    3    3  502    0 -0.95431246667E+03  0.18061329774E+04  0.13933270612E+03  0.20474965736E+04  0.25500000920E-02 0. -1.
       -2    1    3    3    0  502  0.95431246667E+03 -0.18061329774E+04  0.85616094685E+03  0.22149131322E+04  0.25500000920E-02 0.  1.
</event>
<event>
 5   0  0.7570277E-07  0.2046784E+04  0.7818609E-02  0.8585055E-01
        2   -1    0    0  501    0  0.00000000000E+00  0.00000000000E+00  0.18916887198E+04  0.18916887198E+04  0.25500000920E-02 0. -1.
       -2   -1    0    0    0  501  0.00000000000E+00  0.00000000000E+00 -0.55364866964E+03  0.55364866965E+03  0.25500000920E-02 0.  1.
    10030    2    1    2    0    0  0.00000000000E+00  0.00000000000E+00  0.13380400502E+04  0.24453373895E+04  0.20467837630E+04 0.  0.
        5    1    3    3  502    0  0.10202368755E+04 -0.16249317643E+02  0.57523982949E+03  0.11713540344E+04  0.46999998093E+01 0.  1.
       -5    1    3    3    0  502 -0.10202368755E+04  0.16249317643E+02  0.76280022069E+03  0.12739833551E+04  0.46999998093E+01 0. -1.
</event>
<event>
 5   0  0.2601252E-07  0.3758486E+04  0.7818609E-02  0.8055123E-01
        1   -1    0    0  501    0  0.00000000000E+00  0.00000000000E+00  0.19799236681E+04  0.19799236681E+04  0.50400001928E-02 0. -1.
       -1   -1    0    0    0  501  0.00000000000E+00  0.00000000000E+00 -0.17836819715E+04  0.17836819715E+04  0.50400001928E-02 0.  1.
    10030    2    1    2    0    0  0.00000000000E+00  0.00000000000E+00  0.19624169659E+03  0.37636056396E+04  0.37584859460E+04 0.  0.
        3    1    3    3  502    0  0.17169458134E+04  0.15647947348E+03  0.84691306432E+03  0.19208462980E+04  0.10100000352E+00 0. -1.
       -3    1    3    3    0  502 -0.17169458134E+04 -0.15647947348E+03 -0.65067136773E+03  0.18427593415E+04  0.10100000352E+00 0.  1.
</event>
<event>
 5   0  0.3579559E-07  0.2560907E+04  0.7818609E-02  0.8381603E-01
       -1   -1    0    0    0  501  0.00000000000E+00  0.00000000000E+00  0.75809009566E+03  0.75809009568E+03  0.50400001928E-02 0. -1.
        1   -1    0    0  501    0  0.00000000000E+00  0.00000000000E+00 -0.21627526196E+04  0.21627526196E+04  0.50400001928E-02 0.  1.
    10030    2    1    2    0    0  0.00000000000E+00  0.00000000000E+00 -0.14046625240E+04  0.29208427153E+04  0.25609071364E+04 0.  0.
        4    1    3    3  502    0 -0.45215948226E+03  0.10487158618E+04 -0.41888213803E+02  0.11428076792E+04  0.12699999809E+01 0.  1.
       -4    1    3    3    0  502  0.45215948226E+03 -0.10487158618E+04 -0.13627743102E+04  0.17780350361E+04  0.12699999809E+01 0. -1.
</event>
<event>
 5   0  0.4449262E-07  0.2524500E+04  0.7818609E-02  0.8394309E-01
       -2   -1    0    0    0  501  0.00000000000E+00  0.00000000000E+00  0.90984155824E+03  0.90984155824E+03  0.25500000920E-02 0. -1.
        2   -1    0    0  501    0  0.00000000000E+00  0.00000000000E+00 -0.17511569226E+04  0.17511569226E+04  0.25500000920E-02 0.  1.
    10030    2    1    2    0    0  0.00000000000E+00  0.00000000000E+00 -0.84131536438E+03  0.26609984809E+04  0.25245002224E+04 0.  0.
        1    1    3    3  502    0 -0.58422048313E+03  0.11970889516E+02  0.75868465767E+03  0.95763212400E+03  0.50400001928E-02 0. -1.
       -1    1    3    3    0  502  0.58422048313E+03 -0.11970889516E+02 -0.16000000221E+04  0.17033663569E+04  0.50400001928E-02 0.  1.
</event>
<event>
 5   0  0.4449262E-07  0.3994357E+04  0.7818609E-02  0.8005686E-01
       -2   -1    0    0    0  501  0.00000000000E+00  0.00000000000E+00  0.29772606848E+04  0.29772606848E+04  0.25500000920E-02 0.  1.
        2   -1    0    0  501    0  0.00000000000E+00  0.00000000000E+00 -0.13397285932E+04  0.13397285932E+04  0.25500000920E-02 0. -1.
    10030    2    1    2    0    0  0.00000000000E+00  0.00000000000E+00  0.16375320916E+04  0.43169892780E+04  0.39943566535E+04 0.  0.
        1    1    3    3  502    0 -0.14771399674E+04 -0.13126309286E+04  0.50594117224E+03  0.20398330588E+04  0.50400001928E-02 0.  1.
       -1    1    3    3    0  502  0.14771399674E+04  0.13126309286E+04  0.11315909194E+04  0.22771562192E+04  0.50400001928E-02 0. -1.
</event>
<event>
 5   0  0.2601252E-07  0.4001427E+04  0.7818609E-02  0.8004259E-01
       -1   -1    0    0    0  501  0.00000000000E+00  0.00000000000E+00  0.23044352948E+04  0.23044352948E+04  0.50400001928E-02 0.  1.
        1   -1    0    0  501    0  0.00000000000E+00  0.00000000000E+00 -0.17370217615E+04  0.17370217616E+04  0.50400001928E-02 0. -1.
    10030    2    1    2    0    0  0.00000000000E+00  0.00000000000E+00  0.56741353322E+03  0.40414570563E+04  0.40014268730E+04 0.  0.
        3    1    3    3  502    0  0.10064527387E+04  0.48954417738E+03 -0.13912725830E+04  0.17855643442E+04  0.10100000352E+00 0. -1.
       -3    1    3    3    0  502 -0.10064527387E+04 -0.48954417738E+03  0.19586861162E+04  0.22558927122E+04  0.10100000352E+00 0.  1.
</event>
<event>
 5   0  0.2713405E-07  0.4035225E+04  0.7818609E-02  0.7997478E-01
        1   -1    0    0  501    0  0.00000000000E+00  0.00000000000E+00  0.21112953911E+04  0.21112953911E+04  0.50400001928E-02 0. -1.
       -1   -1    0    0    0  501  0.00000000000E+00  0.00000000000E+00 -0.19280865289E+04  0.19280865289E+04  0.50400001928E-02 0.  1.
    10030    2    1    2    0    0  0.00000000000E+00  0.00000000000E+00  0.18320886216E+03  0.40393819200E+04  0.40352250009E+04 0.  0.
        1    1    3    3  502    0  0.19650924553E+01 -0.15814249821E+04  0.13458322502E+04  0.20765772996E+04  0.50400001928E-02 0. -1.
       -1    1    3    3    0  502 -0.19650924553E+01  0.15814249821E+04 -0.11626233880E+04  0.19628046204E+04  0.50400001928E-02 0.  1.
</event>
<event>
 5   0  0.2713405E-07  0.2583485E+04  0.7818609E-02  0.8373833E-01
        1   -1    0    0  501    0  0.00000000000E+00  0.00000000000E+00  0.23658715324E+04  0.23658715324E+04  0.50400001928E-02 0. -1.
       -1   -1    0    0    0  501  0.00000000000E+00  0.00000000000E+00 -0.70527859788E+03  0.70527859790E+03  0.50400001928E-02 0.  1.
    10030    2    1    2    0    0  0.00000000000E+00  0.00000000000E+00  0.16605929346E+04  0.30711501303E+04  0.25834849000E+04 0.  0.
        1    1    3    3  502    0  0.71759613424E+03  0.92605498836E+03  0.14771367994E+04  0.18853262788E+04  0.50400001928E-02 0. -1.
       -1    1    3    3    0  502 -0.71759613424E+03 -0.92605498836E+03  0.18345613516E+03  0.11858238515E+04  0.50400001928E-02 0.  1.
</event>
<event>
 5   0  0.5161550E-07  0.3967404E+04  0.7818609E-02  0.8011155E-01
        2   -1    0    0  501    0  0.00000000000E+00  0.00000000000E+00  0.25819688945E+04  0.25819688945E+04  0.25500000920E-02 0. -1.
       -2   -1    0    0    0  501  0.00000000000E+00  0.00000000000E+00 -0.15240593473E+04  0.15240593473E+04  0.25500000920E-02 0.  1.
    10030    2    1    2    0    0  0.00000000000E+00  0.00000000000E+00  0.10579095472E+04  0.41060282418E+04  0.39674041025E+04 0.  0.
        2    1    3    3  502    0 -0.46302865422E+03  0.13708156474E+04  0.19334051447E+04  0.24148678074E+04  0.25500000920E-02 0. -1.
       -2    1    3    3    0  502  0.46302865422E+03 -0.13708156474E+04 -0.87549559746E+03  0.16911604344E+04  0.25500000920E-02 0.  1.
</event>
<event>
 5   0  0.5161550E-07  0.3877687E+04  0.7818609E-02  0.8029686E-01
       -2   -1    0    0    0  501  0.00000000000E+00  0.00000000000E+00  0.17999707862E+04  0.17999707862E+04  0.25500000920E-02 0. -1.
        2   -1    0    0  501    0  0.00000000000E+00  0.00000000000E+00 -0.20884311212E+04  0.20884311212E+04  0.25500000920E-02 0.  1.
    10030    2    1    2    0    0  0.00000000000E+00  0.00000000000E+00 -0.28846033507E+03  0.38884019074E+04  0.38776874588E+04 0.  0.
        2    1    3    3  502    0 -0.13988004235E+04  0.36405983076E+03  0.11515992823E+04  0.18480700994E+04  0.25500000920E-02 0. -1.
       -2    1    3    3    0  502  0.13988004235E+04 -0.36405983076E+03 -0.14400596174E+04  0.20403318080E+04  0.25500000920E-02 0.  1.
</event>
<event>
 5   0  0.2647879E-07  0.3016681E+04  0.7818609E-02  0.8238983E-01
       -1   -1    0    0    0  501  0.00000000000E+00  0.00000000000E+00  0.16254526358E+04  0.16254526358E+04  0.50400001928E-02 0.  1.
        1   -1    0    0  501    0  0.00000000000E+00  0.00000000000E+00 -0.13996663447E+04  0.13996663447E+04  0.50400001928E-02 0. -1.
    10030    2    1    2    0    0  0.00000000000E+00  0.00000000000E+00  0.22578629109E+03  0.30251189805E+04  0.30166811892E+04 0.  0.
        2    1    3    3  502    0  0.42153714427E+03 -0.12927172447E+04 -0.54183419707E+03  0.14636925005E+04  0.25500000920E-02 0. -1.
       -2    1    3    3    0  502 -0.42153714427E+03  0.12927172447E+04  0.76762048816E+03  0.15614264801E+04  0.25500000920E-02 0.  1.
</event>
<event>
 5   0  0.4449262E-07  0.2284407E+04  0.7818609E-02  0.8484095E-01
       -2   -1    0    0    0  501  0.00000000000E+00  0.00000000000E+00  0.10302893224E+04  0.10302893224E+04  0.25500000920E-02 0. -1.
        2   -1    0    0  501    0  0.00000000000E+00  0.00000000000E+00 -0.12662747062E+04  0.12662747062E+04  0.25500000920E-02 0.  1.
    10030    2    1    2    0    0  0.00000000000E+00  0.00000000000E+00 -0.23598538385E+03  0.22965640286E+04  0.22844074147E+04 0.  0.
        1    1    3    3  502    0  0.74049476422E+03 -0.34802724376E+03 -0.91921180762E+03  0.12306119638E+04  0.50400001928E-02 0.  1.
       -1    1    3    3    0  502 -0.74049476422E+03  0.34802724376E+03  0.68322642377E+03  0.10659520648E+04  0.50400001928E-02 0. -1.
</event>
<event>
 5   0  0.2401125E-07  0.3951913E+04  0.7818609E-02  0.8014318E-01
       -1   -1    0    0    0  501  0.00000000000E+00  0.00000000000E+00  0.28010977100E+04  0.28010977100E+04  0.50400001928E-02 0. -1.
        1   -1    0    0  501    0  0.00000000000E+00  0.00000000000E+00 -0.13938834017E+04  0.13938834017E+04  0.50400001928E-02 0.  1.
    10030    2    1    2    0    0  0.00000000000E+00  0.00000000000E+00  0.14072143083E+04  0.41949811117E+04  0.39519127544E+04 0.  0.
        5    1    3    3  502    0  0.13527148435E+04 -0.31417218547E+03 -0.78849493241E+03  0.15969621030E+04  0.46999998093E+01 0.  1.
       -5    1    3    3    0  502 -0.13527148435E+04  0.31417218547E+03  0.21957092407E+04  0.25980190087E+04  0.46999998093E+01 0. -1.
</event>
<event>
 5   0  0.6043512E-07  0.3876078E+04  0.7818609E-02  0.8030023E-01
        2   -1    0    0  501    0  0.00000000000E+00  0.00000000000E+00  0.11691658213E+04  0.11691658213E+04  0.25500000920E-02 0. -1.
       -2   -1    0    0    0  501  0.00000000000E+00  0.00000000000E+00 -0.32125421032E+04  0.32125421032E+04  0.25500000920E-02 0.  1.
    10030    2    1    2    0    0  0.00000000000E+00  0.00000000000E+00 -0.20433762819E+04  0.43817079245E+04  0.38760776187E+04 0.  0.
        3    1    3    3  502    0  0.42596069451E+03 -0.11509025632E+04 -0.27173522378E+04  0.29816140625E+04  0.10100000352E+00 0.  1.
       -3    1    3    3    0  502 -0.42596069451E+03  0.11509025632E+04  0.67397595592E+03  0.14000938620E+04  0.10100000352E+00 0. -1.
</event>
<event>
 5   0  0.6043512E-07  0.2752837E+04  0.7818609E-02  0.8318062E-01
       -2   -1    0    0    0  501  0.00000000000E+00  0.00000000000E+00  0.85209945639E+03  0.85209945639E+03  0.25500000920E-02 0. -1.
        2   -1    0    0  501    0  0.00000000000E+00  0.00000000000E+00 -0.22233642362E+04  0.22233642362E+04  0.25500000920E-02 0.  1.
    10030    2    1    2    0    0  0.00000000000E+00  0.00000000000E+00 -0.13712647798E+04  0.30754636926E+04  0.27528366875E+04 0.  0.
        3    1    3    3  502    0 -0.10444555103E+04  0.87945209479E+03 -0.49147074460E+03  0.14511605021E+04  0.10100000352E+00 0.  1.
       -3    1    3    3    0  502  0.10444555103E+04 -0.87945209479E+03 -0.87979403522E+03  0.16243031905E+04  0.10100000352E+00 0. -1.
</event>
<event>
 5   0  0.2401125E-07  0.3475918E+04  0.7818609E-02  0.8119521E-01
        1   -1    0    0  501    0  0.00000000000E+00  0.00000000000E+00  0.17189534380E+04  0.17189534380E+04  0.50400001928E-02 0. -1.
       -1   -1    0    0    0  501  0.00000000000E+00  0.00000000000E+00 -0.17571743819E+04  0.17571743819E+04  0.50400001928E-02 0.  1.
    10030    2    1    2    0    0  0.00000000000E+00  0.00000000000E+00 -0.38220943886E+02  0.34761278199E+04  0.34759176888E+04 0.  0.
        5    1    3    3  502    0  0.77284308004E+03 -0.31925604903E+03 -0.15427733839E+04  0.17548169863E+04  0.46999998093E+01 0.  1.
       -5    1    3    3    0  502 -0.77284308004E+03  0.31925604903E+03  0.15045524400E+04  0.17213108336E+04  0.46999998093E+01 0. -1.
</event>
<event>
 5   0  0.5161550E-07  0.3886808E+04  0.7818609E-02  0.8027779E-01
       -2   -1    0    0    0  501  0.00000000000E+00  0.00000000000E+00  0.12889259114E+04  0.12889259114E+04  0.25500000920E-02 0.  1.
        2   -1    0    0  501    0  0.00000000000E+00  0.00000000000E+00 -0.29302062236E+04  0.29302062236E+04  0.25500000920E-02 0. -1.
    10030    2    1    2    0    0  0.00000000000E+00  0.00000000000E+00 -0.16412803123E+04  0.42191321350E+04  0.38868078045E+04 0.  0.
        2    1    3    3  502    0  0.16104885506E+02  0.98142189519E+03 -0.26413616515E+04  0.28178430896E+04  0.25500000920E-02 0. -1.
       -2    1    3    3    0  502 -0.16104885506E+02 -0.98142189519E+03  0.10000813392E+04  0.14012890454E+04  0.25500000920E-02 0.  1.
</event>
<event>
 5   0  0.2401125E-07  0.3538558E+04  0.7818609E-02  0.8104712E-01
        1   -1    0    0  501    0  0.00000000000E+00  0.00000000000E+00  0.17346592984E+04  0.17346592984E+04  0.50400001928E-02 0. -1.
       -1   -1    0    0    0  501  0.00000000000E+00  0.00000000000E+00 -0.18045897586E+04  0.18045897586E+04  0.50400001928E-02 0.  1.
    10030    2    1    2    0    0  0.00000000000E+00  0.00000000000E+00 -0.69930460223E+02  0.35392490570E+04  0.35385581270E+04 0.  0.
        5    1    3    3  502    0 -0.40631544852E+03  0.11598741136E+04 -0.13079769262E+04  0.17947774048E+04  0.46999998093E+01 0.  1.
       -5    1    3    3    0  502  0.40631544852E+03 -0.11598741136E+04  0.12380464660E+04  0.17444716522E+04  0.46999998093E+01 0. -1.
</event>
<event>
 5   0  0.4449262E-07  0.2434825E+04  0.7818609E-02  0.8426579E-01
        2   -1    0    0  501    0  0.00000000000E+00  0.00000000000E+00  0.11435865352E+04  0.11435865352E+04  0.25500000920E-02 0. -1.
       -2   -1    0    0    0  501  0.00000000000E+00  0.00000000000E+00 -0.12960047409E+04  0.12960047409E+04  0.25500000920E-02 0.  1.
    10030    2    1    2    0    0  0.00000000000E+00  0.00000000000E+00 -0.15241820563E+03  0.24395912761E+04  0.24348253089E+04 0.  0.
        1    1    3    3  502    0  0.84661939576E+03 -0.82044242037E+03 -0.38045360812E+03  0.12388039047E+04  0.50400001928E-02 0.  1.
       -1    1    3    3    0  502 -0.84661939576E+03  0.82044242037E+03  0.22803540249E+03  0.12007873714E+04  0.50400001928E-02 0. -1.
</event>
<event>
 5   0  0.2713405E-07  0.2133310E+04  0.7818609E-02  0.8546710E-01
       -1   -1    0    0    0  501  0.00000000000E+00  0.00000000000E+00  0.58232012791E+03  0.58232012793E+03  0.50400001928E-02 0.  1.
        1   -1    0    0  501    0  0.00000000000E+00  0.00000000000E+00 -0.19538279289E+04  0.19538279289E+04  0.50400001928E-02 0. -1.
    10030    2    1    2    0    0  0.00000000000E+00  0.00000000000E+00 -0.13715078010E+04  0.25361480568E+04  0.21333104129E+04 0.  0.
        1    1    3    3  502    0  0.97761113524E+03 -0.41699607379E+03 -0.79303948133E+03  0.13260923332E+04  0.50400001928E-02 0.  1.
       -1    1    3    3    0  502 -0.97761113524E+03  0.41699607379E+03 -0.57846831962E+03  0.12100557236E+04  0.50400001928E-02 0. -1.
</event>
<event>
 5   0  0.7256473E-07  0.3902596E+04  0.7818609E-02  0.8024489E-01
       -2   -1    0    0    0  501  0.00000000000E+00  0.00000000000E+00  0.14385333575E+04  0.14385333575E+04  0.25500000920E-02 0. -1.
        2   -1    0    0  501    0  0.00000000000E+00  0.00000000000E+00 -0.26468376445E+04  0.26468376445E+04  0.25500000920E-02 0.  1.
    10030    2    1    2    0    0  0.00000000000E+00  0.00000000000E+00 -0.12083042869E+04  0.40853710020E+04  0.39025961838E+04 0.  0.
        4    1    3    3  502    0  0.43795694868E+03 -0.73411077543E+03  0.12320909754E+04  0.14995915124E+04  0.12699999809E+01 0. -1.
       -4    1    3    3    0  502 -0.43795694868E+03  0.73411077543E+03 -0.24403952623E+04  0.25857794896E+04  0.12699999809E+01 0.  1.
</event>
<event>
 5   0  0.7570277E-07  0.2512736E+04  0.7818609E-02  0.8398462E-01
        2   -1    0    0  501    0  0.00000000000E+00  0.00000000000E+00  0.13184670464E+04  0.13184670464E+04  0.25500000920E-02 0. -1.
       -2   -1    0    0    0  501  0.00000000000E+00  0.00000000000E+00 -0.11971939398E+04  0.11971939398E+04  0.25500000920E-02 0.  1.
    10030    2    1    2    0    0  0.00000000000E+00  0.00000000000E+00  0.12127310663E+03  0.25156609863E+04  0.25127361643E+04 0.  0.
        5    1    3    3  502    0 -0.98707223987E+03  0.15786611901E+03  0.82257783915E+03  0.12945615898E+04  0.46999998093E+01 0. -1.
       -5    1    3    3    0  502  0.98707223987E+03 -0.15786611901E+03 -0.70130473252E+03  0.12210993965E+04  0.46999998093E+01 0.  1.
</event>
<event>
 5   0  0.3579559E-07  0.3577332E+04  0.7818609E-02  0.8095704E-01
        1   -1    0    0  501    0  0.00000000000E+00  0.00000000000E+00  0.22132391097E+04  0.22132391097E+04  0.50400001928E-02 0.  1.
       -1   -1    0    0    0  501  0.00000000000E+00  0.00000000000E+00 -0.14455399542E+04  0.14455399542E+04  0.50400001928E-02 0. -1.
    10030    2    1    2    0    0  0.00000000000E+00  0.00000000000E+00  0.76769915551E+03  0.36587790640E+04  0.35773317215E+04 0.  0.
        4    1    3    3  502    0 -0.14732032069E+03 -0.68965760098E+03  0.20650484373E+04  0.21821451705E+04  0.12699999809E+01 0.  1.
       -4    1    3    3    0  502  0.14732032069E+03  0.68965760098E+03 -0.12973492818E+04  0.14766338935E+04  0.12699999809E+01 0. -1.
</event>
<event>
 5   0  0.6043512E-07  0.3989143E+04  0.7818609E-02  0.8006740E-01
       -2   -1    0    0    0  501  0.00000000000E+00  0.00000000000E+00  0.14403416647E+04  0.14403416647E+04  0.25500000920E-02 0. -1.
        2   -1    0    0  501    0  0.00000000000E+00  0.00000000000E+00 -0.27620635140E+04  0.27620635140E+04  0.25500000920E-02 0.  1.
    10030    2    1    2    0    0  0.00000000000E+00  0.00000000000E+00 -0.13217218494E+04  0.42024051787E+04  0.39891428452E+04 0.  0.
        3    1    3    3  502    0 -0.12266830000E+04 -0.15355909688E+04 -0.30280151623E+03  0.19885873314E+04  0.10100000352E+00 0.  1.
       -3    1    3    3    0  502  0.12266830000E+04  0.15355909688E+04 -0.10189203331E+04  0.22138178474E+04  0.10100000352E+00 0. -1.
</event>
<event>
 5   0  0.2601252E-07  0.2772155E+04  0.7818609E-02  0.8311966E-01
        1   -1    0    0  501    0  0.00000000000E+00  0.00000000000E+00  0.23137848935E+04  0.23137848935E+04  0.50400001928E-02 0. -1.
       -1   -1    0    0    0  501  0.00000000000E+00  0.00000000000E+00 -0.83033251014E+03  0.83033251015E+03  0.50400001928E-02 0.  1.
    10030    2    1    2    0    0  0.00000000000E+00  0.00000000000E+00  0.14834523834E+04  0.31441174037E+04  0.27721549874E+04 0.  0.
        3    1    3    3  502    0 -0.11698565791E+04  0.59108121770E+03  0.23037739830E+03  0.13307949420E+04  0.10100000352E+00 0.  1.
       -3    1    3    3    0  502  0.11698565791E+04 -0.59108121770E+03  0.12530749851E+04  0.18133224617E+04  0.10100000352E+00 0. -1.
</event>
<event>
 5   0  0.4449262E-07  0.3997289E+04  0.7818609E-02  0.8005094E-01
       -2   -1    0    0    0  501  0.00000000000E+00  0.00000000000E+00  0.23956055693E+04  0.23956055693E+04  0.25500000920E-02 0. -1.
        2   -1    0    0  501    0  0.00000000000E+00  0.00000000000E+00 -0.16674610492E+04  0.16674610492E+04  0.25500000920E-02 0.  1.
    10030    2    1    2    0    0  0.00000000000E+00  0.00000000000E+00  0.72814452011E+03  0.40630666184E+04  0.39972885690E+04 0.  0.
        1    1    3    3  502    0 -0.51707205681E+03  0.19271928546E+04  0.24754207915E+03  0.20106498681E+04  0.50400001928E-02 0.  1.
       -1    1    3    3    0  502  0.51707205681E+03 -0.19271928546E+04  0.48060244096E+03  0.20524167504E+04  0.50400001928E-02 0. -1.
</event>
<event>
 5   0  0.4449262E-07  0.3876511E+04  0.7818609E-02  0.8029932E-01
       -2   -1    0    0    0  501  0.00000000000E+00  0.00000000000E+00  0.16563929861E+04  0.16563929861E+04  0.25500000920E-02 0. -1.
        2   -1    0    0  501    0  0.00000000000E+00  0.00000000000E+00 -0.22680810502E+04  0.22680810502E+04  0.25500000920E-02 0.  1.
    10030    2    1    2    0    0  0.00000000000E+00  0.00000000000E+00 -0.61168806414E+03  0.39244740363E+04  0.38765105667E+04 0.  0.
        1    1    3    3  502    0 -0.47457852128E+03  0.29112337111E+03  0.15736980562E+04  0.16692822296E+04  0.50400001928E-02 0. -1.
       -1    1    3    3    0  502  0.47457852128E+03 -0.29112337111E+03 -0.21853861203E+04  0.22551918067E+04  0.50400001928E-02 0.  1.
</event>
<event>
 5   0  0.7570277E-07  0.3742164E+04  0.7818609E-02  0.8058681E-01
        2   -1    0    0  501    0  0.00000000000E+00  0.00000000000E+00  0.16689284601E+04  0.16689284601E+04  0.25500000920E-02 0. -1.
       -2   -1    0    0    0  501  0.00000000000E+00  0.00000000000E+00 -0.20977222238E+04  0.20977222238E+04  0.25500000920E-02 0.  1.
    10030    2    1    2    0    0  0.00000000000E+00  0.00000000000E+00 -0.42879376366E+03  0.37666506839E+04  0.37421642511E+04 0.  0.
        5    1    3    3  502    0 -0.16202758168E+04  0.50942013926E+03  0.57567468559E+03  0.17933839618E+04  0.46999998093E+01 0. -1.
       -5    1    3    3    0  502  0.16202758168E+04 -0.50942013926E+03 -0.10044684492E+04  0.19732667221E+04  0.46999998093E+01 0.  1.
</event>
<event>
 5   0  0.6043512E-07  0.2482849E+04  0.7818609E-02  0.8409121E-01
        2   -1    0    0  501    0  0.00000000000E+00  0.00000000000E+00  0.16994095178E+04  0.16994095178E+04  0.25500000920E-02 0.  1.
       -2   -1    0    0    0  501  0.00000000000E+00  0.00000000000E+00 -0.90686473515E+03  0.90686473515E+03  0.25500000920E-02 0. -1.
    10030    2    1    2    0    0  0.00000000000E+00  0.00000000000E+00  0.79254478265E+03  0.26062742529E+04  0.24828488172E+04 0.  0.
        3    1    3    3  502    0  0.10529010807E+04 -0.24403079721E+03  0.10373553928E+04  0.14980847562E+04  0.10100000352E+00 0.  1.
       -3    1    3    3    0  502 -0.10529010807E+04  0.24403079721E+03 -0.24481061012E+03  0.11081894967E+04  0.10100000352E+00 0. -1.
</event>
<event>
 5   0  0.4449262E-07  0.3864752E+04  0.7818609E-02  0.8032400E-01
        2   -1    0    0  501    0  0.00000000000E+00  0.00000000000E+00  0.24895560418E+04  0.24895560418E+04  0.25500000920E-02 0. -1.
       -2   -1    0    0    0  501  0.00000000000E+00  0.00000000000E+00 -0.14998965927E+04  0.14998965927E+04  0.25500000920E-02 0.  1.
    10030    2    1    2    0    0  0.00000000000E+00  0.00000000000E+00  0.98965944917E+03  0.39894526345E+04  0.38647518028E+04 0.  0.
        1    1    3    3  502    0 -0.22922315291E+03 -0.17000511945E+03  0.24676823428E+04  0.24841298556E+04  0.50400001928E-02 0. -1.
       -1    1    3    3    0  502  0.22922315291E+03  0.17000511945E+03 -0.14780228936E+04  0.15053227789E+04  0.50400001928E-02 0.  1.
</event>
<event>
 5   0  0.4449262E-07  0.2943854E+04  0.7818609E-02  0.8259948E-01
       -2   -1    0    0    0  501  0.00000000000E+00  0.00000000000E+00  0.12476078257E+04  0.12476078257E+04  0.25500000920E-02 0.  1.
        2   -1    0    0  501    0  0.00000000000E+00  0.00000000000E+00 -0.17365783834E+04  0.17365783834E+04  0.25500000920E-02 0. -1.
    10030    2    1    2    0    0  0.00000000000E+00  0.00000000000E+00 -0.48897055768E+03  0.29841862091E+04  0.29438537878E+04 0.  0.
        1    1    3    3  502    0 -0.68179601393E+03  0.57075946336E+03  0.94459739915E+03  0.12972572667E+04  0.50400001928E-02 0.  1.
       -1    1    3    3    0  502  0.68179601393E+03 -0.57075946336E+03 -0.14335679568E+04  0.16869289423E+04  0.50400001928E-02 0. -1.
</event>
<event>
 5   0  0.2647879E-07  0.4002748E+04  0.7818609E-02  0.8003992E-01
       -1   -1    0    0    0  501  0.00000000000E+00  0.00000000000E+00  0.20701358490E+04  0.20701358490E+04  0.50400001928E-02 0. -1.
        1   -1    0    0  501    0  0.00000000000E+00  0.00000000000E+00 -0.19348959758E+04  0.19348959758E+04  0.50400001928E-02 0.  1.
    10030    2    1    2    0    0  0.00000000000E+00  0.00000000000E+00  0.13523987319E+03  0.40050318248E+04  0.40027478180E+04 0.  0.
        2    1    3    3  502    0  0.56104947899E+03  0.64415581713E+03  0.18785654753E+04  0.20636669983E+04  0.25500000920E-02 0. -1.
       -2    1    3    3    0  502 -0.56104947899E+03 -0.64415581713E+03 -0.17433256021E+04  0.19413648265E+04  0.25500000920E-02 0.  1.
</event>
<event>
 5   0  0.2647879E-07  0.2357682E+04  0.7818609E-02  0.8455519E-01
       -1   -1    0    0    0  501  0.00000000000E+00  0.00000000000E+00  0.13567387939E+04  0.13567387939E+04  0.50400001928E-02 0. -1.
        1   -1    0    0  501    0  0.00000000000E+00  0.00000000000E+00 -0.10242695917E+04  0.10242695917E+04  0.50400001928E-02 0.  1.
    10030    2    1    2    0    0  0.00000000000E+00  0.00000000000E+00  0.33246920221E+03  0.23810083857E+04  0.23576821589E+04 0.  0.
        2    1    3    3  502    0  0.24728633543E+03 -0.79589314941E+03  0.10081915667E+04  0.13080698269E+04  0.25500000920E-02 0. -1.
       -2    1    3    3    0  502 -0.24728633543E+03  0.79589314941E+03 -0.67572236448E+03  0.10729385587E+04  0.25500000920E-02 0.  1.
</event>
<event>
 5   0  0.3579559E-07  0.3952300E+04  0.7818609E-02  0.8014239E-01
       -1   -1    0    0    0  501  0.00000000000E+00  0.00000000000E+00  0.15479868500E+04  0.15479868500E+04  0.50400001928E-02 0.  1.
        1   -1    0    0  501    0  0.00000000000E+00  0.00000000000E+00 -0.25227401102E+04  0.25227401102E+04  0.50400001928E-02 0. -1.
    10030    2    1    2    0    0  0.00000000000E+00  0.00000000000E+00 -0.97475326019E+03  0.40707269602E+04  0.39522998452E+04 0.  0.
        4    1    3    3  502    0 -0.12822578352E+04  0.15000277561E+04 -0.59490053468E+03  0.20611105463E+04  0.12699999809E+01 0.  1.
       -4    1    3    3    0  502  0.12822578352E+04 -0.15000277561E+04 -0.37985272550E+03  0.20096164139E+04  0.12699999809E+01 0. -1.
</event>
<event>
 5   0  0.3579559E-07  0.2340300E+04  0.7818609E-02  0.8462199E-01
       -1   -1    0    0    0  501  0.00000000000E+00  0.00000000000E+00  0.18199179345E+04  0.18199179345E+04  0.50400001928E-02 0. -1.
        1   -1    0    0  501    0  0.00000000000E+00  0.00000000000E+00 -0.75236968195E+03  0.75236968196E+03  0.50400001928E-02 0.  1.
    10030    2    1    2    0    0  0.00000000000E+00  0.00000000000E+00  0.10675482525E+04  0.25722876165E+04  0.23403000471E+04 0.  0.
        4    1    3    3  502    0 -0.73930547621E+03  0.64390999948E+03  0.12358891888E+04  0.15775349043E+04  0.12699999809E+01 0. -1.
       -4    1    3    3    0  502  0.73930547621E+03 -0.64390999948E+03 -0.16834093621E+03  0.99475271213E+03  0.12699999809E+01 0.  1.
</event>
<event>
 5   0  0.7570277E-07  0.3806572E+04  0.7818609E-02  0.8044746E-01
       -2   -1    0    0    0  501  0.00000000000E+00  0.00000000000E+00  0.17088015683E+04  0.17088015683E+04  0.25500000920E-02 0.  1.
        2   -1    0    0  501    0  0.00000000000E+00  0.00000000000E+00 -0.21199050059E+04  0.21199050059E+04  0.25500000920E-02 0. -1.
    10030    2    1    2    0    0  0.00000000000E+00  0.00000000000E+00 -0.41110343759E+03  0.38287065742E+04  0.38065716853E+04 0.  0.
        5    1    3    3  502    0  0.58904033934E+03 -0.15943495898E+03 -0.20188345792E+04  0.21090526726E+04  0.46999998093E+01 0. -1.
       -5    1    3    3    0  502 -0.58904033934E+03  0.15943495898E+03  0.16077311416E+04  0.17196539016E+04  0.46999998093E+01 0.  1.
</event>
<event>
 5   0  0.2601252E-07  0.2105551E+04  0.7818609E-02  0.8558802E-01
       -1   -1    0    0    0  501  0.00000000000E+00  0.00000000000E+00  0.10985692470E+04  0.10985692470E+04  0.50400001928E-02 0. -1.
        1   -1    0    0  501    0  0.00000000000E+00  0.00000000000E+00 -0.10088907498E+04  0.10088907498E+04  0.50400001928E-02 0.  1.
    10030    2    1    2    0    0  0.00000000000E+00  0.00000000000E+00  0.89678497194E+02  0.21074599968E+04  0.21055510930E+04 0.  0.
        3    1    3    3  502    0  0.79639073046E+02  0.41397082956E+03 -0.92072291418E+03  0.10126425453E+04  0.10100000352E+00 0.  1.
       -3    1    3    3    0  502 -0.79639073046E+02 -0.41397082956E+03  0.10104014114E+04  0.10948174514E+04  0.10100000352E+00 0. -1.
</event>
<event>
 5   0  0.2401125E-07  0.3993156E+04  0.7818609E-02  0.8005929E-01
        1   -1    0    0  501    0  0.00000000000E+00  0.00000000000E+00  0.14306019779E+04  0.14306019780E+04  0.50400001928E-02 0. -1.
       -1   -1    0    0    0  501  0.00000000000E+00  0.00000000000E+00 -0.27864661048E+04  0.27864661048E+04  0.50400001928E-02 0.  1.
    10030    2    1    2    0    0  0.00000000000E+00  0.00000000000E+00 -0.13558641269E+04  0.42170680828E+04  0.39931561057E+04 0.  0.
        5    1    3    3  502    0  0.10239210753E+04  0.16845291748E+04 -0.34355677071E+03  0.20010263001E+04  0.46999998093E+01 0. -1.
       -5    1    3    3    0  502 -0.10239210753E+04 -0.16845291748E+04 -0.10123073561E+04  0.22160417826E+04  0.46999998093E+01 0.  1.
</event>
<event>
 5   0  0.7570277E-07  0.3247212E+04  0.7818609E-02  0.8176459E-01
       -2   -1    0    0    0  501  0.00000000000E+00  0.00000000000E+00  0.13460666772E+04  0.13460666772E+04  0.25500000920E-02 0. -1.
        2   -1    0    0  501    0  0.00000000000E+00  0.00000000000E+00 -0.19583700710E+04  0.19583700710E+04  0.25500000920E-02 0.  1.
    10030    2    1    2    0    0  0.00000000000E+00  0.00000000000E+00 -0.61230339373E+03  0.33044367482E+04  0.32472121546E+04 0.  0.
        5    1    3    3  502    0 -0.93069646581E+03  0.91939839850E+03 -0.12846504267E+04  0.18335316019E+04  0.46999998093E+01 0.  1.
       -5    1    3    3    0  502  0.93069646581E+03 -0.91939839850E+03  0.67234703292E+03  0.14709051463E+04  0.46999998093E+01 0. -1.
</event>
<event>
 5   0  0.7256473E-07  0.3956230E+04  0.7818609E-02  0.8013435E-01
        2   -1    0    0  501    0  0.00000000000E+00  0.00000000000E+00  0.18824706812E+04  0.18824706812E+04  0.25500000920E-02 0. -1.
       -2   -1    0    0    0  501  0.00000000000E+00  0.00000000000E+00 -0.20786193250E+04  0.20786193250E+04  0.25500000920E-02 0.  1.
    10030    2    1    2    0    0  0.00000000000E+00  0.00000000000E+00 -0.19614864383E+03  0.39610900062E+04  0.39562304972E+04 0.  0.
        4    1    3    3  502    0 -0.15442412377E+04  0.11315470922E+04 -0.59653974089E+03  0.20052284402E+04  0.12699999809E+01 0. -1.
       -4    1    3    3    0  502  0.15442412377E+04 -0.11315470922E+04  0.40039109707E+03  0.19558615660E+04  0.12699999809E+01 0.  1.
</event>
<event>
 5   0  0.4449262E-07  0.3496176E+04  0.7818609E-02  0.8114697E-01
       -2   -1    0    0    0  501  0.00000000000E+00  0.00000000000E+00  0.15120795512E+04  0.15120795512E+04  0.25500000920E-02 0.  1.
        2   -1    0    0  501    0  0.00000000000E+00  0.00000000000E+00 -0.20209328014E+04  0.20209328014E+04  0.25500000920E-02 0. -1.
    10030    2    1    2    0    0  0.00000000000E+00  0.00000000000E+00 -0.50885325022E+03  0.35330123526E+04  0.34961757183E+04 0.  0.
        1    1    3    3  502    0  0.11878355458E+04 -0.11416441123E+04  0.33611627774E+03  0.16814513716E+04  0.50400001928E-02 0.  1.
       -1    1    3    3    0  502 -0.11878355458E+04  0.11416441123E+04 -0.84496952796E+03  0.18515609809E+04  0.50400001928E-02 0. -1.
</event>
<event>
 5   0  0.5161550E-07  0.3943500E+04  0.7818609E-02  0.8016042E-01
        2   -1    0    0  501    0  0.00000000000E+00  0.00000000000E+00  0.18270205837E+04  0.18270205837E+04  0.25500000920E-02 0. -1.
       -2   -1    0    0    0  501  0.00000000000E+00  0.00000000000E+00 -0.21279442826E+04  0.21279442826E+04  0.25500000920E-02 0.  1.
    10030    2    1    2    0    0  0.00000000000E+00  0.00000000000E+00 -0.30092369893E+03  0.39549648662E+04  0.39434999709E+04 0.  0.
        2    1    3    3  502    0 -0.66692966807E+03 -0.86016047185E+03 -0.17993606264E+04  0.21029431479E+04  0.25500000920E-02 0.  1.
       -2    1    3    3    0  502  0.66692966807E+03  0.86016047185E+03  0.14984369275E+04  0.18520217183E+04  0.25500000920E-02 0. -1.
</event>
<event>
 5   0  0.2401125E-07  0.1999836E+04  0.7818609E-02  0.8606697E-01
       -4   -1    0    0    0  501  0.00000000000E+00  0.00000000000E+00  0.16061579018E+04  0.16061584039E+04  0.12699999809E+01 0.  1.
        4   -1    0    0  501    0  0.00000000000E+00  0.00000000000E+00 -0.62250031640E+03  0.62250161190E+03  0.12699999809E+01 0. -1.
    10030    2    1    2    0    0  0.00000000000E+00  0.00000000000E+00  0.98365758541E+03  0.22286600158E+04  0.19998357984E+04 0.  0.
        5    1    3    3  502    0 -0.38811485304E+02  0.89590109208E+03 -0.11293797389E+01  0.89675440544E+03  0.46999998093E+01 0. -1.
       -5    1    3    3    0  502  0.38811485304E+02 -0.89590109208E+03  0.98478696515E+03  0.13319056104E+04  0.46999998093E+01 0.  1.
</event>
<event>
 5   0  0.2647879E-07  0.2554923E+04  0.7818609E-02  0.8383676E-01
        1   -1    0    0  501    0  0.00000000000E+00  0.00000000000E+00  0.20451298897E+04  0.20451298897E+04  0.50400001928E-02 0.  1.
       -1   -1    0    0    0  501  0.00000000000E+00  0.00000000000E+00 -0.79794815764E+03  0.79794815765E+03  0.50400001928E-02 0. -1.
    10030    2    1    2    0    0  0.00000000000E+00  0.00000000000E+00  0.12471817321E+04  0.28430780474E+04  0.25549227993E+04 0.  0.
        2    1    3    3  502    0 -0.78405027307E+03  0.79401410239E+03  0.13155909918E+04  0.17251008328E+04  0.25500000920E-02 0.  1.
       -2    1    3    3    0  502  0.78405027307E+03 -0.79401410239E+03 -0.68409259749E+02  0.11179772146E+04  0.25500000920E-02 0. -1.
</event>
<event>
 5   0  0.3579559E-07  0.3986317E+04  0.7818609E-02  0.8007312E-01
        1   -1    0    0  501    0  0.00000000000E+00  0.00000000000E+00  0.20215061544E+04  0.20215061544E+04  0.50400001928E-02 0. -1.
       -1   -1    0    0    0  501  0.00000000000E+00  0.00000000000E+00 -0.19652085772E+04  0.19652085772E+04  0.50400001928E-02 0.  1.
    10030    2    1    2    0    0  0.00000000000E+00  0.00000000000E+00  0.56297577211E+02  0.39867147315E+04  0.39863172144E+04 0.  0.
        4    1    3    3  502    0 -0.13577816887E+04  0.11617742878E+04 -0.85476936182E+03  0.19808894176E+04  0.12699999809E+01 0.  1.
       -4    1    3    3    0  502  0.13577816887E+04 -0.11617742878E+04  0.91106693903E+03  0.20058253140E+04  0.12699999809E+01 0. -1.
</event>
<event>
 5   0  0.7570277E-07  0.2917359E+04  0.7818609E-02  0.8267731E-01
        2   -1    0    0  501    0  0.00000000000E+00  0.00000000000E+00  0.18843465825E+04  0.18843465825E+04  0.25500000920E-02 0.  1.
       -2   -1    0    0    0  501  0.00000000000E+00  0.00000000000E+00 -0.11291689163E+04  0.11291689163E+04  0.25500000920E-02 0. -1.
    10030    2    1    2    0    0  0.00000000000E+00  0.00000000000E+00  0.75517766625E+03  0.30135154988E+04  0.29173587976E+04 0.  0.
        5    1    3    3  502    0 -0.60404006052E+02  0.13172208551E+04  0.10218480776E+04  0.16682071240E+04  0.46999998093E+01 0.  1.
       -5    1    3    3    0  502  0.60404006052E+02 -0.13172208551E+04 -0.26667041136E+03  0.13453083748E+04  0.46999998093E+01 0. -1.
</event>
<event>
 5   0  0.6043512E-07  0.2705137E+04  0.7818609E-02  0.8333340E-01
       -2   -1    0    0    0  501  0.00000000000E+00  0.00000000000E+00  0.98480555384E+03  0.98480555385E+03  0.25500000920E-02 0. -1.
        2   -1    0    0  501    0  0.00000000000E+00  0.00000000000E+00 -0.18576680222E+04  0.18576680222E+04  0.25500000920E-02 0.  1.
    10030    2    1    2    0    0  0.00000000000E+00  0.00000000000E+00 -0.87286246832E+03  0.28424735760E+04  0.27051371761E+04 0.  0.
        3    1    3    3  502    0 -0.13172675563E+04 -0.19840760194E+03 -0.68259471640E+03  0.14968282962E+04  0.10100000352E+00 0.  1.
       -3    1    3    3    0  502  0.13172675563E+04  0.19840760194E+03 -0.19026775192E+03  0.13456452798E+04  0.10100000352E+00 0. -1.
</event>
<event>
 5   0  0.4449262E-07  0.4015020E+04  0.7818609E-02  0.8001523E-01
       -2   -1    0    0    0  501  0.00000000000E+00  0.00000000000E+00  0.31479180802E+04  0.31479180802E+04  0.25500000920E-02 0.  1.
        2   -1    0    0  501    0  0.00000000000E+00  0.00000000000E+00 -0.12802416267E+04  0.12802416267E+04  0.25500000920E-02 0. -1.
    10030    2    1    2    0    0  0.00000000000E+00  0.00000000000E+00  0.18676764536E+04  0.44281597069E+04  0.40150196830E+04 0.  0.
        1    1    3    3  502    0  0.22885787716E+03 -0.95432619005E+03 -0.99764599750E+03  0.13994327212E+04  0.50400001928E-02 0.  1.
       -1    1    3    3    0  502 -0.22885787716E+03  0.95432619005E+03  0.28653224511E+04  0.30287269857E+04  0.50400001928E-02 0. -1.
</event>
<event>
 5   0  0.4449262E-07  0.2294328E+04  0.7818609E-02  0.8480161E-01
       -2   -1    0    0    0  501  0.00000000000E+00  0.00000000000E+00  0.92705263196E+03  0.92705263197E+03  0.25500000920E-02 0. -1.
        2   -1    0    0  501    0  0.00000000000E+00  0.00000000000E+00 -0.14195365439E+04  0.14195365439E+04  0.25500000920E-02 0.  1.
    10030    2    1    2    0    0  0.00000000000E+00  0.00000000000E+00 -0.49248391192E+03  0.23465891759E+04  0.22943278660E+04 0.  0.
        1    1    3    3  502    0  0.70948922858E+03 -0.79103589338E+03 -0.68837613986E+03  0.12660862767E+04  0.50400001928E-02 0.  1.
       -1    1    3    3    0  502 -0.70948922858E+03  0.79103589338E+03  0.19589222793E+03  0.10805028992E+04  0.50400001928E-02 0. -1.
</event>
<event>
 5   0  0.4449262E-07  0.3991195E+04  0.7818609E-02  0.8006325E-01
       -2   -1    0    0    0  501  0.00000000000E+00  0.00000000000E+00  0.14872536654E+04  0.14872536654E+04  0.25500000920E-02 0.  1.
        2   -1    0    0  501    0  0.00000000000E+00  0.00000000000E+00 -0.26776931960E+04  0.26776931960E+04  0.25500000920E-02 0. -1.
    10030    2    1    2    0    0  0.00000000000E+00  0.00000000000E+00 -0.11904395306E+04  0.41649468614E+04  0.39911948189E+04 0.  0.
        1    1    3    3  502    0  0.12245227874E+03  0.17412122834E+04  0.41415003868E+03  0.17939718590E+04  0.50400001928E-02 0. -1.
       -1    1    3    3    0  502 -0.12245227874E+03 -0.17412122834E+04 -0.16045895693E+04  0.23709750024E+04  0.50400001928E-02 0.  1.
</event>
<event>
 5   0  0.2647879E-07  0.3693899E+04  0.7818609E-02  0.8069315E-01
       -1   -1    0    0    0  501  0.00000000000E+00  0.00000000000E+00  0.19892704157E+04  0.19892704157E+04  0.50400001928E-02 0. -1.
        1   -1    0    0  501    0  0.00000000000E+00  0.00000000000E+00 -0.17148110884E+04  0.17148110884E+04  0.50400001928E-02 0.  1.
    10030    2    1    2    0    0  0.00000000000E+00  0.00000000000E+00  0.27445932726E+03  0.37040815041E+04  0.36938992768E+04 0.  0.
        2    1    3    3  502    0  0.12497850657E+04  0.64878803178E+03  0.13356534624E+04  0.19408397132E+04  0.25500000920E-02 0. -1.
       -2    1    3    3    0  502 -0.12497850657E+04 -0.64878803178E+03 -0.10611941352E+04  0.17632417909E+04  0.25500000920E-02 0.  1.
</event>
<event>
 5   0  0.5161550E-07  0.3904426E+04  0.7818609E-02  0.8024109E-01
       -2   -1    0    0    0  501  0.00000000000E+00  0.00000000000E+00  0.22525374951E+04  0.22525374951E+04  0.25500000920E-02 0.  1.
        2   -1    0    0  501    0  0.00000000000E+00  0.00000000000E+00 -0.16919298540E+04  0.16919298540E+04  0.25500000920E-02 0. -1.
    10030    2    1    2    0    0  0.00000000000E+00  0.00000000000E+00  0.56060764107E+03  0.39444673490E+04  0.39044259169E+04 0.  0.
        2    1    3    3  502    0 -0.29400042760E+03 -0.42802326685E+03  0.21814893997E+04  0.22424397806E+04  0.25500000920E-02 0.  1.
       -2    1    3    3    0  502  0.29400042760E+03  0.42802326685E+03 -0.16208817586E+04  0.17020275685E+04  0.25500000920E-02 0. -1.
</event>
<event>
 5   0  0.5161550E-07  0.2360199E+04  0.7818609E-02  0.8454556E-01
       -2   -1    0    0    0  501  0.00000000000E+00  0.00000000000E+00  0.12787555647E+04  0.12787555647E+04  0.25500000920E-02 0.  1.
        2   -1    0    0  501    0  0.00000000000E+00  0.00000000000E+00 -0.10890549903E+04  0.10890549903E+04  0.25500000920E-02 0. -1.
    10030    2    1    2    0    0  0.00000000000E+00  0.00000000000E+00  0.18970057444E+03  0.23678105550E+04  0.23601992536E+04 0.  0.
        2    1    3    3  502    0  0.58244423093E+03 -0.20950709279E+03 -0.91312893417E+03  0.11031495613E+04  0.25500000920E-02 0. -1.
       -2    1    3    3    0  502 -0.58244423093E+03  0.20950709279E+03  0.11028295086E+04  0.12646609938E+04  0.25500000920E-02 0.  1.
</event>
<event>
 5   0  0.2647879E-07  0.3765514E+04  0.7818609E-02  0.8053596E-01
        1   -1    0    0  501    0  0.00000000000E+00  0.00000000000E+00  0.24451410121E+04  0.24451410121E+04  0.50400001928E-02 0.  1.
       -1   -1    0    0    0  501  0.00000000000E+00  0.00000000000E+00 -0.14497216701E+04  0.14497216701E+04  0.50400001928E-02 0. -1.
    10030    2    1    2    0    0  0.00000000000E+00  0.00000000000E+00  0.99541934195E+03  0.38948626822E+04  0.37655139950E+04 0.  0.
        2    1    3    3  502    0  0.12244041862E+04  0.11602719805E+04 -0.36730531116E+03  0.17263573997E+04  0.25500000920E-02 0. -1.
       -2    1    3    3    0  502 -0.12244041862E+04 -0.11602719805E+04  0.13627246531E+04  0.21685052825E+04  0.25500000920E-02 0.  1.
</event>
<event>
 5   0  0.7570277E-07  0.3982089E+04  0.7818609E-02  0.8008169E-01
       -2   -1    0    0    0  501  0.00000000000E+00  0.00000000000E+00  0.15439706243E+04  0.15439706243E+04  0.25500000920E-02 0. -1.
        2   -1    0    0  501    0  0.00000000000E+00  0.00000000000E+00 -0.25675740155E+04  0.25675740155E+04  0.25500000920E-02 0.  1.
    10030    2    1    2    0    0  0.00000000000E+00  0.00000000000E+00 -0.10236033912E+04  0.41115446398E+04  0.39820893288E+04 0.  0.
        5    1    3    3  502    0 -0.13629173023E+04 -0.82550515073E+03  0.72084088393E+03  0.17488956506E+04  0.46999998093E+01 0. -1.
       -5    1    3    3    0  502  0.13629173023E+04  0.82550515073E+03 -0.17444442752E+04  0.23626489892E+04  0.46999998093E+01 0.  1.
</event>
<event>
 5   0  0.2601252E-07  0.2826965E+04  0.7818609E-02  0.8294945E-01
       -1   -1    0    0    0  501  0.00000000000E+00  0.00000000000E+00  0.88349820049E+03  0.88349820051E+03  0.50400001928E-02 0. -1.
        1   -1    0    0  501    0  0.00000000000E+00  0.00000000000E+00 -0.22613892355E+04  0.22613892355E+04  0.50400001928E-02 0.  1.
    10030    2    1    2    0    0  0.00000000000E+00  0.00000000000E+00 -0.13778910350E+04  0.31448874360E+04  0.28269653837E+04 0.  0.
        3    1    3    3  502    0  0.65127062145E+03  0.11849322774E+04 -0.23065040831E+03  0.13716477483E+04  0.10100000352E+00 0. -1.
       -3    1    3    3    0  502 -0.65127062145E+03 -0.11849322774E+04 -0.11472406267E+04  0.17732396877E+04  0.10100000352E+00 0.  1.
</event>
<event>
 5   0  0.5161550E-07  0.2764741E+04  0.7818609E-02  0.8314299E-01
        2   -1    0    0  501    0  0.00000000000E+00  0.00000000000E+00  0.98880523384E+03  0.98880523384E+03  0.25500000920E-02 0. -1.
       -2   -1    0    0    0  501  0.00000000000E+00  0.00000000000E+00 -0.19325830529E+04  0.19325830529E+04  0.25500000920E-02 0.  1.
    10030    2    1    2    0    0  0.00000000000E+00  0.00000000000E+00 -0.94377781909E+03  0.29213882868E+04  0.27647410277E+04 0.  0.
        2    1    3    3  502    0 -0.10019740367E+04 -0.23104665980E+03 -0.14481489574E+04  0.17760827492E+04  0.25500000920E-02 0.  1.
       -2    1    3    3    0  502  0.10019740367E+04  0.23104665980E+03  0.50437113830E+03  0.11453055376E+04  0.25500000920E-02 0. -1.
</event>
<event>
 5   0  0.2601252E-07  0.2222043E+04  0.7818609E-02  0.8509309E-01
       -1   -1    0    0    0  501  0.00000000000E+00  0.00000000000E+00  0.82746446403E+03  0.82746446405E+03  0.50400001928E-02 0.  1.
        1   -1    0    0  501    0  0.00000000000E+00  0.00000000000E+00 -0.14917482223E+04  0.14917482223E+04  0.50400001928E-02 0. -1.
    10030    2    1    2    0    0  0.00000000000E+00  0.00000000000E+00 -0.66428375824E+03  0.23192126863E+04  0.22220428828E+04 0.  0.
        3    1    3    3  502    0 -0.51187246720E+03  0.90569589194E+03  0.74872868710E+02  0.10430265711E+04  0.10100000352E+00 0.  1.
       -3    1    3    3    0  502  0.51187246720E+03 -0.90569589194E+03 -0.73915662695E+03  0.12761861152E+04  0.10100000352E+00 0. -1.
</event>
<event>
 5   0  0.4449262E-07  0.3818183E+04  0.7818609E-02  0.8042264E-01
       -2   -1    0    0    0  501  0.00000000000E+00  0.00000000000E+00  0.21336453529E+04  0.21336453529E+04  0.25500000920E-02 0.  1.
        2   -1    0    0  501    0  0.00000000000E+00  0.00000000000E+00 -0.17081706756E+04  0.17081706756E+04  0.25500000920E-02 0. -1.
    10030    2    1    2    0    0  0.00000000000E+00  0.00000000000E+00  0.42547467727E+03  0.38418160285E+04  0.38181830359E+04 0.  0.
        1    1    3    3  502    0 -0.13495047248E+04 -0.91636543787E+03  0.12107139984E+04  0.20314322544E+04  0.50400001928E-02 0.  1.
       -1    1    3    3    0  502  0.13495047248E+04  0.91636543787E+03 -0.78523932117E+03  0.18103837741E+04  0.50400001928E-02 0. -1.
</event>
<event>
 5   0  0.2601252E-07  0.3961206E+04  0.7818609E-02  0.8012418E-01
       -1   -1    0    0    0  501  0.00000000000E+00  0.00000000000E+00  0.28625389400E+04  0.28625389400E+04  0.50400001928E-02 0.  1.
        1   -1    0    0  501    0  0.00000000000E+00  0.00000000000E+00 -0.13703879481E+04  0.13703879481E+04  0.50400001928E-02 0. -1.
    10030    2    1    2    0    0  0.00000000000E+00  0.00000000000E+00  0.14921509919E+04  0.42329268881E+04  0.39612063134E+04 0.  0.
        3    1    3    3  502    0 -0.75804067716E+03 -0.58846775452E+03  0.25975134593E+04  0.27691146867E+04  0.10100000352E+00 0.  1.
       -3    1    3    3    0  502  0.75804067716E+03  0.58846775452E+03 -0.11053624674E+04  0.14638122014E+04  0.10100000352E+00 0. -1.
</event>
<event>
 5   0  0.2713405E-07  0.4024802E+04  0.7818609E-02  0.7999562E-01
       -1   -1    0    0    0  501  0.00000000000E+00  0.00000000000E+00  0.18291395634E+04  0.18291395635E+04  0.50400001928E-02 0.  1.
        1   -1    0    0  501    0  0.00000000000E+00  0.00000000000E+00 -0.22140231892E+04  0.22140231892E+04  0.50400001928E-02 0. -1.
    10030    2    1    2    0    0  0.00000000000E+00  0.00000000000E+00 -0.38488362572E+03  0.40431627526E+04  0.40248018136E+04 0.  0.
        1    1    3    3  502    0 -0.61251622514E+02 -0.19547086915E+04  0.28419036495E+03  0.19762089953E+04  0.50400001928E-02 0.  1.
       -1    1    3    3    0  502  0.61251622514E+02  0.19547086915E+04 -0.66907399067E+03  0.20669537573E+04  0.50400001928E-02 0. -1.
</event>
<event>
 5   0  0.2713405E-07  0.3479759E+04  0.7818609E-02  0.8118604E-01
        1   -1    0    0  501    0  0.00000000000E+00  0.00000000000E+00  0.91670560788E+03  0.91670560789E+03  0.50400001928E-02 0.  1.
       -1   -1    0    0    0  501  0.00000000000E+00  0.00000000000E+00 -0.33022387515E+04  0.33022387515E+04  0.50400001928E-02 0. -1.
    10030    2    1    2    0    0  0.00000000000E+00  0.00000000000E+00 -0.23855331436E+04  0.42189443594E+04  0.34797590618E+04 0.  0.
        1    1    3    3  502    0 -0.62015826026E+03  0.54726766788E+03  0.66310715715E+03  0.10600987076E+04  0.50400001928E-02 0.  1.
       -1    1    3    3    0  502  0.62015826026E+03 -0.54726766788E+03 -0.30486403008E+04  0.31588456518E+04  0.50400001928E-02 0. -1.
</event>
<event>
 5   0  0.2401125E-07  0.4014059E+04  0.7818609E-02  0.8001716E-01
       -1   -1    0    0    0  501  0.00000000000E+00  0.00000000000E+00  0.13868236955E+04  0.13868236956E+04  0.50400001928E-02 0. -1.
        1   -1    0    0  501    0  0.00000000000E+00  0.00000000000E+00 -0.29045996356E+04  0.29045996357E+04  0.50400001928E-02 0.  1.
    10030    2    1    2    0    0  0.00000000000E+00  0.00000000000E+00 -0.15177759401E+04  0.42914233312E+04  0.40140590932E+04 0.  0.
        5    1    3    3  502    0 -0.14028874363E+04 -0.12134629647E+04 -0.15783780522E+04  0.24355461177E+04  0.46999998093E+01 0.  1.
       -5    1    3    3    0  502  0.14028874363E+04  0.12134629647E+04  0.60602112083E+02  0.18558772135E+04  0.46999998093E+01 0. -1.
</event>
<event>
 5   0  0.5161550E-07  0.3164940E+04  0.7818609E-02  0.8198138E-01
        2   -1    0    0  501    0  0.00000000000E+00  0.00000000000E+00  0.16573006004E+04  0.16573006004E+04  0.25500000920E-02 0.  1.
       -2   -1    0    0    0  501  0.00000000000E+00  0.00000000000E+00 -0.15110179226E+04  0.15110179226E+04  0.25500000920E-02 0. -1.
    10030    2    1    2    0    0  0.00000000000E+00  0.00000000000E+00  0.14628267779E+03  0.31683185230E+04  0.31649397532E+04 0.  0.
        2    1    3    3  502    0  0.11791023946E+04 -0.93436972920E+03 -0.41817958410E+03  0.15614747556E+04  0.25500000920E-02 0. -1.
       -2    1    3    3    0  502 -0.11791023946E+04  0.93436972920E+03  0.56446226189E+03  0.16068437674E+04  0.25500000920E-02 0.  1.
</event>
<event>
 5   0  0.4449262E-07  0.3716699E+04  0.7818609E-02  0.8064271E-01
       -2   -1    0    0    0  501  0.00000000000E+00  0.00000000000E+00  0.14360518054E+04  0.14360518054E+04  0.25500000920E-02 0.  1.
        2   -1    0    0  501    0  0.00000000000E+00  0.00000000000E+00 -0.24048321015E+04  0.24048321015E+04  0.25500000920E-02 0. -1.
    10030    2    1    2    0    0  0.00000000000E+00  0.00000000000E+00 -0.96878029609E+03  0.38408839069E+04  0.37166993320E+04 0.  0.
        1    1    3    3  502    0  0.16879242543E+03  0.10104484738E+04 -0.20866684622E+04  0.23245821715E+04  0.50400001928E-02 0. -1.
       -1    1    3    3    0  502 -0.16879242543E+03 -0.10104484738E+04  0.11178881661E+04  0.15163017354E+04  0.50400001928E-02 0.  1.
</event>
<event>
 5   0  0.5161550E-07  0.2294848E+04  0.7818609E-02  0.8479955E-01
        2   -1    0    0  501    0  0.00000000000E+00  0.00000000000E+00  0.11063191777E+04  0.11063191777E+04  0.25500000920E-02 0. -1.
       -2   -1    0    0    0  501  0.00000000000E+00  0.00000000000E+00 -0.11900563387E+04  0.11900563387E+04  0.25500000920E-02 0.  1.
    10030    2    1    2    0    0  0.00000000000E+00  0.00000000000E+00 -0.83737160933E+02  0.22963755164E+04  0.22948482739E+04 0.  0.
        2    1    3    3  502    0  0.86943595131E+03 -0.34445667786E+03 -0.70715152531E+03  0.11724472509E+04  0.25500000920E-02 0. -1.
       -2    1    3    3    0  502 -0.86943595131E+03  0.34445667786E+03  0.62341436438E+03  0.11239282655E+04  0.25500000920E-02 0.  1.
</event>
<event>
 5   0  0.4449262E-07  0.3960094E+04  0.7818609E-02  0.8012646E-01
       -2   -1    0    0    0  501  0.00000000000E+00  0.00000000000E+00  0.29904240103E+04  0.29904240103E+04  0.25500000920E-02 0.  1.
        2   -1    0    0  501    0  0.00000000000E+00  0.00000000000E+00 -0.13110467173E+04  0.13110467173E+04  0.25500000920E-02 0. -1.
    10030    2    1    2    0    0  0.00000000000E+00  0.00000000000E+00  0.16793772930E+04  0.43014707276E+04  0.39600937272E+04 0.  0.
        1    1    3    3  502    0  0.36841878753E+03  0.10761194372E+04  0.26001507279E+04  0.28380537792E+04  0.50400001928E-02 0.  1.
       -1    1    3    3    0  502 -0.36841878753E+03 -0.10761194372E+04 -0.92077343491E+03  0.14634169483E+04  0.50400001928E-02 0. -1.
</event>
<event>
 5   0  0.6043512E-07  0.4039030E+04  0.7818609E-02  0.7996719E-01
       -2   -1    0    0    0  501  0.00000000000E+00  0.00000000000E+00  0.14353725014E+04  0.14353725014E+04  0.25500000920E-02 0.  1.
        2   -1    0    0  501    0  0.00000000000E+00  0.00000000000E+00 -0.28413813222E+04  0.28413813222E+04  0.25500000920E-02 0. -1.
    10030    2    1    2    0    0  0.00000000000E+00  0.00000000000E+00 -0.14060088208E+04  0.42767538235E+04  0.40390298913E+04 0.  0.
        3    1    3    3  502    0 -0.39077135300E+03  0.12430169724E+04  0.93074220748E+03  0.16012727785E+04  0.10100000352E+00 0.  1.
       -3    1    3    3    0  502  0.39077135300E+03 -0.12430169724E+04 -0.23367510283E+04  0.26754810451E+04  0.10100000352E+00 0. -1.
</event>
<event>
 5   0  0.4449262E-07  0.2311990E+04  0.7818609E-02  0.8473208E-01
       -2   -1    0    0    0  501  0.00000000000E+00  0.00000000000E+00  0.65941206738E+03  0.65941206739E+03  0.25500000920E-02 0. -1.
        2   -1    0    0  501    0  0.00000000000E+00  0.00000000000E+00 -0.20265397392E+04  0.20265397392E+04  0.25500000920E-02 0.  1.
    10030    2    1    2    0    0  0.00000000000E+00  0.00000000000E+00 -0.13671276718E+04  0.26859518065E+04  0.23119902760E+04 0.  0.
        1    1    3    3  502    0 -0.72230995651E+02 -0.23027730100E+03  0.62981858590E+03  0.67447490929E+03  0.50400001928E-02 0. -1.
       -1    1    3    3    0  502  0.72230995651E+02  0.23027730100E+03 -0.19969462577E+04  0.20114768972E+04  0.50400001928E-02 0.  1.
</event>
<event>
 5   0  0.2713405E-07  0.3872984E+04  0.7818609E-02  0.8030672E-01
       -1   -1    0    0    0  501  0.00000000000E+00  0.00000000000E+00  0.17027867459E+04  0.17027867459E+04  0.50400001928E-02 0.  1.
        1   -1    0    0  501    0  0.00000000000E+00  0.00000000000E+00 -0.22022728396E+04  0.22022728396E+04  0.50400001928E-02 0. -1.
    10030    2    1    2    0    0  0.00000000000E+00  0.00000000000E+00 -0.49948609362E+03  0.39050595855E+04  0.38729838637E+04 0.  0.
        1    1    3    3  502    0  0.12630518501E+04 -0.13556048765E+04 -0.81746615546E+03  0.20251457904E+04  0.50400001928E-02 0.  1.
       -1    1    3    3    0  502 -0.12630518501E+04  0.13556048765E+04  0.31798006183E+03  0.18799137951E+04  0.50400001928E-02 0. -1.
</event>
<event>
 5   0  0.2713405E-07  0.2292483E+04  0.7818609E-02  0.8480891E-01
       -1   -1    0    0    0  501  0.00000000000E+00  0.00000000000E+00  0.85035592673E+03  0.85035592674E+03  0.50400001928E-02 0. -1.
        1   -1    0    0  501    0  0.00000000000E+00  0.00000000000E+00 -0.15450813784E+04  0.15450813784E+04  0.50400001928E-02 0.  1.
    10030    2    1    2    0    0  0.00000000000E+00  0.00000000000E+00 -0.69472545162E+03  0.23954373051E+04  0.22924825909E+04 0.  0.
        1    1    3    3  502    0  0.39413494717E+03  0.34588465983E+03 -0.14123971882E+04  0.15066002694E+04  0.50400001928E-02 0.  1.
       -1    1    3    3    0  502 -0.39413494717E+03 -0.34588465983E+03  0.71767173659E+03  0.88883703569E+03  0.50400001928E-02 0. -1.
</event>
<event>
 5   0  0.2601252E-07  0.2407773E+04  0.7818609E-02  0.8436599E-01
        1   -1    0    0  501    0  0.00000000000E+00  0.00000000000E+00  0.12977587835E+04  0.12977587835E+04  0.50400001928E-02 0.  1.
       -1   -1    0    0    0  501  0.00000000000E+00  0.00000000000E+00 -0.11168046364E+04  0.11168046364E+04  0.50400001928E-02 0. -1.
    10030    2    1    2    0    0  0.00000000000E+00  0.00000000000E+00  0.18095414709E+03  0.24145634200E+04  0.24077732671E+04 0.  0.
        3    1    3    3  502    0  0.39673259291E+03 -0.11366354054E+04  0.87975828014E+02  0.12070942596E+04  0.10100000352E+00 0.  1.
       -3    1    3    3    0  502 -0.39673259291E+03  0.11366354054E+04  0.92978319072E+02  0.12074691603E+04  0.10100000352E+00 0. -1.
</event>
<event>
 5   0  0.2713405E-07  0.3500109E+04  0.7818609E-02  0.8113764E-01
        1   -1    0    0  501    0  0.00000000000E+00  0.00000000000E+00  0.13148887683E+04  0.13148887683E+04  0.50400001928E-02 0. -1.
       -1   -1    0    0    0  501  0.00000000000E+00  0.00000000000E+00 -0.23292394381E+04  0.23292394381E+04  0.50400001928E-02 0.  1.
    10030    2    1    2    0    0  0.00000000000E+00  0.00000000000E+00 -0.10143506698E+04  0.36441282064E+04  0.35001090131E+04 0.  0.
        1    1    3    3  502    0 -0.89285414101E+03  0.62361974303E+03  0.91908239411E+03  0.14250622963E+04  0.50400001928E-02 0. -1.
       -1    1    3    3    0  502  0.89285414101E+03 -0.62361974303E+03 -0.19334330639E+04  0.22190659101E+04  0.50400001928E-02 0.  1.
</event>
<event>
 5   0  0.5161550E-07  0.4044491E+04  0.7818609E-02  0.7995631E-01
        2   -1    0    0  501    0  0.00000000000E+00  0.00000000000E+00  0.11836391993E+04  0.11836391993E+04  0.25500000920E-02 0. -1.
       -2   -1    0    0    0  501  0.00000000000E+00  0.00000000000E+00 -0.34550026810E+04  0.34550026810E+04  0.25500000920E-02 0.  1.
    10030    2    1    2    0    0  0.00000000000E+00  0.00000000000E+00 -0.22713634817E+04  0.46386418804E+04  0.40444908738E+04 0.  0.
        2    1    3    3  502    0 -0.20138632222E+04  0.14658239462E+03 -0.12631126657E+04  0.23817189344E+04  0.25500000920E-02 0. -1.
       -2    1    3    3    0  502  0.20138632222E+04 -0.14658239462E+03 -0.10082508160E+04  0.22569229460E+04  0.25500000920E-02 0.  1.
</event>
<event>
 5   0  0.4449262E-07  0.2617302E+04  0.7818609E-02  0.8362348E-01
       -2   -1    0    0    0  501  0.00000000000E+00  0.00000000000E+00  0.15183890240E+04  0.15183890240E+04  0.25500000920E-02 0.  1.
        2   -1    0    0  501    0  0.00000000000E+00  0.00000000000E+00 -0.11278848999E+04  0.11278848999E+04  0.25500000920E-02 0. -1.
    10030    2    1    2    0    0  0.00000000000E+00  0.00000000000E+00  0.39050412418E+03  0.26462739239E+04  0.26173024680E+04 0.  0.
        1    1    3    3  502    0  0.62707488498E+03  0.55537738765E+02  0.13552356377E+04  0.14943128807E+04  0.50400001928E-02 0.  1.
       -1    1    3    3    0  502 -0.62707488498E+03 -0.55537738765E+02 -0.96473151351E+03  0.11519610432E+04  0.50400001928E-02 0. -1.
</event>
<event>
 5   0  0.2713405E-07  0.2187202E+04  0.7818609E-02  0.8523774E-01
        1   -1    0    0  501    0  0.00000000000E+00  0.00000000000E+00  0.18059688238E+04  0.18059688238E+04  0.50400001928E-02 0.  1.
       -1   -1    0    0    0  501  0.00000000000E+00  0.00000000000E+00 -0.66222780939E+03  0.66222780941E+03  0.50400001928E-02 0. -1.
    10030    2    1    2    0    0  0.00000000000E+00  0.00000000000E+00  0.11437410144E+04  0.24681966333E+04  0.21872016625E+04 0.  0.
        1    1    3    3  502    0 -0.53405560932E+03 -0.40751792928E+03 -0.40194067893E+03  0.78284261888E+03  0.50400001928E-02 0. -1.
       -1    1    3    3    0  502  0.53405560932E+03  0.40751792928E+03  0.15456816934E+04  0.16853540144E+04  0.50400001928E-02 0.  1.
</event>
<event>
 5   0  0.7570277E-07  0.3031930E+04  0.7818609E-02  0.8234672E-01
        2   -1    0    0  501    0  0.00000000000E+00  0.00000000000E+00  0.12460550850E+04  0.12460550850E+04  0.25500000920E-02 0. -1.
       -2   -1    0    0    0  501  0.00000000000E+00  0.00000000000E+00 -0.18443401166E+04  0.18443401166E+04  0.25500000920E-02 0.  1.
    10030    2    1    2    0    0  0.00000000000E+00  0.00000000000E+00 -0.59828503165E+03  0.30903952016E+04  0.30319296698E+04 0.  0.
        5    1    3    3  502    0 -0.49411013411E+03  0.14311316634E+04 -0.22121813875E+03  0.15301118317E+04  0.46999998093E+01 0. -1.
       -5    1    3    3    0  502  0.49411013411E+03 -0.14311316634E+04 -0.37706689290E+03  0.15602833699E+04  0.46999998093E+01 0.  1.
</event>
<event>
 5   0  0.5161550E-07  0.4122194E+04  0.7818609E-02  0.7980340E-01
       -2   -1    0    0    0  501  0.00000000000E+00  0.00000000000E+00  0.15221029083E+04  0.15221029083E+04  0.25500000920E-02 0. -1.
        2   -1    0    0  501    0  0.00000000000E+00  0.00000000000E+00 -0.27909550985E+04  0.27909550985E+04  0.25500000920E-02 0.  1.
    10030    2    1    2    0    0  0.00000000000E+00  0.00000000000E+00 -0.12688521902E+04  0.43130580068E+04  0.41221940141E+04 0.  0.
        2    1    3    3  502    0  0.79881412136E+03  0.18595208769E+04 -0.10426164535E+04  0.22766139245E+04  0.25500000920E-02 0. -1.
       -2    1    3    3    0  502 -0.79881412136E+03 -0.18595208769E+04 -0.22623573670E+03  0.20364440823E+04  0.25500000920E-02 0.  1.
</event>
<event>
 5   0  0.7570277E-07  0.3966943E+04  0.7818609E-02  0.8011249E-01
       -2   -1    0    0    0  501  0.00000000000E+00  0.00000000000E+00  0.15049786923E+04  0.15049786923E+04  0.25500000920E-02 0. -1.
        2   -1    0    0  501    0  0.00000000000E+00  0.00000000000E+00 -0.26140965566E+04  0.26140965566E+04  0.25500000920E-02 0.  1.
    10030    2    1    2    0    0  0.00000000000E+00  0.00000000000E+00 -0.11091178643E+04  0.41190752490E+04  0.39669432148E+04 0.  0.
        5    1    3    3  502    0  0.89068255298E+03  0.98488343248E+03 -0.20844352559E+04  0.24714779408E+04  0.46999998093E+01 0.  1.
       -5    1    3    3    0  502 -0.89068255298E+03 -0.98488343248E+03  0.97531739154E+03  0.16475973082E+04  0.46999998093E+01 0. -1.
</event>
<event>
 5   0  0.2401125E-07  0.3978431E+04  0.7818609E-02  0.8008912E-01
        1   -1    0    0  501    0  0.00000000000E+00  0.00000000000E+00  0.24359787582E+04  0.24359787582E+04  0.50400001928E-02 0.  1.
       -1   -1    0    0    0  501  0.00000000000E+00  0.00000000000E+00 -0.16243897800E+04  0.16243897800E+04  0.50400001928E-02 0. -1.
    10030    2    1    2    0    0  0.00000000000E+00  0.00000000000E+00  0.81158897823E+03  0.40603685382E+04  0.39784313487E+04 0.  0.
        5    1    3    3  502    0 -0.16658918096E+04  0.60758802623E+03 -0.51421330756E+03  0.18462925409E+04  0.46999998093E+01 0. -1.
       -5    1    3    3    0  502  0.16658918096E+04 -0.60758802623E+03  0.13258022858E+04  0.22140759973E+04  0.46999998093E+01 0.  1.
</event>
<event>
 5   0  0.7256473E-07  0.2512641E+04  0.7818609E-02  0.8398496E-01
       -2   -1    0    0    0  501  0.00000000000E+00  0.00000000000E+00  0.12202563400E+04  0.12202563400E+04  0.25500000920E-02 0. -1.
        2   -1    0    0  501    0  0.00000000000E+00  0.00000000000E+00 -0.12934509388E+04  0.12934509388E+04  0.25500000920E-02 0.  1.
    10030    2    1    2    0    0  0.00000000000E+00  0.00000000000E+00 -0.73194598742E+02  0.25137072788E+04  0.25126414058E+04 0.  0.
        4    1    3    3  502    0 -0.61730569840E+03  0.28336589361E+03 -0.10939172107E+04  0.12876408784E+04  0.12699999809E+01 0.  1.
       -4    1    3    3    0  502  0.61730569840E+03 -0.28336589361E+03  0.10207226119E+04  0.12260664004E+04  0.12699999809E+01 0. -1.
</event>
<event>
 5   0  0.2401125E-07  0.2153293E+04  0.7818609E-02  0.8538124E-01
        4   -1    0    0  501    0  0.00000000000E+00  0.00000000000E+00  0.86047845399E+03  0.86047939121E+03  0.12699999809E+01 0.  1.
       -4   -1    0    0    0  501  0.00000000000E+00  0.00000000000E+00 -0.13471180338E+04  0.13471186324E+04  0.12699999809E+01 0. -1.
    10030    2    1    2    0    0  0.00000000000E+00  0.00000000000E+00 -0.48663957980E+03  0.22075980236E+04  0.21532930487E+04 0.  0.
        5    1    3    3  502    0 -0.58315621486E+03  0.47705968903E+03  0.54515901226E+03  0.92998793351E+03  0.46999998093E+01 0.  1.
       -5    1    3    3    0  502  0.58315621486E+03 -0.47705968903E+03 -0.10317985921E+04  0.12776100901E+04  0.46999998093E+01 0. -1.
</event>
<event>
 5   0  0.2713405E-07  0.2149449E+04  0.7818609E-02  0.8539768E-01
        1   -1    0    0  501    0  0.00000000000E+00  0.00000000000E+00  0.19292043147E+04  0.19292043147E+04  0.50400001928E-02 0. -1.
       -1   -1    0    0    0  501  0.00000000000E+00  0.00000000000E+00 -0.59870934895E+03  0.59870934897E+03  0.50400001928E-02 0.  1.
    10030    2    1    2    0    0  0.00000000000E+00  0.00000000000E+00  0.13304949657E+04  0.25279136637E+04  0.21494489147E+04 0.  0.
        1    1    3    3  502    0  0.11384018793E+03  0.10675432225E+04  0.60733799943E+03  0.12334778336E+04  0.50400001928E-02 0.  1.
       -1    1    3    3    0  502 -0.11384018793E+03 -0.10675432225E+04  0.72315696630E+03  0.12944358301E+04  0.50400001928E-02 0. -1.
</event>
<event>
 5   0  0.7570277E-07  0.3959726E+04  0.7818609E-02  0.8012721E-01
        2   -1    0    0  501    0  0.00000000000E+00  0.00000000000E+00  0.17417465530E+04  0.17417465530E+04  0.25500000920E-02 0.  1.
       -2   -1    0    0    0  501  0.00000000000E+00  0.00000000000E+00 -0.22505322468E+04  0.22505322468E+04  0.25500000920E-02 0. -1.
    10030    2    1    2    0    0  0.00000000000E+00  0.00000000000E+00 -0.50878569379E+03  0.39922787998E+04  0.39597256386E+04 0.  0.
        5    1    3    3  502    0  0.15293801948E+04 -0.12543748898E+04 -0.34097402607E+03  0.20071735154E+04  0.46999998093E+01 0.  1.
       -5    1    3    3    0  502 -0.15293801948E+04  0.12543748898E+04 -0.16781166772E+03  0.19851052844E+04  0.46999998093E+01 0. -1.
</event>
<event>
 5   0  0.7256473E-07  0.3991037E+04  0.7818609E-02  0.8006357E-01
        2   -1    0    0  501    0  0.00000000000E+00  0.00000000000E+00  0.20454671165E+04  0.20454671165E+04  0.25500000920E-02 0.  1.
       -2   -1    0    0    0  501  0.00000000000E+00  0.00000000000E+00 -0.19467895801E+04  0.19467895801E+04  0.25500000920E-02 0. -1.
    10030    2    1    2    0    0  0.00000000000E+00  0.00000000000E+00  0.98677536405E+02  0.39922566967E+04  0.39910369926E+04 0.  0.
        4    1    3    3  502    0  0.61671477447E+03 -0.12477983962E+04  0.14797249030E+04  0.20314835348E+04  0.12699999809E+01 0.  1.
       -4    1    3    3    0  502 -0.61671477447E+03  0.12477983962E+04 -0.13810473666E+04  0.19607731619E+04  0.12699999809E+01 0. -1.
</event>
<event>
 5   0  0.6043512E-07  0.2988830E+04  0.7818609E-02  0.8246928E-01
        2   -1    0    0  501    0  0.00000000000E+00  0.00000000000E+00  0.12103858129E+04  0.12103858129E+04  0.25500000920E-02 0.  1.
       -2   -1    0    0    0  501  0.00000000000E+00  0.00000000000E+00 -0.18450950323E+04  0.18450950323E+04  0.25500000920E-02 0. -1.
    10030    2    1    2    0    0  0.00000000000E+00  0.00000000000E+00 -0.63470921942E+03  0.30554808452E+04  0.29888304405E+04 0.  0.
        3    1    3    3  502    0  0.54179720384E+03 -0.94558152551E+03  0.72799793259E+03  0.13105913290E+04  0.10100000352E+00 0.  1.
       -3    1    3    3    0  502 -0.54179720384E+03  0.94558152551E+03 -0.13627071520E+04  0.17448895162E+04  0.10100000352E+00 0. -1.
</event>
<event>
 5   0  0.2601252E-07  0.3905139E+04  0.7818609E-02  0.8023961E-01
        1   -1    0    0  501    0  0.00000000000E+00  0.00000000000E+00  0.24157426868E+04  0.24157426868E+04  0.50400001928E-02 0.  1.
       -1   -1    0    0    0  501  0.00000000000E+00  0.00000000000E+00 -0.15782012901E+04  0.15782012902E+04  0.50400001928E-02 0. -1.
    10030    2    1    2    0    0  0.00000000000E+00  0.00000000000E+00  0.83754139670E+03  0.39939439770E+04  0.39051392933E+04 0.  0.
        3    1    3    3  502    0 -0.42726059087E+03  0.18904462545E+04  0.17633684747E+03  0.19461329213E+04  0.10100000352E+00 0. -1.
       -3    1    3    3    0  502  0.42726059087E+03 -0.18904462545E+04  0.66120454923E+03  0.20478110557E+04  0.10100000352E+00 0.  1.
</event>
<event>
 5   0  0.7256473E-07  0.2213138E+04  0.7818609E-02  0.8512980E-01
        2   -1    0    0  501    0  0.00000000000E+00  0.00000000000E+00  0.18213349949E+04  0.18213349949E+04  0.25500000920E-02 0. -1.
       -2   -1    0    0    0  501  0.00000000000E+00  0.00000000000E+00 -0.67230631126E+03  0.67230631127E+03  0.25500000920E-02 0.  1.
    10030    2    1    2    0    0  0.00000000000E+00  0.00000000000E+00  0.11490286837E+04  0.24936413062E+04  0.22131380545E+04 0.  0.
        4    1    3    3  502    0 -0.76306450073E+03 -0.71202014826E+03  0.16013378198E+03  0.10558809425E+04  0.12699999809E+01 0.  1.
       -4    1    3    3    0  502  0.76306450073E+03  0.71202014826E+03  0.98889490171E+03  0.14377603637E+04  0.12699999809E+01 0. -1.
</event>
<event>
 5   0  0.2647879E-07  0.3088563E+04  0.7818609E-02  0.8218884E-01
        1   -1    0    0  501    0  0.00000000000E+00  0.00000000000E+00  0.15438580858E+04  0.15438580858E+04  0.50400001928E-02 0.  1.
       -1   -1    0    0    0  501  0.00000000000E+00  0.00000000000E+00 -0.15447051877E+04  0.15447051877E+04  0.50400001928E-02 0. -1.
    10030    2    1    2    0    0  0.00000000000E+00  0.00000000000E+00 -0.84710192054E+00  0.30885632735E+04  0.30885631573E+04 0.  0.
        2    1    3    3  502    0  0.92550979963E+03  0.31662240245E+03  0.11945607864E+04  0.15439538877E+04  0.25500000920E-02 0.  1.
       -2    1    3    3    0  502 -0.92550979963E+03 -0.31662240245E+03 -0.11954078884E+04  0.15446093857E+04  0.25500000920E-02 0. -1.
</event>
<event>
 5   0  0.2601252E-07  0.2258367E+04  0.7818609E-02  0.8494520E-01
        1   -1    0    0  501    0  0.00000000000E+00  0.00000000000E+00  0.16525377180E+04  0.16525377180E+04  0.50400001928E-02 0.  1.
       -1   -1    0    0    0  501  0.00000000000E+00  0.00000000000E+00 -0.77157423571E+03  0.77157423573E+03  0.50400001928E-02 0. -1.
    10030    2    1    2    0    0  0.00000000000E+00  0.00000000000E+00  0.88096348225E+03  0.24241119537E+04  0.22583671329E+04 0.  0.
        3    1    3    3  502    0  0.60368966198E+03  0.94894253322E+03  0.33248780093E+03  0.11728091436E+04  0.10100000352E+00 0. -1.
       -3    1    3    3    0  502 -0.60368966198E+03 -0.94894253322E+03  0.54847568132E+03  0.12513028101E+04  0.10100000352E+00 0.  1.
</event>
<event>
 5   0  0.7570277E-07  0.3991434E+04  0.7818609E-02  0.8006277E-01
        2   -1    0    0  501    0  0.00000000000E+00  0.00000000000E+00  0.23421248797E+04  0.23421248797E+04  0.25500000920E-02 0.  1.
       -2   -1    0    0    0  501  0.00000000000E+00  0.00000000000E+00 -0.17005437130E+04  0.17005437130E+04  0.25500000920E-02 0. -1.
    10030    2    1    2    0    0  0.00000000000E+00  0.00000000000E+00  0.64158116667E+03  0.40426685927E+04  0.39914336969E+04 0.  0.
        5    1    3    3  502    0 -0.98505898732E+03  0.33481522759E+03 -0.14041325902E+04  0.17475848666E+04  0.46999998093E+01 0. -1.
       -5    1    3    3    0  502  0.98505898732E+03 -0.33481522759E+03  0.20457137568E+04  0.22950837261E+04  0.46999998093E+01 0.  1.
</event>
<event>
 5   0  0.7570277E-07  0.2973583E+04  0.7818609E-02  0.8251315E-01
       -2   -1    0    0    0  501  0.00000000000E+00  0.00000000000E+00  0.79974300618E+03  0.79974300618E+03  0.25500000920E-02 0. -1.
        2   -1    0    0  501    0  0.00000000000E+00  0.00000000000E+00 -0.27640744431E+04  0.27640744431E+04  0.25500000920E-02 0.  1.
    10030    2    1    2    0    0  0.00000000000E+00  0.00000000000E+00 -0.19643314369E+04  0.35638174493E+04  0.29735831614E+04 0.  0.
        5    1    3    3  502    0 -0.84101423313E+03 -0.10853809656E+04 -0.29874078471E+03  0.14052134811E+04  0.46999998093E+01 0. -1.
       -5    1    3    3    0  502  0.84101423313E+03  0.10853809656E+04 -0.16655906522E+04  0.21586039682E+04  0.46999998093E+01 0.  1.
</event>
<event>
 5   0  0.2401125E-07  0.3753010E+04  0.7818609E-02  0.8056315E-01
        1   -1    0    0  501    0  0.00000000000E+00  0.00000000000E+00  0.17337531470E+04  0.17337531470E+04  0.50400001928E-02 0.  1.
       -1   -1    0    0    0  501  0.00000000000E+00  0.00000000000E+00 -0.20310106280E+04  0.20310106281E+04  0.50400001928E-02 0. -1.
    10030    2    1    2    0    0  0.00000000000E+00  0.00000000000E+00 -0.29725748104E+03  0.37647637751E+04  0.37530100282E+04 0.  0.
        5    1    3    3  502    0 -0.51726124587E+03  0.16691823625E+04 -0.83452449318E+03  0.19365387101E+04  0.46999998093E+01 0. -1.
       -5    1    3    3    0  502  0.51726124587E+03 -0.16691823625E+04  0.53726701215E+03  0.18282250650E+04  0.46999998093E+01 0.  1.
</event>
<event>
 5   0  0.2401125E-07  0.3866590E+04  0.7818609E-02  0.8032014E-01
       -1   -1    0    0    0  501  0.00000000000E+00  0.00000000000E+00  0.13416786282E+04  0.13416786282E+04  0.50400001928E-02 0.  1.
        1   -1    0    0  501    0  0.00000000000E+00  0.00000000000E+00 -0.27857866118E+04  0.27857866118E+04  0.50400001928E-02 0. -1.
    10030    2    1    2    0    0  0.00000000000E+00  0.00000000000E+00 -0.14441079837E+04  0.41274652400E+04  0.38665904152E+04 0.  0.
        5    1    3    3  502    0 -0.95448173936E+02 -0.10970918292E+04  0.97414290721E+03  0.14702711754E+04  0.46999998093E+01 0.  1.
       -5    1    3    3    0  502  0.95448173936E+02  0.10970918292E+04 -0.24182508909E+04  0.26571940646E+04  0.46999998093E+01 0. -1.
</event>
<event>
 5   0  0.7570277E-07  0.3916780E+04  0.7818609E-02  0.8021548E-01
        2   -1    0    0  501    0  0.00000000000E+00  0.00000000000E+00  0.20678180938E+04  0.20678180938E+04  0.25500000920E-02 0.  1.
       -2   -1    0    0    0  501  0.00000000000E+00  0.00000000000E+00 -0.18547529546E+04  0.18547529546E+04  0.25500000920E-02 0. -1.
    10030    2    1    2    0    0  0.00000000000E+00  0.00000000000E+00  0.21306513919E+03  0.39225710485E+04  0.39167801670E+04 0.  0.
        5    1    3    3  502    0  0.15578307783E+04  0.31788564569E+03  0.12516309693E+04  0.20234846653E+04  0.46999998093E+01 0.  1.
       -5    1    3    3    0  502 -0.15578307783E+04 -0.31788564569E+03 -0.10385658301E+04  0.18990863832E+04  0.46999998093E+01 0. -1.
</event>
<event>
 5   0  0.6043512E-07  0.2064540E+04  0.7818609E-02  0.8577027E-01
        2   -1    0    0  501    0  0.00000000000E+00  0.00000000000E+00  0.18652406222E+04  0.18652406222E+04  0.25500000920E-02 0.  1.
       -2   -1    0    0    0  501  0.00000000000E+00  0.00000000000E+00 -0.57128356474E+03  0.57128356475E+03  0.25500000920E-02 0. -1.
    10030    2    1    2    0    0  0.00000000000E+00  0.00000000000E+00  0.12939570575E+04  0.24365241870E+04  0.20645399602E+04 0.  0.
        3    1    3    3  502    0  0.85855281968E+03 -0.31292458743E+03  0.12136440083E+04  0.15191993058E+04  0.10100000352E+00 0.  1.
       -3    1    3    3    0  502 -0.85855281968E+03  0.31292458743E+03  0.80313049198E+02  0.91732488120E+03  0.10100000352E+00 0. -1.
</event>
<event>
 5   0  0.2401125E-07  0.3961153E+04  0.7818609E-02  0.8012429E-01
       -1   -1    0    0    0  501  0.00000000000E+00  0.00000000000E+00  0.21087138265E+04  0.21087138265E+04  0.50400001928E-02 0. -1.
        1   -1    0    0  501    0  0.00000000000E+00  0.00000000000E+00 -0.18602250704E+04  0.18602250704E+04  0.50400001928E-02 0.  1.
    10030    2    1    2    0    0  0.00000000000E+00  0.00000000000E+00  0.24848875617E+03  0.39689388969E+04  0.39611525224E+04 0.  0.
        5    1    3    3  502    0 -0.13742272149E+04 -0.83388491655E+03 -0.10350934571E+04  0.19118852076E+04  0.46999998093E+01 0.  1.
       -5    1    3    3    0  502  0.13742272149E+04  0.83388491655E+03  0.12835822133E+04  0.20570536893E+04  0.46999998093E+01 0. -1.
</event>
<event>
 5   0  0.6043512E-07  0.2425396E+04  0.7818609E-02  0.8430056E-01
        2   -1    0    0  501    0  0.00000000000E+00  0.00000000000E+00  0.12808778683E+04  0.12808778683E+04  0.25500000920E-02 0.  1.
       -2   -1    0    0    0  501  0.00000000000E+00  0.00000000000E+00 -0.11481472282E+04  0.11481472282E+04  0.25500000920E-02 0. -1.
    10030    2    1    2    0    0  0.00000000000E+00  0.00000000000E+00  0.13273064012E+03  0.24290250964E+04  0.24253959463E+04 0.  0.
        3    1    3    3  502    0 -0.12106658442E+04 -0.56017575981E+02  0.10869686055E+03  0.12168256954E+04  0.10100000352E+00 0. -1.
       -3    1    3    3    0  502  0.12106658442E+04  0.56017575981E+02  0.24033779568E+02  0.12121994011E+04  0.10100000352E+00 0.  1.
</event>
<event>
 5   0  0.7256473E-07  0.2204195E+04  0.7818609E-02  0.8516684E-01
        2   -1    0    0  501    0  0.00000000000E+00  0.00000000000E+00  0.18416563175E+04  0.18416563175E+04  0.25500000920E-02 0. -1.
       -2   -1    0    0    0  501  0.00000000000E+00  0.00000000000E+00 -0.65952514482E+03  0.65952514483E+03  0.25500000920E-02 0.  1.
    10030    2    1    2    0    0  0.00000000000E+00  0.00000000000E+00  0.11821311727E+04  0.25011814624E+04  0.22041947732E+04 0.  0.
        4    1    3    3  502    0 -0.33674829749E+03 -0.86941325476E+03  0.12578993048E+04  0.15657557592E+04  0.12699999809E+01 0. -1.
       -4    1    3    3    0  502  0.33674829749E+03  0.86941325476E+03 -0.75768132132E+02  0.93542570317E+03  0.12699999809E+01 0.  1.
</event>
<event>
 5   0  0.2601252E-07  0.4139551E+04  0.7818609E-02  0.7976972E-01
        1   -1    0    0  501    0  0.00000000000E+00  0.00000000000E+00  0.17646963716E+04  0.17646963716E+04  0.50400001928E-02 0. -1.
       -1   -1    0    0    0  501  0.00000000000E+00  0.00000000000E+00 -0.24275960572E+04  0.24275960572E+04  0.50400001928E-02 0.  1.
    10030    2    1    2    0    0  0.00000000000E+00  0.00000000000E+00 -0.66289968562E+03  0.41922924288E+04  0.41395506779E+04 0.  0.
        3    1    3    3  502    0  0.90063105492E+03 -0.18594527512E+04 -0.20630721719E+03  0.20763582324E+04  0.10100000352E+00 0. -1.
       -3    1    3    3    0  502 -0.90063105492E+03  0.18594527512E+04 -0.45659246843E+03  0.21159341964E+04  0.10100000352E+00 0.  1.
</event>
<event>
 5   0  0.7570277E-07  0.4026557E+04  0.7818609E-02  0.7999211E-01
        2   -1    0    0  501    0  0.00000000000E+00  0.00000000000E+00  0.23450913486E+04  0.23450913486E+04  0.25500000920E-02 0.  1.
       -2   -1    0    0    0  501  0.00000000000E+00  0.00000000000E+00 -0.17284146611E+04  0.17284146611E+04  0.25500000920E-02 0. -1.
    10030    2    1    2    0    0  0.00000000000E+00  0.00000000000E+00  0.61667668753E+03  0.40735060097E+04  0.40265569752E+04 0.  0.
        5    1    3    3  502    0  0.11724400844E+04  0.10629846611E+04 -0.95064623501E+03  0.18461588489E+04  0.46999998093E+01 0. -1.
       -5    1    3    3    0  502 -0.11724400844E+04 -0.10629846611E+04  0.15673229225E+04  0.22273471608E+04  0.46999998093E+01 0.  1.
</event>
<event>
 5   0  0.3579559E-07  0.2178317E+04  0.7818609E-02  0.8527508E-01
        1   -1    0    0  501    0  0.00000000000E+00  0.00000000000E+00  0.13982631192E+04  0.13982631192E+04  0.50400001928E-02 0. -1.
       -1   -1    0    0    0  501  0.00000000000E+00  0.00000000000E+00 -0.84838567166E+03  0.84838567167E+03  0.50400001928E-02 0.  1.
    10030    2    1    2    0    0  0.00000000000E+00  0.00000000000E+00  0.54987744756E+03  0.22466487909E+04  0.21783171446E+04 0.  0.
        4    1    3    3  502    0 -0.72080054349E+03  0.26477829628E+03 -0.52169206810E+03  0.92834540796E+03  0.12699999809E+01 0.  1.
       -4    1    3    3    0  502  0.72080054349E+03 -0.26477829628E+03  0.10715695157E+04  0.13183033829E+04  0.12699999809E+01 0. -1.
</event>
<event>
 5   0  0.6043512E-07  0.3887847E+04  0.7818609E-02  0.8027561E-01
       -2   -1    0    0    0  501  0.00000000000E+00  0.00000000000E+00  0.12753648905E+04  0.12753648905E+04  0.25500000920E-02 0.  1.
        2   -1    0    0  501    0  0.00000000000E+00  0.00000000000E+00 -0.29629477036E+04  0.29629477036E+04  0.25500000920E-02 0. -1.
    10030    2    1    2    0    0  0.00000000000E+00  0.00000000000E+00 -0.16875828131E+04  0.42383125941E+04  0.38878474629E+04 0.  0.
        3    1    3    3  502    0  0.55725946304E+03 -0.12288209114E+04  0.68174802354E+03  0.15117272636E+04  0.10100000352E+00 0.  1.
       -3    1    3    3    0  502 -0.55725946304E+03  0.12288209114E+04 -0.23693308366E+04  0.27265853306E+04  0.10100000352E+00 0. -1.
</event>
<event>
 5   0  0.6043512E-07  0.2282532E+04  0.7818609E-02  0.8484841E-01
        2   -1    0    0  501    0  0.00000000000E+00  0.00000000000E+00  0.11416008050E+04  0.11416008050E+04  0.25500000920E-02 0.  1.
       -2   -1    0    0    0  501  0.00000000000E+00  0.00000000000E+00 -0.11409309516E+04  0.11409309516E+04  0.25500000920E-02 0. -1.
    10030    2    1    2    0    0  0.00000000000E+00  0.00000000000E+00  0.66985340389E+00  0.22825317566E+04  0.22825316583E+04 0.  0.
        3    1    3    3  502    0  0.95198078123E+03 -0.62614978923E+03 -0.64137676925E+02  0.11412469576E+04  0.10100000352E+00 0. -1.
       -3    1    3    3    0  502 -0.95198078123E+03  0.62614978923E+03  0.64807530329E+02  0.11412847991E+04  0.10100000352E+00 0.  1.
</event>
<event>
 5   0  0.1128090E-06  0.2070886E+04  0.7818609E-02  0.8574178E-01
        2   -1    0    0  501    0  0.00000000000E+00  0.00000000000E+00  0.15066092576E+04  0.15066092576E+04  0.25500000920E-02 0.  1.
       -2   -1    0    0    0  501  0.00000000000E+00  0.00000000000E+00 -0.71162566947E+03  0.71162566947E+03  0.25500000920E-02 0. -1.
    10030    2    1    2    0    0  0.00000000000E+00  0.00000000000E+00  0.79498358815E+03  0.22182349271E+04  0.20708856285E+04 0.  0.
        4    1    3    3  502    0  0.28026518697E+03  0.10657950749E+03  0.14590860553E+04  0.14895776234E+04  0.12699999809E+01 0.  1.
       -4    1    3    3    0  502 -0.28026518697E+03 -0.10657950749E+03 -0.66410246716E+03  0.72865730370E+03  0.12699999809E+01 0. -1.
</event>
<event>
 5   0  0.2601252E-07  0.2087867E+04  0.7818609E-02  0.8566607E-01
       -1   -1    0    0    0  501  0.00000000000E+00  0.00000000000E+00  0.19051526361E+04  0.19051526361E+04  0.50400001928E-02 0.  1.
        1   -1    0    0  501    0  0.00000000000E+00  0.00000000000E+00 -0.57202629182E+03  0.57202629184E+03  0.50400001928E-02 0. -1.
    10030    2    1    2    0    0  0.00000000000E+00  0.00000000000E+00  0.13331263443E+04  0.24771789279E+04  0.20878672351E+04 0.  0.
        3    1    3    3  502    0  0.16025617582E+03  0.45876374666E+03 -0.42964924754E+03  0.64864836642E+03  0.10100000352E+00 0. -1.
       -3    1    3    3    0  502 -0.16025617582E+03 -0.45876374666E+03  0.17627755918E+04  0.18285305615E+04  0.10100000352E+00 0.  1.
</event>
<event>
 5   0  0.5161550E-07  0.3971664E+04  0.7818609E-02  0.8010287E-01
       -2   -1    0    0    0  501  0.00000000000E+00  0.00000000000E+00  0.23274255227E+04  0.23274255227E+04  0.25500000920E-02 0.  1.
        2   -1    0    0  501    0  0.00000000000E+00  0.00000000000E+00 -0.16943736442E+04  0.16943736442E+04  0.25500000920E-02 0. -1.
    10030    2    1    2    0    0  0.00000000000E+00  0.00000000000E+00  0.63305187849E+03  0.40217991670E+04  0.39716638653E+04 0.  0.
        2    1    3    3  502    0 -0.11801002116E+04  0.75916214190E+03 -0.11064042359E+04  0.17869230538E+04  0.25500000920E-02 0. -1.
       -2    1    3    3    0  502  0.11801002116E+04 -0.75916214190E+03  0.17394561144E+04  0.22348761131E+04  0.25500000920E-02 0.  1.
</event>
<event>
 5   0  0.7570277E-07  0.3629730E+04  0.7818609E-02  0.8083716E-01
       -2   -1    0    0    0  501  0.00000000000E+00  0.00000000000E+00  0.22731408434E+04  0.22731408434E+04  0.25500000920E-02 0. -1.
        2   -1    0    0  501    0  0.00000000000E+00  0.00000000000E+00 -0.14489793154E+04  0.14489793154E+04  0.25500000920E-02 0.  1.
    10030    2    1    2    0    0  0.00000000000E+00  0.00000000000E+00  0.82416152798E+03  0.37221201588E+04  0.36297295013E+04 0.  0.
        5    1    3    3  502    0 -0.92058265134E+03 -0.13275190287E+04 -0.43597193111E+03  0.16732820456E+04  0.46999998093E+01 0. -1.
       -5    1    3    3    0  502  0.92058265134E+03  0.13275190287E+04  0.12601334591E+04  0.20488381132E+04  0.46999998093E+01 0.  1.
</event>
<event>
 5   0  0.5161550E-07  0.3943412E+04  0.7818609E-02  0.8016060E-01
       -2   -1    0    0    0  501  0.00000000000E+00  0.00000000000E+00  0.17414314458E+04  0.17414314458E+04  0.25500000920E-02 0. -1.
        2   -1    0    0  501    0  0.00000000000E+00  0.00000000000E+00 -0.22324308258E+04  0.22324308258E+04  0.25500000920E-02 0.  1.
    10030    2    1    2    0    0  0.00000000000E+00  0.00000000000E+00 -0.49099937999E+03  0.39738622716E+04  0.39434123500E+04 0.  0.
        2    1    3    3  502    0 -0.56791136128E+03 -0.11269137182E+04 -0.17721789366E+04  0.21755633813E+04  0.25500000920E-02 0.  1.
       -2    1    3    3    0  502  0.56791136128E+03  0.11269137182E+04  0.12811795566E+04  0.17982988903E+04  0.25500000920E-02 0. -1.
</event>
<event>
 5   0  0.2601252E-07  0.3981766E+04  0.7818609E-02  0.8008235E-01
       -1   -1    0    0    0  501  0.00000000000E+00  0.00000000000E+00  0.19012036954E+04  0.19012036954E+04  0.50400001928E-02 0.  1.
        1   -1    0    0  501    0  0.00000000000E+00  0.00000000000E+00 -0.20847929560E+04  0.20847929560E+04  0.50400001928E-02 0. -1.
    10030    2    1    2    0    0  0.00000000000E+00  0.00000000000E+00 -0.18358926060E+03  0.39859966513E+04  0.39817664783E+04 0.  0.
        3    1    3    3  502    0  0.48544144937E+03 -0.57215910570E+03  0.17542351499E+04  0.19079728547E+04  0.10100000352E+00 0.  1.
       -3    1    3    3    0  502 -0.48544144937E+03  0.57215910570E+03 -0.19378244105E+04  0.20780237966E+04  0.10100000352E+00 0. -1.
</event>
<event>
 5   0  0.7256473E-07  0.4070147E+04  0.7818609E-02  0.7990543E-01
        2   -1    0    0  501    0  0.00000000000E+00  0.00000000000E+00  0.22982844489E+04  0.22982844489E+04  0.25500000920E-02 0.  1.
       -2   -1    0    0    0  501  0.00000000000E+00  0.00000000000E+00 -0.18020071709E+04  0.18020071709E+04  0.25500000920E-02 0. -1.
    10030    2    1    2    0    0  0.00000000000E+00  0.00000000000E+00  0.49627727805E+03  0.41002916198E+04  0.40701474458E+04 0.  0.
        4    1    3    3  502    0  0.11005796794E+04  0.17015279134E+04  0.59534087140E+02  0.20273181278E+04  0.12699999809E+01 0. -1.
       -4    1    3    3    0  502 -0.11005796794E+04 -0.17015279134E+04  0.43674319091E+03  0.20729734920E+04  0.12699999809E+01 0.  1.
</event>
<event>
 5   0  0.3579559E-07  0.3869952E+04  0.7818609E-02  0.8031308E-01
        1   -1    0    0  501    0  0.00000000000E+00  0.00000000000E+00  0.26046014376E+04  0.26046014376E+04  0.50400001928E-02 0. -1.
       -1   -1    0    0    0  501  0.00000000000E+00  0.00000000000E+00 -0.14375070372E+04  0.14375070373E+04  0.50400001928E-02 0.  1.
    10030    2    1    2    0    0  0.00000000000E+00  0.00000000000E+00  0.11670944003E+04  0.40421084748E+04  0.38699524006E+04 0.  0.
        4    1    3    3  502    0 -0.58555826500E+03 -0.61913725760E+03 -0.12309501405E+04  0.14971470492E+04  0.12699999809E+01 0.  1.
       -4    1    3    3    0  502  0.58555826500E+03  0.61913725760E+03  0.23980445408E+04  0.25449614257E+04  0.12699999809E+01 0. -1.
</event>
<event>
 5   0  0.2601252E-07  0.4209840E+04  0.7818609E-02  0.7963503E-01
       -1   -1    0    0    0  501  0.00000000000E+00  0.00000000000E+00  0.23657552609E+04  0.23657552609E+04  0.50400001928E-02 0.  1.
        1   -1    0    0  501    0  0.00000000000E+00  0.00000000000E+00 -0.18728427082E+04  0.18728427083E+04  0.50400001928E-02 0. -1.
    10030    2    1    2    0    0  0.00000000000E+00  0.00000000000E+00  0.49291255266E+03  0.42385979692E+04  0.42098396596E+04 0.  0.
        3    1    3    3  502    0  0.13259213619E+03 -0.34934404121E+03  0.23320957831E+04  0.23618409526E+04  0.10100000352E+00 0.  1.
       -3    1    3    3    0  502 -0.13259213619E+03  0.34934404121E+03 -0.18391832305E+04  0.18767570165E+04  0.10100000352E+00 0. -1.
</event>
<event>
 5   0  0.2647879E-07  0.3973231E+04  0.7818609E-02  0.8009969E-01
       -1   -1    0    0    0  501  0.00000000000E+00  0.00000000000E+00  0.18230782406E+04  0.18230782406E+04  0.50400001928E-02 0. -1.
        1   -1    0    0  501    0  0.00000000000E+00  0.00000000000E+00 -0.21648229361E+04  0.21648229361E+04  0.50400001928E-02 0.  1.
    10030    2    1    2    0    0  0.00000000000E+00  0.00000000000E+00 -0.34174469551E+03  0.39879011768E+04  0.39732312239E+04 0.  0.
        2    1    3    3  502    0  0.12438292655E+04 -0.15155349332E+04  0.15075457113E+03  0.19663886483E+04  0.25500000920E-02 0. -1.
       -2    1    3    3    0  502 -0.12438292655E+04  0.15155349332E+04 -0.49249926663E+03  0.20215125285E+04  0.25500000920E-02 0.  1.
</event>
<event>
 5   0  0.5161550E-07  0.4096377E+04  0.7818609E-02  0.7985381E-01
       -2   -1    0    0    0  501  0.00000000000E+00  0.00000000000E+00  0.13027866770E+04  0.13027866770E+04  0.25500000920E-02 0.  1.
        2   -1    0    0  501    0  0.00000000000E+00  0.00000000000E+00 -0.32200797079E+04  0.32200797079E+04  0.25500000920E-02 0. -1.
    10030    2    1    2    0    0  0.00000000000E+00  0.00000000000E+00 -0.19172930309E+04  0.45228663849E+04  0.40963773958E+04 0.  0.
        2    1    3    3  502    0 -0.92360225904E+03 -0.10223304470E+04  0.71468733664E+03  0.15520884849E+04  0.25500000920E-02 0.  1.
       -2    1    3    3    0  502  0.92360225904E+03  0.10223304470E+04 -0.26319803676E+04  0.29707779000E+04  0.25500000920E-02 0. -1.
</event>
<event>
 5   0  0.4449262E-07  0.4018131E+04  0.7818609E-02  0.8000899E-01
       -2   -1    0    0    0  501  0.00000000000E+00  0.00000000000E+00  0.17314989848E+04  0.17314989848E+04  0.25500000920E-02 0. -1.
        2   -1    0    0  501    0  0.00000000000E+00  0.00000000000E+00 -0.23311271200E+04  0.23311271200E+04  0.25500000920E-02 0.  1.
    10030    2    1    2    0    0  0.00000000000E+00  0.00000000000E+00 -0.59962813521E+03  0.40626261048E+04  0.40181310291E+04 0.  0.
        1    1    3    3  502    0  0.76445981389E+03  0.60185601458E+03  0.14774090537E+04  0.17690016906E+04  0.50400001928E-02 0. -1.
       -1    1    3    3    0  502 -0.76445981389E+03 -0.60185601458E+03 -0.20770371889E+04  0.22936244142E+04  0.50400001928E-02 0.  1.
</event>
<event>
 5   0  0.2601252E-07  0.4071120E+04  0.7818609E-02  0.7990351E-01
        1   -1    0    0  501    0  0.00000000000E+00  0.00000000000E+00  0.28670423960E+04  0.28670423960E+04  0.50400001928E-02 0. -1.
       -1   -1    0    0    0  501  0.00000000000E+00  0.00000000000E+00 -0.14452192244E+04  0.14452192244E+04  0.50400001928E-02 0.  1.
    10030    2    1    2    0    0  0.00000000000E+00  0.00000000000E+00  0.14218231717E+04  0.43122616204E+04  0.40711201347E+04 0.  0.
        3    1    3    3  502    0  0.15091166660E+04  0.11291812652E+04  0.15252272008E+04  0.24246239844E+04  0.10100000352E+00 0.  1.
       -3    1    3    3    0  502 -0.15091166660E+04 -0.11291812652E+04 -0.10340402917E+03  0.18876376360E+04  0.10100000352E+00 0. -1.
</event>
<event>
 5   0  0.6043512E-07  0.3015575E+04  0.7818609E-02  0.8239297E-01
       -2   -1    0    0    0  501  0.00000000000E+00  0.00000000000E+00  0.11879317289E+04  0.11879317289E+04  0.25500000920E-02 0. -1.
        2   -1    0    0  501    0  0.00000000000E+00  0.00000000000E+00 -0.19137656455E+04  0.19137656455E+04  0.25500000920E-02 0.  1.
    10030    2    1    2    0    0  0.00000000000E+00  0.00000000000E+00 -0.72583391653E+03  0.31016973744E+04  0.30155748586E+04 0.  0.
        3    1    3    3  502    0  0.85181385975E+03  0.51225966043E+03  0.80322888135E+03  0.12779567510E+04  0.10100000352E+00 0. -1.
       -3    1    3    3    0  502 -0.85181385975E+03 -0.51225966043E+03 -0.15290627979E+04  0.18237406234E+04  0.10100000352E+00 0.  1.
</event>
<event>
 5   0  0.6043512E-07  0.3986683E+04  0.7818609E-02  0.8007238E-01
       -2   -1    0    0    0  501  0.00000000000E+00  0.00000000000E+00  0.18503638892E+04  0.18503638892E+04  0.25500000920E-02 0. -1.
        2   -1    0    0  501    0  0.00000000000E+00  0.00000000000E+00 -0.21473674796E+04  0.21473674796E+04  0.25500000920E-02 0.  1.
    10030    2    1    2    0    0  0.00000000000E+00  0.00000000000E+00 -0.29700359038E+03  0.39977313687E+04  0.39866834542E+04 0.  0.
        3    1    3    3  502    0 -0.13366154120E+04  0.13912244801E+04 -0.65125423394E+03  0.20362166881E+04  0.10100000352E+00 0.  1.
       -3    1    3    3    0  502  0.13366154120E+04 -0.13912244801E+04  0.35425064356E+03  0.19615146806E+04  0.10100000352E+00 0. -1.
</event>
<event>
 5   0  0.6043512E-07  0.2638472E+04  0.7818609E-02  0.8355249E-01
        2   -1    0    0  501    0  0.00000000000E+00  0.00000000000E+00  0.19865175909E+04  0.19865175909E+04  0.25500000920E-02 0. -1.
       -2   -1    0    0    0  501  0.00000000000E+00  0.00000000000E+00 -0.87609768865E+03  0.87609768865E+03  0.25500000920E-02 0.  1.
    10030    2    1    2    0    0  0.00000000000E+00  0.00000000000E+00  0.11104199023E+04  0.28626152796E+04  0.26384718834E+04 0.  0.
        3    1    3    3  502    0 -0.42750472312E+03  0.42981773947E+03  0.18264477131E+04  0.19244258459E+04  0.10100000352E+00 0. -1.
       -3    1    3    3    0  502  0.42750472312E+03 -0.42981773947E+03 -0.71602781081E+03  0.93818943370E+03  0.10100000352E+00 0.  1.
</event>
<event>
 5   0  0.2647879E-07  0.3222739E+04  0.7818609E-02  0.8182838E-01
       -1   -1    0    0    0  501  0.00000000000E+00  0.00000000000E+00  0.14302145314E+04  0.14302145314E+04  0.50400001928E-02 0.  1.
        1   -1    0    0  501    0  0.00000000000E+00  0.00000000000E+00 -0.18154702600E+04  0.18154702600E+04  0.50400001928E-02 0. -1.
    10030    2    1    2    0    0  0.00000000000E+00  0.00000000000E+00 -0.38525572858E+03  0.32456847915E+04  0.32227391749E+04 0.  0.
        2    1    3    3  502    0 -0.10346067800E+04 -0.60744739020E+03 -0.12759764241E+04  0.17514335146E+04  0.25500000920E-02 0. -1.
       -2    1    3    3    0  502  0.10346067800E+04  0.60744739020E+03  0.89072069555E+03  0.14942512769E+04  0.25500000920E-02 0.  1.
</event>
<event>
 5   0  0.7256473E-07  0.4000084E+04  0.7818609E-02  0.8004530E-01
       -2   -1    0    0    0  501  0.00000000000E+00  0.00000000000E+00  0.15646016720E+04  0.15646016720E+04  0.25500000920E-02 0. -1.
        2   -1    0    0  501    0  0.00000000000E+00  0.00000000000E+00 -0.25566680274E+04  0.25566680274E+04  0.25500000920E-02 0.  1.
    10030    2    1    2    0    0  0.00000000000E+00  0.00000000000E+00 -0.99206635545E+03  0.41212696994E+04  0.40000835343E+04 0.  0.
        4    1    3    3  502    0  0.12682952936E+04  0.12744160332E+04  0.40655324708E+03  0.18433654909E+04  0.12699999809E+01 0. -1.
       -4    1    3    3    0  502 -0.12682952936E+04 -0.12744160332E+04 -0.13986196025E+04  0.22779042085E+04  0.12699999809E+01 0.  1.
</event>
<event>
 5   0  0.3579559E-07  0.3937899E+04  0.7818609E-02  0.8017193E-01
       -1   -1    0    0    0  501  0.00000000000E+00  0.00000000000E+00  0.19658125871E+04  0.19658125872E+04  0.50400001928E-02 0.  1.
        1   -1    0    0  501    0  0.00000000000E+00  0.00000000000E+00 -0.19720918066E+04  0.19720918066E+04  0.50400001928E-02 0. -1.
    10030    2    1    2    0    0  0.00000000000E+00  0.00000000000E+00 -0.62792194393E+01  0.39379043937E+04  0.39378993875E+04 0.  0.
        4    1    3    3  502    0 -0.18169912602E+04 -0.57759985407E+03  0.48847311074E+03  0.19681682916E+04  0.12699999809E+01 0. -1.
       -4    1    3    3    0  502  0.18169912602E+04  0.57759985407E+03 -0.49475233018E+03  0.19697361022E+04  0.12699999809E+01 0.  1.
</event>
<event>
 5   0  0.2401125E-07  0.4156090E+04  0.7818609E-02  0.7973778E-01
        1   -1    0    0  501    0  0.00000000000E+00  0.00000000000E+00  0.16757250622E+04  0.16757250622E+04  0.50400001928E-02 0. -1.
       -1   -1    0    0    0  501  0.00000000000E+00  0.00000000000E+00 -0.25769572501E+04  0.25769572501E+04  0.50400001928E-02 0.  1.
    10030    2    1    2    0    0  0.00000000000E+00  0.00000000000E+00 -0.90123218796E+03  0.42526823123E+04  0.41560903976E+04 0.  0.
        5    1    3    3  502    0 -0.15794509895E+04  0.77695210702E+03  0.67955805052E+03  0.18868336542E+04  0.46999998093E+01 0. -1.
       -5    1    3    3    0  502  0.15794509895E+04 -0.77695210702E+03 -0.15807902385E+04  0.23658486581E+04  0.46999998093E+01 0.  1.
</event>
<event>
 5   0  0.3010094E-07  0.2230316E+04  0.7818609E-02  0.8505915E-01
       -1   -1    0    0    0  501  0.00000000000E+00  0.00000000000E+00  0.12288768675E+04  0.12288768676E+04  0.50400001928E-02 0.  1.
        1   -1    0    0  501    0  0.00000000000E+00  0.00000000000E+00 -0.10119629729E+04  0.10119629729E+04  0.50400001928E-02 0. -1.
    10030    2    1    2    0    0  0.00000000000E+00  0.00000000000E+00  0.21691389462E+03  0.22408398405E+04  0.22303164693E+04 0.  0.
        1    1    3    3  502    0 -0.37035647071E+03 -0.43475655152E+03  0.10707865883E+04  0.12135736863E+04  0.50400001928E-02 0.  1.
       -1    1    3    3    0  502  0.37035647071E+03  0.43475655152E+03 -0.85387269366E+03  0.10272661542E+04  0.50400001928E-02 0. -1.
</event>
<event>
 5   0  0.7570277E-07  0.4060343E+04  0.7818609E-02  0.7992483E-01
        2   -1    0    0  501    0  0.00000000000E+00  0.00000000000E+00  0.32142882266E+04  0.32142882266E+04  0.25500000920E-02 0.  1.
       -2   -1    0    0    0  501  0.00000000000E+00  0.00000000000E+00 -0.12822733852E+04  0.12822733852E+04  0.25500000920E-02 0. -1.
    10030    2    1    2    0    0  0.00000000000E+00  0.00000000000E+00  0.19320148414E+04  0.44965616119E+04  0.40603429636E+04 0.  0.
        5    1    3    3  502    0 -0.14774600648E+04  0.72530834725E+03 -0.35021577189E+03  0.16827458568E+04  0.46999998093E+01 0. -1.
       -5    1    3    3    0  502  0.14774600648E+04 -0.72530834725E+03  0.22822306133E+04  0.28138157551E+04  0.46999998093E+01 0.  1.
</event>
<event>
 5   0  0.5161550E-07  0.3940738E+04  0.7818609E-02  0.8016609E-01
       -2   -1    0    0    0  501  0.00000000000E+00  0.00000000000E+00  0.17734424656E+04  0.17734424656E+04  0.25500000920E-02 0.  1.
        2   -1    0    0  501    0  0.00000000000E+00  0.00000000000E+00 -0.21891624865E+04  0.21891624865E+04  0.25500000920E-02 0. -1.
    10030    2    1    2    0    0  0.00000000000E+00  0.00000000000E+00 -0.41572002089E+03  0.39626049521E+04  0.39407378587E+04 0.  0.
        2    1    3    3  502    0  0.71731379045E+03 -0.34677674697E+03  0.16042387325E+04  0.17911937631E+04  0.25500000920E-02 0.  1.
       -2    1    3    3    0  502 -0.71731379045E+03  0.34677674697E+03 -0.20199587534E+04  0.21714111890E+04  0.25500000920E-02 0. -1.
</event>
<event>
 5   0  0.2647879E-07  0.4109242E+04  0.7818609E-02  0.7982864E-01
       -1   -1    0    0    0  501  0.00000000000E+00  0.00000000000E+00  0.15227661401E+04  0.15227661401E+04  0.50400001928E-02 0.  1.
        1   -1    0    0  501    0  0.00000000000E+00  0.00000000000E+00 -0.27722359301E+04  0.27722359301E+04  0.50400001928E-02 0. -1.
    10030    2    1    2    0    0  0.00000000000E+00  0.00000000000E+00 -0.12494697901E+04  0.42950020702E+04  0.41092417825E+04 0.  0.
        2    1    3    3  502    0 -0.18202568105E+04  0.87717306290E+03 -0.10139944094E+04  0.22607414936E+04  0.25500000920E-02 0. -1.
       -2    1    3    3    0  502  0.18202568105E+04 -0.87717306290E+03 -0.23547538072E+03  0.20342605766E+04  0.25500000920E-02 0.  1.
</event>
<event>
 5   0  0.2713405E-07  0.2423082E+04  0.7818609E-02  0.8430912E-01
        1   -1    0    0  501    0  0.00000000000E+00  0.00000000000E+00  0.13697912006E+04  0.13697912006E+04  0.50400001928E-02 0. -1.
       -1   -1    0    0    0  501  0.00000000000E+00  0.00000000000E+00 -0.10715734033E+04  0.10715734033E+04  0.50400001928E-02 0.  1.
    10030    2    1    2    0    0  0.00000000000E+00  0.00000000000E+00  0.29821779727E+03  0.24413646039E+04  0.24230821848E+04 0.  0.
        1    1    3    3  502    0  0.59606518084E+03  0.52863698235E+03  0.10687283093E+04  0.13330157381E+04  0.50400001928E-02 0. -1.
       -1    1    3    3    0  502 -0.59606518084E+03 -0.52863698235E+03 -0.77051051207E+03  0.11083488657E+04  0.50400001928E-02 0.  1.
</event>
<event>
 5   0  0.4449262E-07  0.3318585E+04  0.7818609E-02  0.8158182E-01
       -2   -1    0    0    0  501  0.00000000000E+00  0.00000000000E+00  0.15937790913E+04  0.15937790913E+04  0.25500000920E-02 0. -1.
        2   -1    0    0  501    0  0.00000000000E+00  0.00000000000E+00 -0.17274990670E+04  0.17274990670E+04  0.25500000920E-02 0.  1.
    10030    2    1    2    0    0  0.00000000000E+00  0.00000000000E+00 -0.13371997572E+03  0.33212781583E+04  0.33185851764E+04 0.  0.
        1    1    3    3  502    0  0.12130127739E+04 -0.40706256556E+03 -0.11241982437E+04  0.17032092101E+04  0.50400001928E-02 0.  1.
       -1    1    3    3    0  502 -0.12130127739E+04  0.40706256556E+03  0.99047826803E+03  0.16180689483E+04  0.50400001928E-02 0. -1.
</event>
<event>
 5   0  0.2401125E-07  0.2656650E+04  0.7818609E-02  0.8349209E-01
       -1   -1    0    0    0  501  0.00000000000E+00  0.00000000000E+00  0.94524959575E+03  0.94524959576E+03  0.50400001928E-02 0.  1.
        1   -1    0    0  501    0  0.00000000000E+00  0.00000000000E+00 -0.18666470565E+04  0.18666470566E+04  0.50400001928E-02 0. -1.
    10030    2    1    2    0    0  0.00000000000E+00  0.00000000000E+00 -0.92139746080E+03  0.28118966523E+04  0.26566500527E+04 0.  0.
        5    1    3    3  502    0 -0.11289743651E+04 -0.14575388460E+03  0.26384600826E+03  0.11685307518E+04  0.46999998093E+01 0.  1.
       -5    1    3    3    0  502  0.11289743651E+04  0.14575388460E+03 -0.11852434691E+04  0.16433659005E+04  0.46999998093E+01 0. -1.
</event>
<event>
 5   0  0.6043512E-07  0.2959860E+04  0.7818609E-02  0.8255287E-01
       -2   -1    0    0    0  501  0.00000000000E+00  0.00000000000E+00  0.25878257435E+04  0.25878257435E+04  0.25500000920E-02 0.  1.
        2   -1    0    0  501    0  0.00000000000E+00  0.00000000000E+00 -0.84634469083E+03  0.84634469083E+03  0.25500000920E-02 0. -1.
    10030    2    1    2    0    0  0.00000000000E+00  0.00000000000E+00  0.17414810527E+04  0.34341704343E+04  0.29598598472E+04 0.  0.
        3    1    3    3  502    0  0.57776931130E+02 -0.27899881352E+03 -0.81422273078E+03  0.86263386048E+03  0.10100000352E+00 0. -1.
       -3    1    3    3    0  502 -0.57776931130E+02  0.27899881352E+03  0.25557037835E+04  0.25715365739E+04  0.10100000352E+00 0.  1.
</event>
<event>
 5   0  0.2647879E-07  0.3904465E+04  0.7818609E-02  0.8024101E-01
       -1   -1    0    0    0  501  0.00000000000E+00  0.00000000000E+00  0.20096038760E+04  0.20096038761E+04  0.50400001928E-02 0. -1.
        1   -1    0    0  501    0  0.00000000000E+00  0.00000000000E+00 -0.18964989309E+04  0.18964989309E+04  0.50400001928E-02 0.  1.
    10030    2    1    2    0    0  0.00000000000E+00  0.00000000000E+00  0.11310494512E+03  0.39061028070E+04  0.39044649326E+04 0.  0.
        2    1    3    3  502    0  0.17761572543E+04  0.70481436171E+03 -0.34325716963E+03  0.19414745327E+04  0.25500000920E-02 0. -1.
       -2    1    3    3    0  502 -0.17761572543E+04 -0.70481436171E+03  0.45636211475E+03  0.19646282743E+04  0.25500000920E-02 0.  1.
</event>
<event>
 5   0  0.7256473E-07  0.2511304E+04  0.7818609E-02  0.8398969E-01
        2   -1    0    0  501    0  0.00000000000E+00  0.00000000000E+00  0.23297994706E+04  0.23297994706E+04  0.25500000920E-02 0.  1.
       -2   -1    0    0    0  501  0.00000000000E+00  0.00000000000E+00 -0.67673732121E+03  0.67673732122E+03  0.25500000920E-02 0. -1.
    10030    2    1    2    0    0  0.00000000000E+00  0.00000000000E+00  0.16530621494E+04  0.30065367918E+04  0.25113042450E+04 0.  0.
        4    1    3    3  502    0  0.24924547449E+03  0.85057844110E+03 -0.23827411973E+03  0.91781433855E+03  0.12699999809E+01 0. -1.
       -4    1    3    3    0  502 -0.24924547449E+03 -0.85057844110E+03  0.18913362691E+04  0.20887224533E+04  0.12699999809E+01 0.  1.
</event>
<event>
 5   0  0.5161550E-07  0.3968901E+04  0.7818609E-02  0.8010850E-01
        2   -1    0    0  501    0  0.00000000000E+00  0.00000000000E+00  0.28299094082E+04  0.28299094082E+04  0.25500000920E-02 0. -1.
       -2   -1    0    0    0  501  0.00000000000E+00  0.00000000000E+00 -0.13915792016E+04  0.13915792016E+04  0.25500000920E-02 0.  1.
    10030    2    1    2    0    0  0.00000000000E+00  0.00000000000E+00  0.14383302066E+04  0.42214886098E+04  0.39689006411E+04 0.  0.
        2    1    3    3  502    0 -0.13169849629E+04  0.14638112448E+04  0.98154275133E+03  0.22001406604E+04  0.25500000920E-02 0. -1.
       -2    1    3    3    0  502  0.13169849629E+04 -0.14638112448E+04  0.45678745532E+03  0.20213479494E+04  0.25500000920E-02 0.  1.
</event>
<event>
 5   0  0.2401125E-07  0.3909134E+04  0.7818609E-02  0.8023132E-01
       -3   -1    0    0    0  501  0.00000000000E+00  0.00000000000E+00  0.19783466019E+04  0.19783466045E+04  0.10100000352E+00 0.  1.
        3   -1    0    0  501    0  0.00000000000E+00  0.00000000000E+00 -0.19310730750E+04  0.19310730777E+04  0.10100000352E+00 0. -1.
    10030    2    1    2    0    0  0.00000000000E+00  0.00000000000E+00  0.47273526914E+02  0.39094196822E+04  0.39091338510E+04 0.  0.
        3    1    3    3  502    0  0.11572160942E+04 -0.13920289025E+04 -0.71359981722E+03  0.19457950209E+04  0.10100000352E+00 0. -1.
       -3    1    3    3    0  502 -0.11572160942E+04  0.13920289025E+04  0.76087334414E+03  0.19636246612E+04  0.10100000352E+00 0.  1.
</event>
<event>
 5   0  0.3579559E-07  0.4121915E+04  0.7818609E-02  0.7980394E-01
        1   -1    0    0  501    0  0.00000000000E+00  0.00000000000E+00  0.24253589578E+04  0.24253589578E+04  0.50400001928E-02 0. -1.
       -1   -1    0    0    0  501  0.00000000000E+00  0.00000000000E+00 -0.17513064547E+04  0.17513064547E+04  0.50400001928E-02 0.  1.
    10030    2    1    2    0    0  0.00000000000E+00  0.00000000000E+00  0.67405250313E+03  0.41766654125E+04  0.41219154760E+04 0.  0.
        4    1    3    3  502    0  0.28287858482E+03 -0.13153447076E+04  0.19189786118E+04  0.23436366013E+04  0.12699999809E+01 0. -1.
       -4    1    3    3    0  502 -0.28287858482E+03  0.13153447076E+04 -0.12449261087E+04  0.18330288112E+04  0.12699999809E+01 0.  1.
</event>
<event>
 5   0  0.5161550E-07  0.3837456E+04  0.7818609E-02  0.8038164E-01
       -2   -1    0    0    0  501  0.00000000000E+00  0.00000000000E+00  0.20686079099E+04  0.20686079099E+04  0.25500000920E-02 0.  1.
        2   -1    0    0  501    0  0.00000000000E+00  0.00000000000E+00 -0.17797079955E+04  0.17797079955E+04  0.25500000920E-02 0. -1.
    10030    2    1    2    0    0  0.00000000000E+00  0.00000000000E+00  0.28889991438E+03  0.38483159055E+04  0.38374564685E+04 0.  0.
        2    1    3    3  502    0 -0.14936578220E+04 -0.62996823834E+03  0.11738265262E+04  0.20014350812E+04  0.25500000920E-02 0.  1.
       -2    1    3    3    0  502  0.14936578220E+04  0.62996823834E+03 -0.88492661184E+03  0.18468808242E+04  0.25500000920E-02 0. -1.
</event>
<event>
 5   0  0.7570277E-07  0.3936402E+04  0.7818609E-02  0.8017501E-01
       -2   -1    0    0    0  501  0.00000000000E+00  0.00000000000E+00  0.29513696281E+04  0.29513696281E+04  0.25500000920E-02 0. -1.
        2   -1    0    0  501    0  0.00000000000E+00  0.00000000000E+00 -0.13125484076E+04  0.13125484076E+04  0.25500000920E-02 0.  1.
    10030    2    1    2    0    0  0.00000000000E+00  0.00000000000E+00  0.16388212205E+04  0.42639180357E+04  0.39364021672E+04 0.  0.
        5    1    3    3  502    0 -0.44389795333E+03  0.14222126529E+04  0.22125190047E+04  0.26673951074E+04  0.46999998093E+01 0. -1.
       -5    1    3    3    0  502  0.44389795333E+03 -0.14222126529E+04 -0.57369778418E+03  0.15965229283E+04  0.46999998093E+01 0.  1.
</event>
<event>
 5   0  0.2647879E-07  0.3922225E+04  0.7818609E-02  0.8020423E-01
        1   -1    0    0  501    0  0.00000000000E+00  0.00000000000E+00  0.20839725245E+04  0.20839725245E+04  0.50400001928E-02 0. -1.
       -1   -1    0    0    0  501  0.00000000000E+00  0.00000000000E+00 -0.18454955046E+04  0.18454955046E+04  0.50400001928E-02 0.  1.
    10030    2    1    2    0    0  0.00000000000E+00  0.00000000000E+00  0.23847701990E+03  0.39294680291E+04  0.39222248409E+04 0.  0.
        2    1    3    3  502    0 -0.10634580760E+04  0.27473754071E+03  0.17469043303E+04  0.20635160612E+04  0.25500000920E-02 0. -1.
       -2    1    3    3    0  502  0.10634580760E+04 -0.27473754071E+03 -0.15084273104E+04  0.18659519679E+04  0.25500000920E-02 0.  1.
</event>
<event>
 5   0  0.7256473E-07  0.2785334E+04  0.7818609E-02  0.8307836E-01
       -2   -1    0    0    0  501  0.00000000000E+00  0.00000000000E+00  0.10608783137E+04  0.10608783137E+04  0.25500000920E-02 0. -1.
        2   -1    0    0  501    0  0.00000000000E+00  0.00000000000E+00 -0.18282220088E+04  0.18282220088E+04  0.25500000920E-02 0.  1.
    10030    2    1    2    0    0  0.00000000000E+00  0.00000000000E+00 -0.76734369502E+03  0.28891003225E+04  0.27853337910E+04 0.  0.
        4    1    3    3  502    0  0.55635161066E+03  0.66907121975E+03 -0.15115335289E+04  0.17441096966E+04  0.12699999809E+01 0.  1.
       -4    1    3    3    0  502 -0.55635161066E+03 -0.66907121975E+03  0.74418983387E+03  0.11449906259E+04  0.12699999809E+01 0. -1.
</event>
<event>
 5   0  0.5161550E-07  0.3975853E+04  0.7818609E-02  0.8009435E-01
       -2   -1    0    0    0  501  0.00000000000E+00  0.00000000000E+00  0.28062086246E+04  0.28062086246E+04  0.25500000920E-02 0. -1.
        2   -1    0    0  501    0  0.00000000000E+00  0.00000000000E+00 -0.14082532587E+04  0.14082532587E+04  0.25500000920E-02 0.  1.
    10030    2    1    2    0    0  0.00000000000E+00  0.00000000000E+00  0.13979553659E+04  0.42144618833E+04  0.39758533374E+04 0.  0.
        2    1    3    3  502    0 -0.67952548657E+03  0.18378442756E+04  0.10544003322E+04  0.22251261827E+04  0.25500000920E-02 0.  1.
       -2    1    3    3    0  502  0.67952548657E+03 -0.18378442756E+04  0.34355503374E+03  0.19893357006E+04  0.25500000920E-02 0. -1.
</event>
<event>
 5   0  0.3579559E-07  0.3597072E+04  0.7818609E-02  0.8091163E-01
        1   -1    0    0  501    0  0.00000000000E+00  0.00000000000E+00  0.15638062218E+04  0.15638062218E+04  0.50400001928E-02 0.  1.
       -1   -1    0    0    0  501  0.00000000000E+00  0.00000000000E+00 -0.20684988753E+04  0.20684988753E+04  0.50400001928E-02 0. -1.
    10030    2    1    2    0    0  0.00000000000E+00  0.00000000000E+00 -0.50469265354E+03  0.36323050971E+04  0.35970718152E+04 0.  0.
        4    1    3    3  502    0  0.48937397984E+03  0.17084993692E+04  0.26534135058E+02  0.17774033475E+04  0.12699999809E+01 0.  1.
       -4    1    3    3    0  502 -0.48937397984E+03 -0.17084993692E+04 -0.53122678859E+03  0.18549017495E+04  0.12699999809E+01 0. -1.
</event>
<event>
 5   0  0.7570277E-07  0.2976512E+04  0.7818609E-02  0.8250470E-01
       -2   -1    0    0    0  501  0.00000000000E+00  0.00000000000E+00  0.19601174099E+04  0.19601174099E+04  0.25500000920E-02 0. -1.
        2   -1    0    0  501    0  0.00000000000E+00  0.00000000000E+00 -0.11299866580E+04  0.11299866580E+04  0.25500000920E-02 0.  1.
    10030    2    1    2    0    0  0.00000000000E+00  0.00000000000E+00  0.83013075187E+03  0.30901040678E+04  0.29765124029E+04 0.  0.
        5    1    3    3  502    0 -0.10566981869E+04  0.90556470516E+03 -0.13253560409E+03  0.13979435860E+04  0.46999998093E+01 0.  1.
       -5    1    3    3    0  502  0.10566981869E+04 -0.90556470516E+03  0.96266635597E+03  0.16921604818E+04  0.46999998093E+01 0. -1.
</event>
<event>
 5   0  0.4449262E-07  0.4028565E+04  0.7818609E-02  0.7998809E-01
       -2   -1    0    0    0  501  0.00000000000E+00  0.00000000000E+00  0.23336280042E+04  0.23336280042E+04  0.25500000920E-02 0.  1.
        2   -1    0    0  501    0  0.00000000000E+00  0.00000000000E+00 -0.17386376190E+04  0.17386376190E+04  0.25500000920E-02 0. -1.
    10030    2    1    2    0    0  0.00000000000E+00  0.00000000000E+00  0.59499038517E+03  0.40722656231E+04  0.40285647254E+04 0.  0.
        1    1    3    3  502    0 -0.20096915866E+04  0.10413615510E+03  0.20920457141E+03  0.20232328498E+04  0.50400001928E-02 0. -1.
       -1    1    3    3    0  502  0.20096915866E+04 -0.10413615510E+03  0.38578581375E+03  0.20490327733E+04  0.50400001928E-02 0.  1.
</event>
<event>
 5   0  0.7570277E-07  0.3613963E+04  0.7818609E-02  0.8087301E-01
        2   -1    0    0  501    0  0.00000000000E+00  0.00000000000E+00  0.21075899864E+04  0.21075899864E+04  0.25500000920E-02 0. -1.
       -2   -1    0    0    0  501  0.00000000000E+00  0.00000000000E+00 -0.15492492986E+04  0.15492492986E+04  0.25500000920E-02 0.  1.
    10030    2    1    2    0    0  0.00000000000E+00  0.00000000000E+00  0.55834068780E+03  0.36568392850E+04  0.36139630923E+04 0.  0.
        5    1    3    3  502    0  0.10454060801E+04 -0.14728817391E+04  0.33371468138E+03  0.18367476877E+04  0.46999998093E+01 0. -1.
       -5    1    3    3    0  502 -0.10454060801E+04  0.14728817391E+04  0.22462600642E+03  0.18200915973E+04  0.46999998093E+01 0.  1.
</event>
<event>
 5   0  0.2713405E-07  0.2485952E+04  0.7818609E-02  0.8408007E-01
        1   -1    0    0  501    0  0.00000000000E+00  0.00000000000E+00  0.14707103721E+04  0.14707103721E+04  0.50400001928E-02 0.  1.
       -1   -1    0    0    0  501  0.00000000000E+00  0.00000000000E+00 -0.10505051938E+04  0.10505051938E+04  0.50400001928E-02 0. -1.
    10030    2    1    2    0    0  0.00000000000E+00  0.00000000000E+00  0.42020517832E+03  0.25212155659E+04  0.24859516362E+04 0.  0.
        1    1    3    3  502    0  0.10553523472E+03  0.11902549441E+04 -0.13701610952E+03  0.12027543107E+04  0.50400001928E-02 0. -1.
       -1    1    3    3    0  502 -0.10553523472E+03 -0.11902549441E+04  0.55722128785E+03  0.13184612551E+04  0.50400001928E-02 0.  1.
</event>
<event>
 5   0  0.2401125E-07  0.4004781E+04  0.7818609E-02  0.8003583E-01
       -1   -1    0    0    0  501  0.00000000000E+00  0.00000000000E+00  0.23871851352E+04  0.23871851352E+04  0.50400001928E-02 0.  1.
        1   -1    0    0  501    0  0.00000000000E+00  0.00000000000E+00 -0.16796215436E+04  0.16796215436E+04  0.50400001928E-02 0. -1.
    10030    2    1    2    0    0  0.00000000000E+00  0.00000000000E+00  0.70756359155E+03  0.40668066788E+04  0.40047809337E+04 0.  0.
        5    1    3    3  502    0 -0.76994648359E+03  0.17959837035E+04  0.79778400817E+03  0.21106530896E+04  0.46999998093E+01 0.  1.
       -5    1    3    3    0  502  0.76994648359E+03 -0.17959837035E+04 -0.90220416617E+02  0.19561535892E+04  0.46999998093E+01 0. -1.
</event>
<event>
 5   0  0.7256473E-07  0.2445329E+04  0.7818609E-02  0.8422725E-01
        2   -1    0    0  501    0  0.00000000000E+00  0.00000000000E+00  0.15446677466E+04  0.15446677466E+04  0.25500000920E-02 0.  1.
       -2   -1    0    0    0  501  0.00000000000E+00  0.00000000000E+00 -0.96778674901E+03  0.96778674901E+03  0.25500000920E-02 0. -1.
    10030    2    1    2    0    0  0.00000000000E+00  0.00000000000E+00  0.57688099756E+03  0.25124544956E+04  0.24453294067E+04 0.  0.
        4    1    3    3  502    0 -0.38815631386E+03  0.11594119978E+04  0.28595347335E+03  0.12556562055E+04  0.12699999809E+01 0. -1.
       -4    1    3    3    0  502  0.38815631386E+03 -0.11594119978E+04  0.29092752421E+03  0.12567982901E+04  0.12699999809E+01 0.  1.
</event>
<event>
 5   0  0.7256473E-07  0.4059545E+04  0.7818609E-02  0.7992641E-01
       -2   -1    0    0    0  501  0.00000000000E+00  0.00000000000E+00  0.18068130943E+04  0.18068130943E+04  0.25500000920E-02 0.  1.
        2   -1    0    0  501    0  0.00000000000E+00  0.00000000000E+00 -0.22802454909E+04  0.22802454909E+04  0.25500000920E-02 0. -1.
    10030    2    1    2    0    0  0.00000000000E+00  0.00000000000E+00 -0.47343239654E+03  0.40870585852E+04  0.40595454973E+04 0.  0.
        4    1    3    3  502    0  0.89722414923E+03  0.27674042154E+02  0.15961160855E+04  0.18312195930E+04  0.12699999809E+01 0.  1.
       -4    1    3    3    0  502 -0.89722414923E+03 -0.27674042154E+02 -0.20695484820E+04  0.22558389922E+04  0.12699999809E+01 0. -1.
</event>
<event>
 5   0  0.7256473E-07  0.3216940E+04  0.7818609E-02  0.8184358E-01
       -2   -1    0    0    0  501  0.00000000000E+00  0.00000000000E+00  0.97253128733E+03  0.97253128734E+03  0.25500000920E-02 0.  1.
        2   -1    0    0  501    0  0.00000000000E+00  0.00000000000E+00 -0.26602498725E+04  0.26602498725E+04  0.25500000920E-02 0. -1.
    10030    2    1    2    0    0  0.00000000000E+00  0.00000000000E+00 -0.16877185852E+04  0.36327811598E+04  0.32169403060E+04 0.  0.
        4    1    3    3  502    0 -0.58820708072E+03  0.14962237695E+04 -0.78737925985E+03  0.17901510690E+04  0.12699999809E+01 0.  1.
       -4    1    3    3    0  502  0.58820708072E+03 -0.14962237695E+04 -0.90033932532E+03  0.18426300908E+04  0.12699999809E+01 0. -1.
</event>
<event>
 5   0  0.4449262E-07  0.4250524E+04  0.7818609E-02  0.7955831E-01
       -2   -1    0    0    0  501  0.00000000000E+00  0.00000000000E+00  0.18492201807E+04  0.18492201807E+04  0.25500000920E-02 0. -1.
        2   -1    0    0  501    0  0.00000000000E+00  0.00000000000E+00 -0.24425100188E+04  0.24425100188E+04  0.25500000920E-02 0.  1.
    10030    2    1    2    0    0  0.00000000000E+00  0.00000000000E+00 -0.59328983806E+03  0.42917301995E+04  0.42505241175E+04 0.  0.
        1    1    3    3  502    0 -0.13665953201E+04  0.16169948642E+04 -0.48414290005E+03  0.21717848668E+04  0.50400001928E-02 0.  1.
       -1    1    3    3    0  502  0.13665953201E+04 -0.16169948642E+04 -0.10914693801E+03  0.21199453328E+04  0.50400001928E-02 0. -1.
</event>
<event>
 5   0  0.3579559E-07  0.2256817E+04  0.7818609E-02  0.8495145E-01
       -1   -1    0    0    0  501  0.00000000000E+00  0.00000000000E+00  0.12520829604E+04  0.12520829605E+04  0.50400001928E-02 0. -1.
        1   -1    0    0  501    0  0.00000000000E+00  0.00000000000E+00 -0.10169495394E+04  0.10169495394E+04  0.50400001928E-02 0.  1.
    10030    2    1    2    0    0  0.00000000000E+00  0.00000000000E+00  0.23513342105E+03  0.22690324999E+04  0.22568165100E+04 0.  0.
        4    1    3    3  502    0  0.38295199207E+03  0.10611855820E+04  0.94278661136E+02  0.11321029752E+04  0.12699999809E+01 0. -1.
       -4    1    3    3    0  502 -0.38295199207E+03 -0.10611855820E+04  0.14085475991E+03  0.11369295246E+04  0.12699999809E+01 0.  1.
</event>
<event>
 5   0  0.5161550E-07  0.3691784E+04  0.7818609E-02  0.8069785E-01
       -2   -1    0    0    0  501  0.00000000000E+00  0.00000000000E+00  0.12923511098E+04  0.12923511098E+04  0.25500000920E-02 0. -1.
        2   -1    0    0  501    0  0.00000000000E+00  0.00000000000E+00 -0.26365264476E+04  0.26365264476E+04  0.25500000920E-02 0.  1.
    10030    2    1    2    0    0  0.00000000000E+00  0.00000000000E+00 -0.13441753377E+04  0.39288775574E+04  0.36917843277E+04 0.  0.
        2    1    3    3  502    0 -0.80435539693E+02 -0.17871247321E+04 -0.11563181972E+04  0.21301071469E+04  0.25500000920E-02 0.  1.
       -2    1    3    3    0  502  0.80435539693E+02  0.17871247321E+04 -0.18785714054E+03  0.17987704104E+04  0.25500000920E-02 0. -1.
</event>
<event>
 5   0  0.4449262E-07  0.3923692E+04  0.7818609E-02  0.8020120E-01
        2   -1    0    0  501    0  0.00000000000E+00  0.00000000000E+00  0.22884472896E+04  0.22884472896E+04  0.25500000920E-02 0.  1.
       -2   -1    0    0    0  501  0.00000000000E+00  0.00000000000E+00 -0.16818566327E+04  0.16818566327E+04  0.25500000920E-02 0. -1.
    10030    2    1    2    0    0  0.00000000000E+00  0.00000000000E+00  0.60659065692E+03  0.39703039224E+04  0.39236922676E+04 0.  0.
        1    1    3    3  502    0 -0.17079282434E+04 -0.40126308544E+03  0.11916825198E+04  0.21208814621E+04  0.50400001928E-02 0.  1.
       -1    1    3    3    0  502  0.17079282434E+04  0.40126308544E+03 -0.58509186288E+03  0.18494224602E+04  0.50400001928E-02 0. -1.
</event>
<event>
 5   0  0.7570277E-07  0.3753249E+04  0.7818609E-02  0.8056263E-01
        2   -1    0    0  501    0  0.00000000000E+00  0.00000000000E+00  0.12699606779E+04  0.12699606779E+04  0.25500000920E-02 0. -1.
       -2   -1    0    0    0  501  0.00000000000E+00  0.00000000000E+00 -0.27730928690E+04  0.27730928690E+04  0.25500000920E-02 0.  1.
    10030    2    1    2    0    0  0.00000000000E+00  0.00000000000E+00 -0.15031321911E+04  0.40430535469E+04  0.37532486727E+04 0.  0.
        5    1    3    3  502    0 -0.41696935123E+03  0.35592244417E+03 -0.26849041631E+04  0.27403059467E+04  0.46999998093E+01 0.  1.
       -5    1    3    3    0  502  0.41696935123E+03 -0.35592244417E+03  0.11817719720E+04  0.13027476002E+04  0.46999998093E+01 0. -1.
</event>
<event>
 5   0  0.7570277E-07  0.2499559E+04  0.7818609E-02  0.8403143E-01
       -2   -1    0    0    0  501  0.00000000000E+00  0.00000000000E+00  0.58877443605E+03  0.58877443606E+03  0.25500000920E-02 0. -1.
        2   -1    0    0  501    0  0.00000000000E+00  0.00000000000E+00 -0.26528816935E+04  0.26528816935E+04  0.25500000920E-02 0.  1.
    10030    2    1    2    0    0  0.00000000000E+00  0.00000000000E+00 -0.20641072575E+04  0.32416561296E+04  0.24995590995E+04 0.  0.
        5    1    3    3  502    0 -0.44499035544E+03  0.70209320500E+03 -0.22423912012E+04  0.23915040611E+04  0.46999998093E+01 0.  1.
       -5    1    3    3    0  502  0.44499035544E+03 -0.70209320500E+03  0.17828394375E+03  0.85015206848E+03  0.46999998093E+01 0. -1.
</event>
<event>
 5   0  0.7256473E-07  0.4101415E+04  0.7818609E-02  0.7984395E-01
        2   -1    0    0  501    0  0.00000000000E+00  0.00000000000E+00  0.26315985661E+04  0.26315985661E+04  0.25500000920E-02 0. -1.
       -2   -1    0    0    0  501  0.00000000000E+00  0.00000000000E+00 -0.15980404014E+04  0.15980404014E+04  0.25500000920E-02 0.  1.
    10030    2    1    2    0    0  0.00000000000E+00  0.00000000000E+00  0.10335581647E+04  0.42296389675E+04  0.41014147944E+04 0.  0.
        4    1    3    3  502    0 -0.30896055081E+03  0.31112317492E+03 -0.15491339189E+04  0.16099912309E+04  0.12699999809E+01 0.  1.
       -4    1    3    3    0  502  0.30896055081E+03 -0.31112317492E+03  0.25826920837E+04  0.26196477366E+04  0.12699999809E+01 0. -1.
</event>
<event>
 5   0  0.5161550E-07  0.3867380E+04  0.7818609E-02  0.8031848E-01
        2   -1    0    0  501    0  0.00000000000E+00  0.00000000000E+00  0.20041327213E+04  0.20041327213E+04  0.25500000920E-02 0.  1.
       -2   -1    0    0    0  501  0.00000000000E+00  0.00000000000E+00 -0.18657234045E+04  0.18657234045E+04  0.25500000920E-02 0. -1.
    10030    2    1    2    0    0  0.00000000000E+00  0.00000000000E+00  0.13840931684E+03  0.38698561258E+04  0.38673801592E+04 0.  0.
        2    1    3    3  502    0 -0.26005755330E+03  0.17775848043E+04  0.78500846578E+03  0.19605295098E+04  0.25500000920E-02 0.  1.
       -2    1    3    3    0  502  0.26005755330E+03 -0.17775848043E+04 -0.64659914893E+03  0.19093266161E+04  0.25500000920E-02 0. -1.
</event>
<event>
 5   0  0.7256473E-07  0.2750193E+04  0.7818609E-02  0.8318901E-01
       -2   -1    0    0    0  501  0.00000000000E+00  0.00000000000E+00  0.11327197677E+04  0.11327197677E+04  0.25500000920E-02 0. -1.
        2   -1    0    0  501    0  0.00000000000E+00  0.00000000000E+00 -0.16693360116E+04  0.16693360116E+04  0.25500000920E-02 0.  1.
    10030    2    1    2    0    0  0.00000000000E+00  0.00000000000E+00 -0.53661624387E+03  0.28020557793E+04  0.27501926473E+04 0.  0.
        4    1    3    3  502    0 -0.71896095151E+03  0.34783230685E+03 -0.14087903531E+04  0.16194394201E+04  0.12699999809E+01 0.  1.
       -4    1    3    3    0  502  0.71896095151E+03 -0.34783230685E+03  0.87217410921E+03  0.11826163593E+04  0.12699999809E+01 0. -1.
</event>
<event>
 5   0  0.2713405E-07  0.4048273E+04  0.7818609E-02  0.7994879E-01
       -1   -1    0    0    0  501  0.00000000000E+00  0.00000000000E+00  0.20778242923E+04  0.20778242923E+04  0.50400001928E-02 0.  1.
        1   -1    0    0  501    0  0.00000000000E+00  0.00000000000E+00 -0.19718357309E+04  0.19718357309E+04  0.50400001928E-02 0. -1.
    10030    2    1    2    0    0  0.00000000000E+00  0.00000000000E+00  0.10598856138E+03  0.40496600232E+04  0.40482728080E+04 0.  0.
        1    1    3    3  502    0 -0.52485357334E+03 -0.11118146706E+04  0.16615020692E+04  0.20669282187E+04  0.50400001928E-02 0.  1.
       -1    1    3    3    0  502  0.52485357334E+03  0.11118146706E+04 -0.15555135078E+04  0.19827318044E+04  0.50400001928E-02 0. -1.
</event>
<event>
 5   0  0.2401125E-07  0.4218306E+04  0.7818609E-02  0.7961899E-01
        1   -1    0    0  501    0  0.00000000000E+00  0.00000000000E+00  0.21913168439E+04  0.21913168439E+04  0.50400001928E-02 0. -1.
       -1   -1    0    0    0  501  0.00000000000E+00  0.00000000000E+00 -0.20300699598E+04  0.20300699598E+04  0.50400001928E-02 0.  1.
    10030    2    1    2    0    0  0.00000000000E+00  0.00000000000E+00  0.16124688405E+03  0.42213868037E+04  0.42183060568E+04 0.  0.
        5    1    3    3  502    0 -0.32833801048E+03  0.10426569702E+04  0.18857049015E+04  0.21796431983E+04  0.46999998093E+01 0. -1.
       -5    1    3    3    0  502  0.32833801048E+03 -0.10426569702E+04 -0.17244580174E+04  0.20417436054E+04  0.46999998093E+01 0.  1.
</event>
<event>
 5   0  0.2601252E-07  0.2020717E+04  0.7818609E-02  0.8596996E-01
        1   -1    0    0  501    0  0.00000000000E+00  0.00000000000E+00  0.10954546878E+04  0.10954546878E+04  0.50400001928E-02 0. -1.
       -1   -1    0    0    0  501  0.00000000000E+00  0.00000000000E+00 -0.93187263151E+03  0.93187263152E+03  0.50400001928E-02 0.  1.
    10030    2    1    2    0    0  0.00000000000E+00  0.00000000000E+00  0.16358205630E+03  0.20273273193E+04  0.20207169447E+04 0.  0.
        3    1    3    3  502    0 -0.36059930766E+03 -0.31931063109E+03 -0.80927718262E+03  0.94176467778E+03  0.10100000352E+00 0.  1.
       -3    1    3    3    0  502  0.36059930766E+03  0.31931063109E+03  0.97285923892E+03  0.10855626416E+04  0.10100000352E+00 0. -1.
</event>
<event>
 5   0  0.5161550E-07  0.2786107E+04  0.7818609E-02  0.8307594E-01
        2   -1    0    0  501    0  0.00000000000E+00  0.00000000000E+00  0.15884665047E+04  0.15884665047E+04  0.25500000920E-02 0. -1.
       -2   -1    0    0    0  501  0.00000000000E+00  0.00000000000E+00 -0.12216805914E+04  0.12216805914E+04  0.25500000920E-02 0.  1.
    10030    2    1    2    0    0  0.00000000000E+00  0.00000000000E+00  0.36678591323E+03  0.28101470961E+04  0.27861074630E+04 0.  0.
        2    1    3    3  502    0 -0.80314520636E+03 -0.11212514813E+04  0.38091832865E+03  0.14308549472E+04  0.25500000920E-02 0.  1.
       -2    1    3    3    0  502  0.80314520636E+03  0.11212514813E+04 -0.14132415416E+02  0.13792921489E+04  0.25500000920E-02 0. -1.
</event>
<event>
 5   0  0.7570277E-07  0.1998232E+04  0.7818609E-02  0.8607448E-01
        2   -1    0    0  501    0  0.00000000000E+00  0.00000000000E+00  0.18742710813E+04  0.18742710813E+04  0.25500000920E-02 0.  1.
       -2   -1    0    0    0  501  0.00000000000E+00  0.00000000000E+00 -0.53259780594E+03  0.53259780594E+03  0.25500000920E-02 0. -1.
    10030    2    1    2    0    0  0.00000000000E+00  0.00000000000E+00  0.13416732754E+04  0.24068688873E+04  0.19982318841E+04 0.  0.
        5    1    3    3  502    0 -0.96415970221E+02 -0.92084122065E+03  0.11230711581E+04  0.14555258531E+04  0.46999998093E+01 0.  1.
       -5    1    3    3    0  502  0.96415970221E+02  0.92084122065E+03  0.21860211729E+03  0.95134303416E+03  0.46999998093E+01 0. -1.
</event>
<event>
 5   0  0.7570277E-07  0.3994816E+04  0.7818609E-02  0.8005593E-01
       -2   -1    0    0    0  501  0.00000000000E+00  0.00000000000E+00  0.18790355864E+04  0.18790355864E+04  0.25500000920E-02 0.  1.
        2   -1    0    0  501    0  0.00000000000E+00  0.00000000000E+00 -0.21232371450E+04  0.21232371450E+04  0.25500000920E-02 0. -1.
    10030    2    1    2    0    0  0.00000000000E+00  0.00000000000E+00 -0.24420155861E+03  0.40022727315E+04  0.39948157174E+04 0.  0.
        5    1    3    3  502    0  0.37171173145E+03 -0.10115804049E+04 -0.18069508792E+04  0.21039387103E+04  0.46999998093E+01 0. -1.
       -5    1    3    3    0  502 -0.37171173145E+03  0.10115804049E+04  0.15627493206E+04  0.18983340212E+04  0.46999998093E+01 0.  1.
</event>
<event>
 5   0  0.3579559E-07  0.2124207E+04  0.7818609E-02  0.8550654E-01
        1   -1    0    0  501    0  0.00000000000E+00  0.00000000000E+00  0.64829013187E+03  0.64829013189E+03  0.50400001928E-02 0.  1.
       -1   -1    0    0    0  501  0.00000000000E+00  0.00000000000E+00 -0.17400597781E+04  0.17400597782E+04  0.50400001928E-02 0. -1.
    10030    2    1    2    0    0  0.00000000000E+00  0.00000000000E+00 -0.10917696463E+04  0.23883499100E+04  0.21242067537E+04 0.  0.
        4    1    3    3  502    0 -0.20449730508E+03  0.10306572474E+04 -0.72002635505E+03  0.12737790523E+04  0.12699999809E+01 0.  1.
       -4    1    3    3    0  502  0.20449730508E+03 -0.10306572474E+04 -0.37174329123E+03  0.11145708577E+04  0.12699999809E+01 0. -1.
</event>
<event>
 5   0  0.5161550E-07  0.3914380E+04  0.7818609E-02  0.8022045E-01
        2   -1    0    0  501    0  0.00000000000E+00  0.00000000000E+00  0.26365562039E+04  0.26365562039E+04  0.25500000920E-02 0. -1.
       -2   -1    0    0    0  501  0.00000000000E+00  0.00000000000E+00 -0.14528774934E+04  0.14528774934E+04  0.25500000920E-02 0.  1.
    10030    2    1    2    0    0  0.00000000000E+00  0.00000000000E+00  0.11836787105E+04  0.40894336973E+04  0.39143802415E+04 0.  0.
        2    1    3    3  502    0 -0.16376089956E+04 -0.37877571267E+03 -0.45567679002E+03  0.17415153171E+04  0.25500000920E-02 0.  1.
       -2    1    3    3    0  502  0.16376089956E+04  0.37877571267E+03  0.16393555005E+04  0.23479183802E+04  0.25500000920E-02 0. -1.
</event>
<event>
 5   0  0.7256473E-07  0.2559056E+04  0.7818609E-02  0.8382243E-01
        2   -1    0    0  501    0  0.00000000000E+00  0.00000000000E+00  0.21324602672E+04  0.21324602672E+04  0.25500000920E-02 0.  1.
       -2   -1    0    0    0  501  0.00000000000E+00  0.00000000000E+00 -0.76774806885E+03  0.76774806886E+03  0.25500000920E-02 0. -1.
    10030    2    1    2    0    0  0.00000000000E+00  0.00000000000E+00  0.13647121984E+04  0.29002083361E+04  0.25590562730E+04 0.  0.
        4    1    3    3  502    0  0.86435219111E+03  0.88851894180E+03  0.32286217240E+03  0.12809419251E+04  0.12699999809E+01 0. -1.
       -4    1    3    3    0  502 -0.86435219111E+03 -0.88851894180E+03  0.10418500260E+04  0.16192664110E+04  0.12699999809E+01 0.  1.
</event>
<event>
 5   0  0.2713405E-07  0.3953698E+04  0.7818609E-02  0.8013953E-01
        1   -1    0    0  501    0  0.00000000000E+00  0.00000000000E+00  0.19872373386E+04  0.19872373386E+04  0.50400001928E-02 0.  1.
       -1   -1    0    0    0  501  0.00000000000E+00  0.00000000000E+00 -0.19665151977E+04  0.19665151977E+04  0.50400001928E-02 0. -1.
    10030    2    1    2    0    0  0.00000000000E+00  0.00000000000E+00  0.20722140817E+02  0.39537525363E+04  0.39536982322E+04 0.  0.
        1    1    3    3  502    0  0.12983772339E+04 -0.89969783411E+03 -0.11782227931E+04  0.19706467427E+04  0.50400001928E-02 0. -1.
       -1    1    3    3    0  502 -0.12983772339E+04  0.89969783411E+03  0.11989449340E+04  0.19831057936E+04  0.50400001928E-02 0.  1.
</event>
<event>
 5   0  0.4449262E-07  0.2824290E+04  0.7818609E-02  0.8295767E-01
        2   -1    0    0  501    0  0.00000000000E+00  0.00000000000E+00  0.17241541746E+04  0.17241541746E+04  0.25500000920E-02 0.  1.
       -2   -1    0    0    0  501  0.00000000000E+00  0.00000000000E+00 -0.11565979463E+04  0.11565979463E+04  0.25500000920E-02 0. -1.
    10030    2    1    2    0    0  0.00000000000E+00  0.00000000000E+00  0.56755622829E+03  0.28807521209E+04  0.28242897708E+04 0.  0.
        1    1    3    3  502    0 -0.76929550097E+03 -0.11661585834E+04  0.73719824400E+02  0.13989910729E+04  0.50400001928E-02 0.  1.
       -1    1    3    3    0  502  0.76929550097E+03  0.11661585834E+04  0.49383640389E+03  0.14817610480E+04  0.50400001928E-02 0. -1.
</event>
<event>
 5   0  0.7570277E-07  0.3346986E+04  0.7818609E-02  0.8151042E-01
       -2   -1    0    0    0  501  0.00000000000E+00  0.00000000000E+00  0.10912701557E+04  0.10912701557E+04  0.25500000920E-02 0.  1.
        2   -1    0    0  501    0  0.00000000000E+00  0.00000000000E+00 -0.25663475018E+04  0.25663475018E+04  0.25500000920E-02 0. -1.
    10030    2    1    2    0    0  0.00000000000E+00  0.00000000000E+00 -0.14750773460E+04  0.36576176575E+04  0.33469857711E+04 0.  0.
        5    1    3    3  502    0 -0.30839856132E+03  0.51916556238E+02  0.10590451525E+04  0.11042661484E+04  0.46999998093E+01 0.  1.
       -5    1    3    3    0  502  0.30839856132E+03 -0.51916556238E+02 -0.25341224986E+04  0.25533515091E+04  0.46999998093E+01 0. -1.
</event>
<event>
 5   0  0.2647879E-07  0.2374329E+04  0.7818609E-02  0.8449177E-01
       -1   -1    0    0    0  501  0.00000000000E+00  0.00000000000E+00  0.22568374765E+04  0.22568374765E+04  0.50400001928E-02 0.  1.
        1   -1    0    0  501    0  0.00000000000E+00  0.00000000000E+00 -0.62448447177E+03  0.62448447179E+03  0.50400001928E-02 0. -1.
    10030    2    1    2    0    0  0.00000000000E+00  0.00000000000E+00  0.16323530048E+04  0.28813219483E+04  0.23743293449E+04 0.  0.
        2    1    3    3  502    0 -0.13787742780E+03  0.40929816626E+02 -0.61387296825E+03  0.63049619835E+03  0.25500000920E-02 0. -1.
       -2    1    3    3    0  502  0.13787742780E+03 -0.40929816626E+02  0.22462259730E+04  0.22508257500E+04  0.25500000920E-02 0.  1.
</event>
<event>
 5   0  0.2713405E-07  0.4023540E+04  0.7818609E-02  0.7999815E-01
        1   -1    0    0  501    0  0.00000000000E+00  0.00000000000E+00  0.30070695937E+04  0.30070695937E+04  0.50400001928E-02 0.  1.
       -1   -1    0    0    0  501  0.00000000000E+00  0.00000000000E+00 -0.13459009047E+04  0.13459009047E+04  0.50400001928E-02 0. -1.
    10030    2    1    2    0    0  0.00000000000E+00  0.00000000000E+00  0.16611686890E+04  0.43529704983E+04  0.40235395793E+04 0.  0.
        1    1    3    3  502    0  0.17771885966E+04  0.34373371836E+03 -0.11916807250E+03  0.18140433309E+04  0.50400001928E-02 0. -1.
       -1    1    3    3    0  502 -0.17771885966E+04 -0.34373371836E+03  0.17803367615E+04  0.25389271674E+04  0.50400001928E-02 0.  1.
</event>
<event>
 5   0  0.3579559E-07  0.2322345E+04  0.7818609E-02  0.8469162E-01
        1   -1    0    0  501    0  0.00000000000E+00  0.00000000000E+00  0.77624369472E+03  0.77624369473E+03  0.50400001928E-02 0. -1.
       -1   -1    0    0    0  501  0.00000000000E+00  0.00000000000E+00 -0.17369828474E+04  0.17369828474E+04  0.50400001928E-02 0.  1.
    10030    2    1    2    0    0  0.00000000000E+00  0.00000000000E+00 -0.96073915272E+03  0.25132265422E+04  0.23223453517E+04 0.  0.
        4    1    3    3  502    0  0.49991554666E+03  0.20302792368E+03  0.63233589477E+03  0.83125578993E+03  0.12699999809E+01 0. -1.
       -4    1    3    3    0  502 -0.49991554666E+03 -0.20302792368E+03 -0.15930750475E+04  0.16819707523E+04  0.12699999809E+01 0.  1.
</event>
<event>
 5   0  0.4069707E-07  0.2035111E+04  0.7818609E-02  0.8590379E-01
        1   -1    0    0  501    0  0.00000000000E+00  0.00000000000E+00  0.95571626676E+03  0.95571626677E+03  0.50400001928E-02 0.  1.
       -1   -1    0    0    0  501  0.00000000000E+00  0.00000000000E+00 -0.10833961343E+04  0.10833961343E+04  0.50400001928E-02 0. -1.
    10030    2    1    2    0    0  0.00000000000E+00  0.00000000000E+00 -0.12767986757E+03  0.20391124011E+04  0.20351111114E+04 0.  0.
        4    1    3    3  502    0 -0.65596880324E+02 -0.19543530014E+03 -0.10622526954E+04  0.10820722292E+04  0.12699999809E+01 0. -1.
       -4    1    3    3    0  502  0.65596880324E+02  0.19543530014E+03  0.93457282787E+03  0.95704017196E+03  0.12699999809E+01 0.  1.
</event>
<event>
 5   0  0.2401125E-07  0.3967637E+04  0.7818609E-02  0.8011107E-01
        1   -1    0    0  501    0  0.00000000000E+00  0.00000000000E+00  0.21673043660E+04  0.21673043660E+04  0.50400001928E-02 0.  1.
       -1   -1    0    0    0  501  0.00000000000E+00  0.00000000000E+00 -0.18158666334E+04  0.18158666334E+04  0.50400001928E-02 0. -1.
    10030    2    1    2    0    0  0.00000000000E+00  0.00000000000E+00  0.35143773262E+03  0.39831709994E+04  0.39676369202E+04 0.  0.
        5    1    3    3  502    0  0.19581869758E+04  0.29546864084E+02  0.49341376402E+03  0.20196159243E+04  0.46999998093E+01 0.  1.
       -5    1    3    3    0  502 -0.19581869758E+04 -0.29546864084E+02 -0.14197603140E+03  0.19635550751E+04  0.46999998093E+01 0. -1.
</event>
<event>
 5   0  0.7570277E-07  0.4004983E+04  0.7818609E-02  0.8003542E-01
        2   -1    0    0  501    0  0.00000000000E+00  0.00000000000E+00  0.23085333827E+04  0.23085333827E+04  0.25500000920E-02 0.  1.
       -2   -1    0    0    0  501  0.00000000000E+00  0.00000000000E+00 -0.17370211517E+04  0.17370211517E+04  0.25500000920E-02 0. -1.
    10030    2    1    2    0    0  0.00000000000E+00  0.00000000000E+00  0.57151223095E+03  0.40455545344E+04  0.40049825543E+04 0.  0.
        5    1    3    3  502    0  0.19072400136E+04  0.58686043512E+03  0.45472162751E+03  0.20466468890E+04  0.46999998093E+01 0.  1.
       -5    1    3    3    0  502 -0.19072400136E+04 -0.58686043512E+03  0.11679060344E+03  0.19989076454E+04  0.46999998093E+01 0. -1.
</event>
<event>
 5   0  0.2647879E-07  0.3975537E+04  0.7818609E-02  0.8009500E-01
       -1   -1    0    0    0  501  0.00000000000E+00  0.00000000000E+00  0.18079049646E+04  0.18079049646E+04  0.50400001928E-02 0.  1.
        1   -1    0    0  501    0  0.00000000000E+00  0.00000000000E+00 -0.21855262560E+04  0.21855262560E+04  0.50400001928E-02 0. -1.
    10030    2    1    2    0    0  0.00000000000E+00  0.00000000000E+00 -0.37762129140E+03  0.39934312205E+04  0.39755370799E+04 0.  0.
        2    1    3    3  502    0  0.84867870907E+03  0.16578652394E+04  0.50890270805E+03  0.19307394101E+04  0.25500000920E-02 0.  1.
       -2    1    3    3    0  502 -0.84867870907E+03 -0.16578652394E+04 -0.88652399946E+03  0.20626918105E+04  0.25500000920E-02 0. -1.
</event>
<event>
 5   0  0.5161550E-07  0.3580585E+04  0.7818609E-02  0.8094953E-01
        2   -1    0    0  501    0  0.00000000000E+00  0.00000000000E+00  0.18188072412E+04  0.18188072412E+04  0.25500000920E-02 0.  1.
       -2   -1    0    0    0  501  0.00000000000E+00  0.00000000000E+00 -0.17622249404E+04  0.17622249404E+04  0.25500000920E-02 0. -1.
    10030    2    1    2    0    0  0.00000000000E+00  0.00000000000E+00  0.56582300780E+02  0.35810321816E+04  0.35805851378E+04 0.  0.
        2    1    3    3  502    0  0.44398561738E+03  0.10929569963E+04 -0.13185281090E+04  0.17692355972E+04  0.25500000920E-02 0. -1.
       -2    1    3    3    0  502 -0.44398561738E+03 -0.10929569963E+04  0.13751104098E+04  0.18117965844E+04  0.25500000920E-02 0.  1.
</event>
<event>
 5   0  0.7570277E-07  0.3940796E+04  0.7818609E-02  0.8016598E-01
       -2   -1    0    0    0  501  0.00000000000E+00  0.00000000000E+00  0.18292157955E+04  0.18292157955E+04  0.25500000920E-02 0.  1.
        2   -1    0    0  501    0  0.00000000000E+00  0.00000000000E+00 -0.21224764662E+04  0.21224764662E+04  0.25500000920E-02 0. -1.
    10030    2    1    2    0    0  0.00000000000E+00  0.00000000000E+00 -0.29326067067E+03  0.39516922617E+04  0.39407955936E+04 0.  0.
        5    1    3    3  502    0 -0.20934830067E+02  0.17133858303E+04 -0.11221079913E+04  0.20482377071E+04  0.46999998093E+01 0. -1.
       -5    1    3    3    0  502  0.20934830067E+02 -0.17133858303E+04  0.82884732063E+03  0.19034545546E+04  0.46999998093E+01 0.  1.
</event>
<event>
 5   0  0.2601252E-07  0.2551347E+04  0.7818609E-02  0.8384918E-01
        1   -1    0    0  501    0  0.00000000000E+00  0.00000000000E+00  0.15960881904E+04  0.15960881904E+04  0.50400001928E-02 0.  1.
       -1   -1    0    0    0  501  0.00000000000E+00  0.00000000000E+00 -0.10195821922E+04  0.10195821923E+04  0.50400001928E-02 0. -1.
    10030    2    1    2    0    0  0.00000000000E+00  0.00000000000E+00  0.57650599812E+03  0.26156703826E+04  0.25513471705E+04 0.  0.
        3    1    3    3  502    0  0.18191590320E+03  0.57190657032E+03  0.14423208344E+04  0.15621971452E+04  0.10100000352E+00 0.  1.
       -3    1    3    3    0  502 -0.18191590320E+03 -0.57190657032E+03 -0.86581483627E+03  0.10534732374E+04  0.10100000352E+00 0. -1.
</event>
<event>
 5   0  0.7256473E-07  0.3827788E+04  0.7818609E-02  0.8040218E-01
       -2   -1    0    0    0  501  0.00000000000E+00  0.00000000000E+00  0.19742315970E+04  0.19742315970E+04  0.25500000920E-02 0. -1.
        2   -1    0    0  501    0  0.00000000000E+00  0.00000000000E+00 -0.18554007452E+04  0.18554007452E+04  0.25500000920E-02 0.  1.
    10030    2    1    2    0    0  0.00000000000E+00  0.00000000000E+00  0.11883085187E+03  0.38296323422E+04  0.38277882785E+04 0.  0.
        4    1    3    3  502    0 -0.17335520609E+03 -0.48122039471E+03 -0.17857518073E+04  0.18575619037E+04  0.12699999809E+01 0.  1.
       -4    1    3    3    0  502  0.17335520609E+03  0.48122039471E+03  0.19045826592E+04  0.19720704385E+04  0.12699999809E+01 0. -1.
</event>
<event>
 5   0  0.7256473E-07  0.4057494E+04  0.7818609E-02  0.7993048E-01
       -2   -1    0    0    0  501  0.00000000000E+00  0.00000000000E+00  0.22374174333E+04  0.22374174333E+04  0.25500000920E-02 0.  1.
        2   -1    0    0  501    0  0.00000000000E+00  0.00000000000E+00 -0.18395376238E+04  0.18395376238E+04  0.25500000920E-02 0. -1.
    10030    2    1    2    0    0  0.00000000000E+00  0.00000000000E+00  0.39787980946E+03  0.40769550571E+04  0.40574935853E+04 0.  0.
        4    1    3    3  502    0 -0.10126474267E+04 -0.63778586501E+03 -0.14470829703E+04  0.18778382135E+04  0.12699999809E+01 0. -1.
       -4    1    3    3    0  502  0.10126474267E+04  0.63778586501E+03  0.18449627797E+04  0.21991168436E+04  0.12699999809E+01 0.  1.
</event>
<event>
 5   0  0.5161550E-07  0.3822461E+04  0.7818609E-02  0.8041352E-01
        2   -1    0    0  501    0  0.00000000000E+00  0.00000000000E+00  0.27069181837E+04  0.27069181837E+04  0.25500000920E-02 0. -1.
       -2   -1    0    0    0  501  0.00000000000E+00  0.00000000000E+00 -0.13494320352E+04  0.13494320352E+04  0.25500000920E-02 0.  1.
    10030    2    1    2    0    0  0.00000000000E+00  0.00000000000E+00  0.13574861485E+04  0.40563502188E+04  0.38224610468E+04 0.  0.
        2    1    3    3  502    0 -0.12935237413E+04  0.55888342134E+03  0.20489698438E+04  0.24867311412E+04  0.25500000920E-02 0. -1.
       -2    1    3    3    0  502  0.12935237413E+04 -0.55888342134E+03 -0.69148369525E+03  0.15696190776E+04  0.25500000920E-02 0.  1.
</event>
<event>
 5   0  0.6043512E-07  0.4040232E+04  0.7818609E-02  0.7996479E-01
       -2   -1    0    0    0  501  0.00000000000E+00  0.00000000000E+00  0.16318396032E+04  0.16318396032E+04  0.25500000920E-02 0. -1.
        2   -1    0    0  501    0  0.00000000000E+00  0.00000000000E+00 -0.25007777097E+04  0.25007777097E+04  0.25500000920E-02 0.  1.
    10030    2    1    2    0    0  0.00000000000E+00  0.00000000000E+00 -0.86893810648E+03  0.41326173129E+04  0.40402317287E+04 0.  0.
        3    1    3    3  502    0  0.13893868161E+04  0.10293232056E+04 -0.15028460916E+04  0.22909492293E+04  0.10100000352E+00 0.  1.
       -3    1    3    3    0  502 -0.13893868161E+04 -0.10293232056E+04  0.63390798511E+03  0.18416680836E+04  0.10100000352E+00 0. -1.
</event>
<event>
 5   0  0.7570277E-07  0.3881421E+04  0.7818609E-02  0.8028904E-01
       -2   -1    0    0    0  501  0.00000000000E+00  0.00000000000E+00  0.23794066910E+04  0.23794066910E+04  0.25500000920E-02 0. -1.
        2   -1    0    0  501    0  0.00000000000E+00  0.00000000000E+00 -0.15828978898E+04  0.15828978898E+04  0.25500000920E-02 0.  1.
    10030    2    1    2    0    0  0.00000000000E+00  0.00000000000E+00  0.79650880117E+03  0.39623045808E+04  0.38814213016E+04 0.  0.
        5    1    3    3  502    0  0.10876352752E+04  0.62699243294E+03  0.19090491829E+04  0.22848546728E+04  0.46999998093E+01 0. -1.
       -5    1    3    3    0  502 -0.10876352752E+04 -0.62699243294E+03 -0.11125403818E+04  0.16774499080E+04  0.46999998093E+01 0.  1.
</event>
<event>
 5   0  0.4449262E-07  0.3976596E+04  0.7818609E-02  0.8009285E-01
        2   -1    0    0  501    0  0.00000000000E+00  0.00000000000E+00  0.20996505800E+04  0.20996505800E+04  0.25500000920E-02 0. -1.
       -2   -1    0    0    0  501  0.00000000000E+00  0.00000000000E+00 -0.18828508373E+04  0.18828508373E+04  0.25500000920E-02 0.  1.
    10030    2    1    2    0    0  0.00000000000E+00  0.00000000000E+00  0.21679974270E+03  0.39825014173E+04  0.39765959576E+04 0.  0.
        1    1    3    3  502    0 -0.19607906165E+04  0.32824368827E+03  0.13819454541E+03  0.19928726736E+04  0.50400001928E-02 0. -1.
       -1    1    3    3    0  502  0.19607906165E+04 -0.32824368827E+03  0.78605197284E+02  0.19896287437E+04  0.50400001928E-02 0.  1.
</event>
<event>
 5   0  0.3579559E-07  0.3215260E+04  0.7818609E-02  0.8184799E-01
       -1   -1    0    0    0  501  0.00000000000E+00  0.00000000000E+00  0.31356247729E+04  0.31356247729E+04  0.50400001928E-02 0. -1.
        1   -1    0    0  501    0  0.00000000000E+00  0.00000000000E+00 -0.82422922316E+03  0.82422922318E+03  0.50400001928E-02 0.  1.
    10030    2    1    2    0    0  0.00000000000E+00  0.00000000000E+00  0.23113955498E+04  0.39598539961E+04  0.32152595981E+04 0.  0.
        4    1    3    3  502    0 -0.92281245048E+03 -0.12544129018E+04  0.66408630390E+03  0.16929698104E+04  0.12699999809E+01 0. -1.
       -4    1    3    3    0  502  0.92281245048E+03  0.12544129018E+04  0.16473092459E+04  0.22668841857E+04  0.12699999809E+01 0.  1.
</event>
<event>
 5   0  0.6043512E-07  0.4342248E+04  0.7818609E-02  0.7938852E-01
        2   -1    0    0  501    0  0.00000000000E+00  0.00000000000E+00  0.27421213729E+04  0.27421213729E+04  0.25500000920E-02 0. -1.
       -2   -1    0    0    0  501  0.00000000000E+00  0.00000000000E+00 -0.17190268036E+04  0.17190268036E+04  0.25500000920E-02 0.  1.
    10030    2    1    2    0    0  0.00000000000E+00  0.00000000000E+00  0.10230945692E+04  0.44611481765E+04  0.43422483295E+04 0.  0.
        3    1    3    3  502    0  0.10118321011E+04  0.18815956117E+04  0.11420949275E+03  0.21394508794E+04  0.10100000352E+00 0. -1.
       -3    1    3    3    0  502 -0.10118321011E+04 -0.18815956117E+04  0.90888507650E+03  0.23216972971E+04  0.10100000352E+00 0.  1.
</event>
<event>
 5   0  0.2401125E-07  0.3915322E+04  0.7818609E-02  0.8021850E-01
        3   -1    0    0  501    0  0.00000000000E+00  0.00000000000E+00  0.19522542510E+04  0.19522542536E+04  0.10100000352E+00 0.  1.
       -3   -1    0    0    0  501  0.00000000000E+00  0.00000000000E+00 -0.19630831888E+04  0.19630831914E+04  0.10100000352E+00 0. -1.
    10030    2    1    2    0    0  0.00000000000E+00  0.00000000000E+00 -0.10828937827E+02  0.39153374450E+04  0.39153224698E+04 0.  0.
        2    1    3    3  502    0  0.67989302905E+03  0.18344997180E+04  0.63822810413E+02  0.19574772278E+04  0.25500000920E-02 0. -1.
       -2    1    3    3    0  502 -0.67989302905E+03 -0.18344997180E+04 -0.74651748240E+02  0.19578602172E+04  0.25500000920E-02 0.  1.
</event>
<event>
 5   0  0.2713405E-07  0.2430925E+04  0.7818609E-02  0.8428016E-01
       -1   -1    0    0    0  501  0.00000000000E+00  0.00000000000E+00  0.88552177653E+03  0.88552177654E+03  0.50400001928E-02 0.  1.
        1   -1    0    0  501    0  0.00000000000E+00  0.00000000000E+00 -0.16683367949E+04  0.16683367949E+04  0.50400001928E-02 0. -1.
    10030    2    1    2    0    0  0.00000000000E+00  0.00000000000E+00 -0.78281501835E+03  0.25538585714E+04  0.24309245669E+04 0.  0.
        1    1    3    3  502    0 -0.35541928121E+03 -0.77128051944E+03  0.52213745827E+03  0.99690723263E+03  0.50400001928E-02 0.  1.
       -1    1    3    3    0  502  0.35541928121E+03  0.77128051944E+03 -0.13049524766E+04  0.15569513388E+04  0.50400001928E-02 0. -1.
</event>
<event>
 5   0  0.2601252E-07  0.3987242E+04  0.7818609E-02  0.8007125E-01
        1   -1    0    0  501    0  0.00000000000E+00  0.00000000000E+00  0.21364655235E+04  0.21364655235E+04  0.50400001928E-02 0.  1.
       -1   -1    0    0    0  501  0.00000000000E+00  0.00000000000E+00 -0.18603268166E+04  0.18603268166E+04  0.50400001928E-02 0. -1.
    10030    2    1    2    0    0  0.00000000000E+00  0.00000000000E+00  0.27613870694E+03  0.39967923401E+04  0.39872417063E+04 0.  0.
        3    1    3    3  502    0  0.92750776925E+03 -0.63405280217E+03 -0.15127605112E+04  0.18843402008E+04  0.10100000352E+00 0. -1.
       -3    1    3    3    0  502 -0.92750776925E+03  0.63405280217E+03  0.17888992181E+04  0.21124521393E+04  0.10100000352E+00 0.  1.
</event>
<event>
 5   0  0.6043512E-07  0.3684502E+04  0.7818609E-02  0.8071405E-01
       -2   -1    0    0    0  501  0.00000000000E+00  0.00000000000E+00  0.21478286780E+04  0.21478286780E+04  0.25500000920E-02 0. -1.
        2   -1    0    0  501    0  0.00000000000E+00  0.00000000000E+00 -0.15801489047E+04  0.15801489047E+04  0.25500000920E-02 0.  1.
    10030    2    1    2    0    0  0.00000000000E+00  0.00000000000E+00  0.56767977331E+03  0.37279775827E+04  0.36845022095E+04 0.  0.
        3    1    3    3  502    0 -0.81219618596E+02  0.18403084038E+04  0.25995037882E+03  0.18603510038E+04  0.10100000352E+00 0.  1.
       -3    1    3    3    0  502  0.81219618596E+02 -0.18403084038E+04  0.30772939450E+03  0.18676265789E+04  0.10100000352E+00 0. -1.
</event>
<event>
 5   0  0.7256473E-07  0.2317623E+04  0.7818609E-02  0.8471005E-01
        2   -1    0    0  501    0  0.00000000000E+00  0.00000000000E+00  0.12363715701E+04  0.12363715701E+04  0.25500000920E-02 0.  1.
       -2   -1    0    0    0  501  0.00000000000E+00  0.00000000000E+00 -0.10861172426E+04  0.10861172426E+04  0.25500000920E-02 0. -1.
    10030    2    1    2    0    0  0.00000000000E+00  0.00000000000E+00  0.15025432747E+03  0.23224888127E+04  0.23176233348E+04 0.  0.
        4    1    3    3  502    0 -0.38435477127E+03  0.61388965533E+03  0.98159997603E+03  0.12198890216E+04  0.12699999809E+01 0.  1.
       -4    1    3    3    0  502  0.38435477127E+03 -0.61388965533E+03 -0.83134564856E+03  0.11025997911E+04  0.12699999809E+01 0. -1.
</event>
<event>
 5   0  0.4449262E-07  0.4032149E+04  0.7818609E-02  0.7998092E-01
        2   -1    0    0  501    0  0.00000000000E+00  0.00000000000E+00  0.14586293464E+04  0.14586293464E+04  0.25500000920E-02 0. -1.
       -2   -1    0    0    0  501  0.00000000000E+00  0.00000000000E+00 -0.27865583117E+04  0.27865583117E+04  0.25500000920E-02 0.  1.
    10030    2    1    2    0    0  0.00000000000E+00  0.00000000000E+00 -0.13279289653E+04  0.42451876581E+04  0.40321486723E+04 0.  0.
        1    1    3    3  502    0 -0.14048109719E+04  0.14405349992E+04 -0.79680865371E+03  0.21641485580E+04  0.50400001928E-02 0.  1.
       -1    1    3    3    0  502  0.14048109719E+04 -0.14405349992E+04 -0.53112031156E+03  0.20810391001E+04  0.50400001928E-02 0. -1.
</event>
<event>
 5   0  0.3579559E-07  0.3919975E+04  0.7818609E-02  0.8020888E-01
        1   -1    0    0  501    0  0.00000000000E+00  0.00000000000E+00  0.18533100070E+04  0.18533100071E+04  0.50400001928E-02 0. -1.
       -1   -1    0    0    0  501  0.00000000000E+00  0.00000000000E+00 -0.20728051572E+04  0.20728051572E+04  0.50400001928E-02 0.  1.
    10030    2    1    2    0    0  0.00000000000E+00  0.00000000000E+00 -0.21949515013E+03  0.39261151642E+04  0.39199747655E+04 0.  0.
        4    1    3    3  502    0 -0.11771149684E+04 -0.90333367788E+03 -0.13923540195E+04  0.20347635516E+04  0.12699999809E+01 0.  1.
       -4    1    3    3    0  502  0.11771149684E+04  0.90333367788E+03  0.11728588693E+04  0.18913516127E+04  0.12699999809E+01 0. -1.
</event>
<event>
 5   0  0.7570277E-07  0.3808927E+04  0.7818609E-02  0.8044242E-01
        2   -1    0    0  501    0  0.00000000000E+00  0.00000000000E+00  0.10345622793E+04  0.10345622793E+04  0.25500000920E-02 0. -1.
       -2   -1    0    0    0  501  0.00000000000E+00  0.00000000000E+00 -0.35058121066E+04  0.35058121066E+04  0.25500000920E-02 0.  1.
    10030    2    1    2    0    0  0.00000000000E+00  0.00000000000E+00 -0.24712498273E+04  0.45403743859E+04  0.38089268640E+04 0.  0.
        5    1    3    3  502    0 -0.20683827232E+03 -0.16943995086E+04 -0.22894646004E+03  0.17222689503E+04  0.46999998093E+01 0. -1.
       -5    1    3    3    0  502  0.20683827232E+03  0.16943995086E+04 -0.22423033673E+04  0.28181054357E+04  0.46999998093E+01 0.  1.
</event>
<event>
 5   0  0.2401125E-07  0.3990375E+04  0.7818609E-02  0.8006491E-01
        1   -1    0    0  501    0  0.00000000000E+00  0.00000000000E+00  0.21264803359E+04  0.21264803359E+04  0.50400001928E-02 0.  1.
       -1   -1    0    0    0  501  0.00000000000E+00  0.00000000000E+00 -0.18720008790E+04  0.18720008790E+04  0.50400001928E-02 0. -1.
    10030    2    1    2    0    0  0.00000000000E+00  0.00000000000E+00  0.25447945692E+03  0.39984812149E+04  0.39903749487E+04 0.  0.
        5    1    3    3  502    0 -0.17407438332E+03 -0.16814855187E+04  0.11891356908E+04  0.20668239455E+04  0.46999998093E+01 0.  1.
       -5    1    3    3    0  502  0.17407438332E+03  0.16814855187E+04 -0.93465623389E+03  0.19316572693E+04  0.46999998093E+01 0. -1.
</event>
<event>
 5   0  0.2647879E-07  0.2054163E+04  0.7818609E-02  0.8581708E-01
       -1   -1    0    0    0  501  0.00000000000E+00  0.00000000000E+00  0.13887840216E+04  0.13887840216E+04  0.50400001928E-02 0.  1.
        1   -1    0    0  501    0  0.00000000000E+00  0.00000000000E+00 -0.75958253935E+03  0.75958253937E+03  0.50400001928E-02 0. -1.
    10030    2    1    2    0    0  0.00000000000E+00  0.00000000000E+00  0.62920148225E+03  0.21483665610E+04  0.20541626944E+04 0.  0.
        2    1    3    3  502    0  0.31786777533E+03  0.51080379220E+03  0.11852034241E+04  0.13291604843E+04  0.25500000920E-02 0.  1.
       -2    1    3    3    0  502 -0.31786777533E+03 -0.51080379220E+03 -0.55600194180E+03  0.81920607665E+03  0.25500000920E-02 0. -1.
</event>
<event>
 5   0  0.7570277E-07  0.3902938E+04  0.7818609E-02  0.8024418E-01
       -2   -1    0    0    0  501  0.00000000000E+00  0.00000000000E+00  0.20460028172E+04  0.20460028172E+04  0.25500000920E-02 0. -1.
        2   -1    0    0  501    0  0.00000000000E+00  0.00000000000E+00 -0.18613031780E+04  0.18613031780E+04  0.25500000920E-02 0.  1.
    10030    2    1    2    0    0  0.00000000000E+00  0.00000000000E+00  0.18469963915E+03  0.39073059952E+04  0.39029381476E+04 0.  0.
        5    1    3    3  502    0 -0.37439109880E+03  0.38042181200E+03  0.19715013407E+04  0.20424811079E+04  0.46999998093E+01 0. -1.
       -5    1    3    3    0  502  0.37439109880E+03 -0.38042181200E+03 -0.17868017015E+04  0.18648248873E+04  0.46999998093E+01 0.  1.
</event>
<event>
 5   0  0.2601252E-07  0.3821586E+04  0.7818609E-02  0.8041538E-01
       -1   -1    0    0    0  501  0.00000000000E+00  0.00000000000E+00  0.13575832642E+04  0.13575832642E+04  0.50400001928E-02 0.  1.
        1   -1    0    0  501    0  0.00000000000E+00  0.00000000000E+00 -0.26894337536E+04  0.26894337536E+04  0.50400001928E-02 0. -1.
    10030    2    1    2    0    0  0.00000000000E+00  0.00000000000E+00 -0.13318504894E+04  0.40470170178E+04  0.38215861912E+04 0.  0.
        3    1    3    3  502    0  0.66410907879E+03 -0.99742877468E+03  0.91023480228E+03  0.15048031215E+04  0.10100000352E+00 0.  1.
       -3    1    3    3    0  502 -0.66410907879E+03  0.99742877468E+03 -0.22420852917E+04  0.25422138963E+04  0.10100000352E+00 0. -1.
</event>
<event>
 5   0  0.4449262E-07  0.3866022E+04  0.7818609E-02  0.8032133E-01
       -2   -1    0    0    0  501  0.00000000000E+00  0.00000000000E+00  0.27235352906E+04  0.27235352906E+04  0.25500000920E-02 0.  1.
        2   -1    0    0  501    0  0.00000000000E+00  0.00000000000E+00 -0.13719417076E+04  0.13719417076E+04  0.25500000920E-02 0. -1.
    10030    2    1    2    0    0  0.00000000000E+00  0.00000000000E+00  0.13515935830E+04  0.40954769982E+04  0.38660220678E+04 0.  0.
        1    1    3    3  502    0 -0.16443874617E+04  0.20645862325E+03  0.17297832429E+04  0.23955762051E+04  0.50400001928E-02 0.  1.
       -1    1    3    3    0  502  0.16443874617E+04 -0.20645862325E+03 -0.37818965994E+03  0.16999007930E+04  0.50400001928E-02 0. -1.
</event>
<event>
 5   0  0.2601252E-07  0.1965571E+04  0.7818609E-02  0.8622889E-01
        1   -1    0    0  501    0  0.00000000000E+00  0.00000000000E+00  0.15877724500E+04  0.15877724500E+04  0.50400001928E-02 0.  1.
       -1   -1    0    0    0  501  0.00000000000E+00  0.00000000000E+00 -0.60831569458E+03  0.60831569460E+03  0.50400001928E-02 0. -1.
    10030    2    1    2    0    0  0.00000000000E+00  0.00000000000E+00  0.97945675538E+03  0.21960881446E+04  0.19655705541E+04 0.  0.
        3    1    3    3  502    0  0.34556080552E+02 -0.68546354534E+03 -0.29619726582E+03  0.74752071890E+03  0.10100000352E+00 0. -1.
       -3    1    3    3    0  502 -0.34556080552E+02  0.68546354534E+03  0.12756540212E+04  0.14485674257E+04  0.10100000352E+00 0.  1.
</event>
<event>
 5   0  0.5161550E-07  0.2923460E+04  0.7818609E-02  0.8265932E-01
        2   -1    0    0  501    0  0.00000000000E+00  0.00000000000E+00  0.13437517894E+04  0.13437517894E+04  0.25500000920E-02 0. -1.
       -2   -1    0    0    0  501  0.00000000000E+00  0.00000000000E+00 -0.15900659517E+04  0.15900659517E+04  0.25500000920E-02 0.  1.
    10030    2    1    2    0    0  0.00000000000E+00  0.00000000000E+00 -0.24631416231E+03  0.29338177410E+04  0.29234595723E+04 0.  0.
        2    1    3    3  502    0  0.56965197021E+03 -0.28819179508E+03 -0.14427670944E+04  0.15776992003E+04  0.25500000920E-02 0.  1.
       -2    1    3    3    0  502 -0.56965197021E+03  0.28819179508E+03  0.11964529321E+04  0.13561185407E+04  0.25500000920E-02 0. -1.
</event>
<event>
 5   0  0.8702261E-07  0.1993003E+04  0.7818609E-02  0.8609899E-01
       -2   -1    0    0    0  501  0.00000000000E+00  0.00000000000E+00  0.43575894184E+03  0.43575894185E+03  0.25500000920E-02 0. -1.
        2   -1    0    0  501    0  0.00000000000E+00  0.00000000000E+00 -0.22788176452E+04  0.22788176452E+04  0.25500000920E-02 0.  1.
    10030    2    1    2    0    0  0.00000000000E+00  0.00000000000E+00 -0.18430587033E+04  0.27145765870E+04  0.19930029260E+04 0.  0.
        5    1    3    3  502    0 -0.17506372547E+03 -0.21285850345E+03  0.38280099290E+03  0.47171468138E+03  0.46999998093E+01 0. -1.
       -5    1    3    3    0  502  0.17506372547E+03  0.21285850345E+03 -0.22258596962E+04  0.22428619056E+04  0.46999998093E+01 0.  1.
</event>
<event>
 5   0  0.4449262E-07  0.4245534E+04  0.7818609E-02  0.7956767E-01
       -2   -1    0    0    0  501  0.00000000000E+00  0.00000000000E+00  0.21682601090E+04  0.21682601090E+04  0.25500000920E-02 0.  1.
        2   -1    0    0  501    0  0.00000000000E+00  0.00000000000E+00 -0.20782282552E+04  0.20782282552E+04  0.25500000920E-02 0. -1.
    10030    2    1    2    0    0  0.00000000000E+00  0.00000000000E+00  0.90031853785E+02  0.42464883643E+04  0.42455338525E+04 0.  0.
        1    1    3    3  502    0  0.26367778819E+02 -0.13120545539E+04 -0.16238786086E+04  0.20878611419E+04  0.50400001928E-02 0. -1.
       -1    1    3    3    0  502 -0.26367778819E+02  0.13120545539E+04  0.17139104624E+04  0.21586272224E+04  0.50400001928E-02 0.  1.
</event>
<event>
 5   0  0.3579559E-07  0.3941122E+04  0.7818609E-02  0.8016531E-01
       -1   -1    0    0    0  501  0.00000000000E+00  0.00000000000E+00  0.12892258149E+04  0.12892258149E+04  0.50400001928E-02 0. -1.
        1   -1    0    0  501    0  0.00000000000E+00  0.00000000000E+00 -0.30119708307E+04  0.30119708307E+04  0.50400001928E-02 0.  1.
    10030    2    1    2    0    0  0.00000000000E+00  0.00000000000E+00 -0.17227450157E+04  0.43011966456E+04  0.39411219462E+04 0.  0.
        4    1    3    3  502    0 -0.48978774991E+03  0.15441063038E+04 -0.20859157281E+04  0.26410608389E+04  0.12699999809E+01 0.  1.
       -4    1    3    3    0  502  0.48978774991E+03 -0.15441063038E+04  0.36317071236E+03  0.16601358067E+04  0.12699999809E+01 0. -1.
</event>
<event>
 5   0  0.4449262E-07  0.2829616E+04  0.7818609E-02  0.8294132E-01
       -2   -1    0    0    0  501  0.00000000000E+00  0.00000000000E+00  0.10677330953E+04  0.10677330953E+04  0.25500000920E-02 0. -1.
        2   -1    0    0  501    0  0.00000000000E+00  0.00000000000E+00 -0.18747019742E+04  0.18747019742E+04  0.25500000920E-02 0.  1.
    10030    2    1    2    0    0  0.00000000000E+00  0.00000000000E+00 -0.80696887890E+03  0.29424350696E+04  0.28296157631E+04 0.  0.
        1    1    3    3  502    0  0.63469559618E+03 -0.71786799942E+03 -0.14859038176E+04  0.17680732789E+04  0.50400001928E-02 0.  1.
       -1    1    3    3    0  502 -0.63469559618E+03  0.71786799942E+03  0.67893493868E+03  0.11743617907E+04  0.50400001928E-02 0. -1.
</event>
<event>
 5   0  0.2601252E-07  0.3890927E+04  0.7818609E-02  0.8026919E-01
       -1   -1    0    0    0  501  0.00000000000E+00  0.00000000000E+00  0.14927894419E+04  0.14927894419E+04  0.50400001928E-02 0.  1.
        1   -1    0    0  501    0  0.00000000000E+00  0.00000000000E+00 -0.25354067558E+04  0.25354067558E+04  0.50400001928E-02 0. -1.
    10030    2    1    2    0    0  0.00000000000E+00  0.00000000000E+00 -0.10426173139E+04  0.40281961976E+04  0.38909271059E+04 0.  0.
        3    1    3    3  502    0 -0.12241105922E+04  0.14596829095E+04 -0.92982766507E+03  0.21198350019E+04  0.10100000352E+00 0. -1.
       -3    1    3    3    0  502  0.12241105922E+04 -0.14596829095E+04 -0.11278964881E+03  0.19083611957E+04  0.10100000352E+00 0.  1.
</event>
<event>
 5   0  0.2997217E-07  0.2183564E+04  0.7818609E-02  0.8525301E-01
       -1   -1    0    0    0  501  0.00000000000E+00  0.00000000000E+00  0.78872113172E+03  0.78872113173E+03  0.50400001928E-02 0. -1.
        1   -1    0    0  501    0  0.00000000000E+00  0.00000000000E+00 -0.15112915060E+04  0.15112915060E+04  0.50400001928E-02 0.  1.
    10030    2    1    2    0    0  0.00000000000E+00  0.00000000000E+00 -0.72257037427E+03  0.23000126377E+04  0.21835636441E+04 0.  0.
        3    1    3    3  502    0 -0.39096689414E+03  0.43608946573E+03  0.60924170358E+03  0.84510626433E+03  0.10100000352E+00 0. -1.
       -3    1    3    3    0  502  0.39096689414E+03 -0.43608946573E+03 -0.13318120779E+04  0.14549063734E+04  0.10100000352E+00 0.  1.
</event>
<event>
 5   0  0.2713405E-07  0.4223932E+04  0.7818609E-02  0.7960835E-01
       -1   -1    0    0    0  501  0.00000000000E+00  0.00000000000E+00  0.18908149665E+04  0.18908149665E+04  0.50400001928E-02 0.  1.
        1   -1    0    0  501    0  0.00000000000E+00  0.00000000000E+00 -0.23589833725E+04  0.23589833725E+04  0.50400001928E-02 0. -1.
    10030    2    1    2    0    0  0.00000000000E+00  0.00000000000E+00 -0.46816840604E+03  0.42497983390E+04  0.42239323226E+04 0.  0.
        1    1    3    3  502    0 -0.12876714153E+01  0.15580411481E+04 -0.16686158948E+04  0.22829307658E+04  0.50400001928E-02 0. -1.
       -1    1    3    3    0  502  0.12876714153E+01 -0.15580411481E+04  0.12004474887E+04  0.19668675732E+04  0.50400001928E-02 0.  1.
</event>
<event>
 5   0  0.6043512E-07  0.4027217E+04  0.7818609E-02  0.7999078E-01
       -2   -1    0    0    0  501  0.00000000000E+00  0.00000000000E+00  0.17191125958E+04  0.17191125958E+04  0.25500000920E-02 0.  1.
        2   -1    0    0  501    0  0.00000000000E+00  0.00000000000E+00 -0.23585536572E+04  0.23585536572E+04  0.25500000920E-02 0. -1.
    10030    2    1    2    0    0  0.00000000000E+00  0.00000000000E+00 -0.63944106139E+03  0.40776662530E+04  0.40272170539E+04 0.  0.
        3    1    3    3  502    0  0.55631220620E+03 -0.54249235149E+03 -0.22006344908E+04  0.23337894923E+04  0.10100000352E+00 0. -1.
       -3    1    3    3    0  502 -0.55631220620E+03  0.54249235149E+03  0.15611934294E+04  0.17438767607E+04  0.10100000352E+00 0.  1.
</event>
<event>
 5   0  0.4449262E-07  0.3879693E+04  0.7818609E-02  0.8029266E-01
       -2   -1    0    0    0  501  0.00000000000E+00  0.00000000000E+00  0.17274305177E+04  0.17274305177E+04  0.25500000920E-02 0.  1.
        2   -1    0    0  501    0  0.00000000000E+00  0.00000000000E+00 -0.21783820126E+04  0.21783820126E+04  0.25500000920E-02 0. -1.
    10030    2    1    2    0    0  0.00000000000E+00  0.00000000000E+00 -0.45095149489E+03  0.39058125302E+04  0.38796925485E+04 0.  0.
        1    1    3    3  502    0 -0.83451313511E+03  0.15414680017E+03  0.15306392009E+04  0.17501513569E+04  0.50400001928E-02 0.  1.
       -1    1    3    3    0  502  0.83451313511E+03 -0.15414680017E+03 -0.19815906958E+04  0.21556611734E+04  0.50400001928E-02 0. -1.
</event>
<event>
 5   0  0.7256473E-07  0.3692060E+04  0.7818609E-02  0.8069724E-01
       -2   -1    0    0    0  501  0.00000000000E+00  0.00000000000E+00  0.16604101477E+04  0.16604101477E+04  0.25500000920E-02 0.  1.
        2   -1    0    0  501    0  0.00000000000E+00  0.00000000000E+00 -0.20524005397E+04  0.20524005397E+04  0.25500000920E-02 0. -1.
    10030    2    1    2    0    0  0.00000000000E+00  0.00000000000E+00 -0.39199039197E+03  0.37128106875E+04  0.36920599580E+04 0.  0.
        4    1    3    3  502    0  0.48428111816E+03  0.93151122520E+02 -0.19849312897E+04  0.20452772846E+04  0.12699999809E+01 0. -1.
       -4    1    3    3    0  502 -0.48428111816E+03 -0.93151122520E+02  0.15929408978E+04  0.16675334029E+04  0.12699999809E+01 0.  1.
</event>
<event>
 5   0  0.7570277E-07  0.2740765E+04  0.7818609E-02  0.8321898E-01
        2   -1    0    0  501    0  0.00000000000E+00  0.00000000000E+00  0.23348542041E+04  0.23348542041E+04  0.25500000920E-02 0. -1.
       -2   -1    0    0    0  501  0.00000000000E+00  0.00000000000E+00 -0.80431089898E+03  0.80431089898E+03  0.25500000920E-02 0.  1.
    10030    2    1    2    0    0  0.00000000000E+00  0.00000000000E+00  0.15305433051E+04  0.31391651030E+04  0.27407653558E+04 0.  0.
        5    1    3    3  502    0  0.32313442164E+03 -0.12700380583E+04  0.12241513623E+04  0.17933156922E+04  0.46999998093E+01 0.  1.
       -5    1    3    3    0  502 -0.32313442164E+03  0.12700380583E+04  0.30639194280E+03  0.13458494109E+04  0.46999998093E+01 0. -1.
</event>
<event>
 5   0  0.6043512E-07  0.4014455E+04  0.7818609E-02  0.8001637E-01
       -2   -1    0    0    0  501  0.00000000000E+00  0.00000000000E+00  0.24580813033E+04  0.24580813033E+04  0.25500000920E-02 0. -1.
        2   -1    0    0  501    0  0.00000000000E+00  0.00000000000E+00 -0.16390681102E+04  0.16390681102E+04  0.25500000920E-02 0.  1.
    10030    2    1    2    0    0  0.00000000000E+00  0.00000000000E+00  0.81901319311E+03  0.40971494136E+04  0.40144552191E+04 0.  0.
        3    1    3    3  502    0  0.29081016589E+03  0.17536070592E+03 -0.16095368397E+04  0.16449713609E+04  0.10100000352E+00 0.  1.
       -3    1    3    3    0  502 -0.29081016589E+03 -0.17536070592E+03  0.24285500328E+04  0.24521780526E+04  0.10100000352E+00 0. -1.
</event>
<event>
 5   0  0.5161550E-07  0.3034502E+04  0.7818609E-02  0.8233947E-01
       -2   -1    0    0    0  501  0.00000000000E+00  0.00000000000E+00  0.17244514433E+04  0.17244514433E+04  0.25500000920E-02 0.  1.
        2   -1    0    0  501    0  0.00000000000E+00  0.00000000000E+00 -0.13349464611E+04  0.13349464611E+04  0.25500000920E-02 0. -1.
    10030    2    1    2    0    0  0.00000000000E+00  0.00000000000E+00  0.38950498216E+03  0.30593979044E+04  0.30345018383E+04 0.  0.
        2    1    3    3  502    0 -0.88761362808E+03  0.56914339598E+03  0.12946975021E+04  0.16697376380E+04  0.25500000920E-02 0.  1.
       -2    1    3    3    0  502  0.88761362808E+03 -0.56914339598E+03 -0.90519251991E+03  0.13896602664E+04  0.25500000920E-02 0. -1.
</event>
<event>
 5   0  0.2601252E-07  0.2302662E+04  0.7818609E-02  0.8476872E-01
        1   -1    0    0  501    0  0.00000000000E+00  0.00000000000E+00  0.13815617168E+04  0.13815617168E+04  0.50400001928E-02 0. -1.
       -1   -1    0    0    0  501  0.00000000000E+00  0.00000000000E+00 -0.95946711706E+03  0.95946711707E+03  0.50400001928E-02 0.  1.
    10030    2    1    2    0    0  0.00000000000E+00  0.00000000000E+00  0.42209459969E+03  0.23410288338E+04  0.23026619704E+04 0.  0.
        3    1    3    3  502    0  0.79409183799E+03  0.33848296322E+03 -0.56349330630E+03  0.10308623962E+04  0.10100000352E+00 0.  1.
       -3    1    3    3    0  502 -0.79409183799E+03 -0.33848296322E+03  0.98558790599E+03  0.13101664376E+04  0.10100000352E+00 0. -1.
</event>
<event>
 5   0  0.2647879E-07  0.3839475E+04  0.7818609E-02  0.8037736E-01
       -1   -1    0    0    0  501  0.00000000000E+00  0.00000000000E+00  0.24466579445E+04  0.24466579445E+04  0.50400001928E-02 0.  1.
        1   -1    0    0  501    0  0.00000000000E+00  0.00000000000E+00 -0.15062960457E+04  0.15062960457E+04  0.50400001928E-02 0. -1.
    10030    2    1    2    0    0  0.00000000000E+00  0.00000000000E+00  0.94036189885E+03  0.39529539902E+04  0.38394745406E+04 0.  0.
        2    1    3    3  502    0  0.95786756249E+03  0.67408028136E+03  0.20361544511E+04  0.23490039254E+04  0.25500000920E-02 0.  1.
       -2    1    3    3    0  502 -0.95786756249E+03 -0.67408028136E+03 -0.10957925522E+04  0.16039500648E+04  0.25500000920E-02 0. -1.
</event>
<event>
 5   0  0.2713405E-07  0.4053891E+04  0.7818609E-02  0.7993762E-01
       -1   -1    0    0    0  501  0.00000000000E+00  0.00000000000E+00  0.31433402067E+04  0.31433402067E+04  0.50400001928E-02 0. -1.
        1   -1    0    0  501    0  0.00000000000E+00  0.00000000000E+00 -0.13070519096E+04  0.13070519096E+04  0.50400001928E-02 0.  1.
    10030    2    1    2    0    0  0.00000000000E+00  0.00000000000E+00  0.18362882971E+04  0.44503921163E+04  0.40538913748E+04 0.  0.
        1    1    3    3  502    0 -0.19890825561E+04 -0.38277374725E+03  0.99988225612E+03  0.22589222392E+04  0.50400001928E-02 0. -1.
       -1    1    3    3    0  502  0.19890825561E+04  0.38277374725E+03  0.83640604095E+03  0.21914698771E+04  0.50400001928E-02 0.  1.
</event>
<event>
 5   0  0.2601252E-07  0.2366504E+04  0.7818609E-02  0.8452152E-01
        1   -1    0    0  501    0  0.00000000000E+00  0.00000000000E+00  0.11334727681E+04  0.11334727681E+04  0.50400001928E-02 0. -1.
       -1   -1    0    0    0  501  0.00000000000E+00  0.00000000000E+00 -0.12352169550E+04  0.12352169550E+04  0.50400001928E-02 0.  1.
    10030    2    1    2    0    0  0.00000000000E+00  0.00000000000E+00 -0.10174418687E+03  0.23686897231E+04  0.23665035654E+04 0.  0.
        3    1    3    3  502    0 -0.15048577002E+02  0.13126076925E+03 -0.12278107603E+04  0.12348988309E+04  0.10100000352E+00 0.  1.
       -3    1    3    3    0  502  0.15048577002E+02 -0.13126076925E+03  0.11260665735E+04  0.11337908922E+04  0.10100000352E+00 0. -1.
</event>
<event>
 5   0  0.5161550E-07  0.2393862E+04  0.7818609E-02  0.8441805E-01
        2   -1    0    0  501    0  0.00000000000E+00  0.00000000000E+00  0.15846325446E+04  0.15846325446E+04  0.25500000920E-02 0. -1.
       -2   -1    0    0    0  501  0.00000000000E+00  0.00000000000E+00 -0.90408545730E+03  0.90408545730E+03  0.25500000920E-02 0.  1.
    10030    2    1    2    0    0  0.00000000000E+00  0.00000000000E+00  0.68054708733E+03  0.24887180019E+04  0.23938615154E+04 0.  0.
        2    1    3    3  502    0  0.80810631396E+03 -0.26283445978E+03 -0.53605406001E+03  0.10047247002E+04  0.25500000920E-02 0.  1.
       -2    1    3    3    0  502 -0.80810631396E+03  0.26283445978E+03  0.12166011473E+04  0.14839933017E+04  0.25500000920E-02 0. -1.
</event>
<event>
 5   0  0.5161550E-07  0.3863373E+04  0.7818609E-02  0.8032690E-01
       -2   -1    0    0    0  501  0.00000000000E+00  0.00000000000E+00  0.29014305255E+04  0.29014305255E+04  0.25500000920E-02 0.  1.
        2   -1    0    0  501    0  0.00000000000E+00  0.00000000000E+00 -0.12860594520E+04  0.12860594520E+04  0.25500000920E-02 0. -1.
    10030    2    1    2    0    0  0.00000000000E+00  0.00000000000E+00  0.16153710735E+04  0.41874899775E+04  0.38633726984E+04 0.  0.
        2    1    3    3  502    0  0.98016481466E+03 -0.15986233927E+04  0.30499623535E+03  0.18998269708E+04  0.25500000920E-02 0. -1.
       -2    1    3    3    0  502 -0.98016481466E+03  0.15986233927E+04  0.13103748381E+04  0.22876630067E+04  0.25500000920E-02 0.  1.
</event>
<event>
 5   0  0.2647879E-07  0.3906361E+04  0.7818609E-02  0.8023707E-01
       -1   -1    0    0    0  501  0.00000000000E+00  0.00000000000E+00  0.18181665917E+04  0.18181665917E+04  0.50400001928E-02 0. -1.
        1   -1    0    0  501    0  0.00000000000E+00  0.00000000000E+00 -0.20982207702E+04  0.20982207703E+04  0.50400001928E-02 0.  1.
    10030    2    1    2    0    0  0.00000000000E+00  0.00000000000E+00 -0.28005417859E+03  0.39163873619E+04  0.39063614305E+04 0.  0.
        2    1    3    3  502    0 -0.83243522172E+03 -0.29965530616E+03  0.16057557494E+04  0.18333557286E+04  0.25500000920E-02 0. -1.
       -2    1    3    3    0  502  0.83243522172E+03  0.29965530616E+03 -0.18858099280E+04  0.20830316333E+04  0.25500000920E-02 0.  1.
</event>
<event>
 5   0  0.3579559E-07  0.4021135E+04  0.7818609E-02  0.8000296E-01
       -1   -1    0    0    0  501  0.00000000000E+00  0.00000000000E+00  0.16530921746E+04  0.16530921746E+04  0.50400001928E-02 0.  1.
        1   -1    0    0  501    0  0.00000000000E+00  0.00000000000E+00 -0.24453454965E+04  0.24453454965E+04  0.50400001928E-02 0. -1.
    10030    2    1    2    0    0  0.00000000000E+00  0.00000000000E+00 -0.79225332186E+03  0.40984376711E+04  0.40211349166E+04 0.  0.
        4    1    3    3  502    0  0.45337696852E+03  0.15799390095E+04  0.78398432040E+03  0.18210960922E+04  0.12699999809E+01 0.  1.
       -4    1    3    3    0  502 -0.45337696852E+03 -0.15799390095E+04 -0.15762376423E+04  0.22773415789E+04  0.12699999809E+01 0. -1.
</event>
<event>
 5   0  0.2401125E-07  0.4677798E+04  0.7818609E-02  0.7880228E-01
       -3   -1    0    0    0  501  0.00000000000E+00  0.00000000000E+00  0.33087435138E+04  0.33087435154E+04  0.10100000352E+00 0.  1.
        3   -1    0    0  501    0  0.00000000000E+00  0.00000000000E+00 -0.16533307604E+04  0.16533307635E+04  0.10100000352E+00 0. -1.
    10030    2    1    2    0    0  0.00000000000E+00  0.00000000000E+00  0.16554127534E+04  0.49620742788E+04  0.46777975335E+04 0.  0.
        2    1    3    3  502    0  0.18165188265E+04 -0.34467280805E+03  0.23472064474E+04  0.29879621983E+04  0.25500000920E-02 0.  1.
       -2    1    3    3    0  502 -0.18165188265E+04  0.34467280805E+03 -0.69179369391E+03  0.19741120806E+04  0.25500000920E-02 0. -1.
</event>
<event>
 5   0  0.3579559E-07  0.2307856E+04  0.7818609E-02  0.8474830E-01
       -1   -1    0    0    0  501  0.00000000000E+00  0.00000000000E+00  0.19532715116E+04  0.19532715116E+04  0.50400001928E-02 0.  1.
        1   -1    0    0  501    0  0.00000000000E+00  0.00000000000E+00 -0.68170224572E+03  0.68170224573E+03  0.50400001928E-02 0. -1.
    10030    2    1    2    0    0  0.00000000000E+00  0.00000000000E+00  0.12715692659E+04  0.26349737573E+04  0.23078557806E+04 0.  0.
        4    1    3    3  502    0 -0.33530912346E+03  0.70086103371E+03 -0.33832164378E+03  0.84740872335E+03  0.12699999809E+01 0. -1.
       -4    1    3    3    0  502  0.33530912346E+03 -0.70086103371E+03  0.16098909097E+04  0.17875650340E+04  0.12699999809E+01 0.  1.
</event>
<event>
 5   0  0.2401125E-07  0.2410738E+04  0.7818609E-02  0.8435494E-01
       -1   -1    0    0    0  501  0.00000000000E+00  0.00000000000E+00  0.15650852927E+04  0.15650852927E+04  0.50400001928E-02 0. -1.
        1   -1    0    0  501    0  0.00000000000E+00  0.00000000000E+00 -0.92832933538E+03  0.92832933539E+03  0.50400001928E-02 0.  1.
    10030    2    1    2    0    0  0.00000000000E+00  0.00000000000E+00  0.63675595727E+03  0.24934146281E+04  0.24107381356E+04 0.  0.
        5    1    3    3  502    0  0.80430295716E+03  0.83095184259E+03  0.66989878709E+03  0.13364769682E+04  0.46999998093E+01 0. -1.
       -5    1    3    3    0  502 -0.80430295716E+03 -0.83095184259E+03 -0.33142829818E+02  0.11569376598E+04  0.46999998093E+01 0.  1.
</event>
<event>
 5   0  0.2401125E-07  0.3805707E+04  0.7818609E-02  0.8044931E-01
        1   -1    0    0  501    0  0.00000000000E+00  0.00000000000E+00  0.16372393843E+04  0.16372393843E+04  0.50400001928E-02 0.  1.
       -1   -1    0    0    0  501  0.00000000000E+00  0.00000000000E+00 -0.22115594828E+04  0.22115594828E+04  0.50400001928E-02 0. -1.
    10030    2    1    2    0    0  0.00000000000E+00  0.00000000000E+00 -0.57432009845E+03  0.38487988671E+04  0.38057074433E+04 0.  0.
        5    1    3    3  502    0 -0.33893381067E+02  0.75177957244E+03 -0.20546644936E+04  0.21881475175E+04  0.46999998093E+01 0. -1.
       -5    1    3    3    0  502  0.33893381067E+02 -0.75177957244E+03  0.14803443952E+04  0.16606513497E+04  0.46999998093E+01 0.  1.
</event>
<event>
 5   0  0.2601252E-07  0.2552356E+04  0.7818609E-02  0.8384567E-01
        1   -1    0    0  501    0  0.00000000000E+00  0.00000000000E+00  0.10321174002E+04  0.10321174002E+04  0.50400001928E-02 0. -1.
       -1   -1    0    0    0  501  0.00000000000E+00  0.00000000000E+00 -0.15779511520E+04  0.15779511521E+04  0.50400001928E-02 0.  1.
    10030    2    1    2    0    0  0.00000000000E+00  0.00000000000E+00 -0.54583375183E+03  0.26100685523E+04  0.25523564334E+04 0.  0.
        3    1    3    3  502    0  0.34410707581E+03 -0.40941880995E+03 -0.14578217616E+04  0.15528289476E+04  0.10100000352E+00 0.  1.
       -3    1    3    3    0  502 -0.34410707581E+03  0.40941880995E+03  0.91198800979E+03  0.10572396047E+04  0.10100000352E+00 0. -1.
</event>
<event>
 5   0  0.7256473E-07  0.2784541E+04  0.7818609E-02  0.8308084E-01
       -2   -1    0    0    0  501  0.00000000000E+00  0.00000000000E+00  0.12484081093E+04  0.12484081093E+04  0.25500000920E-02 0.  1.
        2   -1    0    0  501    0  0.00000000000E+00  0.00000000000E+00 -0.15527109161E+04  0.15527109161E+04  0.25500000920E-02 0. -1.
    10030    2    1    2    0    0  0.00000000000E+00  0.00000000000E+00 -0.30430280675E+03  0.28011190254E+04  0.27845408232E+04 0.  0.
        4    1    3    3  502    0  0.44145563619E+03 -0.30351198134E+03  0.11405725082E+04  0.12601229546E+04  0.12699999809E+01 0.  1.
       -4    1    3    3    0  502 -0.44145563619E+03  0.30351198134E+03 -0.14448753149E+04  0.15409960707E+04  0.12699999809E+01 0. -1.
</event>
<event>
 5   0  0.4449262E-07  0.2396596E+04  0.7818609E-02  0.8440779E-01
       -2   -1    0    0    0  501  0.00000000000E+00  0.00000000000E+00  0.91570673589E+03  0.91570673589E+03  0.25500000920E-02 0.  1.
        2   -1    0    0  501    0  0.00000000000E+00  0.00000000000E+00 -0.15680988554E+04  0.15680988554E+04  0.25500000920E-02 0. -1.
    10030    2    1    2    0    0  0.00000000000E+00  0.00000000000E+00 -0.65239211952E+03  0.24838055913E+04  0.23965964904E+04 0.  0.
        1    1    3    3  502    0  0.53274631510E+03  0.27063187407E+03 -0.14026734498E+04  0.15246485019E+04  0.50400001928E-02 0. -1.
       -1    1    3    3    0  502 -0.53274631510E+03 -0.27063187407E+03  0.75028133030E+03  0.95915708940E+03  0.50400001928E-02 0.  1.
</event>
<event>
 5   0  0.4449262E-07  0.4006358E+04  0.7818609E-02  0.8003265E-01
       -2   -1    0    0    0  501  0.00000000000E+00  0.00000000000E+00  0.15408389887E+04  0.15408389887E+04  0.25500000920E-02 0. -1.
        2   -1    0    0  501    0  0.00000000000E+00  0.00000000000E+00 -0.26042479971E+04  0.26042479971E+04  0.25500000920E-02 0.  1.
    10030    2    1    2    0    0  0.00000000000E+00  0.00000000000E+00 -0.10634090084E+04  0.41450869858E+04  0.40063583715E+04 0.  0.
        1    1    3    3  502    0  0.97999513707E+03 -0.17434527323E+04 -0.41506686599E+03  0.20426204742E+04  0.50400001928E-02 0. -1.
       -1    1    3    3    0  502 -0.97999513707E+03  0.17434527323E+04 -0.64834214239E+03  0.21024665115E+04  0.50400001928E-02 0.  1.
</event>
<event>
 5   0  0.2401125E-07  0.4340858E+04  0.7818609E-02  0.7939106E-01
        1   -1    0    0  501    0  0.00000000000E+00  0.00000000000E+00  0.19311237538E+04  0.19311237538E+04  0.50400001928E-02 0.  1.
       -1   -1    0    0    0  501  0.00000000000E+00  0.00000000000E+00 -0.24393885262E+04  0.24393885262E+04  0.50400001928E-02 0. -1.
    10030    2    1    2    0    0  0.00000000000E+00  0.00000000000E+00 -0.50826477243E+03  0.43705122800E+04  0.43408575778E+04 0.  0.
        5    1    3    3  502    0  0.19974685086E+04 -0.41681655123E+03 -0.99886284805E+03  0.22718638955E+04  0.46999998093E+01 0.  1.
       -5    1    3    3    0  502 -0.19974685086E+04  0.41681655123E+03  0.49059807563E+03  0.20986483846E+04  0.46999998093E+01 0. -1.
</event>
<event>
 5   0  0.4449262E-07  0.4014784E+04  0.7818609E-02  0.8001571E-01
        2   -1    0    0  501    0  0.00000000000E+00  0.00000000000E+00  0.22986673913E+04  0.22986673913E+04  0.25500000920E-02 0.  1.
       -2   -1    0    0    0  501  0.00000000000E+00  0.00000000000E+00 -0.17530254285E+04  0.17530254285E+04  0.25500000920E-02 0. -1.
    10030    2    1    2    0    0  0.00000000000E+00  0.00000000000E+00  0.54564196279E+03  0.40516928198E+04  0.40147838739E+04 0.  0.
        1    1    3    3  502    0 -0.82523361378E+03  0.10944216204E+04 -0.12072403917E+04  0.18265263655E+04  0.50400001928E-02 0. -1.
       -1    1    3    3    0  502  0.82523361378E+03 -0.10944216204E+04  0.17528823545E+04  0.22251664543E+04  0.50400001928E-02 0.  1.
</event>
<event>
 5   0  0.6043512E-07  0.3940600E+04  0.7818609E-02  0.8016638E-01
       -2   -1    0    0    0  501  0.00000000000E+00  0.00000000000E+00  0.21475052581E+04  0.21475052581E+04  0.25500000920E-02 0. -1.
        2   -1    0    0  501    0  0.00000000000E+00  0.00000000000E+00 -0.18077172762E+04  0.18077172762E+04  0.25500000920E-02 0.  1.
    10030    2    1    2    0    0  0.00000000000E+00  0.00000000000E+00  0.33978798191E+03  0.39552225344E+04  0.39406001350E+04 0.  0.
        3    1    3    3  502    0 -0.99841349919E+03  0.95683798522E+03  0.15785667958E+04  0.20986285008E+04  0.10100000352E+00 0. -1.
       -3    1    3    3    0  502  0.99841349919E+03 -0.95683798522E+03 -0.12387788139E+04  0.18565940335E+04  0.10100000352E+00 0.  1.
</event>
<event>
 5   0  0.6043512E-07  0.2337894E+04  0.7818609E-02  0.8463128E-01
        2   -1    0    0  501    0  0.00000000000E+00  0.00000000000E+00  0.10132415319E+04  0.10132415319E+04  0.25500000920E-02 0. -1.
       -2   -1    0    0    0  501  0.00000000000E+00  0.00000000000E+00 -0.13485797623E+04  0.13485797623E+04  0.25500000920E-02 0.  1.
    10030    2    1    2    0    0  0.00000000000E+00  0.00000000000E+00 -0.33533823046E+03  0.23618212942E+04  0.23378939448E+04 0.  0.
        3    1    3    3  502    0  0.88951672864E+03 -0.61673691055E+03 -0.61358508479E+03  0.12442230885E+04  0.10100000352E+00 0.  1.
       -3    1    3    3    0  502 -0.88951672864E+03  0.61673691055E+03  0.27824685433E+03  0.11175982058E+04  0.10100000352E+00 0. -1.
</event>
<event>
 5   0  0.2713405E-07  0.3993632E+04  0.7818609E-02  0.8005832E-01
       -1   -1    0    0    0  501  0.00000000000E+00  0.00000000000E+00  0.23915886711E+04  0.23915886711E+04  0.50400001928E-02 0.  1.
        1   -1    0    0  501    0  0.00000000000E+00  0.00000000000E+00 -0.16672071092E+04  0.16672071092E+04  0.50400001928E-02 0. -1.
    10030    2    1    2    0    0  0.00000000000E+00  0.00000000000E+00  0.72438156188E+03  0.40587957803E+04  0.39936317480E+04 0.  0.
        1    1    3    3  502    0 -0.92595244419E+03  0.17034973121E+04  0.84745698695E+03  0.21160043398E+04  0.50400001928E-02 0.  1.
       -1    1    3    3    0  502  0.92595244419E+03 -0.17034973121E+04 -0.12307542507E+03  0.19427914405E+04  0.50400001928E-02 0. -1.
</event>
<event>
 5   0  0.7256473E-07  0.3905661E+04  0.7818609E-02  0.8023853E-01
        2   -1    0    0  501    0  0.00000000000E+00  0.00000000000E+00  0.19407849754E+04  0.19407849754E+04  0.25500000920E-02 0.  1.
       -2   -1    0    0    0  501  0.00000000000E+00  0.00000000000E+00 -0.19649508095E+04  0.19649508095E+04  0.25500000920E-02 0. -1.
    10030    2    1    2    0    0  0.00000000000E+00  0.00000000000E+00 -0.24165834140E+02  0.39057357849E+04  0.39056610239E+04 0.  0.
        4    1    3    3  502    0  0.11046515754E+04  0.32463483016E+03 -0.15894217411E+04  0.19626273105E+04  0.12699999809E+01 0. -1.
       -4    1    3    3    0  502 -0.11046515754E+04 -0.32463483016E+03  0.15652559070E+04  0.19431084744E+04  0.12699999809E+01 0.  1.
</event>
<event>
 5   0  0.2713405E-07  0.2070884E+04  0.7818609E-02  0.8574179E-01
        1   -1    0    0  501    0  0.00000000000E+00  0.00000000000E+00  0.13428308448E+04  0.13428308448E+04  0.50400001928E-02 0.  1.
       -1   -1    0    0    0  501  0.00000000000E+00  0.00000000000E+00 -0.79841774919E+03  0.79841774921E+03  0.50400001928E-02 0. -1.
    10030    2    1    2    0    0  0.00000000000E+00  0.00000000000E+00  0.54441309562E+03  0.21412485940E+04  0.20708838506E+04 0.  0.
        1    1    3    3  502    0  0.17667548593E+03 -0.34395664933E+03 -0.72096137013E+03  0.81811105676E+03  0.50400001928E-02 0. -1.
       -1    1    3    3    0  502 -0.17667548593E+03  0.34395664933E+03  0.12653744657E+04  0.13231375373E+04  0.50400001928E-02 0.  1.
</event>
<event>
 5   0  0.2401125E-07  0.4016114E+04  0.7818609E-02  0.8001304E-01
       -1   -1    0    0    0  501  0.00000000000E+00  0.00000000000E+00  0.18080936148E+04  0.18080936148E+04  0.50400001928E-02 0. -1.
        1   -1    0    0  501    0  0.00000000000E+00  0.00000000000E+00 -0.22301351676E+04  0.22301351676E+04  0.50400001928E-02 0.  1.
    10030    2    1    2    0    0  0.00000000000E+00  0.00000000000E+00 -0.42204155282E+03  0.40382287824E+04  0.40161141202E+04 0.  0.
        5    1    3    3  502    0 -0.42281343126E+03 -0.30772734036E+02  0.17625794244E+04  0.18128503734E+04  0.46999998093E+01 0. -1.
       -5    1    3    3    0  502  0.42281343126E+03  0.30772734036E+02 -0.21846209773E+04  0.22253784090E+04  0.46999998093E+01 0.  1.
</event>
<event>
 5   0  0.7570277E-07  0.3691034E+04  0.7818609E-02  0.8069952E-01
       -2   -1    0    0    0  501  0.00000000000E+00  0.00000000000E+00  0.16027775370E+04  0.16027775370E+04  0.25500000920E-02 0. -1.
        2   -1    0    0  501    0  0.00000000000E+00  0.00000000000E+00 -0.21250193171E+04  0.21250193171E+04  0.25500000920E-02 0.  1.
    10030    2    1    2    0    0  0.00000000000E+00  0.00000000000E+00 -0.52224178004E+03  0.37277968541E+04  0.36910341246E+04 0.  0.
        5    1    3    3  502    0  0.13562633253E+04 -0.59919909191E+02  0.10014788010E+04  0.16870158511E+04  0.46999998093E+01 0. -1.
       -5    1    3    3    0  502 -0.13562633253E+04  0.59919909191E+02 -0.15237205811E+04  0.20407810030E+04  0.46999998093E+01 0.  1.
</event>
<event>
 5   0  0.2647879E-07  0.2449888E+04  0.7818609E-02  0.8421059E-01
       -1   -1    0    0    0  501  0.00000000000E+00  0.00000000000E+00  0.12980760236E+04  0.12980760236E+04  0.50400001928E-02 0. -1.
        1   -1    0    0  501    0  0.00000000000E+00  0.00000000000E+00 -0.11559321982E+04  0.11559321982E+04  0.50400001928E-02 0.  1.
    10030    2    1    2    0    0  0.00000000000E+00  0.00000000000E+00  0.14214382539E+03  0.24540082218E+04  0.24498880557E+04 0.  0.
        2    1    3    3  502    0  0.42262434002E+03  0.10988877341E+04  0.40975633675E+03  0.12466217712E+04  0.25500000920E-02 0. -1.
       -2    1    3    3    0  502 -0.42262434002E+03 -0.10988877341E+04 -0.26761251136E+03  0.12073864506E+04  0.25500000920E-02 0.  1.
</event>
<event>
 5   0  0.7256473E-07  0.2318117E+04  0.7818609E-02  0.8470812E-01
        2   -1    0    0  501    0  0.00000000000E+00  0.00000000000E+00  0.48291912421E+03  0.48291912421E+03  0.25500000920E-02 0.  1.
       -2   -1    0    0    0  501  0.00000000000E+00  0.00000000000E+00 -0.27818658141E+04  0.27818658141E+04  0.25500000920E-02 0. -1.
    10030    2    1    2    0    0  0.00000000000E+00  0.00000000000E+00 -0.22989466899E+04  0.32647849383E+04  0.23181166516E+04 0.  0.
        4    1    3    3  502    0 -0.28917728072E+03 -0.10397510189E+04 -0.55409587949E+03  0.12131486049E+04  0.12699999809E+01 0.  1.
       -4    1    3    3    0  502  0.28917728072E+03  0.10397510189E+04 -0.17448508104E+04  0.20516363334E+04  0.12699999809E+01 0. -1.
</event>
<event>
 5   0  0.2401125E-07  0.2021018E+04  0.7818609E-02  0.8596857E-01
        1   -1    0    0  501    0  0.00000000000E+00  0.00000000000E+00  0.11091830962E+04  0.11091830962E+04  0.50400001928E-02 0. -1.
       -1   -1    0    0    0  501  0.00000000000E+00  0.00000000000E+00 -0.92061294582E+03  0.92061294584E+03  0.50400001928E-02 0.  1.
    10030    2    1    2    0    0  0.00000000000E+00  0.00000000000E+00  0.18857015035E+03  0.20297960420E+04  0.20210178798E+04 0.  0.
        5    1    3    3  502    0 -0.71472315094E+03 -0.15888883090E+02 -0.62297689154E+03  0.94826364292E+03  0.46999998093E+01 0.  1.
       -5    1    3    3    0  502  0.71472315094E+03  0.15888883090E+02  0.81154704190E+03  0.10815323991E+04  0.46999998093E+01 0. -1.
</event>
<event>
 5   0  0.2401125E-07  0.3940419E+04  0.7818609E-02  0.8016675E-01
        3   -1    0    0  501    0  0.00000000000E+00  0.00000000000E+00  0.18198335205E+04  0.18198335233E+04  0.10100000352E+00 0.  1.
       -3   -1    0    0    0  501  0.00000000000E+00  0.00000000000E+00 -0.21330111852E+04  0.21330111876E+04  0.10100000352E+00 0. -1.
    10030    2    1    2    0    0  0.00000000000E+00  0.00000000000E+00 -0.31317766473E+03  0.39528447109E+04  0.39404188938E+04 0.  0.
        2    1    3    3  502    0 -0.16675984507E+04  0.96430504899E+03 -0.57136147031E+03  0.20092841387E+04  0.25500000920E-02 0. -1.
       -2    1    3    3    0  502  0.16675984507E+04 -0.96430504899E+03  0.25818380558E+03  0.19435605722E+04  0.25500000920E-02 0.  1.
</event>
<event>
 5   0  0.2601252E-07  0.3989308E+04  0.7818609E-02  0.8006707E-01
       -1   -1    0    0    0  501  0.00000000000E+00  0.00000000000E+00  0.14158102288E+04  0.14158102289E+04  0.50400001928E-02 0.  1.
        1   -1    0    0  501    0  0.00000000000E+00  0.00000000000E+00 -0.28101542416E+04  0.28101542416E+04  0.50400001928E-02 0. -1.
    10030    2    1    2    0    0  0.00000000000E+00  0.00000000000E+00 -0.13943440127E+04  0.42259644704E+04  0.39893082708E+04 0.  0.
        3    1    3    3  502    0 -0.14034276422E+04  0.14148402485E+04 -0.60689289307E+03  0.20831949187E+04  0.10100000352E+00 0.  1.
       -3    1    3    3    0  502  0.14034276422E+04 -0.14148402485E+04 -0.78745111965E+03  0.21427695517E+04  0.10100000352E+00 0. -1.
</event>
<event>
 5   0  0.2601252E-07  0.2575786E+04  0.7818609E-02  0.8376473E-01
       -1   -1    0    0    0  501  0.00000000000E+00  0.00000000000E+00  0.63740157053E+03  0.63740157055E+03  0.50400001928E-02 0. -1.
        1   -1    0    0  501    0  0.00000000000E+00  0.00000000000E+00 -0.26022347406E+04  0.26022347406E+04  0.50400001928E-02 0.  1.
    10030    2    1    2    0    0  0.00000000000E+00  0.00000000000E+00 -0.19648331701E+04  0.32396363112E+04  0.25757861018E+04 0.  0.
        3    1    3    3  502    0 -0.29468946975E+03  0.82394356761E+02  0.59101866812E+03  0.66553271134E+03  0.10100000352E+00 0. -1.
       -3    1    3    3    0  502  0.29468946975E+03 -0.82394356761E+02 -0.25558518382E+04  0.25741035999E+04  0.10100000352E+00 0.  1.
</event>
<event>
 5   0  0.6784930E-07  0.2185075E+04  0.7818609E-02  0.8524666E-01
        2   -1    0    0  501    0  0.00000000000E+00  0.00000000000E+00  0.16067591582E+04  0.16067591582E+04  0.25500000920E-02 0.  1.
       -2   -1    0    0    0  501  0.00000000000E+00  0.00000000000E+00 -0.74288536418E+03  0.74288536418E+03  0.25500000920E-02 0. -1.
    10030    2    1    2    0    0  0.00000000000E+00  0.00000000000E+00  0.86387379403E+03  0.23496445224E+04  0.21850747011E+04 0.  0.
        3    1    3    3  502    0 -0.40353838080E+03 -0.90774996991E+03 -0.57047487848E+02  0.99504153618E+03  0.10100000352E+00 0. -1.
       -3    1    3    3    0  502  0.40353838080E+03  0.90774996991E+03  0.92092128188E+03  0.13546029862E+04  0.10100000352E+00 0.  1.
</event>
<event>
 5   0  0.4449262E-07  0.2265911E+04  0.7818609E-02  0.8491484E-01
       -2   -1    0    0    0  501  0.00000000000E+00  0.00000000000E+00  0.12817448161E+04  0.12817448161E+04  0.25500000920E-02 0. -1.
        2   -1    0    0  501    0  0.00000000000E+00  0.00000000000E+00 -0.10014385828E+04  0.10014385828E+04  0.25500000920E-02 0.  1.
    10030    2    1    2    0    0  0.00000000000E+00  0.00000000000E+00  0.28030623327E+03  0.22831833989E+04  0.22659114829E+04 0.  0.
        1    1    3    3  502    0 -0.67326034983E+01  0.10996118545E+04  0.41499063452E+03  0.11753334783E+04  0.50400001928E-02 0. -1.
       -1    1    3    3    0  502  0.67326034983E+01 -0.10996118545E+04 -0.13468440125E+03  0.11078499205E+04  0.50400001928E-02 0.  1.
</event>
<event>
 5   0  0.7570277E-07  0.2456546E+04  0.7818609E-02  0.8418632E-01
        2   -1    0    0  501    0  0.00000000000E+00  0.00000000000E+00  0.17818089804E+04  0.17818089804E+04  0.25500000920E-02 0.  1.
       -2   -1    0    0    0  501  0.00000000000E+00  0.00000000000E+00 -0.84669810997E+03  0.84669810997E+03  0.25500000920E-02 0. -1.
    10030    2    1    2    0    0  0.00000000000E+00  0.00000000000E+00  0.93511087044E+03  0.26285070904E+04  0.24565457830E+04 0.  0.
        5    1    3    3  502    0 -0.12239758771E+04 -0.49503088614E+02  0.56364549522E+03  0.13484382959E+04  0.46999998093E+01 0. -1.
       -5    1    3    3    0  502  0.12239758771E+04  0.49503088614E+02  0.37146537522E+03  0.12800687945E+04  0.46999998093E+01 0.  1.
</event>
<event>
 5   0  0.6043512E-07  0.2661528E+04  0.7818609E-02  0.8347597E-01
        2   -1    0    0  501    0  0.00000000000E+00  0.00000000000E+00  0.17569408921E+04  0.17569408922E+04  0.25500000920E-02 0. -1.
       -2   -1    0    0    0  501  0.00000000000E+00  0.00000000000E+00 -0.10079634554E+04  0.10079634554E+04  0.25500000920E-02 0.  1.
    10030    2    1    2    0    0  0.00000000000E+00  0.00000000000E+00  0.74897743676E+03  0.27649043475E+04  0.26615275408E+04 0.  0.
        3    1    3    3  502    0  0.10436814849E+04  0.20350347296E+03 -0.45674488475E+03  0.11572815584E+04  0.10100000352E+00 0.  1.
       -3    1    3    3    0  502 -0.10436814849E+04 -0.20350347296E+03  0.12057223215E+04  0.16076227892E+04  0.10100000352E+00 0. -1.
</event>
<event>
 5   0  0.4449262E-07  0.4137778E+04  0.7818609E-02  0.7977315E-01
        2   -1    0    0  501    0  0.00000000000E+00  0.00000000000E+00  0.31201551655E+04  0.31201551655E+04  0.25500000920E-02 0.  1.
       -2   -1    0    0    0  501  0.00000000000E+00  0.00000000000E+00 -0.13718233733E+04  0.13718233733E+04  0.25500000920E-02 0. -1.
    10030    2    1    2    0    0  0.00000000000E+00  0.00000000000E+00  0.17483317922E+04  0.44919785388E+04  0.41377780436E+04 0.  0.
        1    1    3    3  502    0 -0.41399949035E+03 -0.10447734372E+04 -0.10115821344E+04  0.15120335736E+04  0.50400001928E-02 0. -1.
       -1    1    3    3    0  502  0.41399949035E+03  0.10447734372E+04  0.27599139267E+04  0.29799449652E+04  0.50400001928E-02 0.  1.
</event>
<event>
 5   0  0.2401125E-07  0.1972248E+04  0.7818609E-02  0.8619707E-01
        1   -1    0    0  501    0  0.00000000000E+00  0.00000000000E+00  0.60292771767E+03  0.60292771769E+03  0.50400001928E-02 0. -1.
       -1   -1    0    0    0  501  0.00000000000E+00  0.00000000000E+00 -0.16128635147E+04  0.16128635147E+04  0.50400001928E-02 0.  1.
    10030    2    1    2    0    0  0.00000000000E+00  0.00000000000E+00 -0.10099357971E+04  0.22157912324E+04  0.19722475685E+04 0.  0.
        5    1    3    3  502    0  0.54032291652E+02 -0.19709186303E+03  0.57886262994E+03  0.61389634740E+03  0.46999998093E+01 0. -1.
       -5    1    3    3    0  502 -0.54032291652E+02  0.19709186303E+03 -0.15887984270E+04  0.16018948850E+04  0.46999998093E+01 0.  1.
</event>
<event>
 5   0  0.4449262E-07  0.3673140E+04  0.7818609E-02  0.8073940E-01
       -2   -1    0    0    0  501  0.00000000000E+00  0.00000000000E+00  0.17036595136E+04  0.17036595136E+04  0.25500000920E-02 0. -1.
        2   -1    0    0  501    0  0.00000000000E+00  0.00000000000E+00 -0.19798497333E+04  0.19798497333E+04  0.25500000920E-02 0.  1.
    10030    2    1    2    0    0  0.00000000000E+00  0.00000000000E+00 -0.27619021973E+03  0.36835092468E+04  0.36731402552E+04 0.  0.
        1    1    3    3  502    0  0.18367374236E+03  0.14689109050E+04 -0.12281569584E+04  0.19234876669E+04  0.50400001928E-02 0.  1.
       -1    1    3    3    0  502 -0.18367374236E+03 -0.14689109050E+04  0.95196673865E+03  0.17600215799E+04  0.50400001928E-02 0. -1.
</event>
<event>
 5   0  0.4449262E-07  0.3723238E+04  0.7818609E-02  0.8062831E-01
       -2   -1    0    0    0  501  0.00000000000E+00  0.00000000000E+00  0.14449504151E+04  0.14449504151E+04  0.25500000920E-02 0.  1.
        2   -1    0    0  501    0  0.00000000000E+00  0.00000000000E+00 -0.23984391947E+04  0.23984391947E+04  0.25500000920E-02 0. -1.
    10030    2    1    2    0    0  0.00000000000E+00  0.00000000000E+00 -0.95348877963E+03  0.38433896098E+04  0.37232382196E+04 0.  0.
        1    1    3    3  502    0 -0.17436689178E+04  0.44230559545E+03 -0.97138429800E+03  0.20444077355E+04  0.50400001928E-02 0. -1.
       -1    1    3    3    0  502  0.17436689178E+04 -0.44230559545E+03  0.17895518368E+02  0.17989818743E+04  0.50400001928E-02 0.  1.
</event>
<event>
 5   0  0.2647879E-07  0.4000389E+04  0.7818609E-02  0.8004468E-01
       -1   -1    0    0    0  501  0.00000000000E+00  0.00000000000E+00  0.28915430887E+04  0.28915430887E+04  0.50400001928E-02 0. -1.
        1   -1    0    0  501    0  0.00000000000E+00  0.00000000000E+00 -0.13836133134E+04  0.13836133135E+04  0.50400001928E-02 0.  1.
    10030    2    1    2    0    0  0.00000000000E+00  0.00000000000E+00  0.15079297753E+04  0.42751564022E+04  0.40003887381E+04 0.  0.
        2    1    3    3  502    0 -0.29919996756E+03  0.96121115431E+03  0.26010691584E+04  0.27890873544E+04  0.25500000920E-02 0. -1.
       -2    1    3    3    0  502  0.29919996756E+03 -0.96121115431E+03 -0.10931393831E+04  0.14860690478E+04  0.25500000920E-02 0.  1.
</event>
<event>
 5   0  0.2647879E-07  0.2779608E+04  0.7818609E-02  0.8309627E-01
        1   -1    0    0  501    0  0.00000000000E+00  0.00000000000E+00  0.17175356246E+04  0.17175356246E+04  0.50400001928E-02 0. -1.
       -1   -1    0    0    0  501  0.00000000000E+00  0.00000000000E+00 -0.11246081337E+04  0.11246081337E+04  0.50400001928E-02 0.  1.
    10030    2    1    2    0    0  0.00000000000E+00  0.00000000000E+00  0.59292749093E+03  0.28421437583E+04  0.27796075502E+04 0.  0.
        2    1    3    3  502    0  0.69055682617E+03  0.11107998359E+04 -0.18401199299E+03  0.13208351219E+04  0.25500000920E-02 0.  1.
       -2    1    3    3    0  502 -0.69055682617E+03 -0.11107998359E+04  0.77693948392E+03  0.15213086364E+04  0.25500000920E-02 0. -1.
</event>
<event>
 5   0  0.3579559E-07  0.3974074E+04  0.7818609E-02  0.8009797E-01
        1   -1    0    0  501    0  0.00000000000E+00  0.00000000000E+00  0.19994753894E+04  0.19994753894E+04  0.50400001928E-02 0. -1.
       -1   -1    0    0    0  501  0.00000000000E+00  0.00000000000E+00 -0.19746762326E+04  0.19746762326E+04  0.50400001928E-02 0.  1.
    10030    2    1    2    0    0  0.00000000000E+00  0.00000000000E+00  0.24799156772E+02  0.39741516221E+04  0.39740742465E+04 0.  0.
        4    1    3    3  502    0  0.94401064073E+03 -0.14800047833E+04 -0.91860977683E+03  0.19812662071E+04  0.12699999809E+01 0.  1.
       -4    1    3    3    0  502 -0.94401064073E+03  0.14800047833E+04  0.94340893361E+03  0.19928854150E+04  0.12699999809E+01 0. -1.
</event>
<event>
 5   0  0.6043512E-07  0.4036600E+04  0.7818609E-02  0.7997204E-01
        2   -1    0    0  501    0  0.00000000000E+00  0.00000000000E+00  0.19437491286E+04  0.19437491286E+04  0.25500000920E-02 0. -1.
       -2   -1    0    0    0  501  0.00000000000E+00  0.00000000000E+00 -0.20957104584E+04  0.20957104584E+04  0.25500000920E-02 0.  1.
    10030    2    1    2    0    0  0.00000000000E+00  0.00000000000E+00 -0.15196132982E+03  0.40394595871E+04  0.40366002415E+04 0.  0.
        3    1    3    3  502    0  0.13696277033E+04  0.92182413165E+02  0.14046476557E+04  0.19640297070E+04  0.10100000352E+00 0. -1.
       -3    1    3    3    0  502 -0.13696277033E+04 -0.92182413165E+02 -0.15566089855E+04  0.20754298801E+04  0.10100000352E+00 0.  1.
</event>
<event>
 5   0  0.2713405E-07  0.2211258E+04  0.7818609E-02  0.8513757E-01
       -1   -1    0    0    0  501  0.00000000000E+00  0.00000000000E+00  0.89186614064E+03  0.89186614066E+03  0.50400001928E-02 0.  1.
        1   -1    0    0  501    0  0.00000000000E+00  0.00000000000E+00 -0.13706265627E+04  0.13706265627E+04  0.50400001928E-02 0. -1.
    10030    2    1    2    0    0  0.00000000000E+00  0.00000000000E+00 -0.47876042202E+03  0.22624927033E+04  0.22112579431E+04 0.  0.
        1    1    3    3  502    0 -0.70658669939E+03  0.73155700744E+03  0.20422621889E+03  0.10373759046E+04  0.50400001928E-02 0.  1.
       -1    1    3    3    0  502  0.70658669939E+03 -0.73155700744E+03 -0.68298664091E+03  0.12251167987E+04  0.50400001928E-02 0. -1.
</event>
<event>
 5   0  0.2401125E-07  0.2041489E+04  0.7818609E-02  0.8587465E-01
       -1   -1    0    0    0  501  0.00000000000E+00  0.00000000000E+00  0.21361259046E+04  0.21361259046E+04  0.50400001928E-02 0. -1.
        1   -1    0    0  501    0  0.00000000000E+00  0.00000000000E+00 -0.48776139231E+03  0.48776139233E+03  0.50400001928E-02 0.  1.
    10030    2    1    2    0    0  0.00000000000E+00  0.00000000000E+00  0.16483645123E+04  0.26238872970E+04  0.20414894028E+04 0.  0.
        5    1    3    3  502    0 -0.99765701180E+03 -0.70450541062E+01  0.11014233586E+04  0.14861105782E+04  0.46999998093E+01 0. -1.
       -5    1    3    3    0  502  0.99765701180E+03  0.70450541062E+01  0.54694115376E+03  0.11377767187E+04  0.46999998093E+01 0.  1.
</event>
<event>
 5   0  0.6043512E-07  0.3927221E+04  0.7818609E-02  0.8019391E-01
        2   -1    0    0  501    0  0.00000000000E+00  0.00000000000E+00  0.25204559764E+04  0.25204559764E+04  0.25500000920E-02 0. -1.
       -2   -1    0    0    0  501  0.00000000000E+00  0.00000000000E+00 -0.15297894927E+04  0.15297894927E+04  0.25500000920E-02 0.  1.
    10030    2    1    2    0    0  0.00000000000E+00  0.00000000000E+00  0.99066648373E+03  0.40502454691E+04  0.39272214449E+04 0.  0.
        3    1    3    3  502    0 -0.15936236691E+04  0.19875187660E+03 -0.66994113494E+03  0.17401033997E+04  0.10100000352E+00 0.  1.
       -3    1    3    3    0  502  0.15936236691E+04 -0.19875187660E+03  0.16606076187E+04  0.23101420693E+04  0.10100000352E+00 0. -1.
</event>
<event>
 5   0  0.7256473E-07  0.4008666E+04  0.7818609E-02  0.8002801E-01
        2   -1    0    0  501    0  0.00000000000E+00  0.00000000000E+00  0.18876378805E+04  0.18876378805E+04  0.25500000920E-02 0.  1.
       -2   -1    0    0    0  501  0.00000000000E+00  0.00000000000E+00 -0.21282419901E+04  0.21282419901E+04  0.25500000920E-02 0. -1.
    10030    2    1    2    0    0  0.00000000000E+00  0.00000000000E+00 -0.24060410955E+03  0.40158798706E+04  0.40086657128E+04 0.  0.
        4    1    3    3  502    0  0.76554800367E+03 -0.66182761860E+03 -0.18535222818E+04  0.21117826604E+04  0.12699999809E+01 0. -1.
       -4    1    3    3    0  502 -0.76554800367E+03  0.66182761860E+03  0.16129181722E+04  0.19040972102E+04  0.12699999809E+01 0.  1.
</event>
<event>
 5   0  0.7256473E-07  0.4064817E+04  0.7818609E-02  0.7991597E-01
       -2   -1    0    0    0  501  0.00000000000E+00  0.00000000000E+00  0.18093756901E+04  0.18093756901E+04  0.25500000920E-02 0.  1.
        2   -1    0    0  501    0  0.00000000000E+00  0.00000000000E+00 -0.22829330795E+04  0.22829330795E+04  0.25500000920E-02 0. -1.
    10030    2    1    2    0    0  0.00000000000E+00  0.00000000000E+00 -0.47355738932E+03  0.40923087696E+04  0.40648166582E+04 0.  0.
        4    1    3    3  502    0 -0.10102169929E+04 -0.16880692739E+04  0.27713016299E+03  0.19866854271E+04  0.12699999809E+01 0.  1.
       -4    1    3    3    0  502  0.10102169929E+04  0.16880692739E+04 -0.75068755231E+03  0.21056233425E+04  0.12699999809E+01 0. -1.
</event>
<event>
 5   0  0.6043512E-07  0.3957330E+04  0.7818609E-02  0.8013210E-01
        2   -1    0    0  501    0  0.00000000000E+00  0.00000000000E+00  0.17152289372E+04  0.17152289372E+04  0.25500000920E-02 0. -1.
       -2   -1    0    0    0  501  0.00000000000E+00  0.00000000000E+00 -0.22825612428E+04  0.22825612428E+04  0.25500000920E-02 0.  1.
    10030    2    1    2    0    0  0.00000000000E+00  0.00000000000E+00 -0.56733230559E+03  0.39977901800E+04  0.39573299558E+04 0.  0.
        3    1    3    3  502    0  0.20965451410E+02 -0.14278133453E+04  0.11000180958E+04  0.18025344159E+04  0.10100000352E+00 0. -1.
       -3    1    3    3    0  502 -0.20965451410E+02  0.14278133453E+04 -0.16673504014E+04  0.21952557642E+04  0.10100000352E+00 0.  1.
</event>
<event>
 5   0  0.2647879E-07  0.3147988E+04  0.7818609E-02  0.8202690E-01
        1   -1    0    0  501    0  0.00000000000E+00  0.00000000000E+00  0.28668736068E+04  0.28668736068E+04  0.50400001928E-02 0. -1.
       -1   -1    0    0    0  501  0.00000000000E+00  0.00000000000E+00 -0.86416686581E+03  0.86416686582E+03  0.50400001928E-02 0.  1.
    10030    2    1    2    0    0  0.00000000000E+00  0.00000000000E+00  0.20027067409E+04  0.37310404726E+04  0.31479880428E+04 0.  0.
        2    1    3    3  502    0  0.12583673944E+04 -0.62133920188E+03  0.18460264943E+04  0.23189145565E+04  0.25500000920E-02 0. -1.
       -2    1    3    3    0  502 -0.12583673944E+04  0.62133920188E+03  0.15668024668E+03  0.14121259160E+04  0.25500000920E-02 0.  1.
</event>
<event>
 5   0  0.7256473E-07  0.4023080E+04  0.7818609E-02  0.7999907E-01
       -2   -1    0    0    0  501  0.00000000000E+00  0.00000000000E+00  0.19692234812E+04  0.19692234812E+04  0.25500000920E-02 0.  1.
        2   -1    0    0  501    0  0.00000000000E+00  0.00000000000E+00 -0.20547660316E+04  0.20547660316E+04  0.25500000920E-02 0. -1.
    10030    2    1    2    0    0  0.00000000000E+00  0.00000000000E+00 -0.85542550403E+02  0.40239895128E+04  0.40230801721E+04 0.  0.
        4    1    3    3  502    0 -0.17337062452E+02  0.83831611095E+03  0.17860887362E+04  0.19731165860E+04  0.12699999809E+01 0.  1.
       -4    1    3    3    0  502  0.17337062452E+02 -0.83831611095E+03 -0.18716312866E+04  0.20508729267E+04  0.12699999809E+01 0. -1.
</event>
<event>
 5   0  0.2401125E-07  0.3970445E+04  0.7818609E-02  0.8010535E-01
        3   -1    0    0  501    0  0.00000000000E+00  0.00000000000E+00  0.20765130878E+04  0.20765130903E+04  0.10100000352E+00 0.  1.
       -3   -1    0    0    0  501  0.00000000000E+00  0.00000000000E+00 -0.18979448921E+04  0.18979448948E+04  0.10100000352E+00 0. -1.
    10030    2    1    2    0    0  0.00000000000E+00  0.00000000000E+00  0.17856819574E+03  0.39744579851E+04  0.39704445185E+04 0.  0.
        4    1    3    3  502    0  0.18114979976E+04 -0.60273824076E+02  0.90000887095E+03  0.20236539995E+04  0.12699999809E+01 0.  1.
       -4    1    3    3    0  502 -0.18114979976E+04  0.60273824076E+02 -0.72144067521E+03  0.19508039855E+04  0.12699999809E+01 0. -1.
</event>
<event>
 5   0  0.2647879E-07  0.3018954E+04  0.7818609E-02  0.8238339E-01
       -1   -1    0    0    0  501  0.00000000000E+00  0.00000000000E+00  0.11815465674E+04  0.11815465674E+04  0.50400001928E-02 0. -1.
        1   -1    0    0  501    0  0.00000000000E+00  0.00000000000E+00 -0.19284219695E+04  0.19284219695E+04  0.50400001928E-02 0.  1.
    10030    2    1    2    0    0  0.00000000000E+00  0.00000000000E+00 -0.74687540211E+03  0.31099685369E+04  0.30189536986E+04 0.  0.
        2    1    3    3  502    0 -0.61895397839E+03 -0.12386821256E+04  0.24557992816E+03  0.14063239089E+04  0.25500000920E-02 0. -1.
       -2    1    3    3    0  502  0.61895397839E+03  0.12386821256E+04 -0.99245533027E+03  0.17036446279E+04  0.25500000920E-02 0.  1.
</event>
<event>
 5   0  0.7570277E-07  0.3960141E+04  0.7818609E-02  0.8012636E-01
        2   -1    0    0  501    0  0.00000000000E+00  0.00000000000E+00  0.22123144824E+04  0.22123144824E+04  0.25500000920E-02 0.  1.
       -2   -1    0    0    0  501  0.00000000000E+00  0.00000000000E+00 -0.17722073944E+04  0.17722073944E+04  0.25500000920E-02 0. -1.
    10030    2    1    2    0    0  0.00000000000E+00  0.00000000000E+00  0.44010708801E+03  0.39845218767E+04  0.39601414542E+04 0.  0.
        5    1    3    3  502    0 -0.13645188129E+04 -0.58232345995E+03 -0.10993723934E+04  0.18465248312E+04  0.46999998093E+01 0. -1.
       -5    1    3    3    0  502  0.13645188129E+04  0.58232345995E+03  0.15394794814E+04  0.21379970455E+04  0.46999998093E+01 0.  1.
</event>
<event>
 5   0  0.6043512E-07  0.3977640E+04  0.7818609E-02  0.8009072E-01
       -2   -1    0    0    0  501  0.00000000000E+00  0.00000000000E+00  0.16127101836E+04  0.16127101836E+04  0.25500000920E-02 0. -1.
        2   -1    0    0  501    0  0.00000000000E+00  0.00000000000E+00 -0.24526447988E+04  0.24526447988E+04  0.25500000920E-02 0.  1.
    10030    2    1    2    0    0  0.00000000000E+00  0.00000000000E+00 -0.83993461523E+03  0.40653549825E+04  0.39776401264E+04 0.  0.
        3    1    3    3  502    0  0.12900226320E+03  0.19562134220E+04 -0.77934442874E+02  0.19620107859E+04  0.10100000352E+00 0. -1.
       -3    1    3    3    0  502 -0.12900226320E+03 -0.19562134220E+04 -0.76200017236E+03  0.21033441966E+04  0.10100000352E+00 0.  1.
</event>
<event>
 5   0  0.3579559E-07  0.1965427E+04  0.7818609E-02  0.8622957E-01
        1   -1    0    0  501    0  0.00000000000E+00  0.00000000000E+00  0.11452378382E+04  0.11452378382E+04  0.50400001928E-02 0. -1.
       -1   -1    0    0    0  501  0.00000000000E+00  0.00000000000E+00 -0.84325337111E+03  0.84325337113E+03  0.50400001928E-02 0.  1.
    10030    2    1    2    0    0  0.00000000000E+00  0.00000000000E+00  0.30198446710E+03  0.19884912094E+04  0.19654268420E+04 0.  0.
        4    1    3    3  502    0 -0.59518580794E+03  0.39470747824E+03 -0.53197307194E+03  0.89052630592E+03  0.12699999809E+01 0.  1.
       -4    1    3    3    0  502  0.59518580794E+03 -0.39470747824E+03  0.83395753904E+03  0.10979649034E+04  0.12699999809E+01 0. -1.
</event>
<event>
 5   0  0.2647879E-07  0.2680823E+04  0.7818609E-02  0.8341254E-01
        1   -1    0    0  501    0  0.00000000000E+00  0.00000000000E+00  0.16432394791E+04  0.16432394791E+04  0.50400001928E-02 0. -1.
       -1   -1    0    0    0  501  0.00000000000E+00  0.00000000000E+00 -0.10933905671E+04  0.10933905671E+04  0.50400001928E-02 0.  1.
    10030    2    1    2    0    0  0.00000000000E+00  0.00000000000E+00  0.54984891199E+03  0.27366300461E+04  0.26808226691E+04 0.  0.
        2    1    3    3  502    0  0.30856483191E+03 -0.37142166767E+03  0.15513690810E+04  0.16247807040E+04  0.25500000920E-02 0. -1.
       -2    1    3    3    0  502 -0.30856483191E+03  0.37142166767E+03 -0.10015201690E+04  0.11118493421E+04  0.25500000920E-02 0.  1.
</event>
<event>
 5   0  0.7256473E-07  0.3952347E+04  0.7818609E-02  0.8014229E-01
       -2   -1    0    0    0  501  0.00000000000E+00  0.00000000000E+00  0.17849658394E+04  0.17849658394E+04  0.25500000920E-02 0. -1.
        2   -1    0    0  501    0  0.00000000000E+00  0.00000000000E+00 -0.21878640228E+04  0.21878640228E+04  0.25500000920E-02 0.  1.
    10030    2    1    2    0    0  0.00000000000E+00  0.00000000000E+00 -0.40289818344E+03  0.39728298622E+04  0.39523474250E+04 0.  0.
        4    1    3    3  502    0  0.27539304755E+03  0.16338381754E+04 -0.12840600726E+04  0.20962061914E+04  0.12699999809E+01 0.  1.
       -4    1    3    3    0  502 -0.27539304755E+03 -0.16338381754E+04  0.88116188912E+03  0.18766236708E+04  0.12699999809E+01 0. -1.
</event>
<event>
 5   0  0.5161550E-07  0.3784140E+04  0.7818609E-02  0.8049567E-01
       -2   -1    0    0    0  501  0.00000000000E+00  0.00000000000E+00  0.14387637209E+04  0.14387637209E+04  0.25500000920E-02 0.  1.
        2   -1    0    0  501    0  0.00000000000E+00  0.00000000000E+00 -0.24881981293E+04  0.24881981293E+04  0.25500000920E-02 0. -1.
    10030    2    1    2    0    0  0.00000000000E+00  0.00000000000E+00 -0.10494344084E+04  0.39269618501E+04  0.37841401659E+04 0.  0.
        2    1    3    3  502    0  0.81081366625E+02  0.56854246913E+03 -0.23955664641E+04  0.24634434053E+04  0.25500000920E-02 0. -1.
       -2    1    3    3    0  502 -0.81081366625E+02 -0.56854246913E+03  0.13461320557E+04  0.14635184449E+04  0.25500000920E-02 0.  1.
</event>
<event>
 5   0  0.2601252E-07  0.3913879E+04  0.7818609E-02  0.8022149E-01
        1   -1    0    0  501    0  0.00000000000E+00  0.00000000000E+00  0.26610360671E+04  0.26610360671E+04  0.50400001928E-02 0.  1.
       -1   -1    0    0    0  501  0.00000000000E+00  0.00000000000E+00 -0.14391435171E+04  0.14391435171E+04  0.50400001928E-02 0. -1.
    10030    2    1    2    0    0  0.00000000000E+00  0.00000000000E+00  0.12218925500E+04  0.41001795842E+04  0.39138793056E+04 0.  0.
        3    1    3    3  502    0 -0.59976142433E+03 -0.17148815008E+04  0.13729486305E+04  0.22771737483E+04  0.10100000352E+00 0. -1.
       -3    1    3    3    0  502  0.59976142433E+03  0.17148815008E+04 -0.15105608044E+03  0.18230058359E+04  0.10100000352E+00 0.  1.
</event>
<event>
 5   0  0.5161550E-07  0.3861493E+04  0.7818609E-02  0.8033086E-01
        2   -1    0    0  501    0  0.00000000000E+00  0.00000000000E+00  0.18020963315E+04  0.18020963315E+04  0.25500000920E-02 0. -1.
       -2   -1    0    0    0  501  0.00000000000E+00  0.00000000000E+00 -0.20685811382E+04  0.20685811382E+04  0.25500000920E-02 0.  1.
    10030    2    1    2    0    0  0.00000000000E+00  0.00000000000E+00 -0.26648480664E+03  0.38706774697E+04  0.38614932244E+04 0.  0.
        2    1    3    3  502    0  0.32024898733E+03  0.16985543053E+04 -0.99560035272E+03  0.19947095538E+04  0.25500000920E-02 0.  1.
       -2    1    3    3    0  502 -0.32024898733E+03 -0.16985543053E+04  0.72911554609E+03  0.18759679159E+04  0.25500000920E-02 0. -1.
</event>
<event>
 5   0  0.2401125E-07  0.3903151E+04  0.7818609E-02  0.8024374E-01
       -1   -1    0    0    0  501  0.00000000000E+00  0.00000000000E+00  0.20398695680E+04  0.20398695680E+04  0.50400001928E-02 0.  1.
        1   -1    0    0  501    0  0.00000000000E+00  0.00000000000E+00 -0.18671035634E+04  0.18671035634E+04  0.50400001928E-02 0. -1.
    10030    2    1    2    0    0  0.00000000000E+00  0.00000000000E+00  0.17276600458E+03  0.39069731314E+04  0.39031514136E+04 0.  0.
        5    1    3    3  502    0  0.12692141458E+04 -0.66165785788E+03 -0.12415394695E+04  0.18947659520E+04  0.46999998093E+01 0. -1.
       -5    1    3    3    0  502 -0.12692141458E+04  0.66165785788E+03  0.14143054740E+04  0.20122071794E+04  0.46999998093E+01 0.  1.
</event>
<event>
 5   0  0.7256473E-07  0.4011487E+04  0.7818609E-02  0.8002233E-01
       -2   -1    0    0    0  501  0.00000000000E+00  0.00000000000E+00  0.22378655206E+04  0.22378655206E+04  0.25500000920E-02 0.  1.
        2   -1    0    0  501    0  0.00000000000E+00  0.00000000000E+00 -0.17976979536E+04  0.17976979536E+04  0.25500000920E-02 0. -1.
    10030    2    1    2    0    0  0.00000000000E+00  0.00000000000E+00  0.44016756697E+03  0.40355634742E+04  0.40114866405E+04 0.  0.
        4    1    3    3  502    0  0.88176980466E+03  0.12918959711E+04 -0.10430363114E+04  0.18800105182E+04  0.12699999809E+01 0. -1.
       -4    1    3    3    0  502 -0.88176980466E+03 -0.12918959711E+04  0.14832038783E+04  0.21555529560E+04  0.12699999809E+01 0.  1.
</event>
<event>
 5   0  0.5161550E-07  0.2695202E+04  0.7818609E-02  0.8336563E-01
       -2   -1    0    0    0  501  0.00000000000E+00  0.00000000000E+00  0.11787759450E+04  0.11787759450E+04  0.25500000920E-02 0. -1.
        2   -1    0    0  501    0  0.00000000000E+00  0.00000000000E+00 -0.15406053721E+04  0.15406053721E+04  0.25500000920E-02 0.  1.
    10030    2    1    2    0    0  0.00000000000E+00  0.00000000000E+00 -0.36182942710E+03  0.27193813171E+04  0.26952020728E+04 0.  0.
        2    1    3    3  502    0 -0.93997719575E+03  0.60923159536E+03 -0.93684109964E+03  0.14602710404E+04  0.25500000920E-02 0.  1.
       -2    1    3    3    0  502  0.93997719575E+03 -0.60923159536E+03  0.57501167254E+03  0.12591102767E+04  0.25500000920E-02 0. -1.
</event>
<event>
 5   0  0.2601252E-07  0.3320477E+04  0.7818609E-02  0.8157704E-01
        1   -1    0    0  501    0  0.00000000000E+00  0.00000000000E+00  0.28924576040E+04  0.28924576040E+04  0.50400001928E-02 0.  1.
       -1   -1    0    0    0  501  0.00000000000E+00  0.00000000000E+00 -0.95295866936E+03  0.95295866937E+03  0.50400001928E-02 0. -1.
    10030    2    1    2    0    0  0.00000000000E+00  0.00000000000E+00  0.19394989347E+04  0.38454162734E+04  0.33204774052E+04 0.  0.
        3    1    3    3  502    0 -0.87132732379E+03 -0.40953053234E+03 -0.59665891734E+03  0.11326643086E+04  0.10100000352E+00 0. -1.
       -3    1    3    3    0  502  0.87132732379E+03  0.40953053234E+03  0.25361578520E+04  0.27127519648E+04  0.10100000352E+00 0.  1.
</event>
<event>
 5   0  0.7256473E-07  0.2573606E+04  0.7818609E-02  0.8377222E-01
        2   -1    0    0  501    0  0.00000000000E+00  0.00000000000E+00  0.12236985992E+04  0.12236985992E+04  0.25500000920E-02 0. -1.
       -2   -1    0    0    0  501  0.00000000000E+00  0.00000000000E+00 -0.13531618281E+04  0.13531618281E+04  0.25500000920E-02 0.  1.
    10030    2    1    2    0    0  0.00000000000E+00  0.00000000000E+00 -0.12946322891E+03  0.25768604274E+04  0.25736062120E+04 0.  0.
        4    1    3    3  502    0 -0.18611944685E+03 -0.53258643957E+03 -0.12227284195E+04  0.13466087646E+04  0.12699999809E+01 0.  1.
       -4    1    3    3    0  502  0.18611944685E+03  0.53258643957E+03  0.10932651906E+04  0.12302516628E+04  0.12699999809E+01 0. -1.
</event>
<event>
 5   0  0.6043512E-07  0.3938830E+04  0.7818609E-02  0.8017001E-01
       -2   -1    0    0    0  501  0.00000000000E+00  0.00000000000E+00  0.22894606394E+04  0.22894606394E+04  0.25500000920E-02 0. -1.
        2   -1    0    0  501    0  0.00000000000E+00  0.00000000000E+00 -0.16941092061E+04  0.16941092061E+04  0.25500000920E-02 0.  1.
    10030    2    1    2    0    0  0.00000000000E+00  0.00000000000E+00  0.59535143330E+03  0.39835698456E+04  0.39388304591E+04 0.  0.
        3    1    3    3  502    0 -0.10316224607E+04  0.92303086699E+03 -0.11190803905E+04  0.17800482615E+04  0.10100000352E+00 0.  1.
       -3    1    3    3    0  502  0.10316224607E+04 -0.92303086699E+03  0.17144318238E+04  0.22035215841E+04  0.10100000352E+00 0. -1.
</event>
<event>
 5   0  0.4449262E-07  0.4082653E+04  0.7818609E-02  0.7988077E-01
        2   -1    0    0  501    0  0.00000000000E+00  0.00000000000E+00  0.31537853015E+04  0.31537853015E+04  0.25500000920E-02 0.  1.
       -2   -1    0    0    0  501  0.00000000000E+00  0.00000000000E+00 -0.13212737909E+04  0.13212737909E+04  0.25500000920E-02 0. -1.
    10030    2    1    2    0    0  0.00000000000E+00  0.00000000000E+00  0.18325115106E+04  0.44750590925E+04  0.40826529910E+04 0.  0.
        1    1    3    3  502    0 -0.10852998210E+04 -0.16583012935E+04  0.38019479608E+03  0.20180156006E+04  0.50400001928E-02 0. -1.
       -1    1    3    3    0  502  0.10852998210E+04  0.16583012935E+04  0.14523167145E+04  0.24570434918E+04  0.50400001928E-02 0.  1.
</event>
<event>
 5   0  0.2647879E-07  0.2686572E+04  0.7818609E-02  0.8339375E-01
       -1   -1    0    0    0  501  0.00000000000E+00  0.00000000000E+00  0.12275191911E+04  0.12275191911E+04  0.50400001928E-02 0. -1.
        1   -1    0    0  501    0  0.00000000000E+00  0.00000000000E+00 -0.14699706847E+04  0.14699706847E+04  0.50400001928E-02 0.  1.
    10030    2    1    2    0    0  0.00000000000E+00  0.00000000000E+00 -0.24245149361E+03  0.26974898758E+04  0.26865719613E+04 0.  0.
        2    1    3    3  502    0 -0.98534523126E+03 -0.75675619926E+03  0.39156694585E+03  0.13026549209E+04  0.25500000920E-02 0. -1.
       -2    1    3    3    0  502  0.98534523126E+03  0.75675619926E+03 -0.63401843947E+03  0.13948349549E+04  0.25500000920E-02 0.  1.
</event>
<event>
 5   0  0.7256473E-07  0.2988719E+04  0.7818609E-02  0.8246960E-01
       -2   -1    0    0    0  501  0.00000000000E+00  0.00000000000E+00  0.17672063037E+04  0.17672063037E+04  0.25500000920E-02 0.  1.
        2   -1    0    0  501    0  0.00000000000E+00  0.00000000000E+00 -0.12636385075E+04  0.12636385075E+04  0.25500000920E-02 0. -1.
    10030    2    1    2    0    0  0.00000000000E+00  0.00000000000E+00  0.50356779614E+03  0.30308448112E+04  0.29887187463E+04 0.  0.
        4    1    3    3  502    0 -0.12073801319E+04 -0.47384383003E+02  0.11434360013E+04  0.16635683228E+04  0.12699999809E+01 0.  1.
       -4    1    3    3    0  502  0.12073801319E+04  0.47384383003E+02 -0.63986820518E+03  0.13672764884E+04  0.12699999809E+01 0. -1.
</event>
<event>
 5   0  0.7570277E-07  0.2998966E+04  0.7818609E-02  0.8244026E-01
       -2   -1    0    0    0  501  0.00000000000E+00  0.00000000000E+00  0.11159101427E+04  0.11159101427E+04  0.25500000920E-02 0. -1.
        2   -1    0    0  501    0  0.00000000000E+00  0.00000000000E+00 -0.20149023384E+04  0.20149023384E+04  0.25500000920E-02 0.  1.
    10030    2    1    2    0    0  0.00000000000E+00  0.00000000000E+00 -0.89899219573E+03  0.31308124812E+04  0.29989664593E+04 0.  0.
        5    1    3    3  502    0 -0.78704082155E+03  0.26298899035E+03  0.85434383320E+03  0.11910171868E+04  0.46999998093E+01 0. -1.
       -5    1    3    3    0  502  0.78704082155E+03 -0.26298899035E+03 -0.17533360289E+04  0.19397952944E+04  0.46999998093E+01 0.  1.
</event>
<event>
 5   0  0.4449262E-07  0.3020164E+04  0.7818609E-02  0.8237996E-01
       -2   -1    0    0    0  501  0.00000000000E+00  0.00000000000E+00  0.11586302248E+04  0.11586302248E+04  0.25500000920E-02 0.  1.
        2   -1    0    0  501    0  0.00000000000E+00  0.00000000000E+00 -0.19681411592E+04  0.19681411592E+04  0.25500000920E-02 0. -1.
    10030    2    1    2    0    0  0.00000000000E+00  0.00000000000E+00 -0.80951093439E+03  0.31267713840E+04  0.30201641239E+04 0.  0.
        1    1    3    3  502    0  0.91235447278E+03 -0.26108147339E+03  0.81135394469E+03  0.12485389234E+04  0.50400001928E-02 0.  1.
       -1    1    3    3    0  502 -0.91235447278E+03  0.26108147339E+03 -0.16208648791E+04  0.18782324606E+04  0.50400001928E-02 0. -1.
</event>
<event>
 5   0  0.2401125E-07  0.2234985E+04  0.7818609E-02  0.8504006E-01
        3   -1    0    0  501    0  0.00000000000E+00  0.00000000000E+00  0.94136571977E+03  0.94136572519E+03  0.10100000352E+00 0. -1.
       -3   -1    0    0    0  501  0.00000000000E+00  0.00000000000E+00 -0.13265715681E+04  0.13265715719E+04  0.10100000352E+00 0.  1.
    10030    2    1    2    0    0  0.00000000000E+00  0.00000000000E+00 -0.38520584830E+03  0.22679372971E+04  0.22349845722E+04 0.  0.
        4    1    3    3  502    0  0.57777099706E+03 -0.52698561506E+03 -0.10026548859E+04  0.12715547950E+04  0.12699999809E+01 0.  1.
       -4    1    3    3    0  502 -0.57777099706E+03  0.52698561506E+03  0.61744903763E+03  0.99638250210E+03  0.12699999809E+01 0. -1.
</event>
<event>
 5   0  0.2647879E-07  0.2810838E+04  0.7818609E-02  0.8299911E-01
       -1   -1    0    0    0  501  0.00000000000E+00  0.00000000000E+00  0.97574343760E+03  0.97574343762E+03  0.50400001928E-02 0.  1.
        1   -1    0    0  501    0  0.00000000000E+00  0.00000000000E+00 -0.20243059250E+04  0.20243059250E+04  0.50400001928E-02 0. -1.
    10030    2    1    2    0    0  0.00000000000E+00  0.00000000000E+00 -0.10485624874E+04  0.30000493626E+04  0.28108384671E+04 0.  0.
        2    1    3    3  502    0 -0.26530002239E+03  0.52376239158E+03  0.83858068173E+03  0.10236838889E+04  0.25500000920E-02 0.  1.
       -2    1    3    3    0  502  0.26530002239E+03 -0.52376239158E+03 -0.18871431691E+04  0.19763654736E+04  0.25500000920E-02 0. -1.
</event>
<event>
 5   0  0.2647879E-07  0.4095612E+04  0.7818609E-02  0.7985531E-01
       -1   -1    0    0    0  501  0.00000000000E+00  0.00000000000E+00  0.17611039673E+04  0.17611039673E+04  0.50400001928E-02 0. -1.
        1   -1    0    0  501    0  0.00000000000E+00  0.00000000000E+00 -0.23811827543E+04  0.23811827543E+04  0.50400001928E-02 0.  1.
    10030    2    1    2    0    0  0.00000000000E+00  0.00000000000E+00 -0.62007878693E+03  0.41422867216E+04  0.40956124795E+04 0.  0.
        2    1    3    3  502    0 -0.15477720704E+04 -0.12912587121E+04 -0.67549218164E+03  0.21258497432E+04  0.25500000920E-02 0.  1.
       -2    1    3    3    0  502  0.15477720704E+04  0.12912587121E+04  0.55413394707E+02  0.20164369784E+04  0.25500000920E-02 0. -1.
</event>
<event>
 5   0  0.4449262E-07  0.2121842E+04  0.7818609E-02  0.8551682E-01
        2   -1    0    0  501    0  0.00000000000E+00  0.00000000000E+00  0.97886792585E+03  0.97886792586E+03  0.25500000920E-02 0. -1.
       -2   -1    0    0    0  501  0.00000000000E+00  0.00000000000E+00 -0.11498526347E+04  0.11498526347E+04  0.25500000920E-02 0.  1.
    10030    2    1    2    0    0  0.00000000000E+00  0.00000000000E+00 -0.17098470883E+03  0.21287205605E+04  0.21218424669E+04 0.  0.
        1    1    3    3  502    0 -0.43162782976E+03 -0.96170098223E+03 -0.20580817085E+03  0.10740243786E+04  0.50400001928E-02 0. -1.
       -1    1    3    3    0  502  0.43162782976E+03  0.96170098223E+03  0.34823462020E+02  0.10546961819E+04  0.50400001928E-02 0.  1.
</event>
<event>
 5   0  0.7256473E-07  0.4103965E+04  0.7818609E-02  0.7983896E-01
        2   -1    0    0  501    0  0.00000000000E+00  0.00000000000E+00  0.19324721511E+04  0.19324721511E+04  0.25500000920E-02 0.  1.
       -2   -1    0    0    0  501  0.00000000000E+00  0.00000000000E+00 -0.21788841757E+04  0.21788841757E+04  0.25500000920E-02 0. -1.
    10030    2    1    2    0    0  0.00000000000E+00  0.00000000000E+00 -0.24641202457E+03  0.41113563268E+04  0.41039653946E+04 0.  0.
        4    1    3    3  502    0 -0.15355306509E+04 -0.48909392095E+03 -0.13957551005E+04  0.21319477378E+04  0.12699999809E+01 0. -1.
       -4    1    3    3    0  502  0.15355306509E+04  0.48909392095E+03  0.11493430759E+04  0.19794085890E+04  0.12699999809E+01 0.  1.
</event>
<event>
 5   0  0.2401125E-07  0.2362229E+04  0.7818609E-02  0.8453781E-01
        1   -1    0    0  501    0  0.00000000000E+00  0.00000000000E+00  0.18176060997E+04  0.18176060997E+04  0.50400001928E-02 0. -1.
       -1   -1    0    0    0  501  0.00000000000E+00  0.00000000000E+00 -0.76751035438E+03  0.76751035440E+03  0.50400001928E-02 0.  1.
    10030    2    1    2    0    0  0.00000000000E+00  0.00000000000E+00  0.10500957453E+04  0.25851164541E+04  0.23622290336E+04 0.  0.
        5    1    3    3  502    0  0.94738750142E+03 -0.69255552424E+03  0.37890672874E+03  0.12331944823E+04  0.46999998093E+01 0.  1.
       -5    1    3    3    0  502 -0.94738750142E+03  0.69255552424E+03  0.67118901660E+03  0.13519219719E+04  0.46999998093E+01 0. -1.
</event>
<event>
 5   0  0.7256473E-07  0.3902906E+04  0.7818609E-02  0.8024425E-01
        2   -1    0    0  501    0  0.00000000000E+00  0.00000000000E+00  0.12609316722E+04  0.12609316722E+04  0.25500000920E-02 0. -1.
       -2   -1    0    0    0  501  0.00000000000E+00  0.00000000000E+00 -0.30201231318E+04  0.30201231318E+04  0.25500000920E-02 0.  1.
    10030    2    1    2    0    0  0.00000000000E+00  0.00000000000E+00 -0.17591914596E+04  0.42810548039E+04  0.39029060510E+04 0.  0.
        4    1    3    3  502    0  0.17522023553E+04  0.74690300974E+03 -0.41410867535E+03  0.19492472413E+04  0.12699999809E+01 0. -1.
       -4    1    3    3    0  502 -0.17522023553E+04 -0.74690300974E+03 -0.13450827843E+04  0.23318075626E+04  0.12699999809E+01 0.  1.
</event>
<event>
 5   0  0.4449262E-07  0.3972028E+04  0.7818609E-02  0.8010213E-01
       -2   -1    0    0    0  501  0.00000000000E+00  0.00000000000E+00  0.13704714051E+04  0.13704714051E+04  0.25500000920E-02 0.  1.
        2   -1    0    0  501    0  0.00000000000E+00  0.00000000000E+00 -0.28780258036E+04  0.28780258036E+04  0.25500000920E-02 0. -1.
    10030    2    1    2    0    0  0.00000000000E+00  0.00000000000E+00 -0.15075543986E+04  0.42484972087E+04  0.39720282310E+04 0.  0.
        1    1    3    3  502    0 -0.41044410869E+03  0.14006093405E+04 -0.21944035992E+04  0.26354464607E+04  0.50400001928E-02 0. -1.
       -1    1    3    3    0  502  0.41044410869E+03 -0.14006093405E+04  0.68684920065E+03  0.16130507480E+04  0.50400001928E-02 0.  1.
</event>
<event>
 5   0  0.3579559E-07  0.2977413E+04  0.7818609E-02  0.8250210E-01
       -1   -1    0    0    0  501  0.00000000000E+00  0.00000000000E+00  0.10828425607E+04  0.10828425607E+04  0.50400001928E-02 0.  1.
        1   -1    0    0  501    0  0.00000000000E+00  0.00000000000E+00 -0.20466936391E+04  0.20466936391E+04  0.50400001928E-02 0. -1.
    10030    2    1    2    0    0  0.00000000000E+00  0.00000000000E+00 -0.96385107837E+03  0.31295361997E+04  0.29774129583E+04 0.  0.
        4    1    3    3  502    0  0.13043768430E+04  0.27900516135E+03 -0.11767624578E+04  0.17787676418E+04  0.12699999809E+01 0.  1.
       -4    1    3    3    0  502 -0.13043768430E+04 -0.27900516135E+03  0.21291137939E+03  0.13507685579E+04  0.12699999809E+01 0. -1.
</event>
<event>
 5   0  0.2647879E-07  0.2417125E+04  0.7818609E-02  0.8433120E-01
       -1   -1    0    0    0  501  0.00000000000E+00  0.00000000000E+00  0.90897205843E+03  0.90897205845E+03  0.50400001928E-02 0.  1.
        1   -1    0    0  501    0  0.00000000000E+00  0.00000000000E+00 -0.16068958374E+04  0.16068958374E+04  0.50400001928E-02 0. -1.
    10030    2    1    2    0    0  0.00000000000E+00  0.00000000000E+00 -0.69792377893E+03  0.25158678958E+04  0.24171250832E+04 0.  0.
        2    1    3    3  502    0 -0.21818690484E+03 -0.95666399705E+03  0.38541895459E+03  0.10542102728E+04  0.25500000920E-02 0.  1.
       -2    1    3    3    0  502  0.21818690484E+03  0.95666399705E+03 -0.10833427335E+04  0.14616576230E+04  0.25500000920E-02 0. -1.
</event>
<event>
 5   0  0.2713405E-07  0.2903930E+04  0.7818609E-02  0.8271709E-01
       -1   -1    0    0    0  501  0.00000000000E+00  0.00000000000E+00  0.22998170607E+04  0.22998170607E+04  0.50400001928E-02 0. -1.
        1   -1    0    0  501    0  0.00000000000E+00  0.00000000000E+00 -0.91668282781E+03  0.91668282783E+03  0.50400001928E-02 0.  1.
    10030    2    1    2    0    0  0.00000000000E+00  0.00000000000E+00  0.13831342329E+04  0.32164998885E+04  0.29039303068E+04 0.  0.
        1    1    3    3  502    0  0.10961578188E+04  0.71644018105E+03  0.13862543343E+04  0.19069739316E+04  0.50400001928E-02 0. -1.
       -1    1    3    3    0  502 -0.10961578188E+04 -0.71644018105E+03 -0.31201013762E+01  0.13095259569E+04  0.50400001928E-02 0.  1.
</event>
<event>
 5   0  0.2601252E-07  0.3067313E+04  0.7818609E-02  0.8224766E-01
       -1   -1    0    0    0  501  0.00000000000E+00  0.00000000000E+00  0.16483529615E+04  0.16483529615E+04  0.50400001928E-02 0. -1.
        1   -1    0    0  501    0  0.00000000000E+00  0.00000000000E+00 -0.14269413206E+04  0.14269413206E+04  0.50400001928E-02 0.  1.
    10030    2    1    2    0    0  0.00000000000E+00  0.00000000000E+00  0.22141164096E+03  0.30752942821E+04  0.30673134510E+04 0.  0.
        3    1    3    3  502    0  0.19125479684E+03 -0.65328455712E+03 -0.12671857750E+04  0.14384432239E+04  0.10100000352E+00 0.  1.
       -3    1    3    3    0  502 -0.19125479684E+03  0.65328455712E+03  0.14885974159E+04  0.16368510582E+04  0.10100000352E+00 0. -1.
</event>
<event>
 5   0  0.2401125E-07  0.3975138E+04  0.7818609E-02  0.8009581E-01
        1   -1    0    0  501    0  0.00000000000E+00  0.00000000000E+00  0.17811827254E+04  0.17811827254E+04  0.50400001928E-02 0.  1.
       -1   -1    0    0    0  501  0.00000000000E+00  0.00000000000E+00 -0.22178690959E+04  0.22178690960E+04  0.50400001928E-02 0. -1.
    10030    2    1    2    0    0  0.00000000000E+00  0.00000000000E+00 -0.43668637057E+03  0.39990518213E+04  0.39751377943E+04 0.  0.
        5    1    3    3  502    0 -0.18730697091E+04 -0.62909613072E+03 -0.43470901100E+03  0.20231525130E+04  0.46999998093E+01 0. -1.
       -5    1    3    3    0  502  0.18730697091E+04  0.62909613072E+03 -0.19773595669E+01  0.19758993083E+04  0.46999998093E+01 0.  1.
</event>
<event>
 5   0  0.2401125E-07  0.2587307E+04  0.7818609E-02  0.8372525E-01
        1   -1    0    0  501    0  0.00000000000E+00  0.00000000000E+00  0.19190199274E+04  0.19190199274E+04  0.50400001928E-02 0. -1.
       -1   -1    0    0    0  501  0.00000000000E+00  0.00000000000E+00 -0.87208048707E+03  0.87208048708E+03  0.50400001928E-02 0.  1.
    10030    2    1    2    0    0  0.00000000000E+00  0.00000000000E+00  0.10469394403E+04  0.27911004145E+04  0.25873073517E+04 0.  0.
        5    1    3    3  502    0  0.24169109333E+03  0.77779427906E+03 -0.56075187957E+03  0.98885958840E+03  0.46999998093E+01 0.  1.
       -5    1    3    3    0  502 -0.24169109333E+03 -0.77779427906E+03  0.16076913199E+04  0.18022408261E+04  0.46999998093E+01 0. -1.
</event>
<event>
 5   0  0.2601252E-07  0.2167433E+04  0.7818609E-02  0.8532107E-01
        1   -1    0    0  501    0  0.00000000000E+00  0.00000000000E+00  0.11086490026E+04  0.11086490026E+04  0.50400001928E-02 0. -1.
       -1   -1    0    0    0  501  0.00000000000E+00  0.00000000000E+00 -0.10593451538E+04  0.10593451538E+04  0.50400001928E-02 0.  1.
    10030    2    1    2    0    0  0.00000000000E+00  0.00000000000E+00  0.49303848800E+02  0.21679941565E+04  0.21674334576E+04 0.  0.
        3    1    3    3  502    0 -0.87319189622E+03  0.64182285188E+03  0.18225527475E+02  0.10838509311E+04  0.10100000352E+00 0.  1.
       -3    1    3    3    0  502  0.87319189622E+03 -0.64182285188E+03  0.31078321325E+02  0.10841432254E+04  0.10100000352E+00 0. -1.
</event>
<event>
 5   0  0.7256473E-07  0.2552492E+04  0.7818609E-02  0.8384520E-01
       -2   -1    0    0    0  501  0.00000000000E+00  0.00000000000E+00  0.10057324235E+04  0.10057324235E+04  0.25500000920E-02 0. -1.
        2   -1    0    0  501    0  0.00000000000E+00  0.00000000000E+00 -0.16195197598E+04  0.16195197598E+04  0.25500000920E-02 0.  1.
    10030    2    1    2    0    0  0.00000000000E+00  0.00000000000E+00 -0.61378733630E+03  0.26252521834E+04  0.25524917497E+04 0.  0.
        4    1    3    3  502    0  0.31489899492E+03 -0.93471586266E+03 -0.11398859740E+04  0.15073807639E+04  0.12699999809E+01 0.  1.
       -4    1    3    3    0  502 -0.31489899492E+03  0.93471586266E+03  0.52609863770E+03  0.11178714194E+04  0.12699999809E+01 0. -1.
</event>
<event>
 5   0  0.4449262E-07  0.3901755E+04  0.7818609E-02  0.8024664E-01
        2   -1    0    0  501    0  0.00000000000E+00  0.00000000000E+00  0.13068198872E+04  0.13068198872E+04  0.25500000920E-02 0. -1.
       -2   -1    0    0    0  501  0.00000000000E+00  0.00000000000E+00 -0.29123549302E+04  0.29123549302E+04  0.25500000920E-02 0.  1.
    10030    2    1    2    0    0  0.00000000000E+00  0.00000000000E+00 -0.16055350429E+04  0.42191748174E+04  0.39017551647E+04 0.  0.
        1    1    3    3  502    0 -0.17479622174E+03 -0.13873126325E+04  0.66832309025E+03  0.15497889574E+04  0.50400001928E-02 0. -1.
       -1    1    3    3    0  502  0.17479622174E+03  0.13873126325E+04 -0.22738581332E+04  0.26693858600E+04  0.50400001928E-02 0.  1.
</event>
<event>
 5   0  0.7570277E-07  0.3139153E+04  0.7818609E-02  0.8205074E-01
        2   -1    0    0  501    0  0.00000000000E+00  0.00000000000E+00  0.25636809208E+04  0.25636809208E+04  0.25500000920E-02 0. -1.
       -2   -1    0    0    0  501  0.00000000000E+00  0.00000000000E+00 -0.96095025269E+03  0.96095025269E+03  0.25500000920E-02 0.  1.
    10030    2    1    2    0    0  0.00000000000E+00  0.00000000000E+00  0.16027306681E+04  0.35246311735E+04  0.31391526428E+04 0.  0.
        5    1    3    3  502    0  0.10033908806E+04 -0.11768163770E+04  0.50038516466E+03  0.16254529977E+04  0.46999998093E+01 0. -1.
       -5    1    3    3    0  502 -0.10033908806E+04  0.11768163770E+04  0.11023455035E+04  0.18991781759E+04  0.46999998093E+01 0.  1.
</event>
<event>
 5   0  0.6043512E-07  0.4091509E+04  0.7818609E-02  0.7986336E-01
        2   -1    0    0  501    0  0.00000000000E+00  0.00000000000E+00  0.16058987521E+04  0.16058987521E+04  0.25500000920E-02 0.  1.
       -2   -1    0    0    0  501  0.00000000000E+00  0.00000000000E+00 -0.26060871575E+04  0.26060871575E+04  0.25500000920E-02 0. -1.
    10030    2    1    2    0    0  0.00000000000E+00  0.00000000000E+00 -0.10001884054E+04  0.42119859096E+04  0.40915093127E+04 0.  0.
        3    1    3    3  502    0  0.70381642209E+03 -0.69183510972E+03  0.13446304321E+04  0.16679401620E+04  0.10100000352E+00 0.  1.
       -3    1    3    3    0  502 -0.70381642209E+03  0.69183510972E+03 -0.23448188375E+04  0.25440457476E+04  0.10100000352E+00 0. -1.
</event>
<event>
 5   0  0.2401125E-07  0.3957316E+04  0.7818609E-02  0.8013213E-01
       -1   -1    0    0    0  501  0.00000000000E+00  0.00000000000E+00  0.16382853403E+04  0.16382853403E+04  0.50400001928E-02 0. -1.
        1   -1    0    0  501    0  0.00000000000E+00  0.00000000000E+00 -0.23897473091E+04  0.23897473091E+04  0.50400001928E-02 0.  1.
    10030    2    1    2    0    0  0.00000000000E+00  0.00000000000E+00 -0.75146196883E+03  0.40280326493E+04  0.39573162539E+04 0.  0.
        5    1    3    3  502    0  0.17965196805E+04 -0.28562238977E+03 -0.11681037352E+04  0.21618398502E+04  0.46999998093E+01 0. -1.
       -5    1    3    3    0  502 -0.17965196805E+04  0.28562238977E+03  0.41664176634E+03  0.18661927991E+04  0.46999998093E+01 0.  1.
</event>
<event>
 5   0  0.2401125E-07  0.2115072E+04  0.7818609E-02  0.8554633E-01
       -1   -1    0    0    0  501  0.00000000000E+00  0.00000000000E+00  0.50290045712E+03  0.50290045715E+03  0.50400001928E-02 0.  1.
        1   -1    0    0  501    0  0.00000000000E+00  0.00000000000E+00 -0.22238649879E+04  0.22238649879E+04  0.50400001928E-02 0. -1.
    10030    2    1    2    0    0  0.00000000000E+00  0.00000000000E+00 -0.17209645308E+04  0.27267654451E+04  0.21150723099E+04 0.  0.
        5    1    3    3  502    0 -0.16868060946E+03 -0.49740102556E+03 -0.20438165293E+04  0.21102296139E+04  0.46999998093E+01 0. -1.
       -5    1    3    3    0  502  0.16868060946E+03  0.49740102556E+03  0.32285199843E+03  0.61653583117E+03  0.46999998093E+01 0.  1.
</event>
<event>
 5   0  0.7570277E-07  0.3910659E+04  0.7818609E-02  0.8022816E-01
       -2   -1    0    0    0  501  0.00000000000E+00  0.00000000000E+00  0.22190981461E+04  0.22190981461E+04  0.25500000920E-02 0. -1.
        2   -1    0    0  501    0  0.00000000000E+00  0.00000000000E+00 -0.17229133127E+04  0.17229133127E+04  0.25500000920E-02 0.  1.
    10030    2    1    2    0    0  0.00000000000E+00  0.00000000000E+00  0.49618483338E+03  0.39420114587E+04  0.39106591455E+04 0.  0.
        5    1    3    3  502    0 -0.17794529868E+04 -0.68261831076E+03 -0.19229798420E+03  0.19155733594E+04  0.46999998093E+01 0.  1.
       -5    1    3    3    0  502  0.17794529868E+04  0.68261831076E+03  0.68848281758E+03  0.20264380994E+04  0.46999998093E+01 0. -1.
</event>
<event>
 5   0  0.7220704E-07  0.2063623E+04  0.7818609E-02  0.8577439E-01
       -2   -1    0    0    0  501  0.00000000000E+00  0.00000000000E+00  0.57778901519E+03  0.57778901520E+03  0.25500000920E-02 0.  1.
        2   -1    0    0  501    0  0.00000000000E+00  0.00000000000E+00 -0.18426014969E+04  0.18426014969E+04  0.25500000920E-02 0. -1.
    10030    2    1    2    0    0  0.00000000000E+00  0.00000000000E+00 -0.12648124817E+04  0.24203905121E+04  0.20636229348E+04 0.  0.
        2    1    3    3  502    0  0.36874766451E+03  0.63479178509E+02 -0.17602246874E+04  0.17995542215E+04  0.25500000920E-02 0. -1.
       -2    1    3    3    0  502 -0.36874766451E+03 -0.63479178509E+02  0.49541220566E+03  0.62083629058E+03  0.25500000920E-02 0.  1.
</event>
<event>
 5   0  0.4449262E-07  0.3954797E+04  0.7818609E-02  0.8013728E-01
        2   -1    0    0  501    0  0.00000000000E+00  0.00000000000E+00  0.24087905124E+04  0.24087905124E+04  0.25500000920E-02 0.  1.
       -2   -1    0    0    0  501  0.00000000000E+00  0.00000000000E+00 -0.16232646509E+04  0.16232646509E+04  0.25500000920E-02 0. -1.
    10030    2    1    2    0    0  0.00000000000E+00  0.00000000000E+00  0.78552586145E+03  0.40320551633E+04  0.39547968293E+04 0.  0.
        1    1    3    3  502    0 -0.13727951281E+04 -0.65116097165E+03  0.16829998850E+04  0.22673918249E+04  0.50400001928E-02 0.  1.
       -1    1    3    3    0  502  0.13727951281E+04  0.65116097165E+03 -0.89747402359E+03  0.17646633384E+04  0.50400001928E-02 0. -1.
</event>
<event>
 5   0  0.2401125E-07  0.4050043E+04  0.7818609E-02  0.7994527E-01
       -1   -1    0    0    0  501  0.00000000000E+00  0.00000000000E+00  0.12762574837E+04  0.12762574837E+04  0.50400001928E-02 0.  1.
        1   -1    0    0  501    0  0.00000000000E+00  0.00000000000E+00 -0.32130754491E+04  0.32130754491E+04  0.50400001928E-02 0. -1.
    10030    2    1    2    0    0  0.00000000000E+00  0.00000000000E+00 -0.19368179655E+04  0.44893329328E+04  0.40500427590E+04 0.  0.
        5    1    3    3  502    0 -0.53241151026E+03  0.19414832600E+04 -0.72588484275E+03  0.21400350839E+04  0.46999998093E+01 0.  1.
       -5    1    3    3    0  502  0.53241151026E+03 -0.19414832600E+04 -0.12109331227E+04  0.23492978489E+04  0.46999998093E+01 0. -1.
</event>
<event>
 5   0  0.7256473E-07  0.3847011E+04  0.7818609E-02  0.8036141E-01
        2   -1    0    0  501    0  0.00000000000E+00  0.00000000000E+00  0.28184810636E+04  0.28184810636E+04  0.25500000920E-02 0. -1.
       -2   -1    0    0    0  501  0.00000000000E+00  0.00000000000E+00 -0.13127185772E+04  0.13127185772E+04  0.25500000920E-02 0.  1.
    10030    2    1    2    0    0  0.00000000000E+00  0.00000000000E+00  0.15057624864E+04  0.41311996408E+04  0.38470105026E+04 0.  0.
        4    1    3    3  502    0  0.63590841150E+02  0.17636287453E+04  0.15745452514E+04  0.23650844611E+04  0.12699999809E+01 0. -1.
       -4    1    3    3    0  502 -0.63590841150E+02 -0.17636287453E+04 -0.68782765062E+02  0.17661151797E+04  0.12699999809E+01 0.  1.
</event>
<event>
 5   0  0.7994709E-07  0.1968419E+04  0.7818609E-02  0.8621530E-01
       -2   -1    0    0    0  501  0.00000000000E+00  0.00000000000E+00  0.55242169074E+03  0.55242169075E+03  0.25500000920E-02 0. -1.
        2   -1    0    0  501    0  0.00000000000E+00  0.00000000000E+00 -0.17534950502E+04  0.17534950502E+04  0.25500000920E-02 0.  1.
    10030    2    1    2    0    0  0.00000000000E+00  0.00000000000E+00 -0.12010733595E+04  0.23059167410E+04  0.19684193662E+04 0.  0.
        4    1    3    3  502    0  0.17495056509E+03 -0.81186639959E+03 -0.12192299975E+04  0.14752146118E+04  0.12699999809E+01 0.  1.
       -4    1    3    3    0  502 -0.17495056509E+03  0.81186639959E+03  0.18156638078E+02  0.83070212918E+03  0.12699999809E+01 0. -1.
</event>
<event>
 5   0  0.2601252E-07  0.3536644E+04  0.7818609E-02  0.8105160E-01
        1   -1    0    0  501    0  0.00000000000E+00  0.00000000000E+00  0.14805382566E+04  0.14805382566E+04  0.50400001928E-02 0. -1.
       -1   -1    0    0    0  501  0.00000000000E+00  0.00000000000E+00 -0.21120441462E+04  0.21120441462E+04  0.50400001928E-02 0.  1.
    10030    2    1    2    0    0  0.00000000000E+00  0.00000000000E+00 -0.63150588958E+03  0.35925824029E+04  0.35366436960E+04 0.  0.
        3    1    3    3  502    0  0.15026297909E+04 -0.40521549095E+03  0.53708947323E+03  0.16463781446E+04  0.10100000352E+00 0. -1.
       -3    1    3    3    0  502 -0.15026297909E+04  0.40521549095E+03 -0.11685953628E+04  0.19462042582E+04  0.10100000352E+00 0.  1.
</event>
<event>
 5   0  0.7570277E-07  0.4040245E+04  0.7818609E-02  0.7996477E-01
        2   -1    0    0  501    0  0.00000000000E+00  0.00000000000E+00  0.29016181119E+04  0.29016181119E+04  0.25500000920E-02 0. -1.
       -2   -1    0    0    0  501  0.00000000000E+00  0.00000000000E+00 -0.14064202353E+04  0.14064202353E+04  0.25500000920E-02 0.  1.
    10030    2    1    2    0    0  0.00000000000E+00  0.00000000000E+00  0.14951978766E+04  0.43080383472E+04  0.40402447587E+04 0.  0.
        5    1    3    3  502    0  0.24212706650E+03  0.16195837553E+04  0.20088776068E+04  0.25917732127E+04  0.46999998093E+01 0. -1.
       -5    1    3    3    0  502 -0.24212706650E+03 -0.16195837553E+04 -0.51367973017E+03  0.17162651345E+04  0.46999998093E+01 0.  1.
</event>
<event>
 5   0  0.2401125E-07  0.3970934E+04  0.7818609E-02  0.8010436E-01
        1   -1    0    0  501    0  0.00000000000E+00  0.00000000000E+00  0.20791115163E+04  0.20791115163E+04  0.50400001928E-02 0. -1.
       -1   -1    0    0    0  501  0.00000000000E+00  0.00000000000E+00 -0.18960405989E+04  0.18960405989E+04  0.50400001928E-02 0.  1.
    10030    2    1    2    0    0  0.00000000000E+00  0.00000000000E+00  0.18307091741E+03  0.39751521153E+04  0.39709343206E+04 0.  0.
        5    1    3    3  502    0 -0.10499621372E+04 -0.27947199415E+03 -0.15720156231E+04  0.19109631850E+04  0.46999998093E+01 0.  1.
       -5    1    3    3    0  502  0.10499621372E+04  0.27947199415E+03  0.17550865405E+04  0.20641889303E+04  0.46999998093E+01 0. -1.
</event>
<event>
 5   0  0.4449262E-07  0.2869072E+04  0.7818609E-02  0.8282139E-01
        2   -1    0    0  501    0  0.00000000000E+00  0.00000000000E+00  0.81834727928E+03  0.81834727928E+03  0.25500000920E-02 0. -1.
       -2   -1    0    0    0  501  0.00000000000E+00  0.00000000000E+00 -0.25146943708E+04  0.25146943708E+04  0.25500000920E-02 0.  1.
    10030    2    1    2    0    0  0.00000000000E+00  0.00000000000E+00 -0.16963470916E+04  0.33330416501E+04  0.28690718336E+04 0.  0.
        1    1    3    3  502    0 -0.26752684218E+01  0.83222860853E+02  0.81553759200E+03  0.81977726586E+03  0.50400001928E-02 0. -1.
       -1    1    3    3    0  502  0.26752684218E+01 -0.83222860853E+02 -0.25118846836E+04  0.25132643843E+04  0.50400001928E-02 0.  1.
</event>
<event>
 5   0  0.5161550E-07  0.4115143E+04  0.7818609E-02  0.7981713E-01
       -2   -1    0    0    0  501  0.00000000000E+00  0.00000000000E+00  0.33628965615E+04  0.33628965615E+04  0.25500000920E-02 0.  1.
        2   -1    0    0  501    0  0.00000000000E+00  0.00000000000E+00 -0.12589149023E+04  0.12589149023E+04  0.25500000920E-02 0. -1.
    10030    2    1    2    0    0  0.00000000000E+00  0.00000000000E+00  0.21039816592E+04  0.46218114638E+04  0.41151430576E+04 0.  0.
        2    1    3    3  502    0  0.15780060227E+04  0.63505459233E+03 -0.24821653567E+03  0.17190139009E+04  0.25500000920E-02 0. -1.
       -2    1    3    3    0  502 -0.15780060227E+04 -0.63505459233E+03  0.23521981949E+04  0.29027975629E+04  0.25500000920E-02 0.  1.
</event>
<event>
 5   0  0.6043512E-07  0.3981352E+04  0.7818609E-02  0.8008319E-01
        2   -1    0    0  501    0  0.00000000000E+00  0.00000000000E+00  0.17430247187E+04  0.17430247187E+04  0.25500000920E-02 0.  1.
       -2   -1    0    0    0  501  0.00000000000E+00  0.00000000000E+00 -0.22735135582E+04  0.22735135582E+04  0.25500000920E-02 0. -1.
    10030    2    1    2    0    0  0.00000000000E+00  0.00000000000E+00 -0.53048883956E+03  0.40165382769E+04  0.39813516952E+04 0.  0.
        3    1    3    3  502    0 -0.10415285881E+04 -0.86087796537E+03  0.12094880002E+04  0.18134921847E+04  0.10100000352E+00 0.  1.
       -3    1    3    3    0  502  0.10415285881E+04  0.86087796537E+03 -0.17399768398E+04  0.22030460922E+04  0.10100000352E+00 0. -1.
</event>
<event>
 5   0  0.2401125E-07  0.2300821E+04  0.7818609E-02  0.8477597E-01
        1   -1    0    0  501    0  0.00000000000E+00  0.00000000000E+00  0.12760330634E+04  0.12760330634E+04  0.50400001928E-02 0.  1.
       -1   -1    0    0    0  501  0.00000000000E+00  0.00000000000E+00 -0.10371554338E+04  0.10371554338E+04  0.50400001928E-02 0. -1.
    10030    2    1    2    0    0  0.00000000000E+00  0.00000000000E+00  0.23887762957E+03  0.23131884972E+04  0.23008212668E+04 0.  0.
        5    1    3    3  502    0 -0.10040611190E+04  0.43639605821E+03  0.47466829119E+03  0.11932779756E+04  0.46999998093E+01 0.  1.
       -5    1    3    3    0  502  0.10040611190E+04 -0.43639605821E+03 -0.23579066163E+03  0.11199105216E+04  0.46999998093E+01 0. -1.
</event>
<event>
 5   0  0.2647879E-07  0.3955352E+04  0.7818609E-02  0.8013614E-01
       -1   -1    0    0    0  501  0.00000000000E+00  0.00000000000E+00  0.29784048507E+04  0.29784048507E+04  0.50400001928E-02 0.  1.
        1   -1    0    0  501    0  0.00000000000E+00  0.00000000000E+00 -0.13131872125E+04  0.13131872125E+04  0.50400001928E-02 0. -1.
    10030    2    1    2    0    0  0.00000000000E+00  0.00000000000E+00  0.16652176382E+04  0.42915920632E+04  0.39553524059E+04 0.  0.
        2    1    3    3  502    0 -0.13239108489E+04  0.71203163001E+03  0.22269502910E+04  0.26868264880E+04  0.25500000920E-02 0.  1.
       -2    1    3    3    0  502  0.13239108489E+04 -0.71203163001E+03 -0.56173265288E+03  0.16047655752E+04  0.25500000920E-02 0. -1.
</event>
<event>
 5   0  0.3579559E-07  0.2515713E+04  0.7818609E-02  0.8397409E-01
        1   -1    0    0  501    0  0.00000000000E+00  0.00000000000E+00  0.22394093772E+04  0.22394093772E+04  0.50400001928E-02 0.  1.
       -1   -1    0    0    0  501  0.00000000000E+00  0.00000000000E+00 -0.70652662507E+03  0.70652662508E+03  0.50400001928E-02 0. -1.
    10030    2    1    2    0    0  0.00000000000E+00  0.00000000000E+00  0.15328827522E+04  0.29459360023E+04  0.25157125030E+04 0.  0.
        4    1    3    3  502    0 -0.84254051643E+03 -0.53316880274E+03 -0.13154986646E+03  0.10057089412E+04  0.12699999809E+01 0. -1.
       -4    1    3    3    0  502  0.84254051643E+03  0.53316880274E+03  0.16644326186E+04  0.19402270612E+04  0.12699999809E+01 0.  1.
</event>
<event>
 5   0  0.5161550E-07  0.4022179E+04  0.7818609E-02  0.8000087E-01
        2   -1    0    0  501    0  0.00000000000E+00  0.00000000000E+00  0.22257039395E+04  0.22257039395E+04  0.25500000920E-02 0.  1.
       -2   -1    0    0    0  501  0.00000000000E+00  0.00000000000E+00 -0.18171692971E+04  0.18171692971E+04  0.25500000920E-02 0. -1.
    10030    2    1    2    0    0  0.00000000000E+00  0.00000000000E+00  0.40853464248E+03  0.40428732366E+04  0.40221789435E+04 0.  0.
        2    1    3    3  502    0  0.13902972686E+04  0.97226822576E+03  0.12897536382E+04  0.21311256287E+04  0.25500000920E-02 0. -1.
       -2    1    3    3    0  502 -0.13902972686E+04 -0.97226822576E+03 -0.88121899575E+03  0.19117476079E+04  0.25500000920E-02 0.  1.
</event>
<event>
 5   0  0.2401125E-07  0.2019306E+04  0.7818609E-02  0.8597647E-01
        1   -1    0    0  501    0  0.00000000000E+00  0.00000000000E+00  0.66587281215E+03  0.66587281217E+03  0.50400001928E-02 0.  1.
       -1   -1    0    0    0  501  0.00000000000E+00  0.00000000000E+00 -0.15309219366E+04  0.15309219366E+04  0.50400001928E-02 0. -1.
    10030    2    1    2    0    0  0.00000000000E+00  0.00000000000E+00 -0.86504912447E+03  0.21967947488E+04  0.20193061136E+04 0.  0.
        5    1    3    3  502    0 -0.47761884450E+03  0.62225144433E+01 -0.14002131068E+04  0.14794516940E+04  0.46999998093E+01 0. -1.
       -5    1    3    3    0  502  0.47761884450E+03 -0.62225144433E+01  0.53516398234E+03  0.71734305482E+03  0.46999998093E+01 0.  1.
</event>
<event>
 5   0  0.2647879E-07  0.4031553E+04  0.7818609E-02  0.7998211E-01
       -1   -1    0    0    0  501  0.00000000000E+00  0.00000000000E+00  0.24374911922E+04  0.24374911922E+04  0.50400001928E-02 0. -1.
        1   -1    0    0  501    0  0.00000000000E+00  0.00000000000E+00 -0.16670234629E+04  0.16670234629E+04  0.50400001928E-02 0.  1.
    10030    2    1    2    0    0  0.00000000000E+00  0.00000000000E+00  0.77046772928E+03  0.41045146551E+04  0.40315530546E+04 0.  0.
        2    1    3    3  502    0  0.62755976059E+03  0.18897720631E+04  0.70441243466E+03  0.21121710588E+04  0.25500000920E-02 0.  1.
       -2    1    3    3    0  502 -0.62755976059E+03 -0.18897720631E+04  0.66055294620E+02  0.19923435962E+04  0.25500000920E-02 0. -1.
</event>
<event>
 5   0  0.5161550E-07  0.2751381E+04  0.7818609E-02  0.8318523E-01
       -2   -1    0    0    0  501  0.00000000000E+00  0.00000000000E+00  0.97907200864E+03  0.97907200864E+03  0.25500000920E-02 0. -1.
        2   -1    0    0  501    0  0.00000000000E+00  0.00000000000E+00 -0.19329780824E+04  0.19329780824E+04  0.25500000920E-02 0.  1.
    10030    2    1    2    0    0  0.00000000000E+00  0.00000000000E+00 -0.95390607380E+03  0.29120500911E+04  0.27513812777E+04 0.  0.
        2    1    3    3  502    0 -0.58429037514E+03 -0.12587338449E+03 -0.17883755078E+04  0.18856103278E+04  0.25500000920E-02 0.  1.
       -2    1    3    3    0  502  0.58429037514E+03  0.12587338449E+03  0.83446943399E+03  0.10264397633E+04  0.25500000920E-02 0. -1.
</event>
<event>
 5   0  0.2601252E-07  0.3975986E+04  0.7818609E-02  0.8009409E-01
        1   -1    0    0  501    0  0.00000000000E+00  0.00000000000E+00  0.18290098045E+04  0.18290098045E+04  0.50400001928E-02 0. -1.
       -1   -1    0    0    0  501  0.00000000000E+00  0.00000000000E+00 -0.21607949783E+04  0.21607949783E+04  0.50400001928E-02 0.  1.
    10030    2    1    2    0    0  0.00000000000E+00  0.00000000000E+00 -0.33178517382E+03  0.39898047828E+04  0.39759855135E+04 0.  0.
        3    1    3    3  502    0  0.12852335010E+04  0.21341878296E+03 -0.16726915929E+04  0.21202051562E+04  0.10100000352E+00 0.  1.
       -3    1    3    3    0  502 -0.12852335010E+04 -0.21341878296E+03  0.13409064191E+04  0.18695996267E+04  0.10100000352E+00 0. -1.
</event>
<event>
 5   0  0.4449262E-07  0.3784713E+04  0.7818609E-02  0.8049443E-01
        2   -1    0    0  501    0  0.00000000000E+00  0.00000000000E+00  0.20599387129E+04  0.20599387129E+04  0.25500000920E-02 0. -1.
       -2   -1    0    0    0  501  0.00000000000E+00  0.00000000000E+00 -0.17384078328E+04  0.17384078328E+04  0.25500000920E-02 0.  1.
    10030    2    1    2    0    0  0.00000000000E+00  0.00000000000E+00  0.32153088008E+03  0.37983465457E+04  0.37847132486E+04 0.  0.
        1    1    3    3  502    0  0.76435446611E+03  0.16796334413E+04 -0.25979938365E+03  0.18635723670E+04  0.50400001928E-02 0. -1.
       -1    1    3    3    0  502 -0.76435446611E+03 -0.16796334413E+04  0.58133026373E+03  0.19347741787E+04  0.50400001928E-02 0.  1.
</event>
<event>
 5   0  0.4449262E-07  0.3987845E+04  0.7818609E-02  0.8007003E-01
       -2   -1    0    0    0  501  0.00000000000E+00  0.00000000000E+00  0.30355039872E+04  0.30355039872E+04  0.25500000920E-02 0. -1.
        2   -1    0    0  501    0  0.00000000000E+00  0.00000000000E+00 -0.13097419532E+04  0.13097419532E+04  0.25500000920E-02 0.  1.
    10030    2    1    2    0    0  0.00000000000E+00  0.00000000000E+00  0.17257620340E+04  0.43452459403E+04  0.39878449925E+04 0.  0.
        1    1    3    3  502    0  0.31313818007E+03  0.16827185672E+04  0.19773522016E+04  0.26152474119E+04  0.50400001928E-02 0. -1.
       -1    1    3    3    0  502 -0.31313818007E+03 -0.16827185672E+04 -0.25159016753E+03  0.17299985285E+04  0.50400001928E-02 0.  1.
</event>
<event>
 5   0  0.2713405E-07  0.2100467E+04  0.7818609E-02  0.8561037E-01
       -1   -1    0    0    0  501  0.00000000000E+00  0.00000000000E+00  0.61970221511E+03  0.61970221513E+03  0.50400001928E-02 0.  1.
        1   -1    0    0  501    0  0.00000000000E+00  0.00000000000E+00 -0.17798724873E+04  0.17798724873E+04  0.50400001928E-02 0. -1.
    10030    2    1    2    0    0  0.00000000000E+00  0.00000000000E+00 -0.11601702722E+04  0.23995747024E+04  0.21004674937E+04 0.  0.
        1    1    3    3  502    0 -0.10482173153E+04  0.57716133869E+02 -0.54580873442E+03  0.11832150552E+04  0.50400001928E-02 0.  1.
       -1    1    3    3    0  502  0.10482173153E+04 -0.57716133869E+02 -0.61436153777E+03  0.12163596472E+04  0.50400001928E-02 0. -1.
</event>
<event>
 5   0  0.2401125E-07  0.4001091E+04  0.7818609E-02  0.8004326E-01
       -1   -1    0    0    0  501  0.00000000000E+00  0.00000000000E+00  0.24742264307E+04  0.24742264307E+04  0.50400001928E-02 0.  1.
        1   -1    0    0  501    0  0.00000000000E+00  0.00000000000E+00 -0.16175492045E+04  0.16175492046E+04  0.50400001928E-02 0. -1.
    10030    2    1    2    0    0  0.00000000000E+00  0.00000000000E+00  0.85667722612E+03  0.40917756352E+04  0.40010913485E+04 0.  0.
        5    1    3    3  502    0  0.45798567888E+03  0.14959615830E+04 -0.84671944616E+03  0.17789344705E+04  0.46999998093E+01 0. -1.
       -5    1    3    3    0  502 -0.45798567888E+03 -0.14959615830E+04  0.17033966723E+04  0.23128411647E+04  0.46999998093E+01 0.  1.
</event>
<event>
 5   0  0.7927254E-07  0.2078568E+04  0.7818609E-02  0.8570744E-01
        2   -1    0    0  501    0  0.00000000000E+00  0.00000000000E+00  0.15223622884E+04  0.15223622884E+04  0.25500000920E-02 0.  1.
       -2   -1    0    0    0  501  0.00000000000E+00  0.00000000000E+00 -0.70949689005E+03  0.70949689006E+03  0.25500000920E-02 0. -1.
    10030    2    1    2    0    0  0.00000000000E+00  0.00000000000E+00  0.81286539832E+03  0.22318591784E+04  0.20785680736E+04 0.  0.
        5    1    3    3  502    0  0.84263155731E+03 -0.60613475073E+03  0.46183168428E+03  0.11361064528E+04  0.46999998093E+01 0. -1.
       -5    1    3    3    0  502 -0.84263155731E+03  0.60613475073E+03  0.35103371404E+03  0.10957527257E+04  0.46999998093E+01 0.  1.
</event>
<event>
 5   0  0.2647879E-07  0.3946728E+04  0.7818609E-02  0.8015380E-01
        1   -1    0    0  501    0  0.00000000000E+00  0.00000000000E+00  0.13144780005E+04  0.13144780005E+04  0.50400001928E-02 0.  1.
       -1   -1    0    0    0  501  0.00000000000E+00  0.00000000000E+00 -0.29625184680E+04  0.29625184680E+04  0.50400001928E-02 0. -1.
    10030    2    1    2    0    0  0.00000000000E+00  0.00000000000E+00 -0.16480404674E+04  0.42769964685E+04  0.39467279371E+04 0.  0.
        2    1    3    3  502    0  0.59826021894E+03 -0.73998636430E+03 -0.26974641718E+04  0.28603859997E+04  0.25500000920E-02 0. -1.
       -2    1    3    3    0  502 -0.59826021894E+03  0.73998636430E+03  0.10494237044E+04  0.14166104688E+04  0.25500000920E-02 0.  1.
</event>
<event>
 5   0  0.2647879E-07  0.2427721E+04  0.7818609E-02  0.8429198E-01
       -1   -1    0    0    0  501  0.00000000000E+00  0.00000000000E+00  0.79655084869E+03  0.79655084870E+03  0.50400001928E-02 0. -1.
        1   -1    0    0  501    0  0.00000000000E+00  0.00000000000E+00 -0.18497970538E+04  0.18497970538E+04  0.50400001928E-02 0.  1.
    10030    2    1    2    0    0  0.00000000000E+00  0.00000000000E+00 -0.10532462051E+04  0.26463479025E+04  0.24277210821E+04 0.  0.
        2    1    3    3  502    0 -0.10068911252E+04 -0.56447438900E+03 -0.11731337404E+03  0.11602687195E+04  0.25500000920E-02 0. -1.
       -2    1    3    3    0  502  0.10068911252E+04  0.56447438900E+03 -0.93593283103E+03  0.14860791829E+04  0.25500000920E-02 0.  1.
</event>
<event>
 5   0  0.2713405E-07  0.3963016E+04  0.7818609E-02  0.8012049E-01
        1   -1    0    0  501    0  0.00000000000E+00  0.00000000000E+00  0.13359569536E+04  0.13359569536E+04  0.50400001928E-02 0. -1.
       -1   -1    0    0    0  501  0.00000000000E+00  0.00000000000E+00 -0.29389966889E+04  0.29389966889E+04  0.50400001928E-02 0.  1.
    10030    2    1    2    0    0  0.00000000000E+00  0.00000000000E+00 -0.16030397353E+04  0.42749536425E+04  0.39630155504E+04 0.  0.
        1    1    3    3  502    0 -0.12187112988E+04 -0.18145313093E+03 -0.24755029365E+04  0.27651938914E+04  0.50400001928E-02 0.  1.
       -1    1    3    3    0  502  0.12187112988E+04  0.18145313093E+03  0.87246320123E+03  0.15097597511E+04  0.50400001928E-02 0. -1.
</event>
<event>
 5   0  0.6043512E-07  0.4027064E+04  0.7818609E-02  0.7999109E-01
       -2   -1    0    0    0  501  0.00000000000E+00  0.00000000000E+00  0.29576693692E+04  0.29576693692E+04  0.25500000920E-02 0.  1.
        2   -1    0    0  501    0  0.00000000000E+00  0.00000000000E+00 -0.13707791538E+04  0.13707791538E+04  0.25500000920E-02 0. -1.
    10030    2    1    2    0    0  0.00000000000E+00  0.00000000000E+00  0.15868902153E+04  0.43284485230E+04  0.40270641987E+04 0.  0.
        3    1    3    3  502    0  0.61293214262E+03 -0.15128005115E+04 -0.47379971279E+03  0.16996285997E+04  0.10100000352E+00 0. -1.
       -3    1    3    3    0  502 -0.61293214262E+03  0.15128005115E+04  0.20606899281E+04  0.26288199233E+04  0.10100000352E+00 0.  1.
</event>
<event>
 5   0  0.5161550E-07  0.3706438E+04  0.7818609E-02  0.8066537E-01
        2   -1    0    0  501    0  0.00000000000E+00  0.00000000000E+00  0.25081550556E+04  0.25081550556E+04  0.25500000920E-02 0. -1.
       -2   -1    0    0    0  501  0.00000000000E+00  0.00000000000E+00 -0.13693014320E+04  0.13693014320E+04  0.25500000920E-02 0.  1.
    10030    2    1    2    0    0  0.00000000000E+00  0.00000000000E+00  0.11388536237E+04  0.38774564876E+04  0.37064378097E+04 0.  0.
        2    1    3    3  502    0 -0.17541805077E+04  0.40100615432E+03  0.10573124461E+03  0.18025355157E+04  0.25500000920E-02 0. -1.
       -2    1    3    3    0  502  0.17541805077E+04 -0.40100615432E+03  0.10331223791E+04  0.20749209719E+04  0.25500000920E-02 0.  1.
</event>
<event>
 5   0  0.7570277E-07  0.2023240E+04  0.7818609E-02  0.8595832E-01
        2   -1    0    0  501    0  0.00000000000E+00  0.00000000000E+00  0.18623034587E+04  0.18623034587E+04  0.25500000920E-02 0.  1.
       -2   -1    0    0    0  501  0.00000000000E+00  0.00000000000E+00 -0.54952121463E+03  0.54952121463E+03  0.25500000920E-02 0. -1.
    10030    2    1    2    0    0  0.00000000000E+00  0.00000000000E+00  0.13127822441E+04  0.24118246733E+04  0.20232402315E+04 0.  0.
        5    1    3    3  502    0 -0.85257728572E+03 -0.40425583685E+03  0.10911948407E+04  0.14425807014E+04  0.46999998093E+01 0.  1.
       -5    1    3    3    0  502  0.85257728572E+03  0.40425583685E+03  0.22158740336E+03  0.96924397190E+03  0.46999998093E+01 0. -1.
</event>
<event>
 5   0  0.2647879E-07  0.2369324E+04  0.7818609E-02  0.8451078E-01
        1   -1    0    0  501    0  0.00000000000E+00  0.00000000000E+00  0.88601046006E+03  0.88601046008E+03  0.50400001928E-02 0. -1.
       -1   -1    0    0    0  501  0.00000000000E+00  0.00000000000E+00 -0.15839809413E+04  0.15839809414E+04  0.50400001928E-02 0.  1.
    10030    2    1    2    0    0  0.00000000000E+00  0.00000000000E+00 -0.69797048129E+03  0.24699914014E+04  0.23693236863E+04 0.  0.
        2    1    3    3  502    0  0.11562516818E+04 -0.60881003553E+02 -0.61023038049E+03  0.13088183852E+04  0.25500000920E-02 0.  1.
       -2    1    3    3    0  502 -0.11562516818E+04  0.60881003553E+02 -0.87740100794E+02  0.11611730162E+04  0.25500000920E-02 0. -1.
</event>
<event>
 5   0  0.2713405E-07  0.4022186E+04  0.7818609E-02  0.8000086E-01
        1   -1    0    0  501    0  0.00000000000E+00  0.00000000000E+00  0.25732535728E+04  0.25732535728E+04  0.50400001928E-02 0. -1.
       -1   -1    0    0    0  501  0.00000000000E+00  0.00000000000E+00 -0.15717436612E+04  0.15717436612E+04  0.50400001928E-02 0.  1.
    10030    2    1    2    0    0  0.00000000000E+00  0.00000000000E+00  0.10015099116E+04  0.41449972340E+04  0.40221859687E+04 0.  0.
        1    1    3    3  502    0  0.85094892570E+03  0.21513189943E+03  0.23654508483E+04  0.25230444951E+04  0.50400001928E-02 0. -1.
       -1    1    3    3    0  502 -0.85094892570E+03 -0.21513189943E+03 -0.13639409367E+04  0.16219527389E+04  0.50400001928E-02 0.  1.
</event>
<event>
 5   0  0.3579559E-07  0.4030569E+04  0.7818609E-02  0.7998408E-01
       -1   -1    0    0    0  501  0.00000000000E+00  0.00000000000E+00  0.23894790371E+04  0.23894790371E+04  0.50400001928E-02 0.  1.
        1   -1    0    0  501    0  0.00000000000E+00  0.00000000000E+00 -0.16996888331E+04  0.16996888331E+04  0.50400001928E-02 0. -1.
    10030    2    1    2    0    0  0.00000000000E+00  0.00000000000E+00  0.68979020395E+03  0.40891678702E+04  0.40305686132E+04 0.  0.
        4    1    3    3  502    0  0.19943016564E+04  0.49142723074E+02  0.63490968182E+03  0.20935056773E+04  0.12699999809E+01 0.  1.
       -4    1    3    3    0  502 -0.19943016564E+04 -0.49142723074E+02  0.54880522126E+02  0.19956621930E+04  0.12699999809E+01 0. -1.
</event>
<event>
 5   0  0.2401125E-07  0.3959491E+04  0.7818609E-02  0.8012769E-01
        1   -1    0    0  501    0  0.00000000000E+00  0.00000000000E+00  0.16241892270E+04  0.16241892271E+04  0.50400001928E-02 0.  1.
       -1   -1    0    0    0  501  0.00000000000E+00  0.00000000000E+00 -0.24131380670E+04  0.24131380670E+04  0.50400001928E-02 0. -1.
    10030    2    1    2    0    0  0.00000000000E+00  0.00000000000E+00 -0.78894883995E+03  0.40373272940E+04  0.39594913066E+04 0.  0.
        5    1    3    3  502    0 -0.67061377897E+03 -0.26700145397E+03 -0.22741769982E+04  0.23859831781E+04  0.46999998093E+01 0. -1.
       -5    1    3    3    0  502  0.67061377897E+03  0.26700145397E+03  0.14852281583E+04  0.16513441159E+04  0.46999998093E+01 0.  1.
</event>
<event>
 5   0  0.7570277E-07  0.4138060E+04  0.7818609E-02  0.7977260E-01
       -2   -1    0    0    0  501  0.00000000000E+00  0.00000000000E+00  0.15833869529E+04  0.15833869529E+04  0.25500000920E-02 0.  1.
        2   -1    0    0  501    0  0.00000000000E+00  0.00000000000E+00 -0.27036258965E+04  0.27036258965E+04  0.25500000920E-02 0. -1.
    10030    2    1    2    0    0  0.00000000000E+00  0.00000000000E+00 -0.11202389436E+04  0.42870128494E+04  0.41380604007E+04 0.  0.
        5    1    3    3  502    0  0.12594078111E+04 -0.16414929021E+04 -0.54351449858E+03  0.21391673806E+04  0.46999998093E+01 0. -1.
       -5    1    3    3    0  502 -0.12594078111E+04  0.16414929021E+04 -0.57672444503E+03  0.21478454688E+04  0.46999998093E+01 0.  1.
</event>
<event>
 5   0  0.2647879E-07  0.3950197E+04  0.7818609E-02  0.8014670E-01
       -1   -1    0    0    0  501  0.00000000000E+00  0.00000000000E+00  0.14629620394E+04  0.14629620394E+04  0.50400001928E-02 0. -1.
        1   -1    0    0  501    0  0.00000000000E+00  0.00000000000E+00 -0.26665169729E+04  0.26665169729E+04  0.50400001928E-02 0.  1.
    10030    2    1    2    0    0  0.00000000000E+00  0.00000000000E+00 -0.12035549335E+04  0.41294790123E+04  0.39501965059E+04 0.  0.
        2    1    3    3  502    0 -0.18127108361E+03 -0.45406969553E+03 -0.26022575291E+04  0.26477882736E+04  0.25500000920E-02 0.  1.
       -2    1    3    3    0  502  0.18127108361E+03  0.45406969553E+03  0.13987025956E+04  0.14816907387E+04  0.25500000920E-02 0. -1.
</event>
<event>
 5   0  0.2713405E-07  0.2290913E+04  0.7818609E-02  0.8481512E-01
        1   -1    0    0  501    0  0.00000000000E+00  0.00000000000E+00  0.24818464882E+04  0.24818464882E+04  0.50400001928E-02 0.  1.
       -1   -1    0    0    0  501  0.00000000000E+00  0.00000000000E+00 -0.52866725696E+03  0.52866725698E+03  0.50400001928E-02 0. -1.
    10030    2    1    2    0    0  0.00000000000E+00  0.00000000000E+00  0.19531792312E+04  0.30105137452E+04  0.22909133333E+04 0.  0.
        1    1    3    3  502    0 -0.54677079807E+03  0.97241727047E+03  0.63512983473E+03  0.12837225403E+04  0.50400001928E-02 0.  1.
       -1    1    3    3    0  502  0.54677079807E+03 -0.97241727047E+03  0.13180493965E+04  0.17267912048E+04  0.50400001928E-02 0. -1.
</event>
<event>
 5   0  0.5161550E-07  0.3518790E+04  0.7818609E-02  0.8109351E-01
       -2   -1    0    0    0  501  0.00000000000E+00  0.00000000000E+00  0.12720871553E+04  0.12720871553E+04  0.25500000920E-02 0.  1.
        2   -1    0    0  501    0  0.00000000000E+00  0.00000000000E+00 -0.24333791306E+04  0.24333791306E+04  0.25500000920E-02 0. -1.
    10030    2    1    2    0    0  0.00000000000E+00  0.00000000000E+00 -0.11612919754E+04  0.37054662859E+04  0.35187897556E+04 0.  0.
        2    1    3    3  502    0 -0.16655408828E+04  0.11699191989E+03 -0.11648349837E+04  0.20358177916E+04  0.25500000920E-02 0.  1.
       -2    1    3    3    0  502  0.16655408828E+04 -0.11699191989E+03  0.35430083250E+01  0.16696484943E+04  0.25500000920E-02 0. -1.
</event>
<event>
 5   0  0.2401125E-07  0.1969420E+04  0.7818609E-02  0.8621053E-01
       -1   -1    0    0    0  501  0.00000000000E+00  0.00000000000E+00  0.11309384523E+04  0.11309384523E+04  0.50400001928E-02 0.  1.
        1   -1    0    0  501    0  0.00000000000E+00  0.00000000000E+00 -0.85738866338E+03  0.85738866339E+03  0.50400001928E-02 0. -1.
    10030    2    1    2    0    0  0.00000000000E+00  0.00000000000E+00  0.27354978888E+03  0.19883271157E+04  0.19694200242E+04 0.  0.
        5    1    3    3  502    0  0.48053849113E+02 -0.85174129923E+03  0.63328819398E+03  0.10624727949E+04  0.46999998093E+01 0.  1.
       -5    1    3    3    0  502 -0.48053849113E+02  0.85174129923E+03 -0.35973840509E+03  0.92585432079E+03  0.46999998093E+01 0. -1.
</event>
<event>
 5   0  0.4449262E-07  0.3967063E+04  0.7818609E-02  0.8011224E-01
       -2   -1    0    0    0  501  0.00000000000E+00  0.00000000000E+00  0.13937960427E+04  0.13937960427E+04  0.25500000920E-02 0.  1.
        2   -1    0    0  501    0  0.00000000000E+00  0.00000000000E+00 -0.28227929541E+04  0.28227929541E+04  0.25500000920E-02 0. -1.
    10030    2    1    2    0    0  0.00000000000E+00  0.00000000000E+00 -0.14289969114E+04  0.42165889968E+04  0.39670632205E+04 0.  0.
        1    1    3    3  502    0  0.17873621517E+03  0.36224654267E+03 -0.27786119385E+04  0.28078200614E+04  0.50400001928E-02 0. -1.
       -1    1    3    3    0  502 -0.17873621517E+03 -0.36224654267E+03  0.13496150270E+04  0.14087689355E+04  0.50400001928E-02 0.  1.
</event>
<event>
 5   0  0.2713405E-07  0.3401414E+04  0.7818609E-02  0.8137559E-01
        1   -1    0    0  501    0  0.00000000000E+00  0.00000000000E+00  0.17237730523E+04  0.17237730523E+04  0.50400001928E-02 0. -1.
       -1   -1    0    0    0  501  0.00000000000E+00  0.00000000000E+00 -0.16779498401E+04  0.16779498401E+04  0.50400001928E-02 0.  1.
    10030    2    1    2    0    0  0.00000000000E+00  0.00000000000E+00  0.45823212176E+02  0.34017228924E+04  0.34014142455E+04 0.  0.
        1    1    3    3  502    0  0.71934294295E+03 -0.12190958310E+04 -0.91991239802E+03  0.16881610512E+04  0.50400001928E-02 0.  1.
       -1    1    3    3    0  502 -0.71934294295E+03  0.12190958310E+04  0.96573561019E+03  0.17135618412E+04  0.50400001928E-02 0. -1.
</event>
<event>
 5   0  0.4449262E-07  0.4038133E+04  0.7818609E-02  0.7996898E-01
        2   -1    0    0  501    0  0.00000000000E+00  0.00000000000E+00  0.24143212279E+04  0.24143212279E+04  0.25500000920E-02 0. -1.
       -2   -1    0    0    0  501  0.00000000000E+00  0.00000000000E+00 -0.16885203229E+04  0.16885203229E+04  0.25500000920E-02 0.  1.
    10030    2    1    2    0    0  0.00000000000E+00  0.00000000000E+00  0.72580090497E+03  0.41028415507E+04  0.40381334595E+04 0.  0.
        1    1    3    3  502    0 -0.68198070872E+03  0.97684270658E+02  0.22912038293E+04  0.23925415129E+04  0.50400001928E-02 0. -1.
       -1    1    3    3    0  502  0.68198070872E+03 -0.97684270658E+02 -0.15654029243E+04  0.17103000378E+04  0.50400001928E-02 0.  1.
</event>
<event>
 5   0  0.3579559E-07  0.3827816E+04  0.7818609E-02  0.8040212E-01
       -1   -1    0    0    0  501  0.00000000000E+00  0.00000000000E+00  0.34317659210E+04  0.34317659210E+04  0.50400001928E-02 0.  1.
        1   -1    0    0  501    0  0.00000000000E+00  0.00000000000E+00 -0.10673931121E+04  0.10673931121E+04  0.50400001928E-02 0. -1.
    10030    2    1    2    0    0  0.00000000000E+00  0.00000000000E+00  0.23643728089E+04  0.44991590331E+04  0.38278157252E+04 0.  0.
        4    1    3    3  502    0  0.22290502533E+03  0.80217130555E+03 -0.84339405260E+03  0.11851078409E+04  0.12699999809E+01 0. -1.
       -4    1    3    3    0  502 -0.22290502533E+03 -0.80217130555E+03  0.32077668615E+04  0.33140511922E+04  0.12699999809E+01 0.  1.
</event>
<event>
 5   0  0.6043512E-07  0.4086081E+04  0.7818609E-02  0.7987403E-01
       -2   -1    0    0    0  501  0.00000000000E+00  0.00000000000E+00  0.25759648249E+04  0.25759648249E+04  0.25500000920E-02 0. -1.
        2   -1    0    0  501    0  0.00000000000E+00  0.00000000000E+00 -0.16203691660E+04  0.16203691660E+04  0.25500000920E-02 0.  1.
    10030    2    1    2    0    0  0.00000000000E+00  0.00000000000E+00  0.95559565891E+03  0.41963339909E+04  0.40860807506E+04 0.  0.
        3    1    3    3  502    0  0.71517189767E+03 -0.19135635127E+04  0.50716674259E+03  0.21048549297E+04  0.10100000352E+00 0.  1.
       -3    1    3    3    0  502 -0.71517189767E+03  0.19135635127E+04  0.44842891633E+03  0.20914790612E+04  0.10100000352E+00 0. -1.
</event>
<event>
 5   0  0.7570277E-07  0.4284063E+04  0.7818609E-02  0.7949572E-01
        2   -1    0    0  501    0  0.00000000000E+00  0.00000000000E+00  0.15810229060E+04  0.15810229060E+04  0.25500000920E-02 0.  1.
       -2   -1    0    0    0  501  0.00000000000E+00  0.00000000000E+00 -0.29021071661E+04  0.29021071661E+04  0.25500000920E-02 0. -1.
    10030    2    1    2    0    0  0.00000000000E+00  0.00000000000E+00 -0.13210842602E+04  0.44831300721E+04  0.42840625137E+04 0.  0.
        5    1    3    3  502    0 -0.79483842734E+03  0.36192187997E+03  0.13862361147E+04  0.16384224817E+04  0.46999998093E+01 0.  1.
       -5    1    3    3    0  502  0.79483842734E+03 -0.36192187997E+03 -0.27073203749E+04  0.28447075904E+04  0.46999998093E+01 0. -1.
</event>
<event>
 5   0  0.4449262E-07  0.4106256E+04  0.7818609E-02  0.7983448E-01
       -2   -1    0    0    0  501  0.00000000000E+00  0.00000000000E+00  0.22786102293E+04  0.22786102293E+04  0.25500000920E-02 0. -1.
        2   -1    0    0  501    0  0.00000000000E+00  0.00000000000E+00 -0.18499587030E+04  0.18499587030E+04  0.25500000920E-02 0.  1.
    10030    2    1    2    0    0  0.00000000000E+00  0.00000000000E+00  0.42865152629E+03  0.41285689322E+04  0.41062561169E+04 0.  0.
        1    1    3    3  502    0 -0.19844878779E+04  0.52297565847E+03  0.15367261779E+03  0.20579871113E+04  0.50400001928E-02 0. -1.
       -1    1    3    3    0  502  0.19844878779E+04 -0.52297565847E+03  0.27497890851E+03  0.20705818209E+04  0.50400001928E-02 0.  1.
</event>
<event>
 5   0  0.5161550E-07  0.4021225E+04  0.7818609E-02  0.8000278E-01
       -2   -1    0    0    0  501  0.00000000000E+00  0.00000000000E+00  0.12688459667E+04  0.12688459667E+04  0.25500000920E-02 0.  1.
        2   -1    0    0  501    0  0.00000000000E+00  0.00000000000E+00 -0.31860149516E+04  0.31860149516E+04  0.25500000920E-02 0. -1.
    10030    2    1    2    0    0  0.00000000000E+00  0.00000000000E+00 -0.19171689849E+04  0.44548609182E+04  0.40212247990E+04 0.  0.
        2    1    3    3  502    0 -0.26803207718E+03  0.12630424853E+04  0.74886655187E+03  0.14926213943E+04  0.25500000920E-02 0.  1.
       -2    1    3    3    0  502  0.26803207718E+03 -0.12630424853E+04 -0.26660355368E+04  0.29622395240E+04  0.25500000920E-02 0. -1.
</event>
<event>
 5   0  0.6043512E-07  0.3902734E+04  0.7818609E-02  0.8024461E-01
        2   -1    0    0  501    0  0.00000000000E+00  0.00000000000E+00  0.19050874538E+04  0.19050874538E+04  0.25500000920E-02 0.  1.
       -2   -1    0    0    0  501  0.00000000000E+00  0.00000000000E+00 -0.19987704659E+04  0.19987704659E+04  0.25500000920E-02 0. -1.
    10030    2    1    2    0    0  0.00000000000E+00  0.00000000000E+00 -0.93683012066E+02  0.39038579197E+04  0.39027336766E+04 0.  0.
        3    1    3    3  502    0  0.17662306452E+04  0.79257081597E+03  0.19836853375E+03  0.19460445205E+04  0.10100000352E+00 0.  1.
       -3    1    3    3    0  502 -0.17662306452E+04 -0.79257081597E+03 -0.29205154582E+03  0.19578133992E+04  0.10100000352E+00 0. -1.
</event>
<event>
 5   0  0.6043512E-07  0.4191272E+04  0.7818609E-02  0.7967035E-01
        2   -1    0    0  501    0  0.00000000000E+00  0.00000000000E+00  0.15546279576E+04  0.15546279576E+04  0.25500000920E-02 0. -1.
       -2   -1    0    0    0  501  0.00000000000E+00  0.00000000000E+00 -0.28249141868E+04  0.28249141868E+04  0.25500000920E-02 0.  1.
    10030    2    1    2    0    0  0.00000000000E+00  0.00000000000E+00 -0.12702862293E+04  0.43795421444E+04  0.41912721565E+04 0.  0.
        3    1    3    3  502    0 -0.14992615917E+04 -0.13849075059E+04 -0.11318223345E+04  0.23338328833E+04  0.10100000352E+00 0.  1.
       -3    1    3    3    0  502  0.14992615917E+04  0.13849075059E+04 -0.13846389479E+03  0.20457092610E+04  0.10100000352E+00 0. -1.
</event>
<event>
 5   0  0.6043512E-07  0.3998140E+04  0.7818609E-02  0.8004922E-01
       -2   -1    0    0    0  501  0.00000000000E+00  0.00000000000E+00  0.17050095063E+04  0.17050095063E+04  0.25500000920E-02 0.  1.
        2   -1    0    0  501    0  0.00000000000E+00  0.00000000000E+00 -0.23438468304E+04  0.23438468304E+04  0.25500000920E-02 0. -1.
    10030    2    1    2    0    0  0.00000000000E+00  0.00000000000E+00 -0.63883732406E+03  0.40488563367E+04  0.39981401312E+04 0.  0.
        3    1    3    3  502    0  0.87643704218E+03 -0.11237585146E+04  0.11002580186E+04  0.18004285062E+04  0.10100000352E+00 0.  1.
       -3    1    3    3    0  502 -0.87643704218E+03  0.11237585146E+04 -0.17390953426E+04  0.22484278305E+04  0.10100000352E+00 0. -1.
</event>
<event>
 5   0  0.4449262E-07  0.4002991E+04  0.7818609E-02  0.8003943E-01
        2   -1    0    0  501    0  0.00000000000E+00  0.00000000000E+00  0.17242409670E+04  0.17242409670E+04  0.25500000920E-02 0. -1.
       -2   -1    0    0    0  501  0.00000000000E+00  0.00000000000E+00 -0.23233325797E+04  0.23233325797E+04  0.25500000920E-02 0.  1.
    10030    2    1    2    0    0  0.00000000000E+00  0.00000000000E+00 -0.59909161274E+03  0.40475735467E+04  0.40029914883E+04 0.  0.
        1    1    3    3  502    0  0.10963371135E+04  0.15328017193E+04 -0.98125704397E+03  0.21246885803E+04  0.50400001928E-02 0.  1.
       -1    1    3    3    0  502 -0.10963371135E+04 -0.15328017193E+04  0.38216543123E+03  0.19228849664E+04  0.50400001928E-02 0. -1.
</event>
<event>
 5   0  0.7256473E-07  0.3999793E+04  0.7818609E-02  0.8004588E-01
       -2   -1    0    0    0  501  0.00000000000E+00  0.00000000000E+00  0.25657592865E+04  0.25657592865E+04  0.25500000920E-02 0.  1.
        2   -1    0    0  501    0  0.00000000000E+00  0.00000000000E+00 -0.15588315346E+04  0.15588315346E+04  0.25500000920E-02 0. -1.
    10030    2    1    2    0    0  0.00000000000E+00  0.00000000000E+00  0.10069277519E+04  0.41245908210E+04  0.39997932376E+04 0.  0.
        4    1    3    3  502    0 -0.13677499313E+04 -0.13444093663E+04  0.10880815991E+04  0.22050169156E+04  0.12699999809E+01 0.  1.
       -4    1    3    3    0  502  0.13677499313E+04  0.13444093663E+04 -0.81153847148E+02  0.19195739055E+04  0.12699999809E+01 0. -1.
</event>
<event>
 5   0  0.2601252E-07  0.3914064E+04  0.7818609E-02  0.8022111E-01
        1   -1    0    0  501    0  0.00000000000E+00  0.00000000000E+00  0.25357372576E+04  0.25357372576E+04  0.50400001928E-02 0. -1.
       -1   -1    0    0    0  501  0.00000000000E+00  0.00000000000E+00 -0.15103986295E+04  0.15103986295E+04  0.50400001928E-02 0.  1.
    10030    2    1    2    0    0  0.00000000000E+00  0.00000000000E+00  0.10253386281E+04  0.40461358871E+04  0.39140639130E+04 0.  0.
        3    1    3    3  502    0  0.16189954078E+03  0.11414566357E+04  0.21474347577E+04  0.24373368174E+04  0.10100000352E+00 0. -1.
       -3    1    3    3    0  502 -0.16189954078E+03 -0.11414566357E+04 -0.11220961297E+04  0.16087990698E+04  0.10100000352E+00 0.  1.
</event>
<event>
 5   0  0.3579559E-07  0.3696393E+04  0.7818609E-02  0.8068762E-01
        1   -1    0    0  501    0  0.00000000000E+00  0.00000000000E+00  0.24997876372E+04  0.24997876372E+04  0.50400001928E-02 0. -1.
       -1   -1    0    0    0  501  0.00000000000E+00  0.00000000000E+00 -0.13664482694E+04  0.13664482694E+04  0.50400001928E-02 0.  1.
    10030    2    1    2    0    0  0.00000000000E+00  0.00000000000E+00  0.11333393678E+04  0.38662359065E+04  0.36963931017E+04 0.  0.
        4    1    3    3  502    0  0.22148017845E+03  0.12969159822E+04  0.19243025962E+04  0.23310912957E+04  0.12699999809E+01 0. -1.
       -4    1    3    3    0  502 -0.22148017845E+03 -0.12969159822E+04 -0.79096322841E+03  0.15351446108E+04  0.12699999809E+01 0.  1.
</event>
<event>
 5   0  0.2401125E-07  0.4013085E+04  0.7818609E-02  0.8001912E-01
        1   -1    0    0  501    0  0.00000000000E+00  0.00000000000E+00  0.19198559417E+04  0.19198559417E+04  0.50400001928E-02 0.  1.
       -1   -1    0    0    0  501  0.00000000000E+00  0.00000000000E+00 -0.20971427230E+04  0.20971427231E+04  0.50400001928E-02 0. -1.
    10030    2    1    2    0    0  0.00000000000E+00  0.00000000000E+00 -0.17728678139E+03  0.40169986647E+04  0.40130845580E+04 0.  0.
        5    1    3    3  502    0  0.15360966477E+04  0.11590016839E+04 -0.65780329467E+03  0.20336187152E+04  0.46999998093E+01 0. -1.
       -5    1    3    3    0  502 -0.15360966477E+04 -0.11590016839E+04  0.48051651327E+03  0.19833799495E+04  0.46999998093E+01 0.  1.
</event>
<event>
 5   0  0.5161550E-07  0.4022282E+04  0.7818609E-02  0.8000067E-01
        2   -1    0    0  501    0  0.00000000000E+00  0.00000000000E+00  0.31513730597E+04  0.31513730597E+04  0.25500000920E-02 0. -1.
       -2   -1    0    0    0  501  0.00000000000E+00  0.00000000000E+00 -0.12834686885E+04  0.12834686885E+04  0.25500000920E-02 0.  1.
    10030    2    1    2    0    0  0.00000000000E+00  0.00000000000E+00  0.18679043712E+04  0.44348417483E+04  0.40222822616E+04 0.  0.
        2    1    3    3  502    0 -0.81112424957E+03  0.22024171329E+03 -0.10805402570E+04  0.13689398115E+04  0.25500000920E-02 0.  1.
       -2    1    3    3    0  502  0.81112424957E+03 -0.22024171329E+03  0.29484446282E+04  0.30659019368E+04  0.25500000920E-02 0. -1.
</event>
<event>
 5   0  0.7570277E-07  0.2810656E+04  0.7818609E-02  0.8299968E-01
        2   -1    0    0  501    0  0.00000000000E+00  0.00000000000E+00  0.24721805410E+04  0.24721805410E+04  0.25500000920E-02 0.  1.
       -2   -1    0    0    0  501  0.00000000000E+00  0.00000000000E+00 -0.79886841275E+03  0.79886841276E+03  0.25500000920E-02 0. -1.
    10030    2    1    2    0    0  0.00000000000E+00  0.00000000000E+00  0.16733121282E+04  0.32710489537E+04  0.28106561119E+04 0.  0.
        5    1    3    3  502    0  0.17474971177E+03 -0.13436143955E+04  0.40262204428E+03  0.14134934404E+04  0.46999998093E+01 0. -1.
       -5    1    3    3    0  502 -0.17474971177E+03  0.13436143955E+04  0.12706900839E+04  0.18575555133E+04  0.46999998093E+01 0.  1.
</event>
<event>
 5   0  0.4449262E-07  0.2154610E+04  0.7818609E-02  0.8537562E-01
        2   -1    0    0  501    0  0.00000000000E+00  0.00000000000E+00  0.89858429888E+03  0.89858429889E+03  0.25500000920E-02 0. -1.
       -2   -1    0    0    0  501  0.00000000000E+00  0.00000000000E+00 -0.12915716546E+04  0.12915716546E+04  0.25500000920E-02 0.  1.
    10030    2    1    2    0    0  0.00000000000E+00  0.00000000000E+00 -0.39298735573E+03  0.21901559535E+04  0.21546099505E+04 0.  0.
        1    1    3    3  502    0  0.38969795991E+03  0.10357374683E+03  0.81898390842E+03  0.91286727582E+03  0.50400001928E-02 0. -1.
       -1    1    3    3    0  502 -0.38969795991E+03 -0.10357374683E+03 -0.12119712642E+04  0.12772886777E+04  0.50400001928E-02 0.  1.
</event>
<event>
 5   0  0.6043512E-07  0.2702058E+04  0.7818609E-02  0.8334338E-01
       -2   -1    0    0    0  501  0.00000000000E+00  0.00000000000E+00  0.19051741775E+04  0.19051741775E+04  0.25500000920E-02 0.  1.
        2   -1    0    0  501    0  0.00000000000E+00  0.00000000000E+00 -0.95806400089E+03  0.95806400090E+03  0.25500000920E-02 0. -1.
    10030    2    1    2    0    0  0.00000000000E+00  0.00000000000E+00  0.94711017656E+03  0.28632381784E+04  0.27020575826E+04 0.  0.
        3    1    3    3  502    0  0.13435435397E+04  0.83389908382E+02  0.59537194297E+03  0.14719140194E+04  0.10100000352E+00 0.  1.
       -3    1    3    3    0  502 -0.13435435397E+04 -0.83389908382E+02  0.35173823359E+03  0.13913241589E+04  0.10100000352E+00 0. -1.
</event>
<event>
 5   0  0.2401125E-07  0.2001054E+04  0.7818609E-02  0.8606128E-01
        1   -1    0    0  501    0  0.00000000000E+00  0.00000000000E+00  0.11741533418E+04  0.11741533419E+04  0.50400001928E-02 0. -1.
       -1   -1    0    0    0  501  0.00000000000E+00  0.00000000000E+00 -0.85257560872E+03  0.85257560874E+03  0.50400001928E-02 0.  1.
    10030    2    1    2    0    0  0.00000000000E+00  0.00000000000E+00  0.32157773312E+03  0.20267289506E+04  0.20010542223E+04 0.  0.
        5    1    3    3  502    0  0.51881562434E+03  0.85462638629E+03  0.19970711122E+03  0.10195395689E+04  0.46999998093E+01 0.  1.
       -5    1    3    3    0  502 -0.51881562434E+03 -0.85462638629E+03  0.12187062190E+03  0.10071893817E+04  0.46999998093E+01 0. -1.
</event>
<event>
 5   0  0.2601252E-07  0.3215619E+04  0.7818609E-02  0.8184704E-01
        1   -1    0    0  501    0  0.00000000000E+00  0.00000000000E+00  0.18172976001E+04  0.18172976001E+04  0.50400001928E-02 0. -1.
       -1   -1    0    0    0  501  0.00000000000E+00  0.00000000000E+00 -0.14224698031E+04  0.14224698031E+04  0.50400001928E-02 0.  1.
    10030    2    1    2    0    0  0.00000000000E+00  0.00000000000E+00  0.39482779706E+03  0.32397674032E+04  0.32156187333E+04 0.  0.
        3    1    3    3  502    0 -0.11777764861E+04 -0.29666678016E+03 -0.86400727785E+03  0.14905291731E+04  0.10100000352E+00 0.  1.
       -3    1    3    3    0  502  0.11777764861E+04  0.29666678016E+03  0.12588350749E+04  0.17492382301E+04  0.10100000352E+00 0. -1.
</event>
<event>
 5   0  0.2601252E-07  0.4271541E+04  0.7818609E-02  0.7951902E-01
        1   -1    0    0  501    0  0.00000000000E+00  0.00000000000E+00  0.27975344620E+04  0.27975344620E+04  0.50400001928E-02 0. -1.
       -1   -1    0    0    0  501  0.00000000000E+00  0.00000000000E+00 -0.16305483633E+04  0.16305483633E+04  0.50400001928E-02 0.  1.
    10030    2    1    2    0    0  0.00000000000E+00  0.00000000000E+00  0.11669860987E+04  0.44280828252E+04  0.42715408172E+04 0.  0.
        3    1    3    3  502    0  0.97905206808E+03  0.17968461131E+04 -0.50742465524E+02  0.20468936743E+04  0.10100000352E+00 0. -1.
       -3    1    3    3    0  502 -0.97905206808E+03 -0.17968461131E+04  0.12177285642E+04  0.23811891509E+04  0.10100000352E+00 0.  1.
</event>
<event>
 5   0  0.4449262E-07  0.3953351E+04  0.7818609E-02  0.8014024E-01
        2   -1    0    0  501    0  0.00000000000E+00  0.00000000000E+00  0.20641597744E+04  0.20641597744E+04  0.25500000920E-02 0. -1.
       -2   -1    0    0    0  501  0.00000000000E+00  0.00000000000E+00 -0.18928988432E+04  0.18928988432E+04  0.25500000920E-02 0.  1.
    10030    2    1    2    0    0  0.00000000000E+00  0.00000000000E+00  0.17126093119E+03  0.39570586176E+04  0.39533508061E+04 0.  0.
        1    1    3    3  502    0 -0.66715098573E+03 -0.26881589333E+03 -0.17572626154E+04  0.18987691597E+04  0.50400001928E-02 0.  1.
       -1    1    3    3    0  502  0.66715098573E+03  0.26881589333E+03  0.19285235466E+04  0.20582894578E+04  0.50400001928E-02 0. -1.
</event>
<event>
 5   0  0.7256473E-07  0.3867466E+04  0.7818609E-02  0.8031830E-01
       -2   -1    0    0    0  501  0.00000000000E+00  0.00000000000E+00  0.20709788964E+04  0.20709788964E+04  0.25500000920E-02 0.  1.
        2   -1    0    0  501    0  0.00000000000E+00  0.00000000000E+00 -0.18055828628E+04  0.18055828628E+04  0.25500000920E-02 0. -1.
    10030    2    1    2    0    0  0.00000000000E+00  0.00000000000E+00  0.26539603353E+03  0.38765617592E+04  0.38674663565E+04 0.  0.
        4    1    3    3  502    0  0.15093161267E+04  0.52327676996E+03 -0.95957508298E+03  0.18635019992E+04  0.12699999809E+01 0. -1.
       -4    1    3    3    0  502 -0.15093161267E+04 -0.52327676996E+03  0.12249711165E+04  0.20130597600E+04  0.12699999809E+01 0.  1.
</event>
<event>
 5   0  0.6043512E-07  0.4027248E+04  0.7818609E-02  0.7999072E-01
        2   -1    0    0  501    0  0.00000000000E+00  0.00000000000E+00  0.23967912673E+04  0.23967912673E+04  0.25500000920E-02 0. -1.
       -2   -1    0    0    0  501  0.00000000000E+00  0.00000000000E+00 -0.16917124763E+04  0.16917124763E+04  0.25500000920E-02 0.  1.
    10030    2    1    2    0    0  0.00000000000E+00  0.00000000000E+00  0.70507879093E+03  0.40885037436E+04  0.40272480381E+04 0.  0.
        3    1    3    3  502    0 -0.14391160826E+04  0.13906751398E+04  0.57874965951E+03  0.20832627348E+04  0.10100000352E+00 0. -1.
       -3    1    3    3    0  502  0.14391160826E+04 -0.13906751398E+04  0.12632913142E+03  0.20052410088E+04  0.10100000352E+00 0.  1.
</event>
<event>
 5   0  0.7570277E-07  0.2949376E+04  0.7818609E-02  0.8258336E-01
        2   -1    0    0  501    0  0.00000000000E+00  0.00000000000E+00  0.13328740499E+04  0.13328740499E+04  0.25500000920E-02 0.  1.
       -2   -1    0    0    0  501  0.00000000000E+00  0.00000000000E+00 -0.16315905389E+04  0.16315905389E+04  0.25500000920E-02 0. -1.
    10030    2    1    2    0    0  0.00000000000E+00  0.00000000000E+00 -0.29871648897E+03  0.29644645888E+04  0.29493759946E+04 0.  0.
        5    1    3    3  502    0 -0.89401463381E+03 -0.10223298796E+04 -0.72698255453E+03  0.15404370395E+04  0.46999998093E+01 0. -1.
       -5    1    3    3    0  502  0.89401463381E+03  0.10223298796E+04  0.42826606556E+03  0.14240275493E+04  0.46999998093E+01 0.  1.
</event>
<event>
 5   0  0.4449262E-07  0.2298124E+04  0.7818609E-02  0.8478661E-01
        2   -1    0    0  501    0  0.00000000000E+00  0.00000000000E+00  0.19197909860E+04  0.19197909860E+04  0.25500000920E-02 0.  1.
       -2   -1    0    0    0  501  0.00000000000E+00  0.00000000000E+00 -0.68775374210E+03  0.68775374211E+03  0.25500000920E-02 0. -1.
    10030    2    1    2    0    0  0.00000000000E+00  0.00000000000E+00  0.12320372439E+04  0.26075447281E+04  0.22981239607E+04 0.  0.
        1    1    3    3  502    0 -0.46133908544E+03  0.25822684490E+03 -0.54155313030E+03  0.75683198145E+03  0.50400001928E-02 0. -1.
       -1    1    3    3    0  502  0.46133908544E+03 -0.25822684490E+03  0.17735903742E+04  0.18507127467E+04  0.50400001928E-02 0.  1.
</event>
<event>
 5   0  0.2647879E-07  0.2031350E+04  0.7818609E-02  0.8592102E-01
        1   -1    0    0  501    0  0.00000000000E+00  0.00000000000E+00  0.11786717164E+04  0.11786717164E+04  0.50400001928E-02 0.  1.
       -1   -1    0    0    0  501  0.00000000000E+00  0.00000000000E+00 -0.87521862052E+03  0.87521862054E+03  0.50400001928E-02 0. -1.
    10030    2    1    2    0    0  0.00000000000E+00  0.00000000000E+00  0.30345309586E+03  0.20538903369E+04  0.20313497323E+04 0.  0.
        2    1    3    3  502    0 -0.15680207814E+03 -0.49379714478E+03 -0.73156490247E+03  0.89644281381E+03  0.25500000920E-02 0. -1.
       -2    1    3    3    0  502  0.15680207814E+03  0.49379714478E+03  0.10350179983E+04  0.11574475231E+04  0.25500000920E-02 0.  1.
</event>
<event>
 5   0  0.4449262E-07  0.4030120E+04  0.7818609E-02  0.7998498E-01
       -2   -1    0    0    0  501  0.00000000000E+00  0.00000000000E+00  0.23879582789E+04  0.23879582789E+04  0.25500000920E-02 0.  1.
        2   -1    0    0  501    0  0.00000000000E+00  0.00000000000E+00 -0.17003929290E+04  0.17003929290E+04  0.25500000920E-02 0. -1.
    10030    2    1    2    0    0  0.00000000000E+00  0.00000000000E+00  0.68756534998E+03  0.40883512079E+04  0.40301202822E+04 0.  0.
        1    1    3    3  502    0 -0.13668526000E+04  0.14016900837E+04  0.82758681463E+03  0.21255401800E+04  0.50400001928E-02 0.  1.
       -1    1    3    3    0  502  0.13668526000E+04 -0.14016900837E+04 -0.14002146464E+03  0.19628110279E+04  0.50400001928E-02 0. -1.
</event>
<event>
 5   0  0.7570277E-07  0.2813628E+04  0.7818609E-02  0.8299050E-01
       -2   -1    0    0    0  501  0.00000000000E+00  0.00000000000E+00  0.85933359946E+03  0.85933359946E+03  0.25500000920E-02 0. -1.
        2   -1    0    0  501    0  0.00000000000E+00  0.00000000000E+00 -0.23030939962E+04  0.23030939962E+04  0.25500000920E-02 0.  1.
    10030    2    1    2    0    0  0.00000000000E+00  0.00000000000E+00 -0.14437603967E+04  0.31624275956E+04  0.28136283007E+04 0.  0.
        5    1    3    3  502    0 -0.11947696955E+04 -0.30563115671E+02  0.11220329486E+03  0.12004250908E+04  0.46999998093E+01 0. -1.
       -5    1    3    3    0  502  0.11947696955E+04  0.30563115671E+02 -0.15559636916E+04  0.19620025048E+04  0.46999998093E+01 0.  1.
</event>
<event>
 5   0  0.4449262E-07  0.2245098E+04  0.7818609E-02  0.8499888E-01
        2   -1    0    0  501    0  0.00000000000E+00  0.00000000000E+00  0.14976755842E+04  0.14976755842E+04  0.25500000920E-02 0. -1.
       -2   -1    0    0    0  501  0.00000000000E+00  0.00000000000E+00 -0.84138120704E+03  0.84138120704E+03  0.25500000920E-02 0.  1.
    10030    2    1    2    0    0  0.00000000000E+00  0.00000000000E+00  0.65629437719E+03  0.23390567913E+04  0.22450978516E+04 0.  0.
        1    1    3    3  502    0 -0.83769459749E+03  0.74644360485E+03  0.29196935360E+03  0.11593775905E+04  0.50400001928E-02 0. -1.
       -1    1    3    3    0  502  0.83769459749E+03 -0.74644360485E+03  0.36432502358E+03  0.11796792008E+04  0.50400001928E-02 0.  1.
</event>
<event>
 5   0  0.5161550E-07  0.3862430E+04  0.7818609E-02  0.8032889E-01
        2   -1    0    0  501    0  0.00000000000E+00  0.00000000000E+00  0.13720992920E+04  0.13720992920E+04  0.25500000920E-02 0.  1.
       -2   -1    0    0    0  501  0.00000000000E+00  0.00000000000E+00 -0.27181639308E+04  0.27181639308E+04  0.25500000920E-02 0. -1.
    10030    2    1    2    0    0  0.00000000000E+00  0.00000000000E+00 -0.13460646388E+04  0.40902632228E+04  0.38624297043E+04 0.  0.
        2    1    3    3  502    0 -0.13399146752E+04 -0.63924386675E+03  0.63497183250E+03  0.16146805523E+04  0.25500000920E-02 0.  1.
       -2    1    3    3    0  502  0.13399146752E+04  0.63924386675E+03 -0.19810364713E+04  0.24755826705E+04  0.25500000920E-02 0. -1.
</event>
<event>
 5   0  0.2401125E-07  0.4011903E+04  0.7818609E-02  0.8002150E-01
       -3   -1    0    0    0  501  0.00000000000E+00  0.00000000000E+00  0.22647473271E+04  0.22647473294E+04  0.10100000352E+00 0. -1.
        3   -1    0    0  501    0  0.00000000000E+00  0.00000000000E+00 -0.17767287178E+04  0.17767287207E+04  0.10100000352E+00 0.  1.
    10030    2    1    2    0    0  0.00000000000E+00  0.00000000000E+00  0.48801860929E+03  0.40414760500E+04  0.40119031020E+04 0.  0.
        4    1    3    3  502    0  0.39080538316E+03  0.54034396033E+03  0.21498161890E+04  0.22508690994E+04  0.12699999809E+01 0. -1.
       -4    1    3    3    0  502 -0.39080538316E+03 -0.54034396033E+03 -0.16617975797E+04  0.17906069507E+04  0.12699999809E+01 0.  1.
</event>
<event>
 5   0  0.2401125E-07  0.2318984E+04  0.7818609E-02  0.8470473E-01
       -1   -1    0    0    0  501  0.00000000000E+00  0.00000000000E+00  0.10578991667E+04  0.10578991667E+04  0.50400001928E-02 0. -1.
        1   -1    0    0  501    0  0.00000000000E+00  0.00000000000E+00 -0.12708411353E+04  0.12708411353E+04  0.50400001928E-02 0.  1.
    10030    2    1    2    0    0  0.00000000000E+00  0.00000000000E+00 -0.21294196865E+03  0.23287403020E+04  0.23189840690E+04 0.  0.
        5    1    3    3  502    0 -0.67080839000E+03  0.76705293397E+03 -0.66201229109E+03  0.12151693146E+04  0.46999998093E+01 0.  1.
       -5    1    3    3    0  502  0.67080839000E+03 -0.76705293397E+03  0.44907032244E+03  0.11135709874E+04  0.46999998093E+01 0. -1.
</event>
<event>
 5   0  0.2647879E-07  0.3886453E+04  0.7818609E-02  0.8027853E-01
        1   -1    0    0  501    0  0.00000000000E+00  0.00000000000E+00  0.33355359745E+04  0.33355359745E+04  0.50400001928E-02 0. -1.
       -1   -1    0    0    0  501  0.00000000000E+00  0.00000000000E+00 -0.11320908448E+04  0.11320908448E+04  0.50400001928E-02 0.  1.
    10030    2    1    2    0    0  0.00000000000E+00  0.00000000000E+00  0.22034451297E+04  0.44676268193E+04  0.38864532619E+04 0.  0.
        2    1    3    3  502    0  0.16150697379E+04 -0.93696463646E+03  0.48291557680E+03  0.19286161988E+04  0.25500000920E-02 0.  1.
       -2    1    3    3    0  502 -0.16150697379E+04  0.93696463646E+03  0.17205295529E+04  0.25390106204E+04  0.25500000920E-02 0. -1.
</event>
<event>
 5   0  0.2401125E-07  0.4024959E+04  0.7818609E-02  0.7999530E-01
       -1   -1    0    0    0  501  0.00000000000E+00  0.00000000000E+00  0.26411557434E+04  0.26411557434E+04  0.50400001928E-02 0. -1.
        1   -1    0    0  501    0  0.00000000000E+00  0.00000000000E+00 -0.15334476524E+04  0.15334476524E+04  0.50400001928E-02 0.  1.
    10030    2    1    2    0    0  0.00000000000E+00  0.00000000000E+00  0.11077080909E+04  0.41746033958E+04  0.40249591672E+04 0.  0.
        5    1    3    3  502    0  0.13687927871E+04  0.13736884218E+04  0.11118509957E+04  0.22353631250E+04  0.46999998093E+01 0. -1.
       -5    1    3    3    0  502 -0.13687927871E+04 -0.13736884218E+04 -0.41429047180E+01  0.19392402708E+04  0.46999998093E+01 0.  1.
</event>
<event>
 5   0  0.5161550E-07  0.3994719E+04  0.7818609E-02  0.8005613E-01
       -2   -1    0    0    0  501  0.00000000000E+00  0.00000000000E+00  0.17101280068E+04  0.17101280068E+04  0.25500000920E-02 0.  1.
        2   -1    0    0  501    0  0.00000000000E+00  0.00000000000E+00 -0.23328342745E+04  0.23328342745E+04  0.25500000920E-02 0. -1.
    10030    2    1    2    0    0  0.00000000000E+00  0.00000000000E+00 -0.62270626771E+03  0.40429622813E+04  0.39947191280E+04 0.  0.
        2    1    3    3  502    0  0.14286880281E+04 -0.72475925311E+02 -0.17221180307E+04  0.22387703663E+04  0.25500000920E-02 0. -1.
       -2    1    3    3    0  502 -0.14286880281E+04  0.72475925311E+02  0.10994117630E+04  0.18041919150E+04  0.25500000920E-02 0.  1.
</event>
<event>
 5   0  0.6043512E-07  0.3928324E+04  0.7818609E-02  0.8019164E-01
        2   -1    0    0  501    0  0.00000000000E+00  0.00000000000E+00  0.20147767367E+04  0.20147767367E+04  0.25500000920E-02 0.  1.
       -2   -1    0    0    0  501  0.00000000000E+00  0.00000000000E+00 -0.19148184680E+04  0.19148184680E+04  0.25500000920E-02 0. -1.
    10030    2    1    2    0    0  0.00000000000E+00  0.00000000000E+00  0.99958268698E+02  0.39295952047E+04  0.39283236651E+04 0.  0.
        3    1    3    3  502    0  0.23024928310E+03  0.72838249148E+03  0.18600885189E+04  0.20108418870E+04  0.10100000352E+00 0.  1.
       -3    1    3    3    0  502 -0.23024928310E+03 -0.72838249148E+03 -0.17601302502E+04  0.19187533177E+04  0.10100000352E+00 0. -1.
</event>
<event>
 5   0  0.2647879E-07  0.3862274E+04  0.7818609E-02  0.8032922E-01
       -1   -1    0    0    0  501  0.00000000000E+00  0.00000000000E+00  0.23902674999E+04  0.23902674999E+04  0.50400001928E-02 0.  1.
        1   -1    0    0  501    0  0.00000000000E+00  0.00000000000E+00 -0.15601976675E+04  0.15601976675E+04  0.50400001928E-02 0. -1.
    10030    2    1    2    0    0  0.00000000000E+00  0.00000000000E+00  0.83006983234E+03  0.39504651674E+04  0.38622738267E+04 0.  0.
        2    1    3    3  502    0 -0.11746796527E+04 -0.47682605770E+03  0.19050251868E+04  0.22883086195E+04  0.25500000920E-02 0.  1.
       -2    1    3    3    0  502  0.11746796527E+04  0.47682605770E+03 -0.10749553545E+04  0.16621565479E+04  0.25500000920E-02 0. -1.
</event>
<event>
 5   0  0.7256473E-07  0.4034240E+04  0.7818609E-02  0.7997675E-01
       -2   -1    0    0    0  501  0.00000000000E+00  0.00000000000E+00  0.35083144918E+04  0.35083144918E+04  0.25500000920E-02 0.  1.
        2   -1    0    0  501    0  0.00000000000E+00  0.00000000000E+00 -0.11597516013E+04  0.11597516013E+04  0.25500000920E-02 0. -1.
    10030    2    1    2    0    0  0.00000000000E+00  0.00000000000E+00  0.23485628905E+04  0.46680660931E+04  0.40342401266E+04 0.  0.
        4    1    3    3  502    0 -0.72153458596E+03 -0.18885721103E+03  0.33428989369E+04  0.34250918411E+04  0.12699999809E+01 0.  1.
       -4    1    3    3    0  502  0.72153458596E+03  0.18885721103E+03 -0.99433604645E+03  0.12429742520E+04  0.12699999809E+01 0. -1.
</event>
<event>
 5   0  0.2401125E-07  0.4041795E+04  0.7818609E-02  0.7996168E-01
        1   -1    0    0  501    0  0.00000000000E+00  0.00000000000E+00  0.25925046335E+04  0.25925046335E+04  0.50400001928E-02 0.  1.
       -1   -1    0    0    0  501  0.00000000000E+00  0.00000000000E+00 -0.15753207943E+04  0.15753207943E+04  0.50400001928E-02 0. -1.
    10030    2    1    2    0    0  0.00000000000E+00  0.00000000000E+00  0.10171838392E+04  0.41678254278E+04  0.40417948777E+04 0.  0.
        5    1    3    3  502    0 -0.89594862264E+03 -0.13221733489E+04 -0.76821693161E+03  0.17722995354E+04  0.46999998093E+01 0. -1.
       -5    1    3    3    0  502  0.89594862264E+03  0.13221733489E+04  0.17854007708E+04  0.23955258924E+04  0.46999998093E+01 0.  1.
</event>
<event>
 5   0  0.2713405E-07  0.2748682E+04  0.7818609E-02  0.8319380E-01
       -1   -1    0    0    0  501  0.00000000000E+00  0.00000000000E+00  0.86094002825E+03  0.86094002826E+03  0.50400001928E-02 0. -1.
        1   -1    0    0  501    0  0.00000000000E+00  0.00000000000E+00 -0.21938956174E+04  0.21938956174E+04  0.50400001928E-02 0.  1.
    10030    2    1    2    0    0  0.00000000000E+00  0.00000000000E+00 -0.13329555891E+04  0.30548356456E+04  0.27486815420E+04 0.  0.
        1    1    3    3  502    0 -0.67227840061E+03  0.88337361251E+03 -0.15669754038E+04  0.19203434857E+04  0.50400001928E-02 0.  1.
       -1    1    3    3    0  502  0.67227840061E+03 -0.88337361251E+03  0.23401981464E+03  0.11344921599E+04  0.50400001928E-02 0. -1.
</event>
<event>
 5   0  0.7570277E-07  0.3999325E+04  0.7818609E-02  0.8004683E-01
       -2   -1    0    0    0  501  0.00000000000E+00  0.00000000000E+00  0.15295077648E+04  0.15295077648E+04  0.25500000920E-02 0. -1.
        2   -1    0    0  501    0  0.00000000000E+00  0.00000000000E+00 -0.26143374983E+04  0.26143374983E+04  0.25500000920E-02 0.  1.
    10030    2    1    2    0    0  0.00000000000E+00  0.00000000000E+00 -0.10848297336E+04  0.41438452631E+04  0.39993246947E+04 0.  0.
        5    1    3    3  502    0 -0.40108185096E+03  0.70952054606E+02 -0.25708951171E+04  0.26029645865E+04  0.46999998093E+01 0.  1.
       -5    1    3    3    0  502  0.40108185096E+03 -0.70952054606E+02  0.14860653836E+04  0.15408806766E+04  0.46999998093E+01 0. -1.
</event>
<event>
 5   0  0.7570277E-07  0.3700055E+04  0.7818609E-02  0.8067950E-01
       -2   -1    0    0    0  501  0.00000000000E+00  0.00000000000E+00  0.12139067699E+04  0.12139067699E+04  0.25500000920E-02 0.  1.
        2   -1    0    0  501    0  0.00000000000E+00  0.00000000000E+00 -0.28194933690E+04  0.28194933690E+04  0.25500000920E-02 0. -1.
    10030    2    1    2    0    0  0.00000000000E+00  0.00000000000E+00 -0.16055865991E+04  0.40334001388E+04  0.37000551824E+04 0.  0.
        5    1    3    3  502    0  0.86652624295E+03  0.13600957189E+04  0.18544092556E+03  0.16233109748E+04  0.46999998093E+01 0.  1.
       -5    1    3    3    0  502 -0.86652624295E+03 -0.13600957189E+04 -0.17910275247E+04  0.24100891640E+04  0.46999998093E+01 0. -1.
</event>
<event>
 5   0  0.3579559E-07  0.2136155E+04  0.7818609E-02  0.8545482E-01
       -1   -1    0    0    0  501  0.00000000000E+00  0.00000000000E+00  0.15546589133E+04  0.15546589133E+04  0.50400001928E-02 0.  1.
        1   -1    0    0  501    0  0.00000000000E+00  0.00000000000E+00 -0.73378791345E+03  0.73378791347E+03  0.50400001928E-02 0. -1.
    10030    2    1    2    0    0  0.00000000000E+00  0.00000000000E+00  0.82087099980E+03  0.22884468267E+04  0.21361553503E+04 0.  0.
        4    1    3    3  502    0 -0.81483478376E+03  0.59397441959E+03  0.33153520671E+02  0.10088915228E+04  0.12699999809E+01 0. -1.
       -4    1    3    3    0  502  0.81483478376E+03 -0.59397441959E+03  0.78771747913E+03  0.12795553039E+04  0.12699999809E+01 0.  1.
</event>
<event>
 5   0  0.2601252E-07  0.3981784E+04  0.7818609E-02  0.8008232E-01
       -1   -1    0    0    0  501  0.00000000000E+00  0.00000000000E+00  0.16385299120E+04  0.16385299120E+04  0.50400001928E-02 0.  1.
        1   -1    0    0  501    0  0.00000000000E+00  0.00000000000E+00 -0.24190281372E+04  0.24190281372E+04  0.50400001928E-02 0. -1.
    10030    2    1    2    0    0  0.00000000000E+00  0.00000000000E+00 -0.78049822522E+03  0.40575580492E+04  0.39817835003E+04 0.  0.
        3    1    3    3  502    0 -0.33332618480E+01 -0.14694774631E+04 -0.17590442190E+04  0.22920758495E+04  0.10100000352E+00 0. -1.
       -3    1    3    3    0  502  0.33332618480E+01  0.14694774631E+04  0.97854599380E+03  0.17654821997E+04  0.10100000352E+00 0.  1.
</event>
<event>
 5   0  0.7570277E-07  0.3989181E+04  0.7818609E-02  0.8006733E-01
        2   -1    0    0  501    0  0.00000000000E+00  0.00000000000E+00  0.28721816716E+04  0.28721816716E+04  0.25500000920E-02 0.  1.
       -2   -1    0    0    0  501  0.00000000000E+00  0.00000000000E+00 -0.13851463326E+04  0.13851463326E+04  0.25500000920E-02 0. -1.
    10030    2    1    2    0    0  0.00000000000E+00  0.00000000000E+00  0.14870353390E+04  0.42573280042E+04  0.39891813241E+04 0.  0.
        5    1    3    3  502    0 -0.10465629982E+04  0.57896347463E+03  0.24470193407E+04  0.27236773961E+04  0.46999998093E+01 0.  1.
       -5    1    3    3    0  502  0.10465629982E+04 -0.57896347463E+03 -0.95998400172E+03  0.15336506081E+04  0.46999998093E+01 0. -1.
</event>
<event>
 5   0  0.5161550E-07  0.2949241E+04  0.7818609E-02  0.8258376E-01
       -2   -1    0    0    0  501  0.00000000000E+00  0.00000000000E+00  0.10118670361E+04  0.10118670361E+04  0.25500000920E-02 0.  1.
        2   -1    0    0  501    0  0.00000000000E+00  0.00000000000E+00 -0.21490039368E+04  0.21490039369E+04  0.25500000920E-02 0. -1.
    10030    2    1    2    0    0  0.00000000000E+00  0.00000000000E+00 -0.11371369007E+04  0.31608709730E+04  0.29492414240E+04 0.  0.
        2    1    3    3  502    0  0.54465315645E+03 -0.15746877182E+03  0.89038524484E+03  0.10555706320E+04  0.25500000920E-02 0.  1.
       -2    1    3    3    0  502 -0.54465315645E+03  0.15746877182E+03 -0.20275221456E+04  0.21053003410E+04  0.25500000920E-02 0. -1.
</event>
<event>
 5   0  0.5161550E-07  0.2252257E+04  0.7818609E-02  0.8496987E-01
        2   -1    0    0  501    0  0.00000000000E+00  0.00000000000E+00  0.15592458956E+04  0.15592458956E+04  0.25500000920E-02 0. -1.
       -2   -1    0    0    0  501  0.00000000000E+00  0.00000000000E+00 -0.81331964183E+03  0.81331964183E+03  0.25500000920E-02 0.  1.
    10030    2    1    2    0    0  0.00000000000E+00  0.00000000000E+00  0.74592625381E+03  0.23725655375E+04  0.22522569244E+04 0.  0.
        2    1    3    3  502    0 -0.23602246114E+03 -0.46804892205E+03  0.14228921531E+04  0.15163767590E+04  0.25500000920E-02 0. -1.
       -2    1    3    3    0  502  0.23602246114E+03  0.46804892205E+03 -0.67696589934E+03  0.85618877852E+03  0.25500000920E-02 0.  1.
</event>
<event>
 5   0  0.7256473E-07  0.3267194E+04  0.7818609E-02  0.8171293E-01
        2   -1    0    0  501    0  0.00000000000E+00  0.00000000000E+00  0.23429112828E+04  0.23429112828E+04  0.25500000920E-02 0.  1.
       -2   -1    0    0    0  501  0.00000000000E+00  0.00000000000E+00 -0.11390272429E+04  0.11390272429E+04  0.25500000920E-02 0. -1.
    10030    2    1    2    0    0  0.00000000000E+00  0.00000000000E+00  0.12038840399E+04  0.34819385257E+04  0.32671943798E+04 0.  0.
        4    1    3    3  502    0 -0.34632532560E+02  0.87940006976E+03 -0.86477699115E+03  0.12338495663E+04  0.12699999809E+01 0. -1.
       -4    1    3    3    0  502  0.34632532560E+02 -0.87940006976E+03  0.20686610311E+04  0.22480889594E+04  0.12699999809E+01 0.  1.
</event>
<event>
 5   0  0.2647879E-07  0.3768256E+04  0.7818609E-02  0.8053002E-01
        1   -1    0    0  501    0  0.00000000000E+00  0.00000000000E+00  0.25448287220E+04  0.25448287220E+04  0.50400001928E-02 0.  1.
       -1   -1    0    0    0  501  0.00000000000E+00  0.00000000000E+00 -0.13949614490E+04  0.13949614491E+04  0.50400001928E-02 0. -1.
    10030    2    1    2    0    0  0.00000000000E+00  0.00000000000E+00  0.11498672729E+04  0.39397901710E+04  0.37682558096E+04 0.  0.
        2    1    3    3  502    0 -0.12602847036E+04  0.11020381051E+04 -0.32878140860E+03  0.17061367864E+04  0.25500000920E-02 0. -1.
       -2    1    3    3    0  502  0.12602847036E+04 -0.11020381051E+04  0.14786486815E+04  0.22336533846E+04  0.25500000920E-02 0.  1.
</event>
<event>
 5   0  0.2647879E-07  0.2410540E+04  0.7818609E-02  0.8435568E-01
        1   -1    0    0  501    0  0.00000000000E+00  0.00000000000E+00  0.17140436404E+04  0.17140436405E+04  0.50400001928E-02 0.  1.
       -1   -1    0    0    0  501  0.00000000000E+00  0.00000000000E+00 -0.84751382154E+03  0.84751382156E+03  0.50400001928E-02 0. -1.
    10030    2    1    2    0    0  0.00000000000E+00  0.00000000000E+00  0.86652981891E+03  0.25615574620E+04  0.24105399196E+04 0.  0.
        2    1    3    3  502    0 -0.96816174146E+03 -0.60418633924E+03  0.21295007542E+02  0.11414165618E+04  0.25500000920E-02 0.  1.
       -2    1    3    3    0  502  0.96816174146E+03  0.60418633924E+03  0.84523481137E+03  0.14201409002E+04  0.25500000920E-02 0. -1.
</event>
<event>
 5   0  0.6043512E-07  0.3021821E+04  0.7818609E-02  0.8237527E-01
       -2   -1    0    0    0  501  0.00000000000E+00  0.00000000000E+00  0.25828294890E+04  0.25828294890E+04  0.25500000920E-02 0. -1.
        2   -1    0    0  501    0  0.00000000000E+00  0.00000000000E+00 -0.88385656778E+03  0.88385656778E+03  0.25500000920E-02 0.  1.
    10030    2    1    2    0    0  0.00000000000E+00  0.00000000000E+00  0.16989729212E+04  0.34666860568E+04  0.30218211776E+04 0.  0.
        3    1    3    3  502    0  0.11742163701E+04  0.89452536026E+03  0.12192592177E+04  0.19145633325E+04  0.10100000352E+00 0. -1.
       -3    1    3    3    0  502 -0.11742163701E+04 -0.89452536026E+03  0.47971370356E+03  0.15521227244E+04  0.10100000352E+00 0.  1.
</event>
<event>
 5   0  0.2601252E-07  0.3150521E+04  0.7818609E-02  0.8202008E-01
        1   -1    0    0  501    0  0.00000000000E+00  0.00000000000E+00  0.24941214168E+04  0.24941214168E+04  0.50400001928E-02 0. -1.
       -1   -1    0    0    0  501  0.00000000000E+00  0.00000000000E+00 -0.99491799352E+03  0.99491799353E+03  0.50400001928E-02 0.  1.
    10030    2    1    2    0    0  0.00000000000E+00  0.00000000000E+00  0.14992034233E+04  0.34890394104E+04  0.31505214017E+04 0.  0.
        3    1    3    3  502    0  0.37058794360E+03  0.54746145887E+03 -0.83385442089E+03  0.10641253114E+04  0.10100000352E+00 0.  1.
       -3    1    3    3    0  502 -0.37058794360E+03 -0.54746145887E+03  0.23330578442E+04  0.24249140990E+04  0.10100000352E+00 0. -1.
</event>
<event>
 5   0  0.2401125E-07  0.2089593E+04  0.7818609E-02  0.8565842E-01
        1   -1    0    0  501    0  0.00000000000E+00  0.00000000000E+00  0.23403539684E+04  0.23403539684E+04  0.50400001928E-02 0.  1.
       -1   -1    0    0    0  501  0.00000000000E+00  0.00000000000E+00 -0.46642489454E+03  0.46642489456E+03  0.50400001928E-02 0. -1.
    10030    2    1    2    0    0  0.00000000000E+00  0.00000000000E+00  0.18739290738E+04  0.28067788629E+04  0.20895926425E+04 0.  0.
        5    1    3    3  502    0  0.39317271481E+03 -0.22238798751E+03  0.22023987467E+04  0.22482489920E+04  0.46999998093E+01 0.  1.
       -5    1    3    3    0  502 -0.39317271481E+03  0.22238798751E+03 -0.32846967289E+03  0.55852987089E+03  0.46999998093E+01 0. -1.
</event>
<event>
 5   0  0.5161550E-07  0.3952053E+04  0.7818609E-02  0.8014289E-01
        2   -1    0    0  501    0  0.00000000000E+00  0.00000000000E+00  0.22793530140E+04  0.22793530140E+04  0.25500000920E-02 0.  1.
       -2   -1    0    0    0  501  0.00000000000E+00  0.00000000000E+00 -0.17130651432E+04  0.17130651432E+04  0.25500000920E-02 0. -1.
    10030    2    1    2    0    0  0.00000000000E+00  0.00000000000E+00  0.56628787077E+03  0.39924181572E+04  0.39520527311E+04 0.  0.
        2    1    3    3  502    0 -0.16445782857E+04  0.10719710111E+04  0.55183176576E+02  0.19638749373E+04  0.25500000920E-02 0.  1.
       -2    1    3    3    0  502  0.16445782857E+04 -0.10719710111E+04  0.51110469420E+03  0.20285432199E+04  0.25500000920E-02 0. -1.
</event>
<event>
 5   0  0.2713405E-07  0.2416461E+04  0.7818609E-02  0.8433367E-01
       -1   -1    0    0    0  501  0.00000000000E+00  0.00000000000E+00  0.10239062260E+04  0.10239062260E+04  0.50400001928E-02 0. -1.
        1   -1    0    0  501    0  0.00000000000E+00  0.00000000000E+00 -0.14257366964E+04  0.14257366964E+04  0.50400001928E-02 0.  1.
    10030    2    1    2    0    0  0.00000000000E+00  0.00000000000E+00 -0.40183047034E+03  0.24496429224E+04  0.24164607839E+04 0.  0.
        1    1    3    3  502    0 -0.13493055687E+03  0.11733884302E+04  0.57086986796E+02  0.11824997198E+04  0.50400001928E-02 0.  1.
       -1    1    3    3    0  502  0.13493055687E+03 -0.11733884302E+04 -0.45891745713E+03  0.12671432026E+04  0.50400001928E-02 0. -1.
</event>
<event>
 5   0  0.5586338E-07  0.2035898E+04  0.7818609E-02  0.8590019E-01
       -2   -1    0    0    0  501  0.00000000000E+00  0.00000000000E+00  0.82732292255E+03  0.82732292256E+03  0.25500000920E-02 0. -1.
        2   -1    0    0  501    0  0.00000000000E+00  0.00000000000E+00 -0.12524979336E+04  0.12524979336E+04  0.25500000920E-02 0.  1.
    10030    2    1    2    0    0  0.00000000000E+00  0.00000000000E+00 -0.42517501105E+03  0.20798208562E+04  0.20358980828E+04 0.  0.
        1    1    3    3  502    0 -0.74554242113E+03 -0.29179100204E+02  0.49483716302E+03  0.89529254410E+03  0.50400001928E-02 0. -1.
       -1    1    3    3    0  502  0.74554242113E+03  0.29179100204E+02 -0.92001217408E+03  0.11845283121E+04  0.50400001928E-02 0.  1.
</event>
<event>
 5   0  0.2401125E-07  0.2061526E+04  0.7818609E-02  0.8578384E-01
       -1   -1    0    0    0  501  0.00000000000E+00  0.00000000000E+00  0.10077688471E+04  0.10077688471E+04  0.50400001928E-02 0.  1.
        1   -1    0    0  501    0  0.00000000000E+00  0.00000000000E+00 -0.10542815857E+04  0.10542815857E+04  0.50400001928E-02 0. -1.
    10030    2    1    2    0    0  0.00000000000E+00  0.00000000000E+00 -0.46512738552E+02  0.20620504328E+04  0.20615257827E+04 0.  0.
        5    1    3    3  502    0  0.41601891839E+03 -0.84272354431E+03 -0.44667880156E+03  0.10405761646E+04  0.46999998093E+01 0. -1.
       -5    1    3    3    0  502 -0.41601891839E+03  0.84272354431E+03  0.40016606301E+03  0.10214742682E+04  0.46999998093E+01 0.  1.
</event>
<event>
 5   0  0.7256473E-07  0.4035408E+04  0.7818609E-02  0.7997442E-01
        2   -1    0    0  501    0  0.00000000000E+00  0.00000000000E+00  0.14195241881E+04  0.14195241881E+04  0.25500000920E-02 0. -1.
       -2   -1    0    0    0  501  0.00000000000E+00  0.00000000000E+00 -0.28679533601E+04  0.28679533601E+04  0.25500000920E-02 0.  1.
    10030    2    1    2    0    0  0.00000000000E+00  0.00000000000E+00 -0.14484291720E+04  0.42874775482E+04  0.40354078679E+04 0.  0.
        4    1    3    3  502    0 -0.63968962031E+03  0.75943290470E+03  0.11419722728E+04  0.15132889452E+04  0.12699999809E+01 0. -1.
       -4    1    3    3    0  502  0.63968962031E+03 -0.75943290470E+03 -0.25904014448E+04  0.27741886030E+04  0.12699999809E+01 0.  1.
</event>
<event>
 5   0  0.5161550E-07  0.2817307E+04  0.7818609E-02  0.8297915E-01
        2   -1    0    0  501    0  0.00000000000E+00  0.00000000000E+00  0.16530932163E+04  0.16530932163E+04  0.25500000920E-02 0. -1.
       -2   -1    0    0    0  501  0.00000000000E+00  0.00000000000E+00 -0.12003585971E+04  0.12003585971E+04  0.25500000920E-02 0.  1.
    10030    2    1    2    0    0  0.00000000000E+00  0.00000000000E+00  0.45273461920E+03  0.28534518134E+04  0.28173069793E+04 0.  0.
        2    1    3    3  502    0 -0.11381995730E+04  0.35398267269E+03 -0.53393157698E+03  0.13060952988E+04  0.25500000920E-02 0.  1.
       -2    1    3    3    0  502  0.11381995730E+04 -0.35398267269E+03  0.98666619617E+03  0.15473565146E+04  0.25500000920E-02 0. -1.
</event>
<event>
 5   0  0.7570277E-07  0.3772904E+04  0.7818609E-02  0.8051995E-01
        2   -1    0    0  501    0  0.00000000000E+00  0.00000000000E+00  0.15321530751E+04  0.15321530751E+04  0.25500000920E-02 0. -1.
       -2   -1    0    0    0  501  0.00000000000E+00  0.00000000000E+00 -0.23226793202E+04  0.23226793202E+04  0.25500000920E-02 0.  1.
    10030    2    1    2    0    0  0.00000000000E+00  0.00000000000E+00 -0.79052624508E+03  0.38548323953E+04  0.37729035306E+04 0.  0.
        5    1    3    3  502    0  0.32287778962E+03 -0.15579031819E+04 -0.14308638516E+04  0.21397910746E+04  0.46999998093E+01 0. -1.
       -5    1    3    3    0  502 -0.32287778962E+03  0.15579031819E+04  0.64033760649E+03  0.17150413206E+04  0.46999998093E+01 0.  1.
</event>
<event>
 5   0  0.7256473E-07  0.3960967E+04  0.7818609E-02  0.8012467E-01
        2   -1    0    0  501    0  0.00000000000E+00  0.00000000000E+00  0.13340355188E+04  0.13340355188E+04  0.25500000920E-02 0. -1.
       -2   -1    0    0    0  501  0.00000000000E+00  0.00000000000E+00 -0.29401879206E+04  0.29401879206E+04  0.25500000920E-02 0.  1.
    10030    2    1    2    0    0  0.00000000000E+00  0.00000000000E+00 -0.16061524018E+04  0.42742234394E+04  0.39609671132E+04 0.  0.
        4    1    3    3  502    0  0.16348331282E+04 -0.33707865957E+03 -0.19532076222E+04  0.25693039930E+04  0.12699999809E+01 0.  1.
       -4    1    3    3    0  502 -0.16348331282E+04  0.33707865957E+03  0.34705522046E+03  0.17049194464E+04  0.12699999809E+01 0. -1.
</event>
<event>
 5   0  0.2401125E-07  0.2459326E+04  0.7818609E-02  0.8417621E-01
        3   -1    0    0  501    0  0.00000000000E+00  0.00000000000E+00  0.25139892722E+04  0.25139892743E+04  0.10100000352E+00 0.  1.
       -3   -1    0    0    0  501  0.00000000000E+00  0.00000000000E+00 -0.60146284286E+03  0.60146285134E+03  0.10100000352E+00 0. -1.
    10030    2    1    2    0    0  0.00000000000E+00  0.00000000000E+00  0.19125264294E+04  0.31154521256E+04  0.24593260467E+04 0.  0.
        1    1    3    3  502    0  0.72423230414E+03 -0.28617367591E+03 -0.24929550507E+03  0.81765276983E+03  0.50400001928E-02 0. -1.
       -1    1    3    3    0  502 -0.72423230414E+03  0.28617367591E+03  0.21618219344E+04  0.22977993558E+04  0.50400001928E-02 0.  1.
</event>
<event>
 5   0  0.3579559E-07  0.1967787E+04  0.7818609E-02  0.8621831E-01
        1   -1    0    0  501    0  0.00000000000E+00  0.00000000000E+00  0.15408062515E+04  0.15408062515E+04  0.50400001928E-02 0.  1.
       -1   -1    0    0    0  501  0.00000000000E+00  0.00000000000E+00 -0.62827251200E+03  0.62827251202E+03  0.50400001928E-02 0. -1.
    10030    2    1    2    0    0  0.00000000000E+00  0.00000000000E+00  0.91253373953E+03  0.21690787636E+04  0.19677867915E+04 0.  0.
        4    1    3    3  502    0 -0.11051571845E+03  0.50734139694E+03  0.13774807229E+04  0.14720950282E+04  0.12699999809E+01 0.  1.
       -4    1    3    3    0  502  0.11051571845E+03 -0.50734139694E+03 -0.46494698341E+03  0.69698373536E+03  0.12699999809E+01 0. -1.
</event>
<event>
 5   0  0.2401125E-07  0.2193011E+04  0.7818609E-02  0.8521343E-01
       -1   -1    0    0    0  501  0.00000000000E+00  0.00000000000E+00  0.54880802330E+03  0.54880802332E+03  0.50400001928E-02 0. -1.
        1   -1    0    0  501    0  0.00000000000E+00  0.00000000000E+00 -0.21907915678E+04  0.21907915678E+04  0.50400001928E-02 0.  1.
    10030    2    1    2    0    0  0.00000000000E+00  0.00000000000E+00 -0.16419835445E+04  0.27395995911E+04  0.21930107066E+04 0.  0.
        5    1    3    3  502    0 -0.37307979002E+02  0.10956952248E+04 -0.84475984702E+03  0.13840452305E+04  0.46999998093E+01 0. -1.
       -5    1    3    3    0  502  0.37307979002E+02 -0.10956952248E+04 -0.79722369746E+03  0.13555543606E+04  0.46999998093E+01 0.  1.
</event>
<event>
 5   0  0.7256473E-07  0.4056349E+04  0.7818609E-02  0.7993275E-01
       -2   -1    0    0    0  501  0.00000000000E+00  0.00000000000E+00  0.23546827765E+04  0.23546827765E+04  0.25500000920E-02 0.  1.
        2   -1    0    0  501    0  0.00000000000E+00  0.00000000000E+00 -0.17469408872E+04  0.17469408872E+04  0.25500000920E-02 0. -1.
    10030    2    1    2    0    0  0.00000000000E+00  0.00000000000E+00  0.60774188922E+03  0.41016236637E+04  0.40563489094E+04 0.  0.
        4    1    3    3  502    0 -0.96812201817E+03  0.17811856122E+04  0.36460445717E+03  0.20598107802E+04  0.12699999809E+01 0.  1.
       -4    1    3    3    0  502  0.96812201817E+03 -0.17811856122E+04  0.24313743205E+03  0.20418128835E+04  0.12699999809E+01 0. -1.
</event>
<event>
 5   0  0.2601252E-07  0.2027898E+04  0.7818609E-02  0.8593688E-01
        1   -1    0    0  501    0  0.00000000000E+00  0.00000000000E+00  0.13644033677E+04  0.13644033677E+04  0.50400001928E-02 0.  1.
       -1   -1    0    0    0  501  0.00000000000E+00  0.00000000000E+00 -0.75351039452E+03  0.75351039454E+03  0.50400001928E-02 0. -1.
    10030    2    1    2    0    0  0.00000000000E+00  0.00000000000E+00  0.61089297321E+03  0.21179137623E+04  0.20278975516E+04 0.  0.
        3    1    3    3  502    0 -0.82063229290E+02  0.97258419695E+03  0.18595381753E+02  0.97621728738E+03  0.10100000352E+00 0.  1.
       -3    1    3    3    0  502  0.82063229290E+02 -0.97258419695E+03  0.59229759146E+03  0.11416964749E+04  0.10100000352E+00 0. -1.
</event>
<event>
 5   0  0.2601252E-07  0.2387536E+04  0.7818609E-02  0.8444184E-01
       -1   -1    0    0    0  501  0.00000000000E+00  0.00000000000E+00  0.12802102282E+04  0.12802102282E+04  0.50400001928E-02 0. -1.
        1   -1    0    0  501    0  0.00000000000E+00  0.00000000000E+00 -0.11131629482E+04  0.11131629482E+04  0.50400001928E-02 0.  1.
    10030    2    1    2    0    0  0.00000000000E+00  0.00000000000E+00  0.16704728001E+03  0.23933731764E+04  0.23875364641E+04 0.  0.
        3    1    3    3  502    0  0.28576265913E+03 -0.11568553629E+04  0.15516830937E+03  0.12016870817E+04  0.10100000352E+00 0.  1.
       -3    1    3    3    0  502 -0.28576265913E+03  0.11568553629E+04  0.11878970636E+02  0.11916860946E+04  0.10100000352E+00 0. -1.
</event>
<event>
 5   0  0.2647879E-07  0.3955952E+04  0.7818609E-02  0.8013492E-01
        1   -1    0    0  501    0  0.00000000000E+00  0.00000000000E+00  0.28444706820E+04  0.28444706820E+04  0.50400001928E-02 0. -1.
       -1   -1    0    0    0  501  0.00000000000E+00  0.00000000000E+00 -0.13754366299E+04  0.13754366299E+04  0.50400001928E-02 0.  1.
    10030    2    1    2    0    0  0.00000000000E+00  0.00000000000E+00  0.14690340521E+04  0.42199073119E+04  0.39559520567E+04 0.  0.
        2    1    3    3  502    0 -0.19089602816E+03  0.97480281437E+02 -0.13630113130E+04  0.13797621310E+04  0.25500000920E-02 0.  1.
       -2    1    3    3    0  502  0.19089602816E+03 -0.97480281437E+02  0.28320453651E+04  0.28401451809E+04  0.25500000920E-02 0. -1.
</event>
<event>
 5   0  0.6043512E-07  0.3291347E+04  0.7818609E-02  0.8165101E-01
       -2   -1    0    0    0  501  0.00000000000E+00  0.00000000000E+00  0.12027561403E+04  0.12027561403E+04  0.25500000920E-02 0. -1.
        2   -1    0    0  501    0  0.00000000000E+00  0.00000000000E+00 -0.22516962060E+04  0.22516962060E+04  0.25500000920E-02 0.  1.
    10030    2    1    2    0    0  0.00000000000E+00  0.00000000000E+00 -0.10489400657E+04  0.34544523463E+04  0.32913471028E+04 0.  0.
        3    1    3    3  502    0 -0.18538622880E+03 -0.16188918249E+04 -0.28270141960E+03  0.16538134409E+04  0.10100000352E+00 0.  1.
       -3    1    3    3    0  502  0.18538622880E+03  0.16188918249E+04 -0.76623864614E+03  0.18006389054E+04  0.10100000352E+00 0. -1.
</event>
<event>
 5   0  0.4449262E-07  0.3941022E+04  0.7818609E-02  0.8016551E-01
       -2   -1    0    0    0  501  0.00000000000E+00  0.00000000000E+00  0.17710603075E+04  0.17710603075E+04  0.25500000920E-02 0.  1.
        2   -1    0    0  501    0  0.00000000000E+00  0.00000000000E+00 -0.21924228860E+04  0.21924228860E+04  0.25500000920E-02 0. -1.
    10030    2    1    2    0    0  0.00000000000E+00  0.00000000000E+00 -0.42136257851E+03  0.39634831934E+04  0.39410217713E+04 0.  0.
        1    1    3    3  502    0  0.12801132194E+04  0.14039725588E+04 -0.73623437823E+03  0.20376137662E+04  0.50400001928E-02 0. -1.
       -1    1    3    3    0  502 -0.12801132194E+04 -0.14039725588E+04  0.31487179972E+03  0.19258694272E+04  0.50400001928E-02 0.  1.
</event>
<event>
 5   0  0.7570277E-07  0.3973508E+04  0.7818609E-02  0.8009912E-01
       -2   -1    0    0    0  501  0.00000000000E+00  0.00000000000E+00  0.18475279841E+04  0.18475279841E+04  0.25500000920E-02 0.  1.
        2   -1    0    0  501    0  0.00000000000E+00  0.00000000000E+00 -0.21364723137E+04  0.21364723137E+04  0.25500000920E-02 0. -1.
    10030    2    1    2    0    0  0.00000000000E+00  0.00000000000E+00 -0.28894432952E+03  0.39840002978E+04  0.39735084682E+04 0.  0.
        5    1    3    3  502    0 -0.17606925171E+04  0.86048038540E+03 -0.47199301615E+03  0.20157539857E+04  0.46999998093E+01 0. -1.
       -5    1    3    3    0  502  0.17606925171E+04 -0.86048038540E+03  0.18304868663E+03  0.19682463121E+04  0.46999998093E+01 0.  1.
</event>
<event>
 5   0  0.2601252E-07  0.3293464E+04  0.7818609E-02  0.8164561E-01
        1   -1    0    0  501    0  0.00000000000E+00  0.00000000000E+00  0.17887793042E+04  0.17887793042E+04  0.50400001928E-02 0. -1.
       -1   -1    0    0    0  501  0.00000000000E+00  0.00000000000E+00 -0.15159644382E+04  0.15159644382E+04  0.50400001928E-02 0.  1.
    10030    2    1    2    0    0  0.00000000000E+00  0.00000000000E+00  0.27281486598E+03  0.33047437425E+04  0.32934637165E+04 0.  0.
        3    1    3    3  502    0  0.15487978171E+04  0.55561635112E+03  0.71056843721E+02  0.16469770165E+04  0.10100000352E+00 0.  1.
       -3    1    3    3    0  502 -0.15487978171E+04 -0.55561635112E+03  0.20175802225E+03  0.16577667259E+04  0.10100000352E+00 0. -1.
</event>
<event>
 5   0  0.4449262E-07  0.3033743E+04  0.7818609E-02  0.8234161E-01
       -2   -1    0    0    0  501  0.00000000000E+00  0.00000000000E+00  0.13481104883E+04  0.13481104883E+04  0.25500000920E-02 0.  1.
        2   -1    0    0  501    0  0.00000000000E+00  0.00000000000E+00 -0.17067584752E+04  0.17067584752E+04  0.25500000920E-02 0. -1.
    10030    2    1    2    0    0  0.00000000000E+00  0.00000000000E+00 -0.35864798689E+03  0.30548689636E+04  0.30337429037E+04 0.  0.
        1    1    3    3  502    0 -0.40246849324E+03  0.13138758903E+04 -0.82617434859E+03  0.16033760624E+04  0.50400001928E-02 0. -1.
       -1    1    3    3    0  502  0.40246849324E+03 -0.13138758903E+04  0.46752636170E+03  0.14514929012E+04  0.50400001928E-02 0.  1.
</event>
<event>
 5   0  0.4449262E-07  0.4087221E+04  0.7818609E-02  0.7987179E-01
        2   -1    0    0  501    0  0.00000000000E+00  0.00000000000E+00  0.17907762574E+04  0.17907762574E+04  0.25500000920E-02 0. -1.
       -2   -1    0    0    0  501  0.00000000000E+00  0.00000000000E+00 -0.23321412362E+04  0.23321412362E+04  0.25500000920E-02 0.  1.
    10030    2    1    2    0    0  0.00000000000E+00  0.00000000000E+00 -0.54136497876E+03  0.41229174936E+04  0.40872206472E+04 0.  0.
        1    1    3    3  502    0  0.73029151379E+03 -0.28647734216E+03 -0.21742110087E+04  0.23114040048E+04  0.50400001928E-02 0.  1.
       -1    1    3    3    0  502 -0.73029151379E+03  0.28647734216E+03  0.16328460300E+04  0.18115134889E+04  0.50400001928E-02 0. -1.
</event>
<event>
 5   0  0.2401125E-07  0.2078855E+04  0.7818609E-02  0.8570616E-01
        1   -1    0    0  501    0  0.00000000000E+00  0.00000000000E+00  0.81815661604E+03  0.81815661606E+03  0.50400001928E-02 0.  1.
       -1   -1    0    0    0  501  0.00000000000E+00  0.00000000000E+00 -0.13205407081E+04  0.13205407082E+04  0.50400001928E-02 0. -1.
    10030    2    1    2    0    0  0.00000000000E+00  0.00000000000E+00 -0.50238409210E+03  0.21386973242E+04  0.20788546050E+04 0.  0.
        5    1    3    3  502    0  0.95025700468E+03 -0.18278015595E+03 -0.64157556706E+03  0.11610504979E+04  0.46999998093E+01 0.  1.
       -5    1    3    3    0  502 -0.95025700468E+03  0.18278015595E+03  0.13919147496E+03  0.97764682634E+03  0.46999998093E+01 0. -1.
</event>
<event>
 5   0  0.2401125E-07  0.4073775E+04  0.7818609E-02  0.7989827E-01
        1   -1    0    0  501    0  0.00000000000E+00  0.00000000000E+00  0.28569164610E+04  0.28569164610E+04  0.50400001928E-02 0.  1.
       -1   -1    0    0    0  501  0.00000000000E+00  0.00000000000E+00 -0.14522338854E+04  0.14522338854E+04  0.50400001928E-02 0. -1.
    10030    2    1    2    0    0  0.00000000000E+00  0.00000000000E+00  0.14046825757E+04  0.43091503464E+04  0.40737751005E+04 0.  0.
        5    1    3    3  502    0  0.15654663969E+04  0.11621764176E+04  0.13259369415E+04  0.23578528216E+04  0.46999998093E+01 0.  1.
       -5    1    3    3    0  502 -0.15654663969E+04 -0.11621764176E+04  0.78745634174E+02  0.19512975248E+04  0.46999998093E+01 0. -1.
</event>
<event>
 5   0  0.7570277E-07  0.3611500E+04  0.7818609E-02  0.8087863E-01
        2   -1    0    0  501    0  0.00000000000E+00  0.00000000000E+00  0.14379995298E+04  0.14379995298E+04  0.25500000920E-02 0.  1.
       -2   -1    0    0    0  501  0.00000000000E+00  0.00000000000E+00 -0.22675481723E+04  0.22675481723E+04  0.25500000920E-02 0. -1.
    10030    2    1    2    0    0  0.00000000000E+00  0.00000000000E+00 -0.82954864254E+03  0.37055477021E+04  0.36115000793E+04 0.  0.
        5    1    3    3  502    0 -0.70431944179E+03  0.89323684947E+02 -0.21183322080E+04  0.22341436906E+04  0.46999998093E+01 0. -1.
       -5    1    3    3    0  502  0.70431944179E+03 -0.89323684947E+02  0.12887835654E+04  0.14714040116E+04  0.46999998093E+01 0.  1.
</event>
<event>
 5   0  0.2601252E-07  0.3887215E+04  0.7818609E-02  0.8027694E-01
        1   -1    0    0  501    0  0.00000000000E+00  0.00000000000E+00  0.22651611386E+04  0.22651611386E+04  0.50400001928E-02 0.  1.
       -1   -1    0    0    0  501  0.00000000000E+00  0.00000000000E+00 -0.16677001168E+04  0.16677001168E+04  0.50400001928E-02 0. -1.
    10030    2    1    2    0    0  0.00000000000E+00  0.00000000000E+00  0.59746102180E+03  0.39328612554E+04  0.38872146817E+04 0.  0.
        3    1    3    3  502    0 -0.14690115409E+04 -0.25261346896E+03 -0.96323394874E+03  0.17747191671E+04  0.10100000352E+00 0. -1.
       -3    1    3    3    0  502  0.14690115409E+04  0.25261346896E+03  0.15606949705E+04  0.21581420883E+04  0.10100000352E+00 0.  1.
</event>
<event>
 5   0  0.7570277E-07  0.3963507E+04  0.7818609E-02  0.8011949E-01
        2   -1    0    0  501    0  0.00000000000E+00  0.00000000000E+00  0.15930974923E+04  0.15930974923E+04  0.25500000920E-02 0.  1.
       -2   -1    0    0    0  501  0.00000000000E+00  0.00000000000E+00 -0.24652273908E+04  0.24652273908E+04  0.25500000920E-02 0. -1.
    10030    2    1    2    0    0  0.00000000000E+00  0.00000000000E+00 -0.87212989848E+03  0.40583248831E+04  0.39635073227E+04 0.  0.
        5    1    3    3  502    0  0.14615730373E+03 -0.12777257122E+04  0.11077783395E+04  0.16973920857E+04  0.46999998093E+01 0.  1.
       -5    1    3    3    0  502 -0.14615730373E+03  0.12777257122E+04 -0.19799082380E+04  0.23609327974E+04  0.46999998093E+01 0. -1.
</event>
<event>
 5   0  0.2601252E-07  0.3087670E+04  0.7818609E-02  0.8219130E-01
       -1   -1    0    0    0  501  0.00000000000E+00  0.00000000000E+00  0.84186022103E+03  0.84186022105E+03  0.50400001928E-02 0. -1.
        1   -1    0    0  501    0  0.00000000000E+00  0.00000000000E+00 -0.28311426854E+04  0.28311426854E+04  0.50400001928E-02 0.  1.
    10030    2    1    2    0    0  0.00000000000E+00  0.00000000000E+00 -0.19892824644E+04  0.36730029064E+04  0.30876699350E+04 0.  0.
        3    1    3    3  502    0  0.33683126975E+03  0.36247423116E+03 -0.27342577044E+04  0.27786701993E+04  0.10100000352E+00 0.  1.
       -3    1    3    3    0  502 -0.33683126975E+03 -0.36247423116E+03  0.74497524003E+03  0.89433270710E+03  0.10100000352E+00 0. -1.
</event>
<event>
 5   0  0.6043512E-07  0.2857080E+04  0.7818609E-02  0.8285763E-01
        2   -1    0    0  501    0  0.00000000000E+00  0.00000000000E+00  0.18504112981E+04  0.18504112981E+04  0.25500000920E-02 0.  1.
       -2   -1    0    0    0  501  0.00000000000E+00  0.00000000000E+00 -0.11028503557E+04  0.11028503557E+04  0.25500000920E-02 0. -1.
    10030    2    1    2    0    0  0.00000000000E+00  0.00000000000E+00  0.74756094238E+03  0.29532616538E+04  0.28570801587E+04 0.  0.
        3    1    3    3  502    0 -0.11790508417E+03 -0.26023917200E+03 -0.10730174714E+04  0.11104019721E+04  0.10100000352E+00 0. -1.
       -3    1    3    3    0  502  0.11790508417E+03  0.26023917200E+03  0.18205784138E+04  0.18428596817E+04  0.10100000352E+00 0.  1.
</event>
<event>
 5   0  0.4449262E-07  0.3346413E+04  0.7818609E-02  0.8151185E-01
        2   -1    0    0  501    0  0.00000000000E+00  0.00000000000E+00  0.24969805789E+04  0.24969805789E+04  0.25500000920E-02 0. -1.
       -2   -1    0    0    0  501  0.00000000000E+00  0.00000000000E+00 -0.11212023179E+04  0.11212023179E+04  0.25500000920E-02 0.  1.
    10030    2    1    2    0    0  0.00000000000E+00  0.00000000000E+00  0.13757782610E+04  0.36181828968E+04  0.33464132517E+04 0.  0.
        1    1    3    3  502    0 -0.14164594237E+03  0.15073233798E+04  0.14581593675E+04  0.21019790877E+04  0.50400001928E-02 0. -1.
       -1    1    3    3    0  502  0.14164594237E+03 -0.15073233798E+04 -0.82381106446E+02  0.15162038091E+04  0.50400001928E-02 0.  1.
</event>
<event>
 5   0  0.5161550E-07  0.4272153E+04  0.7818609E-02  0.7951787E-01
        2   -1    0    0  501    0  0.00000000000E+00  0.00000000000E+00  0.18151928436E+04  0.18151928436E+04  0.25500000920E-02 0. -1.
       -2   -1    0    0    0  501  0.00000000000E+00  0.00000000000E+00 -0.25136848707E+04  0.25136848707E+04  0.25500000920E-02 0.  1.
    10030    2    1    2    0    0  0.00000000000E+00  0.00000000000E+00 -0.69849202719E+03  0.43288777143E+04  0.42721529880E+04 0.  0.
        2    1    3    3  502    0  0.16631035297E+04  0.12629458076E+04 -0.80451942928E+03  0.22379001263E+04  0.25500000920E-02 0.  1.
       -2    1    3    3    0  502 -0.16631035297E+04 -0.12629458076E+04  0.10602740209E+03  0.20909775880E+04  0.25500000920E-02 0. -1.
</event>
<event>
 5   0  0.7256473E-07  0.4266639E+04  0.7818609E-02  0.7952816E-01
       -2   -1    0    0    0  501  0.00000000000E+00  0.00000000000E+00  0.22271564767E+04  0.22271564767E+04  0.25500000920E-02 0. -1.
        2   -1    0    0  501    0  0.00000000000E+00  0.00000000000E+00 -0.20434362453E+04  0.20434362453E+04  0.25500000920E-02 0.  1.
    10030    2    1    2    0    0  0.00000000000E+00  0.00000000000E+00  0.18372023138E+03  0.42705927220E+04  0.42666390841E+04 0.  0.
        4    1    3    3  502    0 -0.19842778720E+04  0.66605590097E+03  0.50462740679E+03  0.21530535454E+04  0.12699999809E+01 0. -1.
       -4    1    3    3    0  502  0.19842778720E+04 -0.66605590097E+03 -0.32090717541E+03  0.21175391767E+04  0.12699999809E+01 0.  1.
</event>
<event>
 5   0  0.7570277E-07  0.3952496E+04  0.7818609E-02  0.8014199E-01
        2   -1    0    0  501    0  0.00000000000E+00  0.00000000000E+00  0.20099191073E+04  0.20099191073E+04  0.25500000920E-02 0.  1.
       -2   -1    0    0    0  501  0.00000000000E+00  0.00000000000E+00 -0.19431412724E+04  0.19431412724E+04  0.25500000920E-02 0. -1.
    10030    2    1    2    0    0  0.00000000000E+00  0.00000000000E+00  0.66777834910E+02  0.39530603796E+04  0.39524963106E+04 0.  0.
        5    1    3    3  502    0 -0.44155954765E+02  0.46436765278E+03  0.19540659649E+04  0.20089755973E+04  0.46999998093E+01 0.  1.
       -5    1    3    3    0  502  0.44155954765E+02 -0.46436765278E+03 -0.18872881300E+04  0.19440847823E+04  0.46999998093E+01 0. -1.
</event>
<event>
 5   0  0.7256473E-07  0.2161712E+04  0.7818609E-02  0.8534536E-01
       -2   -1    0    0    0  501  0.00000000000E+00  0.00000000000E+00  0.13073046326E+04  0.13073046326E+04  0.25500000920E-02 0.  1.
        2   -1    0    0  501    0  0.00000000000E+00  0.00000000000E+00 -0.89363197646E+03  0.89363197646E+03  0.25500000920E-02 0. -1.
    10030    2    1    2    0    0  0.00000000000E+00  0.00000000000E+00  0.41367265611E+03  0.22009366090E+04  0.21617115651E+04 0.  0.
        4    1    3    3  502    0  0.43713421568E+03  0.88023005489E+03  0.66483919193E+03  0.11865513205E+04  0.12699999809E+01 0.  1.
       -4    1    3    3    0  502 -0.43713421568E+03 -0.88023005489E+03 -0.25116653583E+03  0.10143852886E+04  0.12699999809E+01 0. -1.
</event>
<event>
 5   0  0.3394221E-07  0.2067798E+04  0.7818609E-02  0.8575563E-01
        1   -1    0    0  501    0  0.00000000000E+00  0.00000000000E+00  0.99419625878E+03  0.99419625879E+03  0.50400001928E-02 0.  1.
       -1   -1    0    0    0  501  0.00000000000E+00  0.00000000000E+00 -0.10751873323E+04  0.10751873323E+04  0.50400001928E-02 0. -1.
    10030    2    1    2    0    0  0.00000000000E+00  0.00000000000E+00 -0.80991073547E+02  0.20693835911E+04  0.20677980784E+04 0.  0.
        2    1    3    3  502    0  0.45509613541E+03 -0.80179694919E+03 -0.50878208098E+03  0.10530194899E+04  0.25500000920E-02 0. -1.
       -2    1    3    3    0  502 -0.45509613541E+03  0.80179694919E+03  0.42779100744E+03  0.10163641012E+04  0.25500000920E-02 0.  1.
</event>
<event>
 5   0  0.7570277E-07  0.3184170E+04  0.7818609E-02  0.8193010E-01
        2   -1    0    0  501    0  0.00000000000E+00  0.00000000000E+00  0.15876306776E+04  0.15876306776E+04  0.25500000920E-02 0.  1.
       -2   -1    0    0    0  501  0.00000000000E+00  0.00000000000E+00 -0.15965521929E+04  0.15965521929E+04  0.25500000920E-02 0. -1.
    10030    2    1    2    0    0  0.00000000000E+00  0.00000000000E+00 -0.89215152760E+01  0.31841828705E+04  0.31841703723E+04 0.  0.
        5    1    3    3  502    0 -0.37363191310E+03  0.13619826731E+03  0.15371556123E+04  0.15877720998E+04  0.46999998093E+01 0.  1.
       -5    1    3    3    0  502  0.37363191310E+03 -0.13619826731E+03 -0.15460771276E+04  0.15964107707E+04  0.46999998093E+01 0. -1.
</event>
<event>
 5   0  0.4449262E-07  0.2846160E+04  0.7818609E-02  0.8289079E-01
       -2   -1    0    0    0  501  0.00000000000E+00  0.00000000000E+00  0.11846438691E+04  0.11846438691E+04  0.25500000920E-02 0. -1.
        2   -1    0    0  501    0  0.00000000000E+00  0.00000000000E+00 -0.17095069600E+04  0.17095069600E+04  0.25500000920E-02 0.  1.
    10030    2    1    2    0    0  0.00000000000E+00  0.00000000000E+00 -0.52486309095E+03  0.28941508291E+04  0.28461601777E+04 0.  0.
        1    1    3    3  502    0 -0.14209464013E+03 -0.11170530380E+04 -0.11472521797E+04  0.16075403386E+04  0.50400001928E-02 0.  1.
       -1    1    3    3    0  502  0.14209464013E+03  0.11170530380E+04  0.62238908871E+03  0.12866104905E+04  0.50400001928E-02 0. -1.
</event>
<event>
 5   0  0.2601252E-07  0.3972048E+04  0.7818609E-02  0.8010209E-01
       -1   -1    0    0    0  501  0.00000000000E+00  0.00000000000E+00  0.24101737626E+04  0.24101737626E+04  0.50400001928E-02 0. -1.
        1   -1    0    0  501    0  0.00000000000E+00  0.00000000000E+00 -0.16365172268E+04  0.16365172268E+04  0.50400001928E-02 0.  1.
    10030    2    1    2    0    0  0.00000000000E+00  0.00000000000E+00  0.77365653581E+03  0.40466909894E+04  0.39720477752E+04 0.  0.
        3    1    3    3  502    0 -0.19414490897E+04 -0.37895354944E+03  0.20612397593E+03  0.19887979948E+04  0.10100000352E+00 0.  1.
       -3    1    3    3    0  502  0.19414490897E+04  0.37895354944E+03  0.56753255987E+03  0.20578929946E+04  0.10100000352E+00 0. -1.
</event>
<event>
 5   0  0.4449262E-07  0.3954165E+04  0.7818609E-02  0.8013857E-01
       -2   -1    0    0    0  501  0.00000000000E+00  0.00000000000E+00  0.21608102689E+04  0.21608102689E+04  0.25500000920E-02 0. -1.
        2   -1    0    0  501    0  0.00000000000E+00  0.00000000000E+00 -0.18089767007E+04  0.18089767007E+04  0.25500000920E-02 0.  1.
    10030    2    1    2    0    0  0.00000000000E+00  0.00000000000E+00  0.35183356812E+03  0.39697869696E+04  0.39541651109E+04 0.  0.
        1    1    3    3  502    0 -0.51985218372E+03 -0.19034585859E+04  0.30072425511E+03  0.19959548990E+04  0.50400001928E-02 0. -1.
       -1    1    3    3    0  502  0.51985218372E+03  0.19034585859E+04  0.51109313013E+02  0.19738320706E+04  0.50400001928E-02 0.  1.
</event>
<event>
 5   0  0.2401125E-07  0.4014277E+04  0.7818609E-02  0.8001673E-01
       -1   -1    0    0    0  501  0.00000000000E+00  0.00000000000E+00  0.15380595736E+04  0.15380595736E+04  0.50400001928E-02 0.  1.
        1   -1    0    0  501    0  0.00000000000E+00  0.00000000000E+00 -0.26192773666E+04  0.26192773666E+04  0.50400001928E-02 0. -1.
    10030    2    1    2    0    0  0.00000000000E+00  0.00000000000E+00 -0.10812177930E+04  0.41573369403E+04  0.40142768364E+04 0.  0.
        5    1    3    3  502    0 -0.11937070671E+04  0.15702859015E+04 -0.15609822301E+03  0.19786670058E+04  0.46999998093E+01 0.  1.
       -5    1    3    3    0  502  0.11937070671E+04 -0.15702859015E+04 -0.92511957003E+03  0.21786699345E+04  0.46999998093E+01 0. -1.
</event>
<event>
 5   0  0.2647879E-07  0.2219030E+04  0.7818609E-02  0.8510549E-01
        1   -1    0    0  501    0  0.00000000000E+00  0.00000000000E+00  0.63927083088E+03  0.63927083090E+03  0.50400001928E-02 0. -1.
       -1   -1    0    0    0  501  0.00000000000E+00  0.00000000000E+00 -0.19256677152E+04  0.19256677152E+04  0.50400001928E-02 0.  1.
    10030    2    1    2    0    0  0.00000000000E+00  0.00000000000E+00 -0.12863968843E+04  0.25649385461E+04  0.22190296982E+04 0.  0.
        2    1    3    3  502    0 -0.52259826724E+03  0.19926702440E+03 -0.17508014505E+04  0.18379668156E+04  0.25500000920E-02 0.  1.
       -2    1    3    3    0  502  0.52259826724E+03 -0.19926702440E+03  0.46440456618E+03  0.72697173056E+03  0.25500000920E-02 0. -1.
</event>
<event>
 5   0  0.2601252E-07  0.3646868E+04  0.7818609E-02  0.8079840E-01
        1   -1    0    0  501    0  0.00000000000E+00  0.00000000000E+00  0.16307943122E+04  0.16307943122E+04  0.50400001928E-02 0.  1.
       -1   -1    0    0    0  501  0.00000000000E+00  0.00000000000E+00 -0.20388296007E+04  0.20388296007E+04  0.50400001928E-02 0. -1.
    10030    2    1    2    0    0  0.00000000000E+00  0.00000000000E+00 -0.40803528851E+03  0.36696239129E+04  0.36468680899E+04 0.  0.
        3    1    3    3  502    0 -0.15616979751E+04 -0.42671761795E+03  0.64021889823E+03  0.17409390394E+04  0.10100000352E+00 0.  1.
       -3    1    3    3    0  502  0.15616979751E+04  0.42671761795E+03 -0.10482541867E+04  0.19286848735E+04  0.10100000352E+00 0. -1.
</event>
<event>
 5   0  0.4449262E-07  0.3066430E+04  0.7818609E-02  0.8225012E-01
        2   -1    0    0  501    0  0.00000000000E+00  0.00000000000E+00  0.20632798945E+04  0.20632798945E+04  0.25500000920E-02 0.  1.
       -2   -1    0    0    0  501  0.00000000000E+00  0.00000000000E+00 -0.11393260886E+04  0.11393260886E+04  0.25500000920E-02 0. -1.
    10030    2    1    2    0    0  0.00000000000E+00  0.00000000000E+00  0.92395380594E+03  0.32026059831E+04  0.30664302450E+04 0.  0.
        1    1    3    3  502    0 -0.79835941869E+03 -0.12070949512E+04  0.99071241331E+03  0.17538435131E+04  0.50400001928E-02 0.  1.
       -1    1    3    3    0  502  0.79835941869E+03  0.12070949512E+04 -0.66758607378E+02  0.14487624699E+04  0.50400001928E-02 0. -1.
</event>
<event>
 5   0  0.3579559E-07  0.2316792E+04  0.7818609E-02  0.8471330E-01
       -1   -1    0    0    0  501  0.00000000000E+00  0.00000000000E+00  0.11586919463E+04  0.11586919463E+04  0.50400001928E-02 0.  1.
        1   -1    0    0  501    0  0.00000000000E+00  0.00000000000E+00 -0.11581001451E+04  0.11581001451E+04  0.50400001928E-02 0. -1.
    10030    2    1    2    0    0  0.00000000000E+00  0.00000000000E+00  0.59180118750E+00  0.23167920915E+04  0.23167920159E+04 0.  0.
        4    1    3    3  502    0 -0.29742933993E+03 -0.11039928395E+04  0.18634777133E+03  0.11584435708E+04  0.12699999809E+01 0.  1.
       -4    1    3    3    0  502  0.29742933993E+03  0.11039928395E+04 -0.18575597015E+03  0.11583485207E+04  0.12699999809E+01 0. -1.
</event>
<event>
 5   0  0.6043512E-07  0.3988570E+04  0.7818609E-02  0.8006856E-01
        2   -1    0    0  501    0  0.00000000000E+00  0.00000000000E+00  0.26398352806E+04  0.26398352806E+04  0.25500000920E-02 0. -1.
       -2   -1    0    0    0  501  0.00000000000E+00  0.00000000000E+00 -0.15065987047E+04  0.15065987047E+04  0.25500000920E-02 0.  1.
    10030    2    1    2    0    0  0.00000000000E+00  0.00000000000E+00  0.11332365759E+04  0.41464339853E+04  0.39885698763E+04 0.  0.
        3    1    3    3  502    0 -0.52021775034E+03  0.13554394890E+04  0.19879665481E+04  0.24616770142E+04  0.10100000352E+00 0. -1.
       -3    1    3    3    0  502  0.52021775034E+03 -0.13554394890E+04 -0.85472997221E+03  0.16847569711E+04  0.10100000352E+00 0.  1.
</event>
<event>
 5   0  0.7570277E-07  0.3976262E+04  0.7818609E-02  0.8009352E-01
       -2   -1    0    0    0  501  0.00000000000E+00  0.00000000000E+00  0.17077465302E+04  0.17077465302E+04  0.25500000920E-02 0. -1.
        2   -1    0    0  501    0  0.00000000000E+00  0.00000000000E+00 -0.23145501519E+04  0.23145501519E+04  0.25500000920E-02 0.  1.
    10030    2    1    2    0    0  0.00000000000E+00  0.00000000000E+00 -0.60680362174E+03  0.40222966822E+04  0.39762620593E+04 0.  0.
        5    1    3    3  502    0  0.41104030323E+03 -0.69522152371E+03 -0.21411224074E+04  0.22883868448E+04  0.46999998093E+01 0.  1.
       -5    1    3    3    0  502 -0.41104030323E+03  0.69522152371E+03  0.15343187857E+04  0.17339098373E+04  0.46999998093E+01 0. -1.
</event>
<event>
 5   0  0.2713405E-07  0.2421813E+04  0.7818609E-02  0.8431382E-01
        1   -1    0    0  501    0  0.00000000000E+00  0.00000000000E+00  0.11827113482E+04  0.11827113482E+04  0.50400001928E-02 0. -1.
       -1   -1    0    0    0  501  0.00000000000E+00  0.00000000000E+00 -0.12397737751E+04  0.12397737751E+04  0.50400001928E-02 0.  1.
    10030    2    1    2    0    0  0.00000000000E+00  0.00000000000E+00 -0.57062426931E+02  0.24224851233E+04  0.24218129680E+04 0.  0.
        1    1    3    3  502    0  0.69397610942E+03  0.64809157335E+03 -0.78018436989E+03  0.12289479968E+04  0.50400001928E-02 0.  1.
       -1    1    3    3    0  502 -0.69397610942E+03 -0.64809157335E+03  0.72312194296E+03  0.11935371265E+04  0.50400001928E-02 0. -1.
</event>
<event>
 5   0  0.2401125E-07  0.2084240E+04  0.7818609E-02  0.8568218E-01
        1   -1    0    0  501    0  0.00000000000E+00  0.00000000000E+00  0.83927738292E+03  0.83927738294E+03  0.50400001928E-02 0. -1.
       -1   -1    0    0    0  501  0.00000000000E+00  0.00000000000E+00 -0.12939871282E+04  0.12939871282E+04  0.50400001928E-02 0.  1.
    10030    2    1    2    0    0  0.00000000000E+00  0.00000000000E+00 -0.45470974524E+03  0.21332645111E+04  0.20842400346E+04 0.  0.
        5    1    3    3  502    0  0.61223193133E+02 -0.29536309722E+03  0.79360688721E+03  0.84901214361E+03  0.46999998093E+01 0. -1.
       -5    1    3    3    0  502 -0.61223193133E+02  0.29536309722E+03 -0.12483166325E+04  0.12842523675E+04  0.46999998093E+01 0.  1.
</event>
<event>
 5   0  0.2601252E-07  0.3904664E+04  0.7818609E-02  0.8024060E-01
       -1   -1    0    0    0  501  0.00000000000E+00  0.00000000000E+00  0.18641778904E+04  0.18641778904E+04  0.50400001928E-02 0. -1.
        1   -1    0    0  501    0  0.00000000000E+00  0.00000000000E+00 -0.20446552214E+04  0.20446552214E+04  0.50400001928E-02 0.  1.
    10030    2    1    2    0    0  0.00000000000E+00  0.00000000000E+00 -0.18047733104E+03  0.39088331118E+04  0.39046644195E+04 0.  0.
        3    1    3    3  502    0  0.51999956960E+02  0.19009967850E+04  0.35194353660E+03  0.19340002676E+04  0.10100000352E+00 0.  1.
       -3    1    3    3    0  502 -0.51999956960E+02 -0.19009967850E+04 -0.53242086764E+03  0.19748328442E+04  0.10100000352E+00 0. -1.
</event>
<event>
 5   0  0.5161550E-07  0.2528148E+04  0.7818609E-02  0.8393026E-01
        2   -1    0    0  501    0  0.00000000000E+00  0.00000000000E+00  0.12419317021E+04  0.12419317021E+04  0.25500000920E-02 0.  1.
       -2   -1    0    0    0  501  0.00000000000E+00  0.00000000000E+00 -0.12866109761E+04  0.12866109761E+04  0.25500000920E-02 0. -1.
    10030    2    1    2    0    0  0.00000000000E+00  0.00000000000E+00 -0.44679273994E+02  0.25285426782E+04  0.25281479067E+04 0.  0.
        2    1    3    3  502    0  0.63753160503E+03  0.23726056119E+03  0.10432580227E+04  0.12454422601E+04  0.25500000920E-02 0.  1.
       -2    1    3    3    0  502 -0.63753160503E+03 -0.23726056119E+03 -0.10879372967E+04  0.12831004181E+04  0.25500000920E-02 0. -1.
</event>
<event>
 5   0  0.4449262E-07  0.3473945E+04  0.7818609E-02  0.8119992E-01
       -2   -1    0    0    0  501  0.00000000000E+00  0.00000000000E+00  0.16162224508E+04  0.16162224508E+04  0.25500000920E-02 0.  1.
        2   -1    0    0  501    0  0.00000000000E+00  0.00000000000E+00 -0.18667443510E+04  0.18667443510E+04  0.25500000920E-02 0. -1.
    10030    2    1    2    0    0  0.00000000000E+00  0.00000000000E+00 -0.25052190018E+03  0.34829668018E+04  0.34739453824E+04 0.  0.
        1    1    3    3  502    0  0.63346359731E+03  0.84668493400E+02 -0.17445803854E+04  0.18579573741E+04  0.50400001928E-02 0. -1.
       -1    1    3    3    0  502 -0.63346359731E+03 -0.84668493400E+02  0.14940584852E+04  0.16250094277E+04  0.50400001928E-02 0.  1.
</event>
<event>
 5   0  0.2647879E-07  0.2202586E+04  0.7818609E-02  0.8517352E-01
        1   -1    0    0  501    0  0.00000000000E+00  0.00000000000E+00  0.12044612621E+04  0.12044612621E+04  0.50400001928E-02 0.  1.
       -1   -1    0    0    0  501  0.00000000000E+00  0.00000000000E+00 -0.10069619068E+04  0.10069619068E+04  0.50400001928E-02 0. -1.
    10030    2    1    2    0    0  0.00000000000E+00  0.00000000000E+00  0.19749935531E+03  0.22114231689E+04  0.22025863063E+04 0.  0.
        2    1    3    3  502    0  0.38178295617E+03 -0.10324630726E+04  0.13217569963E+03  0.11086968194E+04  0.25500000920E-02 0.  1.
       -2    1    3    3    0  502 -0.38178295617E+03  0.10324630726E+04  0.65323655678E+02  0.11027263495E+04  0.25500000920E-02 0. -1.
</event>
<event>
 5   0  0.2713405E-07  0.3888832E+04  0.7818609E-02  0.8027356E-01
        1   -1    0    0  501    0  0.00000000000E+00  0.00000000000E+00  0.12216241604E+04  0.12216241604E+04  0.50400001928E-02 0. -1.
       -1   -1    0    0    0  501  0.00000000000E+00  0.00000000000E+00 -0.30948578955E+04  0.30948578955E+04  0.50400001928E-02 0.  1.
    10030    2    1    2    0    0  0.00000000000E+00  0.00000000000E+00 -0.18732337350E+04  0.43164820559E+04  0.38888317928E+04 0.  0.
        1    1    3    3  502    0 -0.13347915993E+04 -0.36163156191E+03 -0.24537892287E+04  0.28166518384E+04  0.50400001928E-02 0.  1.
       -1    1    3    3    0  502  0.13347915993E+04  0.36163156191E+03  0.58055549365E+03  0.14998302175E+04  0.50400001928E-02 0. -1.
</event>
<event>
 5   0  0.2713405E-07  0.4030965E+04  0.7818609E-02  0.7998329E-01
       -1   -1    0    0    0  501  0.00000000000E+00  0.00000000000E+00  0.19259410181E+04  0.19259410181E+04  0.50400001928E-02 0.  1.
        1   -1    0    0  501    0  0.00000000000E+00  0.00000000000E+00 -0.21091872196E+04  0.21091872196E+04  0.50400001928E-02 0. -1.
    10030    2    1    2    0    0  0.00000000000E+00  0.00000000000E+00 -0.18324620151E+03  0.40351282377E+04  0.40309652348E+04 0.  0.
        1    1    3    3  502    0  0.12643358154E+04 -0.15178062476E+04 -0.49189768804E+03  0.20357416818E+04  0.50400001928E-02 0. -1.
       -1    1    3    3    0  502 -0.12643358154E+04  0.15178062476E+04  0.30865148652E+03  0.19993865559E+04  0.50400001928E-02 0.  1.
</event>
<event>
 5   0  0.7570277E-07  0.4036868E+04  0.7818609E-02  0.7997150E-01
       -2   -1    0    0    0  501  0.00000000000E+00  0.00000000000E+00  0.22602803224E+04  0.22602803224E+04  0.25500000920E-02 0.  1.
        2   -1    0    0  501    0  0.00000000000E+00  0.00000000000E+00 -0.18024647677E+04  0.18024647677E+04  0.25500000920E-02 0. -1.
    10030    2    1    2    0    0  0.00000000000E+00  0.00000000000E+00  0.45781555470E+03  0.40627450902E+04  0.40368679178E+04 0.  0.
        5    1    3    3  502    0 -0.12082723076E+04  0.10384925938E+04  0.14760708336E+04  0.21719106871E+04  0.46999998093E+01 0.  1.
       -5    1    3    3    0  502  0.12082723076E+04 -0.10384925938E+04 -0.10182552789E+04  0.18908344031E+04  0.46999998093E+01 0. -1.
</event>
<event>
 5   0  0.4449262E-07  0.2314525E+04  0.7818609E-02  0.8472216E-01
       -2   -1    0    0    0  501  0.00000000000E+00  0.00000000000E+00  0.99478121453E+03  0.99478121454E+03  0.25500000920E-02 0.  1.
        2   -1    0    0  501    0  0.00000000000E+00  0.00000000000E+00 -0.13462823452E+04  0.13462823452E+04  0.25500000920E-02 0. -1.
    10030    2    1    2    0    0  0.00000000000E+00  0.00000000000E+00 -0.35150113071E+03  0.23410635598E+04  0.23145249072E+04 0.  0.
        1    1    3    3  502    0  0.95522231901E+03 -0.53748865370E+03  0.19987349741E+03  0.11141333612E+04  0.50400001928E-02 0.  1.
       -1    1    3    3    0  502 -0.95522231901E+03  0.53748865370E+03 -0.55137462812E+03  0.12269301986E+04  0.50400001928E-02 0. -1.
</event>
<event>
 5   0  0.4449262E-07  0.3922001E+04  0.7818609E-02  0.8020469E-01
       -2   -1    0    0    0  501  0.00000000000E+00  0.00000000000E+00  0.16678385049E+04  0.16678385049E+04  0.25500000920E-02 0.  1.
        2   -1    0    0  501    0  0.00000000000E+00  0.00000000000E+00 -0.23056931972E+04  0.23056931972E+04  0.25500000920E-02 0. -1.
    10030    2    1    2    0    0  0.00000000000E+00  0.00000000000E+00 -0.63785469223E+03  0.39735317021E+04  0.39220014762E+04 0.  0.
        1    1    3    3  502    0 -0.17514051477E+04 -0.64991050955E+03 -0.92318646563E+03  0.20837650808E+04  0.50400001928E-02 0. -1.
       -1    1    3    3    0  502  0.17514051477E+04  0.64991050955E+03  0.28533177340E+03  0.18897666212E+04  0.50400001928E-02 0.  1.
</event>
<event>
 5   0  0.2713405E-07  0.3888294E+04  0.7818609E-02  0.8027468E-01
       -1   -1    0    0    0  501  0.00000000000E+00  0.00000000000E+00  0.19157088646E+04  0.19157088646E+04  0.50400001928E-02 0.  1.
        1   -1    0    0  501    0  0.00000000000E+00  0.00000000000E+00 -0.19730076802E+04  0.19730076802E+04  0.50400001928E-02 0. -1.
    10030    2    1    2    0    0  0.00000000000E+00  0.00000000000E+00 -0.57298815621E+02  0.38887165448E+04  0.38882943834E+04 0.  0.
        1    1    3    3  502    0  0.18258066206E+04  0.48099197546E+03  0.43485015913E+03  0.19375287759E+04  0.50400001928E-02 0.  1.
       -1    1    3    3    0  502 -0.18258066206E+04 -0.48099197546E+03 -0.49214897475E+03  0.19511877690E+04  0.50400001928E-02 0. -1.
</event>
<event>
 5   0  0.7256473E-07  0.3728725E+04  0.7818609E-02  0.8061626E-01
        2   -1    0    0  501    0  0.00000000000E+00  0.00000000000E+00  0.16010316538E+04  0.16010316538E+04  0.25500000920E-02 0. -1.
       -2   -1    0    0    0  501  0.00000000000E+00  0.00000000000E+00 -0.21710043033E+04  0.21710043033E+04  0.25500000920E-02 0.  1.
    10030    2    1    2    0    0  0.00000000000E+00  0.00000000000E+00 -0.56997264947E+03  0.37720359572E+04  0.37287245059E+04 0.  0.
        4    1    3    3  502    0  0.93269359025E+03  0.82009571695E+03  0.11216217007E+04  0.16734727876E+04  0.12699999809E+01 0. -1.
       -4    1    3    3    0  502 -0.93269359025E+03 -0.82009571695E+03 -0.16915943502E+04  0.20985631696E+04  0.12699999809E+01 0.  1.
</event>
<event>
 5   0  0.2713405E-07  0.3453475E+04  0.7818609E-02  0.8124905E-01
       -1   -1    0    0    0  501  0.00000000000E+00  0.00000000000E+00  0.12049387754E+04  0.12049387754E+04  0.50400001928E-02 0.  1.
        1   -1    0    0  501    0  0.00000000000E+00  0.00000000000E+00 -0.24745013514E+04  0.24745013514E+04  0.50400001928E-02 0. -1.
    10030    2    1    2    0    0  0.00000000000E+00  0.00000000000E+00 -0.12695625760E+04  0.36794401268E+04  0.34534751356E+04 0.  0.
        1    1    3    3  502    0  0.83983373169E+03 -0.36667306975E+03 -0.21940473130E+04  0.23777328379E+04  0.50400001928E-02 0. -1.
       -1    1    3    3    0  502 -0.83983373169E+03  0.36667306975E+03  0.92448473695E+03  0.13017072889E+04  0.50400001928E-02 0.  1.
</event>
<event>
 5   0  0.2713405E-07  0.3956805E+04  0.7818609E-02  0.8013317E-01
        1   -1    0    0  501    0  0.00000000000E+00  0.00000000000E+00  0.28539010446E+04  0.28539010446E+04  0.50400001928E-02 0.  1.
       -1   -1    0    0    0  501  0.00000000000E+00  0.00000000000E+00 -0.13714828486E+04  0.13714828486E+04  0.50400001928E-02 0. -1.
    10030    2    1    2    0    0  0.00000000000E+00  0.00000000000E+00  0.14824181960E+04  0.42253838931E+04  0.39568049404E+04 0.  0.
        1    1    3    3  502    0 -0.44188264067E+03  0.12129144722E+04 -0.85977240017E+03  0.15510094665E+04  0.50400001928E-02 0. -1.
       -1    1    3    3    0  502  0.44188264067E+03 -0.12129144722E+04  0.23421905962E+04  0.26743744266E+04  0.50400001928E-02 0.  1.
</event>
<event>
 5   0  0.4449262E-07  0.3731725E+04  0.7818609E-02  0.8060967E-01
       -2   -1    0    0    0  501  0.00000000000E+00  0.00000000000E+00  0.21979445912E+04  0.21979445912E+04  0.25500000920E-02 0.  1.
        2   -1    0    0  501    0  0.00000000000E+00  0.00000000000E+00 -0.15839541845E+04  0.15839541845E+04  0.25500000920E-02 0. -1.
    10030    2    1    2    0    0  0.00000000000E+00  0.00000000000E+00  0.61399040664E+03  0.37818987757E+04  0.37317253557E+04 0.  0.
        1    1    3    3  502    0  0.55738491242E+03 -0.15443267230E+04 -0.59138861766E+03  0.17450969787E+04  0.50400001928E-02 0.  1.
       -1    1    3    3    0  502 -0.55738491242E+03  0.15443267230E+04  0.12053790243E+04  0.20368017970E+04  0.50400001928E-02 0. -1.
</event>
<event>
 5   0  0.2401125E-07  0.3918053E+04  0.7818609E-02  0.8021285E-01
       -3   -1    0    0    0  501  0.00000000000E+00  0.00000000000E+00  0.22992807067E+04  0.22992807089E+04  0.10100000352E+00 0. -1.
        3   -1    0    0  501    0  0.00000000000E+00  0.00000000000E+00 -0.16691245144E+04  0.16691245175E+04  0.10100000352E+00 0.  1.
    10030    2    1    2    0    0  0.00000000000E+00  0.00000000000E+00  0.63015619232E+03  0.39684052264E+04  0.39180534981E+04 0.  0.
        5    1    3    3  502    0  0.18282446820E+04 -0.27420177451E+03 -0.34140146292E+03  0.18799580525E+04  0.46999998093E+01 0.  1.
       -5    1    3    3    0  502 -0.18282446820E+04  0.27420177451E+03  0.97155765524E+03  0.20884471738E+04  0.46999998093E+01 0. -1.
</event>
<event>
 5   0  0.2647879E-07  0.4105609E+04  0.7818609E-02  0.7983574E-01
       -1   -1    0    0    0  501  0.00000000000E+00  0.00000000000E+00  0.28231024898E+04  0.28231024898E+04  0.50400001928E-02 0.  1.
        1   -1    0    0  501    0  0.00000000000E+00  0.00000000000E+00 -0.14926861473E+04  0.14926861473E+04  0.50400001928E-02 0. -1.
    10030    2    1    2    0    0  0.00000000000E+00  0.00000000000E+00  0.13304163426E+04  0.43157886371E+04  0.41056088362E+04 0.  0.
        2    1    3    3  502    0 -0.71979757895E+03 -0.39258793965E+02  0.26856761851E+04  0.27807384593E+04  0.25500000920E-02 0.  1.
       -2    1    3    3    0  502  0.71979757895E+03  0.39258793965E+02 -0.13552598426E+04  0.15350501778E+04  0.25500000920E-02 0. -1.
</event>
<event>
 5   0  0.2713405E-07  0.3279311E+04  0.7818609E-02  0.8168180E-01
        1   -1    0    0  501    0  0.00000000000E+00  0.00000000000E+00  0.23132410177E+04  0.23132410177E+04  0.50400001928E-02 0.  1.
       -1   -1    0    0    0  501  0.00000000000E+00  0.00000000000E+00 -0.11622094733E+04  0.11622094733E+04  0.50400001928E-02 0. -1.
    10030    2    1    2    0    0  0.00000000000E+00  0.00000000000E+00  0.11510315444E+04  0.34754504910E+04  0.32793112843E+04 0.  0.
        1    1    3    3  502    0 -0.12779127460E+04  0.37127075224E+03  0.15907061986E+04  0.20739453146E+04  0.50400001928E-02 0.  1.
       -1    1    3    3    0  502  0.12779127460E+04 -0.37127075224E+03 -0.43967465418E+03  0.14015051764E+04  0.50400001928E-02 0. -1.
</event>
<event>
 5   0  0.5161550E-07  0.2721070E+04  0.7818609E-02  0.8328201E-01
        2   -1    0    0  501    0  0.00000000000E+00  0.00000000000E+00  0.12607051640E+04  0.12607051640E+04  0.25500000920E-02 0. -1.
       -2   -1    0    0    0  501  0.00000000000E+00  0.00000000000E+00 -0.14682695093E+04  0.14682695093E+04  0.25500000920E-02 0.  1.
    10030    2    1    2    0    0  0.00000000000E+00  0.00000000000E+00 -0.20756434535E+03  0.27289746733E+04  0.27210696077E+04 0.  0.
        2    1    3    3  502    0 -0.11398850120E+04 -0.48548736429E+03 -0.66757109817E+03  0.14073688190E+04  0.25500000920E-02 0.  1.
       -2    1    3    3    0  502  0.11398850120E+04  0.48548736429E+03  0.46000675282E+03  0.13216058543E+04  0.25500000920E-02 0. -1.
</event>
<event>
 5   0  0.2647879E-07  0.3192877E+04  0.7818609E-02  0.8190701E-01
        1   -1    0    0  501    0  0.00000000000E+00  0.00000000000E+00  0.17143055959E+04  0.17143055959E+04  0.50400001928E-02 0.  1.
       -1   -1    0    0    0  501  0.00000000000E+00  0.00000000000E+00 -0.14866757557E+04  0.14866757557E+04  0.50400001928E-02 0. -1.
    10030    2    1    2    0    0  0.00000000000E+00  0.00000000000E+00  0.22762984024E+03  0.32009813516E+04  0.31928774278E+04 0.  0.
        2    1    3    3  502    0  0.11392331758E+04 -0.11102962633E+04  0.24834397963E+03  0.16100573758E+04  0.25500000920E-02 0.  1.
       -2    1    3    3    0  502 -0.11392331758E+04  0.11102962633E+04 -0.20714139387E+02  0.15909239758E+04  0.25500000920E-02 0. -1.
</event>
<event>
 5   0  0.4449262E-07  0.2681537E+04  0.7818609E-02  0.8341021E-01
        2   -1    0    0  501    0  0.00000000000E+00  0.00000000000E+00  0.18074323803E+04  0.18074323804E+04  0.25500000920E-02 0.  1.
       -2   -1    0    0    0  501  0.00000000000E+00  0.00000000000E+00 -0.99459296361E+03  0.99459296361E+03  0.25500000920E-02 0. -1.
    10030    2    1    2    0    0  0.00000000000E+00  0.00000000000E+00  0.81283941674E+03  0.28020253440E+04  0.26815365205E+04 0.  0.
        1    1    3    3  502    0  0.97206668977E+03 -0.72794236609E+03  0.10001454884E+04  0.15732465591E+04  0.50400001928E-02 0.  1.
       -1    1    3    3    0  502 -0.97206668977E+03  0.72794236609E+03 -0.18730607164E+03  0.12287787849E+04  0.50400001928E-02 0. -1.
</event>
<event>
 5   0  0.6043512E-07  0.3740960E+04  0.7818609E-02  0.8058945E-01
        2   -1    0    0  501    0  0.00000000000E+00  0.00000000000E+00  0.25032400047E+04  0.25032400047E+04  0.25500000920E-02 0. -1.
       -2   -1    0    0    0  501  0.00000000000E+00  0.00000000000E+00 -0.13976671047E+04  0.13976671047E+04  0.25500000920E-02 0.  1.
    10030    2    1    2    0    0  0.00000000000E+00  0.00000000000E+00  0.11055729000E+04  0.39009071095E+04  0.37409604167E+04 0.  0.
        3    1    3    3  502    0  0.14312301358E+04  0.91045151788E+03 -0.26917647876E+03  0.17174974978E+04  0.10100000352E+00 0.  1.
       -3    1    3    3    0  502 -0.14312301358E+04 -0.91045151788E+03  0.13747493788E+04  0.21834096117E+04  0.10100000352E+00 0. -1.
</event>
<event>
 5   0  0.2647879E-07  0.2588119E+04  0.7818609E-02  0.8372248E-01
        1   -1    0    0  501    0  0.00000000000E+00  0.00000000000E+00  0.19773178291E+04  0.19773178292E+04  0.50400001928E-02 0. -1.
       -1   -1    0    0    0  501  0.00000000000E+00  0.00000000000E+00 -0.84689954917E+03  0.84689954919E+03  0.50400001928E-02 0.  1.
    10030    2    1    2    0    0  0.00000000000E+00  0.00000000000E+00  0.11304182800E+04  0.28242173783E+04  0.25881186821E+04 0.  0.
        2    1    3    3  502    0  0.35024297515E+03  0.66998226216E+03  0.17112766350E+04  0.18708324604E+04  0.25500000920E-02 0. -1.
       -2    1    3    3    0  502 -0.35024297515E+03 -0.66998226216E+03 -0.58085835501E+03  0.95338491799E+03  0.25500000920E-02 0.  1.
</event>
<event>
 5   0  0.4449262E-07  0.4154298E+04  0.7818609E-02  0.7974123E-01
       -2   -1    0    0    0  501  0.00000000000E+00  0.00000000000E+00  0.17383182790E+04  0.17383182790E+04  0.25500000920E-02 0.  1.
        2   -1    0    0  501    0  0.00000000000E+00  0.00000000000E+00 -0.24820246750E+04  0.24820246750E+04  0.25500000920E-02 0. -1.
    10030    2    1    2    0    0  0.00000000000E+00  0.00000000000E+00 -0.74370639597E+03  0.42203429540E+04  0.41542984301E+04 0.  0.
        1    1    3    3  502    0  0.11124974003E+04 -0.77269475765E+03  0.12279331589E+04  0.18282580499E+04  0.50400001928E-02 0.  1.
       -1    1    3    3    0  502 -0.11124974003E+04  0.77269475765E+03 -0.19716395549E+04  0.23920849041E+04  0.50400001928E-02 0. -1.
</event>
<event>
 5   0  0.2713405E-07  0.2625639E+04  0.7818609E-02  0.8359544E-01
       -1   -1    0    0    0  501  0.00000000000E+00  0.00000000000E+00  0.16443479111E+04  0.16443479111E+04  0.50400001928E-02 0. -1.
        1   -1    0    0  501    0  0.00000000000E+00  0.00000000000E+00 -0.10481329378E+04  0.10481329378E+04  0.50400001928E-02 0.  1.
    10030    2    1    2    0    0  0.00000000000E+00  0.00000000000E+00  0.59621497325E+03  0.26924808489E+04  0.26256391274E+04 0.  0.
        1    1    3    3  502    0  0.11095432626E+04 -0.91560565149E+02 -0.41532316027E+03  0.11882604580E+04  0.50400001928E-02 0. -1.
       -1    1    3    3    0  502 -0.11095432626E+04  0.91560565149E+02  0.10115381335E+04  0.15042203908E+04  0.50400001928E-02 0.  1.
</event>
<event>
 5   0  0.5161550E-07  0.3733804E+04  0.7818609E-02  0.8060512E-01
        2   -1    0    0  501    0  0.00000000000E+00  0.00000000000E+00  0.23428350995E+04  0.23428350995E+04  0.25500000920E-02 0.  1.
       -2   -1    0    0    0  501  0.00000000000E+00  0.00000000000E+00 -0.14876516026E+04  0.14876516026E+04  0.25500000920E-02 0. -1.
    10030    2    1    2    0    0  0.00000000000E+00  0.00000000000E+00  0.85518349689E+03  0.38304867021E+04  0.37338036320E+04 0.  0.
        2    1    3    3  502    0  0.16913939127E+04  0.70076656081E+03  0.52845087743E+02  0.18315784843E+04  0.25500000920E-02 0.  1.
       -2    1    3    3    0  502 -0.16913939127E+04 -0.70076656081E+03  0.80233840915E+03  0.19989082179E+04  0.25500000920E-02 0. -1.
</event>
<event>
 5   0  0.4449262E-07  0.2162904E+04  0.7818609E-02  0.8534029E-01
       -2   -1    0    0    0  501  0.00000000000E+00  0.00000000000E+00  0.13375142441E+04  0.13375142441E+04  0.25500000920E-02 0. -1.
        2   -1    0    0  501    0  0.00000000000E+00  0.00000000000E+00 -0.87441208109E+03  0.87441208109E+03  0.25500000920E-02 0.  1.
    10030    2    1    2    0    0  0.00000000000E+00  0.00000000000E+00  0.46310216303E+03  0.22119263252E+04  0.21629041714E+04 0.  0.
        1    1    3    3  502    0 -0.81489075112E+03 -0.51957197642E+03  0.72787204101E+03  0.12098758957E+04  0.50400001928E-02 0. -1.
       -1    1    3    3    0  502  0.81489075112E+03  0.51957197642E+03 -0.26476987798E+03  0.10020504295E+04  0.50400001928E-02 0.  1.
</event>
<event>
 5   0  0.5161550E-07  0.2017272E+04  0.7818609E-02  0.8598588E-01
       -2   -1    0    0    0  501  0.00000000000E+00  0.00000000000E+00  0.66258875510E+03  0.66258875511E+03  0.25500000920E-02 0. -1.
        2   -1    0    0  501    0  0.00000000000E+00  0.00000000000E+00 -0.15354111042E+04  0.15354111042E+04  0.25500000920E-02 0.  1.
    10030    2    1    2    0    0  0.00000000000E+00  0.00000000000E+00 -0.87282234908E+03  0.21979998593E+04  0.20172715554E+04 0.  0.
        2    1    3    3  502    0  0.68575400567E+02 -0.93844917557E+03 -0.40608244935E+02  0.94182719766E+03  0.25500000920E-02 0. -1.
       -2    1    3    3    0  502 -0.68575400567E+02  0.93844917557E+03 -0.83221410415E+03  0.12561726616E+04  0.25500000920E-02 0.  1.
</event>
<event>
 5   0  0.5161550E-07  0.2106423E+04  0.7818609E-02  0.8558419E-01
       -2   -1    0    0    0  501  0.00000000000E+00  0.00000000000E+00  0.10750738249E+04  0.10750738249E+04  0.25500000920E-02 0.  1.
        2   -1    0    0  501    0  0.00000000000E+00  0.00000000000E+00 -0.10317934841E+04  0.10317934841E+04  0.25500000920E-02 0. -1.
    10030    2    1    2    0    0  0.00000000000E+00  0.00000000000E+00  0.43280340775E+02  0.21068673090E+04  0.21064227187E+04 0.  0.
        2    1    3    3  502    0 -0.16935851539E+03 -0.43909953444E+03 -0.92077070028E+03  0.10340741706E+04  0.25500000920E-02 0. -1.
       -2    1    3    3    0  502  0.16935851539E+03  0.43909953444E+03  0.96405104105E+03  0.10727931383E+04  0.25500000920E-02 0.  1.
</event>
<event>
 5   0  0.2601252E-07  0.4018364E+04  0.7818609E-02  0.8000852E-01
       -1   -1    0    0    0  501  0.00000000000E+00  0.00000000000E+00  0.15074333261E+04  0.15074333261E+04  0.50400001928E-02 0. -1.
        1   -1    0    0  501    0  0.00000000000E+00  0.00000000000E+00 -0.26779369812E+04  0.26779369812E+04  0.50400001928E-02 0.  1.
    10030    2    1    2    0    0  0.00000000000E+00  0.00000000000E+00 -0.11705036552E+04  0.41853703073E+04  0.40183635727E+04 0.  0.
        3    1    3    3  502    0 -0.11640114204E+04 -0.12576335609E+04  0.50726892223E+03  0.17871447983E+04  0.10100000352E+00 0. -1.
       -3    1    3    3    0  502  0.11640114204E+04  0.12576335609E+04 -0.16777725774E+04  0.23982255090E+04  0.10100000352E+00 0.  1.
</event>
<event>
 5   0  0.2647879E-07  0.4150509E+04  0.7818609E-02  0.7974854E-01
        1   -1    0    0  501    0  0.00000000000E+00  0.00000000000E+00  0.30253529008E+04  0.30253529008E+04  0.50400001928E-02 0.  1.
       -1   -1    0    0    0  501  0.00000000000E+00  0.00000000000E+00 -0.14235301507E+04  0.14235301508E+04  0.50400001928E-02 0. -1.
    10030    2    1    2    0    0  0.00000000000E+00  0.00000000000E+00  0.16018227501E+04  0.44488830516E+04  0.41505089187E+04 0.  0.
        2    1    3    3  502    0  0.19064562435E+03 -0.14528587293E+04  0.23760904927E+04  0.27915856194E+04  0.25500000920E-02 0.  1.
       -2    1    3    3    0  502 -0.19064562435E+03  0.14528587293E+04 -0.77426774263E+03  0.16572974321E+04  0.25500000920E-02 0. -1.
</event>
<event>
 5   0  0.5161550E-07  0.3907730E+04  0.7818609E-02  0.8023423E-01
        2   -1    0    0  501    0  0.00000000000E+00  0.00000000000E+00  0.35594170819E+04  0.35594170819E+04  0.25500000920E-02 0.  1.
       -2   -1    0    0    0  501  0.00000000000E+00  0.00000000000E+00 -0.10725319228E+04  0.10725319228E+04  0.25500000920E-02 0. -1.
    10030    2    1    2    0    0  0.00000000000E+00  0.00000000000E+00  0.24868851591E+04  0.46319490047E+04  0.39077300045E+04 0.  0.
        2    1    3    3  502    0 -0.54267110208E+03  0.18615579342E+04  0.15281650743E+04  0.24688415020E+04  0.25500000920E-02 0. -1.
       -2    1    3    3    0  502  0.54267110208E+03 -0.18615579342E+04  0.95872008477E+03  0.21631075027E+04  0.25500000920E-02 0.  1.
</event>
<event>
 5   0  0.5161550E-07  0.2488647E+04  0.7818609E-02  0.8407041E-01
        2   -1    0    0  501    0  0.00000000000E+00  0.00000000000E+00  0.25443246334E+04  0.25443246334E+04  0.25500000920E-02 0. -1.
       -2   -1    0    0    0  501  0.00000000000E+00  0.00000000000E+00 -0.60854688300E+03  0.60854688300E+03  0.25500000920E-02 0.  1.
    10030    2    1    2    0    0  0.00000000000E+00  0.00000000000E+00  0.19357777504E+04  0.31528715164E+04  0.24886468813E+04 0.  0.
        2    1    3    3  502    0 -0.97132329959E+03 -0.36019935722E+03  0.18411586774E+04  0.21125997739E+04  0.25500000920E-02 0. -1.
       -2    1    3    3    0  502  0.97132329959E+03  0.36019935722E+03  0.94619072997E+02  0.10402717425E+04  0.25500000920E-02 0.  1.
</event>
<event>
 5   0  0.2401125E-07  0.3939427E+04  0.7818609E-02  0.8016879E-01
        1   -1    0    0  501    0  0.00000000000E+00  0.00000000000E+00  0.21834248283E+04  0.21834248283E+04  0.50400001928E-02 0.  1.
       -1   -1    0    0    0  501  0.00000000000E+00  0.00000000000E+00 -0.17769204338E+04  0.17769204339E+04  0.50400001928E-02 0. -1.
    10030    2    1    2    0    0  0.00000000000E+00  0.00000000000E+00  0.40650439448E+03  0.39603452622E+04  0.39394274677E+04 0.  0.
        5    1    3    3  502    0  0.36833893422E+02 -0.11881901291E+04  0.17821320812E+04  0.21422346658E+04  0.46999998093E+01 0.  1.
       -5    1    3    3    0  502 -0.36833893422E+02  0.11881901291E+04 -0.13756276867E+04  0.18181105964E+04  0.46999998093E+01 0. -1.
</event>
<event>
 5   0  0.5017492E-07  0.1998479E+04  0.7818609E-02  0.8607332E-01
        2   -1    0    0  501    0  0.00000000000E+00  0.00000000000E+00  0.84008795851E+03  0.84008795852E+03  0.25500000920E-02 0.  1.
       -2   -1    0    0    0  501  0.00000000000E+00  0.00000000000E+00 -0.11885419559E+04  0.11885419559E+04  0.25500000920E-02 0. -1.
    10030    2    1    2    0    0  0.00000000000E+00  0.00000000000E+00 -0.34845399734E+03  0.20286299144E+04  0.19984792071E+04 0.  0.
        1    1    3    3  502    0 -0.56200790276E+02 -0.96117327499E+03 -0.44559369675E+03  0.10609271115E+04  0.50400001928E-02 0. -1.
       -1    1    3    3    0  502  0.56200790276E+02  0.96117327499E+03  0.97139699411E+02  0.96770280283E+03  0.50400001928E-02 0.  1.
</event>
<event>
 5   0  0.6043512E-07  0.3467793E+04  0.7818609E-02  0.8121465E-01
       -2   -1    0    0    0  501  0.00000000000E+00  0.00000000000E+00  0.15886319312E+04  0.15886319312E+04  0.25500000920E-02 0. -1.
        2   -1    0    0  501    0  0.00000000000E+00  0.00000000000E+00 -0.18924435430E+04  0.18924435430E+04  0.25500000920E-02 0.  1.
    10030    2    1    2    0    0  0.00000000000E+00  0.00000000000E+00 -0.30381161175E+03  0.34810754742E+04  0.34677925200E+04 0.  0.
        3    1    3    3  502    0  0.60337618804E+03 -0.15714865217E+04 -0.56914620637E+03  0.17769524829E+04  0.10100000352E+00 0.  1.
       -3    1    3    3    0  502 -0.60337618804E+03  0.15714865217E+04  0.26533459462E+03  0.17041229913E+04  0.10100000352E+00 0. -1.
</event>
<event>
 5   0  0.3579559E-07  0.4199798E+04  0.7818609E-02  0.7965411E-01
       -1   -1    0    0    0  501  0.00000000000E+00  0.00000000000E+00  0.23777109246E+04  0.23777109246E+04  0.50400001928E-02 0. -1.
        1   -1    0    0  501    0  0.00000000000E+00  0.00000000000E+00 -0.18545466868E+04  0.18545466868E+04  0.50400001928E-02 0.  1.
    10030    2    1    2    0    0  0.00000000000E+00  0.00000000000E+00  0.52316423784E+03  0.42322576114E+04  0.41997980510E+04 0.  0.
        4    1    3    3  502    0 -0.28709030434E+03 -0.20799611603E+04  0.23109880694E+03  0.21123606564E+04  0.12699999809E+01 0. -1.
       -4    1    3    3    0  502  0.28709030434E+03  0.20799611603E+04  0.29206543090E+03  0.21198969550E+04  0.12699999809E+01 0.  1.
</event>
<event>
 5   0  0.5161550E-07  0.3210579E+04  0.7818609E-02  0.8186029E-01
       -2   -1    0    0    0  501  0.00000000000E+00  0.00000000000E+00  0.15057810535E+04  0.15057810535E+04  0.25500000920E-02 0. -1.
        2   -1    0    0  501    0  0.00000000000E+00  0.00000000000E+00 -0.17113743573E+04  0.17113743573E+04  0.25500000920E-02 0.  1.
    10030    2    1    2    0    0  0.00000000000E+00  0.00000000000E+00 -0.20559330371E+03  0.32171554108E+04  0.32105794385E+04 0.  0.
        2    1    3    3  502    0 -0.78303080388E+03  0.84384390598E+03  0.10183091663E+04  0.15369330941E+04  0.25500000920E-02 0. -1.
       -2    1    3    3    0  502  0.78303080388E+03 -0.84384390598E+03 -0.12239024700E+04  0.16802223167E+04  0.25500000920E-02 0.  1.
</event>
<event>
 5   0  0.4449262E-07  0.2304102E+04  0.7818609E-02  0.8476306E-01
       -2   -1    0    0    0  501  0.00000000000E+00  0.00000000000E+00  0.14579884422E+04  0.14579884423E+04  0.25500000920E-02 0. -1.
        2   -1    0    0  501    0  0.00000000000E+00  0.00000000000E+00 -0.91030982923E+03  0.91030982923E+03  0.25500000920E-02 0.  1.
    10030    2    1    2    0    0  0.00000000000E+00  0.00000000000E+00  0.54767861302E+03  0.23682982715E+04  0.23041017424E+04 0.  0.
        1    1    3    3  502    0 -0.57391964550E+03  0.86187070389E+02 -0.74908167626E+03  0.94759449572E+03  0.50400001928E-02 0.  1.
       -1    1    3    3    0  502  0.57391964550E+03 -0.86187070389E+02  0.12967602893E+04  0.14207037758E+04  0.50400001928E-02 0. -1.
</event>
<event>
 5   0  0.6043512E-07  0.3948251E+04  0.7818609E-02  0.8015068E-01
       -2   -1    0    0    0  501  0.00000000000E+00  0.00000000000E+00  0.19350545973E+04  0.19350545973E+04  0.25500000920E-02 0.  1.
        2   -1    0    0  501    0  0.00000000000E+00  0.00000000000E+00 -0.20139853658E+04  0.20139853658E+04  0.25500000920E-02 0. -1.
    10030    2    1    2    0    0  0.00000000000E+00  0.00000000000E+00 -0.78930768523E+02  0.39490399631E+04  0.39482510766E+04 0.  0.
        3    1    3    3  502    0  0.64810993897E+03  0.15729809665E+04  0.96216169762E+03  0.19545001296E+04  0.10100000352E+00 0.  1.
       -3    1    3    3    0  502 -0.64810993897E+03 -0.15729809665E+04 -0.10410924661E+04  0.19945398335E+04  0.10100000352E+00 0. -1.
</event>
<event>
 5   0  0.2601252E-07  0.3959498E+04  0.7818609E-02  0.8012767E-01
       -1   -1    0    0    0  501  0.00000000000E+00  0.00000000000E+00  0.30012822719E+04  0.30012822719E+04  0.50400001928E-02 0.  1.
        1   -1    0    0  501    0  0.00000000000E+00  0.00000000000E+00 -0.13059106729E+04  0.13059106729E+04  0.50400001928E-02 0. -1.
    10030    2    1    2    0    0  0.00000000000E+00  0.00000000000E+00  0.16953715990E+04  0.43071929448E+04  0.39594982265E+04 0.  0.
        3    1    3    3  502    0  0.19132770538E+04  0.31293849172E+03  0.41141052676E+03  0.19818724015E+04  0.10100000352E+00 0. -1.
       -3    1    3    3    0  502 -0.19132770538E+04 -0.31293849172E+03  0.12839610722E+04  0.23253205433E+04  0.10100000352E+00 0.  1.
</event>
<event>
 5   0  0.7256473E-07  0.3973821E+04  0.7818609E-02  0.8009849E-01
        2   -1    0    0  501    0  0.00000000000E+00  0.00000000000E+00  0.22407270012E+04  0.22407270012E+04  0.25500000920E-02 0.  1.
       -2   -1    0    0    0  501  0.00000000000E+00  0.00000000000E+00 -0.17618445747E+04  0.17618445747E+04  0.25500000920E-02 0. -1.
    10030    2    1    2    0    0  0.00000000000E+00  0.00000000000E+00  0.47888242651E+03  0.40025715759E+04  0.39738206857E+04 0.  0.
        4    1    3    3  502    0  0.16806151199E+04 -0.58048688502E+03  0.11326372035E+04  0.21081510507E+04  0.12699999809E+01 0.  1.
       -4    1    3    3    0  502 -0.16806151199E+04  0.58048688502E+03 -0.65375477697E+03  0.18944205252E+04  0.12699999809E+01 0. -1.
</event>
<event>
 5   0  0.2713405E-07  0.2296344E+04  0.7818609E-02  0.8479364E-01
       -1   -1    0    0    0  501  0.00000000000E+00  0.00000000000E+00  0.15320653461E+04  0.15320653461E+04  0.50400001928E-02 0.  1.
        1   -1    0    0  501    0  0.00000000000E+00  0.00000000000E+00 -0.86047181791E+03  0.86047181793E+03  0.50400001928E-02 0. -1.
    10030    2    1    2    0    0  0.00000000000E+00  0.00000000000E+00  0.67159352818E+03  0.23925371640E+04  0.22963440975E+04 0.  0.
        1    1    3    3  502    0  0.15496201318E+03  0.11098732461E+04  0.75392695335E+02  0.11231722515E+04  0.50400001928E-02 0. -1.
       -1    1    3    3    0  502 -0.15496201318E+03 -0.11098732461E+04  0.59620083285E+03  0.12693649125E+04  0.50400001928E-02 0.  1.
</event>
<event>
 5   0  0.7570277E-07  0.2168316E+04  0.7818609E-02  0.8531732E-01
       -2   -1    0    0    0  501  0.00000000000E+00  0.00000000000E+00  0.10233102902E+04  0.10233102902E+04  0.25500000920E-02 0. -1.
        2   -1    0    0  501    0  0.00000000000E+00  0.00000000000E+00 -0.11486243204E+04  0.11486243204E+04  0.25500000920E-02 0.  1.
    10030    2    1    2    0    0  0.00000000000E+00  0.00000000000E+00 -0.12531403020E+03  0.21719346106E+04  0.21683164775E+04 0.  0.
        5    1    3    3  502    0  0.42263180631E+02 -0.10410738012E+04 -0.36275025302E+03  0.11032817737E+04  0.46999998093E+01 0.  1.
       -5    1    3    3    0  502 -0.42263180631E+02  0.10410738012E+04  0.23743622282E+03  0.10686528370E+04  0.46999998093E+01 0. -1.
</event>
<event>
 5   0  0.5161550E-07  0.2077766E+04  0.7818609E-02  0.8571101E-01
        2   -1    0    0  501    0  0.00000000000E+00  0.00000000000E+00  0.22769693069E+04  0.22769693069E+04  0.25500000920E-02 0.  1.
       -2   -1    0    0    0  501  0.00000000000E+00  0.00000000000E+00 -0.47399751187E+03  0.47399751188E+03  0.25500000920E-02 0. -1.
    10030    2    1    2    0    0  0.00000000000E+00  0.00000000000E+00  0.18029717950E+04  0.27509668188E+04  0.20777659022E+04 0.  0.
        2    1    3    3  502    0 -0.38392606579E+03  0.45310288142E+03  0.20300581369E+04  0.21151447904E+04  0.25500000920E-02 0.  1.
       -2    1    3    3    0  502  0.38392606579E+03 -0.45310288142E+03 -0.22708634185E+03  0.63582202841E+03  0.25500000920E-02 0. -1.
</event>
<event>
 5   0  0.4449262E-07  0.3932989E+04  0.7818609E-02  0.8018203E-01
       -2   -1    0    0    0  501  0.00000000000E+00  0.00000000000E+00  0.15961142852E+04  0.15961142852E+04  0.25500000920E-02 0. -1.
        2   -1    0    0  501    0  0.00000000000E+00  0.00000000000E+00 -0.24228213692E+04  0.24228213692E+04  0.25500000920E-02 0.  1.
    10030    2    1    2    0    0  0.00000000000E+00  0.00000000000E+00 -0.82670708400E+03  0.40189356543E+04  0.39329885826E+04 0.  0.
        1    1    3    3  502    0  0.44495038612E+03  0.86404015248E+03  0.13335527426E+04  0.16501239797E+04  0.50400001928E-02 0. -1.
       -1    1    3    3    0  502 -0.44495038612E+03 -0.86404015248E+03 -0.21602598266E+04  0.23688116746E+04  0.50400001928E-02 0.  1.
</event>
<event>
 5   0  0.2647879E-07  0.4276161E+04  0.7818609E-02  0.7951041E-01
        1   -1    0    0  501    0  0.00000000000E+00  0.00000000000E+00  0.20081306254E+04  0.20081306254E+04  0.50400001928E-02 0.  1.
       -1   -1    0    0    0  501  0.00000000000E+00  0.00000000000E+00 -0.22764397441E+04  0.22764397441E+04  0.50400001928E-02 0. -1.
    10030    2    1    2    0    0  0.00000000000E+00  0.00000000000E+00 -0.26830911868E+03  0.42845703695E+04  0.42761610667E+04 0.  0.
        2    1    3    3  502    0 -0.37955305062E+03 -0.16543502255E+04 -0.14368857111E+04  0.22238650439E+04  0.25500000920E-02 0. -1.
       -2    1    3    3    0  502  0.37955305062E+03  0.16543502255E+04  0.11685765924E+04  0.20607053256E+04  0.25500000920E-02 0.  1.
</event>
<event>
 5   0  0.4449262E-07  0.3600565E+04  0.7818609E-02  0.8090362E-01
        2   -1    0    0  501    0  0.00000000000E+00  0.00000000000E+00  0.28312776452E+04  0.28312776452E+04  0.25500000920E-02 0.  1.
       -2   -1    0    0    0  501  0.00000000000E+00  0.00000000000E+00 -0.11447186405E+04  0.11447186406E+04  0.25500000920E-02 0. -1.
    10030    2    1    2    0    0  0.00000000000E+00  0.00000000000E+00  0.16865590047E+04  0.39759962858E+04  0.36005645652E+04 0.  0.
        1    1    3    3  502    0 -0.15371417933E+04  0.80121703789E+03  0.30652843831E+03  0.17603162551E+04  0.50400001928E-02 0.  1.
       -1    1    3    3    0  502  0.15371417933E+04 -0.80121703789E+03  0.13800305664E+04  0.22156800307E+04  0.50400001928E-02 0. -1.
</event>
<event>
 5   0  0.2401125E-07  0.3855132E+04  0.7818609E-02  0.8034426E-01
       -1   -1    0    0    0  501  0.00000000000E+00  0.00000000000E+00  0.16755547303E+04  0.16755547303E+04  0.50400001928E-02 0.  1.
        1   -1    0    0  501    0  0.00000000000E+00  0.00000000000E+00 -0.22174808038E+04  0.22174808038E+04  0.50400001928E-02 0. -1.
    10030    2    1    2    0    0  0.00000000000E+00  0.00000000000E+00 -0.54192607350E+03  0.38930355342E+04  0.38551318786E+04 0.  0.
        5    1    3    3  502    0 -0.14114658586E+04  0.14960179100E+02  0.10545847295E+04  0.17619962312E+04  0.46999998093E+01 0.  1.
       -5    1    3    3    0  502  0.14114658586E+04 -0.14960179100E+02 -0.15965108030E+04  0.21310393030E+04  0.46999998093E+01 0. -1.
</event>
<event>
 5   0  0.2713405E-07  0.2482033E+04  0.7818609E-02  0.8409415E-01
        1   -1    0    0  501    0  0.00000000000E+00  0.00000000000E+00  0.15859741383E+04  0.15859741383E+04  0.50400001928E-02 0.  1.
       -1   -1    0    0    0  501  0.00000000000E+00  0.00000000000E+00 -0.97108867457E+03  0.97108867458E+03  0.50400001928E-02 0. -1.
    10030    2    1    2    0    0  0.00000000000E+00  0.00000000000E+00  0.61488546369E+03  0.25570628129E+04  0.24820326540E+04 0.  0.
        1    1    3    3  502    0  0.40011181551E+03 -0.15880070018E+03 -0.89170808321E+03  0.99017697053E+03  0.50400001928E-02 0. -1.
       -1    1    3    3    0  502 -0.40011181551E+03  0.15880070018E+03  0.15065935469E+04  0.15668858423E+04  0.50400001928E-02 0.  1.
</event>
<event>
 5   0  0.5161550E-07  0.3408371E+04  0.7818609E-02  0.8135855E-01
        2   -1    0    0  501    0  0.00000000000E+00  0.00000000000E+00  0.23211921106E+04  0.23211921106E+04  0.25500000920E-02 0.  1.
       -2   -1    0    0    0  501  0.00000000000E+00  0.00000000000E+00 -0.12511883726E+04  0.12511883726E+04  0.25500000920E-02 0. -1.
    10030    2    1    2    0    0  0.00000000000E+00  0.00000000000E+00  0.10700037380E+04  0.35723804832E+04  0.34083712118E+04 0.  0.
        2    1    3    3  502    0 -0.11756088326E+04 -0.11288257023E+04  0.10569032963E+04  0.19425107905E+04  0.25500000920E-02 0.  1.
       -2    1    3    3    0  502  0.11756088326E+04  0.11288257023E+04  0.13100441655E+02  0.16298696927E+04  0.25500000920E-02 0. -1.
</event>
<event>
 5   0  0.4449262E-07  0.2578775E+04  0.7818609E-02  0.8375447E-01
       -2   -1    0    0    0  501  0.00000000000E+00  0.00000000000E+00  0.11084212300E+04  0.11084212300E+04  0.25500000920E-02 0.  1.
        2   -1    0    0  501    0  0.00000000000E+00  0.00000000000E+00 -0.14998990251E+04  0.14998990251E+04  0.25500000920E-02 0. -1.
    10030    2    1    2    0    0  0.00000000000E+00  0.00000000000E+00 -0.39147779507E+03  0.26083202551E+04  0.25787748427E+04 0.  0.
        1    1    3    3  502    0 -0.52088918162E+03 -0.73259843344E+02 -0.13864380859E+04  0.14828698899E+04  0.50400001928E-02 0. -1.
       -1    1    3    3    0  502  0.52088918162E+03  0.73259843344E+02  0.99496029086E+03  0.11254503652E+04  0.50400001928E-02 0.  1.
</event>
<event>
 5   0  0.4449262E-07  0.2146949E+04  0.7818609E-02  0.8540839E-01
       -2   -1    0    0    0  501  0.00000000000E+00  0.00000000000E+00  0.51553034204E+03  0.51553034205E+03  0.25500000920E-02 0. -1.
        2   -1    0    0  501    0  0.00000000000E+00  0.00000000000E+00 -0.22352653967E+04  0.22352653967E+04  0.25500000920E-02 0.  1.
    10030    2    1    2    0    0  0.00000000000E+00  0.00000000000E+00 -0.17197350546E+04  0.27507957387E+04  0.21469486575E+04 0.  0.
        1    1    3    3  502    0  0.60149587089E+03 -0.80923934639E+03 -0.38791637205E+03  0.10803447201E+04  0.50400001928E-02 0.  1.
       -1    1    3    3    0  502 -0.60149587089E+03  0.80923934639E+03 -0.13318186826E+04  0.16704510187E+04  0.50400001928E-02 0. -1.
</event>
<event>
 5   0  0.2647879E-07  0.4026712E+04  0.7818609E-02  0.7999180E-01
        1   -1    0    0  501    0  0.00000000000E+00  0.00000000000E+00  0.23757156832E+04  0.23757156832E+04  0.50400001928E-02 0. -1.
       -1   -1    0    0    0  501  0.00000000000E+00  0.00000000000E+00 -0.17062655848E+04  0.17062655848E+04  0.50400001928E-02 0.  1.
    10030    2    1    2    0    0  0.00000000000E+00  0.00000000000E+00  0.66945009849E+03  0.40819812680E+04  0.40267117650E+04 0.  0.
        2    1    3    3  502    0  0.22914092155E+03  0.19561329748E+04 -0.88910590929E+02  0.19715138524E+04  0.25500000920E-02 0.  1.
       -2    1    3    3    0  502 -0.22914092155E+03 -0.19561329748E+04  0.75836068942E+03  0.21104674156E+04  0.25500000920E-02 0. -1.
</event>
<event>
 5   0  0.4449262E-07  0.3013606E+04  0.7818609E-02  0.8239856E-01
        2   -1    0    0  501    0  0.00000000000E+00  0.00000000000E+00  0.24134173075E+04  0.24134173075E+04  0.25500000920E-02 0. -1.
       -2   -1    0    0    0  501  0.00000000000E+00  0.00000000000E+00 -0.94076335440E+03  0.94076335440E+03  0.25500000920E-02 0.  1.
    10030    2    1    2    0    0  0.00000000000E+00  0.00000000000E+00  0.14726539531E+04  0.33541806619E+04  0.30136055228E+04 0.  0.
        1    1    3    3  502    0 -0.11246051301E+04 -0.76458363040E+03  0.14042965180E+02  0.13599713347E+04  0.50400001928E-02 0.  1.
       -1    1    3    3    0  502  0.11246051301E+04  0.76458363040E+03  0.14586109879E+04  0.19942093272E+04  0.50400001928E-02 0. -1.
</event>
<event>
 5   0  0.2647879E-07  0.2920266E+04  0.7818609E-02  0.8266873E-01
        1   -1    0    0  501    0  0.00000000000E+00  0.00000000000E+00  0.22297843056E+04  0.22297843056E+04  0.50400001928E-02 0. -1.
       -1   -1    0    0    0  501  0.00000000000E+00  0.00000000000E+00 -0.95614113152E+03  0.95614113153E+03  0.50400001928E-02 0.  1.
    10030    2    1    2    0    0  0.00000000000E+00  0.00000000000E+00  0.12736431741E+04  0.31859254371E+04  0.29202660762E+04 0.  0.
        2    1    3    3  502    0 -0.86786501543E+03 -0.81560871151E+03 -0.28476234481E+03  0.12245394434E+04  0.25500000920E-02 0.  1.
       -2    1    3    3    0  502  0.86786501543E+03  0.81560871151E+03  0.15584055189E+04  0.19613859938E+04  0.25500000920E-02 0. -1.
</event>
<event>
 5   0  0.6043512E-07  0.4099159E+04  0.7818609E-02  0.7984836E-01
       -2   -1    0    0    0  501  0.00000000000E+00  0.00000000000E+00  0.24338722001E+04  0.24338722001E+04  0.25500000920E-02 0. -1.
        2   -1    0    0  501    0  0.00000000000E+00  0.00000000000E+00 -0.17259641503E+04  0.17259641503E+04  0.25500000920E-02 0.  1.
    10030    2    1    2    0    0  0.00000000000E+00  0.00000000000E+00  0.70790804979E+03  0.41598363505E+04  0.40991590181E+04 0.  0.
        3    1    3    3  502    0 -0.93605657489E+03 -0.15275443960E+04 -0.65636437358E+03  0.19079853233E+04  0.10100000352E+00 0.  1.
       -3    1    3    3    0  502  0.93605657489E+03  0.15275443960E+04  0.13642724234E+04  0.22518510271E+04  0.10100000352E+00 0. -1.
</event>
<event>
 5   0  0.2647879E-07  0.3676985E+04  0.7818609E-02  0.8073082E-01
        1   -1    0    0  501    0  0.00000000000E+00  0.00000000000E+00  0.18624160608E+04  0.18624160608E+04  0.50400001928E-02 0.  1.
       -1   -1    0    0    0  501  0.00000000000E+00  0.00000000000E+00 -0.18148759066E+04  0.18148759066E+04  0.50400001928E-02 0. -1.
    10030    2    1    2    0    0  0.00000000000E+00  0.00000000000E+00  0.47540154153E+02  0.36772919674E+04  0.36769846542E+04 0.  0.
        2    1    3    3  502    0 -0.10134417824E+04  0.13407559241E+04 -0.72151924798E+03  0.18290108583E+04  0.25500000920E-02 0. -1.
       -2    1    3    3    0  502  0.10134417824E+04 -0.13407559241E+04  0.76905940213E+03  0.18482811091E+04  0.25500000920E-02 0.  1.
</event>
<event>
 5   0  0.2601252E-07  0.3975975E+04  0.7818609E-02  0.8009411E-01
        1   -1    0    0  501    0  0.00000000000E+00  0.00000000000E+00  0.23781123577E+04  0.23781123577E+04  0.50400001928E-02 0. -1.
       -1   -1    0    0    0  501  0.00000000000E+00  0.00000000000E+00 -0.16618619066E+04  0.16618619067E+04  0.50400001928E-02 0.  1.
    10030    2    1    2    0    0  0.00000000000E+00  0.00000000000E+00  0.71625045109E+03  0.40399742644E+04  0.39759750186E+04 0.  0.
        3    1    3    3  502    0 -0.25899196464E+03  0.54362065600E+03  0.22832175912E+04  0.23612883844E+04  0.10100000352E+00 0. -1.
       -3    1    3    3    0  502  0.25899196464E+03 -0.54362065600E+03 -0.15669671401E+04  0.16786858800E+04  0.10100000352E+00 0.  1.
</event>
<event>
 5   0  0.4449262E-07  0.4036778E+04  0.7818609E-02  0.7997168E-01
       -2   -1    0    0    0  501  0.00000000000E+00  0.00000000000E+00  0.26517251748E+04  0.26517251748E+04  0.25500000920E-02 0.  1.
        2   -1    0    0  501    0  0.00000000000E+00  0.00000000000E+00 -0.15363183170E+04  0.15363183170E+04  0.25500000920E-02 0. -1.
    10030    2    1    2    0    0  0.00000000000E+00  0.00000000000E+00  0.11154068578E+04  0.41880434918E+04  0.40367779020E+04 0.  0.
        1    1    3    3  502    0  0.37292416094E+03 -0.68830048250E+03  0.24878093395E+04  0.26080692655E+04  0.50400001928E-02 0.  1.
       -1    1    3    3    0  502 -0.37292416094E+03  0.68830048250E+03 -0.13724024817E+04  0.15799742263E+04  0.50400001928E-02 0. -1.
</event>
<event>
 5   0  0.5161550E-07  0.3127935E+04  0.7818609E-02  0.8208113E-01
       -2   -1    0    0    0  501  0.00000000000E+00  0.00000000000E+00  0.11064668718E+04  0.11064668718E+04  0.25500000920E-02 0. -1.
        2   -1    0    0  501    0  0.00000000000E+00  0.00000000000E+00 -0.22106348871E+04  0.22106348871E+04  0.25500000920E-02 0.  1.
    10030    2    1    2    0    0  0.00000000000E+00  0.00000000000E+00 -0.11041680153E+04  0.33171017589E+04  0.31279349534E+04 0.  0.
        2    1    3    3  502    0 -0.40223898637E+03 -0.10839211816E+04  0.56485155935E+03  0.12867550716E+04  0.25500000920E-02 0. -1.
       -2    1    3    3    0  502  0.40223898637E+03  0.10839211816E+04 -0.16690195746E+04  0.20303466873E+04  0.25500000920E-02 0.  1.
</event>
<event>
 5   0  0.4449262E-07  0.3941530E+04  0.7818609E-02  0.8016447E-01
        2   -1    0    0  501    0  0.00000000000E+00  0.00000000000E+00  0.26897193081E+04  0.26897193081E+04  0.25500000920E-02 0.  1.
       -2   -1    0    0    0  501  0.00000000000E+00  0.00000000000E+00 -0.14439851545E+04  0.14439851545E+04  0.25500000920E-02 0. -1.
    10030    2    1    2    0    0  0.00000000000E+00  0.00000000000E+00  0.12457341536E+04  0.41337044625E+04  0.39415300331E+04 0.  0.
        1    1    3    3  502    0  0.14325815884E+04 -0.97368506161E+02  0.20385498430E+04  0.24934827242E+04  0.50400001928E-02 0.  1.
       -1    1    3    3    0  502 -0.14325815884E+04  0.97368506161E+02 -0.79281568937E+03  0.16402217383E+04  0.50400001928E-02 0. -1.
</event>
<event>
 5   0  0.7570277E-07  0.4102538E+04  0.7818609E-02  0.7984175E-01
        2   -1    0    0  501    0  0.00000000000E+00  0.00000000000E+00  0.30665829382E+04  0.30665829382E+04  0.25500000920E-02 0. -1.
       -2   -1    0    0    0  501  0.00000000000E+00  0.00000000000E+00 -0.13721151387E+04  0.13721151387E+04  0.25500000920E-02 0.  1.
    10030    2    1    2    0    0  0.00000000000E+00  0.00000000000E+00  0.16944677995E+04  0.44386980769E+04  0.41025381771E+04 0.  0.
        5    1    3    3  502    0 -0.40581012079E+01 -0.15263766606E+03 -0.13659520934E+04  0.13744678740E+04  0.46999998093E+01 0.  1.
       -5    1    3    3    0  502  0.40581012079E+01  0.15263766606E+03  0.30604198929E+04  0.30642302029E+04  0.46999998093E+01 0. -1.
</event>
<event>
 5   0  0.7570277E-07  0.3544365E+04  0.7818609E-02  0.8103356E-01
        2   -1    0    0  501    0  0.00000000000E+00  0.00000000000E+00  0.19597330017E+04  0.19597330017E+04  0.25500000920E-02 0. -1.
       -2   -1    0    0    0  501  0.00000000000E+00  0.00000000000E+00 -0.16025807207E+04  0.16025807207E+04  0.25500000920E-02 0.  1.
    10030    2    1    2    0    0  0.00000000000E+00  0.00000000000E+00  0.35715228099E+03  0.35623137224E+04  0.35443647251E+04 0.  0.
        5    1    3    3  502    0  0.92488107515E+03  0.11997556749E+04 -0.74574932170E+03  0.16884853637E+04  0.46999998093E+01 0. -1.
       -5    1    3    3    0  502 -0.92488107515E+03 -0.11997556749E+04  0.11029016027E+04  0.18738283587E+04  0.46999998093E+01 0.  1.
</event>
<event>
 5   0  0.6043512E-07  0.3991252E+04  0.7818609E-02  0.8006314E-01
        2   -1    0    0  501    0  0.00000000000E+00  0.00000000000E+00  0.26998519159E+04  0.26998519159E+04  0.25500000920E-02 0. -1.
       -2   -1    0    0    0  501  0.00000000000E+00  0.00000000000E+00 -0.14750891693E+04  0.14750891693E+04  0.25500000920E-02 0.  1.
    10030    2    1    2    0    0  0.00000000000E+00  0.00000000000E+00  0.12247627466E+04  0.41749410853E+04  0.39912515932E+04 0.  0.
        3    1    3    3  502    0  0.81809444569E+03 -0.74600381491E+03 -0.11243703562E+04  0.15779762109E+04  0.10100000352E+00 0.  1.
       -3    1    3    3    0  502 -0.81809444569E+03  0.74600381491E+03  0.23491331028E+04  0.25969648744E+04  0.10100000352E+00 0. -1.
</event>
<event>
 5   0  0.3579559E-07  0.4000274E+04  0.7818609E-02  0.8004491E-01
        1   -1    0    0  501    0  0.00000000000E+00  0.00000000000E+00  0.20940656700E+04  0.20940656701E+04  0.50400001928E-02 0.  1.
       -1   -1    0    0    0  501  0.00000000000E+00  0.00000000000E+00 -0.19104217484E+04  0.19104217484E+04  0.50400001928E-02 0. -1.
    10030    2    1    2    0    0  0.00000000000E+00  0.00000000000E+00  0.18364392164E+03  0.40044874185E+04  0.40002742899E+04 0.  0.
        4    1    3    3  502    0  0.12466021579E+04 -0.15454867702E+04  0.33290893044E+03  0.20132998450E+04  0.12699999809E+01 0. -1.
       -4    1    3    3    0  502 -0.12466021579E+04  0.15454867702E+04 -0.14926500880E+03  0.19911875735E+04  0.12699999809E+01 0.  1.
</event>
<event>
 5   0  0.4449262E-07  0.4008371E+04  0.7818609E-02  0.8002860E-01
       -2   -1    0    0    0  501  0.00000000000E+00  0.00000000000E+00  0.20074203171E+04  0.20074203171E+04  0.25500000920E-02 0. -1.
        2   -1    0    0  501    0  0.00000000000E+00  0.00000000000E+00 -0.20009555245E+04  0.20009555245E+04  0.25500000920E-02 0.  1.
    10030    2    1    2    0    0  0.00000000000E+00  0.00000000000E+00  0.64647926202E+01  0.40083758417E+04  0.40083706284E+04 0.  0.
        1    1    3    3  502    0  0.77384801983E+03 -0.13601454110E+04  0.12554011370E+04  0.20062074448E+04  0.50400001928E-02 0. -1.
       -1    1    3    3    0  502 -0.77384801983E+03  0.13601454110E+04 -0.12489363444E+04  0.20021683968E+04  0.50400001928E-02 0.  1.
</event>
<event>
 5   0  0.6043512E-07  0.4024138E+04  0.7818609E-02  0.7999695E-01
        2   -1    0    0  501    0  0.00000000000E+00  0.00000000000E+00  0.24380362314E+04  0.24380362314E+04  0.25500000920E-02 0. -1.
       -2   -1    0    0    0  501  0.00000000000E+00  0.00000000000E+00 -0.16605259181E+04  0.16605259181E+04  0.25500000920E-02 0.  1.
    10030    2    1    2    0    0  0.00000000000E+00  0.00000000000E+00  0.77751031335E+03  0.40985621495E+04  0.40241383433E+04 0.  0.
        3    1    3    3  502    0 -0.18073821559E+04 -0.60878723321E+02  0.12871606220E+04  0.22197114573E+04  0.10100000352E+00 0. -1.
       -3    1    3    3    0  502  0.18073821559E+04  0.60878723321E+02 -0.50965030866E+03  0.18788506922E+04  0.10100000352E+00 0.  1.
</event>
<event>
 5   0  0.2647879E-07  0.2656565E+04  0.7818609E-02  0.8349237E-01
       -1   -1    0    0    0  501  0.00000000000E+00  0.00000000000E+00  0.19561766618E+04  0.19561766618E+04  0.50400001928E-02 0.  1.
        1   -1    0    0  501    0  0.00000000000E+00  0.00000000000E+00 -0.90193032607E+03  0.90193032608E+03  0.50400001928E-02 0. -1.
    10030    2    1    2    0    0  0.00000000000E+00  0.00000000000E+00  0.10542463357E+04  0.28581069878E+04  0.26565654928E+04 0.  0.
        2    1    3    3  502    0  0.12391417319E+04  0.36379915607E+03  0.19288899200E+03  0.13057672920E+04  0.25500000920E-02 0. -1.
       -2    1    3    3    0  502 -0.12391417319E+04 -0.36379915607E+03  0.86135734369E+03  0.15523396958E+04  0.25500000920E-02 0.  1.
</event>
<event>
 5   0  0.2401125E-07  0.2249718E+04  0.7818609E-02  0.8498015E-01
       -1   -1    0    0    0  501  0.00000000000E+00  0.00000000000E+00  0.95046719379E+03  0.95046719380E+03  0.50400001928E-02 0.  1.
        1   -1    0    0  501    0  0.00000000000E+00  0.00000000000E+00 -0.13312486698E+04  0.13312486698E+04  0.50400001928E-02 0. -1.
    10030    2    1    2    0    0  0.00000000000E+00  0.00000000000E+00 -0.38078147604E+03  0.22817158636E+04  0.22497183712E+04 0.  0.
        5    1    3    3  502    0 -0.51058249678E+03  0.73161332993E+02 -0.12042276564E+04  0.13100509170E+04  0.46999998093E+01 0. -1.
       -5    1    3    3    0  502  0.51058249678E+03 -0.73161332993E+02  0.82344618034E+03  0.97166494667E+03  0.46999998093E+01 0.  1.
</event>
<event>
 5   0  0.5161550E-07  0.4014720E+04  0.7818609E-02  0.8001584E-01
        2   -1    0    0  501    0  0.00000000000E+00  0.00000000000E+00  0.23170243243E+04  0.23170243243E+04  0.25500000920E-02 0. -1.
       -2   -1    0    0    0  501  0.00000000000E+00  0.00000000000E+00 -0.17390815434E+04  0.17390815434E+04  0.25500000920E-02 0.  1.
    10030    2    1    2    0    0  0.00000000000E+00  0.00000000000E+00  0.57794278099E+03  0.40561058677E+04  0.40147200341E+04 0.  0.
        2    1    3    3  502    0 -0.24711305315E+03 -0.19576749380E+04 -0.83527339848E+02  0.19749766683E+04  0.25500000920E-02 0.  1.
       -2    1    3    3    0  502  0.24711305315E+03  0.19576749380E+04  0.66147012083E+03  0.20811291994E+04  0.25500000920E-02 0. -1.
</event>
<event>
 5   0  0.2601252E-07  0.3983402E+04  0.7818609E-02  0.8007903E-01
        1   -1    0    0  501    0  0.00000000000E+00  0.00000000000E+00  0.17368534442E+04  0.17368534442E+04  0.50400001928E-02 0. -1.
       -1   -1    0    0    0  501  0.00000000000E+00  0.00000000000E+00 -0.22839423919E+04  0.22839423919E+04  0.50400001928E-02 0.  1.
    10030    2    1    2    0    0  0.00000000000E+00  0.00000000000E+00 -0.54708894767E+03  0.40207958361E+04  0.39834021689E+04 0.  0.
        3    1    3    3  502    0 -0.61772529120E+02 -0.52096979512E+03  0.16658582352E+04  0.17465133961E+04  0.10100000352E+00 0. -1.
       -3    1    3    3    0  502  0.61772529120E+02  0.52096979512E+03 -0.22129471828E+04  0.22742824400E+04  0.10100000352E+00 0.  1.
</event>
<event>
 5   0  0.5161550E-07  0.4044805E+04  0.7818609E-02  0.7995568E-01
       -2   -1    0    0    0  501  0.00000000000E+00  0.00000000000E+00  0.21741292983E+04  0.21741292983E+04  0.25500000920E-02 0. -1.
        2   -1    0    0  501    0  0.00000000000E+00  0.00000000000E+00 -0.18812645579E+04  0.18812645579E+04  0.25500000920E-02 0.  1.
    10030    2    1    2    0    0  0.00000000000E+00  0.00000000000E+00  0.29286474047E+03  0.40553938562E+04  0.40448052577E+04 0.  0.
        2    1    3    3  502    0 -0.11602983343E+04 -0.10110548067E+04  0.14619603190E+04  0.21226992300E+04  0.25500000920E-02 0. -1.
       -2    1    3    3    0  502  0.11602983343E+04  0.10110548067E+04 -0.11690955785E+04  0.19326946263E+04  0.25500000920E-02 0.  1.
</event>
<event>
 5   0  0.7570277E-07  0.2604242E+04  0.7818609E-02  0.8366762E-01
       -2   -1    0    0    0  501  0.00000000000E+00  0.00000000000E+00  0.13731245856E+04  0.13731245856E+04  0.25500000920E-02 0. -1.
        2   -1    0    0  501    0  0.00000000000E+00  0.00000000000E+00 -0.12347887550E+04  0.12347887550E+04  0.25500000920E-02 0.  1.
    10030    2    1    2    0    0  0.00000000000E+00  0.00000000000E+00  0.13833583058E+03  0.26079133406E+04  0.26042417688E+04 0.  0.
        5    1    3    3  502    0  0.76572028184E+03 -0.10366362906E+04  0.25531801511E+03  0.13138309358E+04  0.46999998093E+01 0. -1.
       -5    1    3    3    0  502 -0.76572028184E+03  0.10366362906E+04 -0.11698218454E+03  0.12940824048E+04  0.46999998093E+01 0.  1.
</event>
<event>
 5   0  0.2647879E-07  0.3569020E+04  0.7818609E-02  0.8097625E-01
        1   -1    0    0  501    0  0.00000000000E+00  0.00000000000E+00  0.23756365317E+04  0.23756365317E+04  0.50400001928E-02 0. -1.
       -1   -1    0    0    0  501  0.00000000000E+00  0.00000000000E+00 -0.13404728353E+04  0.13404728353E+04  0.50400001928E-02 0.  1.
    10030    2    1    2    0    0  0.00000000000E+00  0.00000000000E+00  0.10351636965E+04  0.37161093670E+04  0.35690201665E+04 0.  0.
        2    1    3    3  502    0  0.93486684106E+03  0.14977380267E+04  0.24750596710E+03  0.17828220356E+04  0.25500000920E-02 0.  1.
       -2    1    3    3    0  502 -0.93486684106E+03 -0.14977380267E+04  0.78765772936E+03  0.19332873314E+04  0.25500000920E-02 0. -1.
</event>
<event>
 5   0  0.5161550E-07  0.3995007E+04  0.7818609E-02  0.8005555E-01
        2   -1    0    0  501    0  0.00000000000E+00  0.00000000000E+00  0.24495825657E+04  0.24495825657E+04  0.25500000920E-02 0.  1.
       -2   -1    0    0    0  501  0.00000000000E+00  0.00000000000E+00 -0.16288571233E+04  0.16288571233E+04  0.25500000920E-02 0. -1.
    10030    2    1    2    0    0  0.00000000000E+00  0.00000000000E+00  0.82072544247E+03  0.40784396890E+04  0.39950068892E+04 0.  0.
        2    1    3    3  502    0 -0.14007212906E+04 -0.14072695070E+04  0.63307561884E+03  0.20840375089E+04  0.25500000920E-02 0.  1.
       -2    1    3    3    0  502  0.14007212906E+04  0.14072695070E+04  0.18764982363E+03  0.19944021800E+04  0.25500000920E-02 0. -1.
</event>
<event>
 5   0  0.7256473E-07  0.3791414E+04  0.7818609E-02  0.8048000E-01
       -2   -1    0    0    0  501  0.00000000000E+00  0.00000000000E+00  0.21768191612E+04  0.21768191612E+04  0.25500000920E-02 0. -1.
        2   -1    0    0  501    0  0.00000000000E+00  0.00000000000E+00 -0.16508977306E+04  0.16508977307E+04  0.25500000920E-02 0.  1.
    10030    2    1    2    0    0  0.00000000000E+00  0.00000000000E+00  0.52592143056E+03  0.38277168919E+04  0.37914144133E+04 0.  0.
        4    1    3    3  502    0 -0.10731995378E+04 -0.11317578022E+04 -0.82488669910E+03  0.17643901638E+04  0.12699999809E+01 0.  1.
       -4    1    3    3    0  502  0.10731995378E+04  0.11317578022E+04  0.13508081297E+04  0.20633267281E+04  0.12699999809E+01 0. -1.
</event>
<event>
 5   0  0.2401125E-07  0.4022583E+04  0.7818609E-02  0.8000006E-01
        1   -1    0    0  501    0  0.00000000000E+00  0.00000000000E+00  0.13944156849E+04  0.13944156849E+04  0.50400001928E-02 0.  1.
       -1   -1    0    0    0  501  0.00000000000E+00  0.00000000000E+00 -0.29010676147E+04  0.29010676147E+04  0.50400001928E-02 0. -1.
    10030    2    1    2    0    0  0.00000000000E+00  0.00000000000E+00 -0.15066519299E+04  0.42954832996E+04  0.40225833415E+04 0.  0.
        5    1    3    3  502    0  0.35506559954E+03 -0.18853611327E+04 -0.10852808165E+03  0.19215771166E+04  0.46999998093E+01 0.  1.
       -5    1    3    3    0  502 -0.35506559954E+03  0.18853611327E+04 -0.13981238482E+04  0.23739061830E+04  0.46999998093E+01 0. -1.
</event>
<event>
 5   0  0.7570277E-07  0.3985977E+04  0.7818609E-02  0.8007381E-01
        2   -1    0    0  501    0  0.00000000000E+00  0.00000000000E+00  0.25407088918E+04  0.25407088918E+04  0.25500000920E-02 0. -1.
       -2   -1    0    0    0  501  0.00000000000E+00  0.00000000000E+00 -0.15633442794E+04  0.15633442794E+04  0.25500000920E-02 0.  1.
    10030    2    1    2    0    0  0.00000000000E+00  0.00000000000E+00  0.97736461240E+03  0.41040531713E+04  0.39859767745E+04 0.  0.
        5    1    3    3  502    0  0.17691935771E+04 -0.77044229292E+03 -0.24430972916E+02  0.19298306149E+04  0.46999998093E+01 0.  1.
       -5    1    3    3    0  502 -0.17691935771E+04  0.77044229292E+03  0.10017955853E+04  0.21742225564E+04  0.46999998093E+01 0. -1.
</event>
<event>
 5   0  0.3579559E-07  0.3355316E+04  0.7818609E-02  0.8148961E-01
        1   -1    0    0  501    0  0.00000000000E+00  0.00000000000E+00  0.16034204325E+04  0.16034204325E+04  0.50400001928E-02 0.  1.
       -1   -1    0    0    0  501  0.00000000000E+00  0.00000000000E+00 -0.17553328710E+04  0.17553328711E+04  0.50400001928E-02 0. -1.
    10030    2    1    2    0    0  0.00000000000E+00  0.00000000000E+00 -0.15191243855E+03  0.33587533036E+04  0.33553161349E+04 0.  0.
        4    1    3    3  502    0  0.12060939332E+04  0.92861568773E+03 -0.78204771128E+03  0.17113123347E+04  0.12699999809E+01 0. -1.
       -4    1    3    3    0  502 -0.12060939332E+04 -0.92861568773E+03  0.63013527274E+03  0.16474409689E+04  0.12699999809E+01 0.  1.
</event>
<event>
 5   0  0.2647879E-07  0.2475108E+04  0.7818609E-02  0.8411907E-01
       -1   -1    0    0    0  501  0.00000000000E+00  0.00000000000E+00  0.10974240615E+04  0.10974240615E+04  0.50400001928E-02 0. -1.
        1   -1    0    0  501    0  0.00000000000E+00  0.00000000000E+00 -0.13955775268E+04  0.13955775268E+04  0.50400001928E-02 0.  1.
    10030    2    1    2    0    0  0.00000000000E+00  0.00000000000E+00 -0.29815346535E+03  0.24930015883E+04  0.24751083674E+04 0.  0.
        2    1    3    3  502    0  0.98857320267E+03  0.21087687499E+03  0.57008378237E+03  0.11604919441E+04  0.25500000920E-02 0. -1.
       -2    1    3    3    0  502 -0.98857320267E+03 -0.21087687499E+03 -0.86823724772E+03  0.13325096442E+04  0.25500000920E-02 0.  1.
</event>
<event>
 5   0  0.5161550E-07  0.3878893E+04  0.7818609E-02  0.8029434E-01
        2   -1    0    0  501    0  0.00000000000E+00  0.00000000000E+00  0.16967102939E+04  0.16967102939E+04  0.25500000920E-02 0. -1.
       -2   -1    0    0    0  501  0.00000000000E+00  0.00000000000E+00 -0.22169088085E+04  0.22169088085E+04  0.25500000920E-02 0.  1.
    10030    2    1    2    0    0  0.00000000000E+00  0.00000000000E+00 -0.52019851455E+03  0.39136191024E+04  0.38788926234E+04 0.  0.
        2    1    3    3  502    0  0.17077003847E+04  0.43657554399E+03 -0.10764243990E+04  0.20653155440E+04  0.25500000920E-02 0.  1.
       -2    1    3    3    0  502 -0.17077003847E+04 -0.43657554399E+03  0.55622588448E+03  0.18483035584E+04  0.25500000920E-02 0. -1.
</event>
<event>
 5   0  0.2713405E-07  0.4003359E+04  0.7818609E-02  0.8003869E-01
       -1   -1    0    0    0  501  0.00000000000E+00  0.00000000000E+00  0.16739861252E+04  0.16739861252E+04  0.50400001928E-02 0. -1.
        1   -1    0    0  501    0  0.00000000000E+00  0.00000000000E+00 -0.23935205684E+04  0.23935205684E+04  0.50400001928E-02 0.  1.
    10030    2    1    2    0    0  0.00000000000E+00  0.00000000000E+00 -0.71953444321E+03  0.40675066937E+04  0.40033587009E+04 0.  0.
        1    1    3    3  502    0 -0.14979279713E+03  0.10418984037E+04  0.13700796421E+04  0.17277466224E+04  0.50400001928E-02 0. -1.
       -1    1    3    3    0  502  0.14979279713E+03 -0.10418984037E+04 -0.20896140853E+04  0.23397600713E+04  0.50400001928E-02 0.  1.
</event>
<event>
 5   0  0.3579559E-07  0.3852652E+04  0.7818609E-02  0.8034949E-01
        1   -1    0    0  501    0  0.00000000000E+00  0.00000000000E+00  0.20228783184E+04  0.20228783184E+04  0.50400001928E-02 0. -1.
       -1   -1    0    0    0  501  0.00000000000E+00  0.00000000000E+00 -0.18343825285E+04  0.18343825285E+04  0.50400001928E-02 0.  1.
    10030    2    1    2    0    0  0.00000000000E+00  0.00000000000E+00  0.18849578988E+03  0.38572608469E+04  0.38526524082E+04 0.  0.
        4    1    3    3  502    0 -0.12025266980E+04  0.13911594316E+04 -0.48031660541E+03  0.19005527296E+04  0.12699999809E+01 0.  1.
       -4    1    3    3    0  502  0.12025266980E+04 -0.13911594316E+04  0.66881239529E+03  0.19567081173E+04  0.12699999809E+01 0. -1.
</event>
<event>
 5   0  0.3579559E-07  0.3920907E+04  0.7818609E-02  0.8020695E-01
       -1   -1    0    0    0  501  0.00000000000E+00  0.00000000000E+00  0.15551234173E+04  0.15551234173E+04  0.50400001928E-02 0.  1.
        1   -1    0    0  501    0  0.00000000000E+00  0.00000000000E+00 -0.24714297712E+04  0.24714297712E+04  0.50400001928E-02 0. -1.
    10030    2    1    2    0    0  0.00000000000E+00  0.00000000000E+00 -0.91630635384E+03  0.40265531885E+04  0.39209071968E+04 0.  0.
        4    1    3    3  502    0  0.16197192471E+04  0.28323689473E+03 -0.15544675918E+04  0.22627604126E+04  0.12699999809E+01 0. -1.
       -4    1    3    3    0  502 -0.16197192471E+04 -0.28323689473E+03  0.63816123791E+03  0.17637927759E+04  0.12699999809E+01 0.  1.
</event>
<event>
 5   0  0.7256473E-07  0.3991150E+04  0.7818609E-02  0.8006334E-01
       -2   -1    0    0    0  501  0.00000000000E+00  0.00000000000E+00  0.24390658106E+04  0.24390658106E+04  0.25500000920E-02 0. -1.
        2   -1    0    0  501    0  0.00000000000E+00  0.00000000000E+00 -0.16327230435E+04  0.16327230435E+04  0.25500000920E-02 0.  1.
    10030    2    1    2    0    0  0.00000000000E+00  0.00000000000E+00  0.80634276708E+03  0.40717888542E+04  0.39911496859E+04 0.  0.
        4    1    3    3  502    0 -0.14680654069E+04 -0.59102717490E+03 -0.83703318702E+03  0.17902947605E+04  0.12699999809E+01 0.  1.
       -4    1    3    3    0  502  0.14680654069E+04  0.59102717490E+03  0.16433759541E+04  0.22814940937E+04  0.12699999809E+01 0. -1.
</event>
<event>
 5   0  0.4449262E-07  0.3949109E+04  0.7818609E-02  0.8014892E-01
       -2   -1    0    0    0  501  0.00000000000E+00  0.00000000000E+00  0.15142109979E+04  0.15142109979E+04  0.25500000920E-02 0. -1.
        2   -1    0    0  501    0  0.00000000000E+00  0.00000000000E+00 -0.25748488919E+04  0.25748488919E+04  0.25500000920E-02 0.  1.
    10030    2    1    2    0    0  0.00000000000E+00  0.00000000000E+00 -0.10606378939E+04  0.40890598898E+04  0.39491085121E+04 0.  0.
        1    1    3    3  502    0 -0.17399482095E+04  0.82527975564E+03 -0.78556587497E+02  0.19273498863E+04  0.50400001928E-02 0. -1.
       -1    1    3    3    0  502  0.17399482095E+04 -0.82527975564E+03 -0.98208130644E+03  0.21617100035E+04  0.50400001928E-02 0.  1.
</event>
<event>
 5   0  0.2401125E-07  0.2012901E+04  0.7818609E-02  0.8600613E-01
       -1   -1    0    0    0  501  0.00000000000E+00  0.00000000000E+00  0.94393171798E+03  0.94393171800E+03  0.50400001928E-02 0.  1.
        1   -1    0    0  501    0  0.00000000000E+00  0.00000000000E+00 -0.10731099082E+04  0.10731099082E+04  0.50400001928E-02 0. -1.
    10030    2    1    2    0    0  0.00000000000E+00  0.00000000000E+00 -0.12917819018E+03  0.20170416262E+04  0.20129008711E+04 0.  0.
        5    1    3    3  502    0  0.32623345403E+03  0.61114545339E+03  0.66697666619E+03  0.96166885931E+03  0.46999998093E+01 0.  1.
       -5    1    3    3    0  502 -0.32623345403E+03 -0.61114545339E+03 -0.79615485637E+03  0.10553727669E+04  0.46999998093E+01 0. -1.
</event>
<event>
 5   0  0.6043512E-07  0.3789630E+04  0.7818609E-02  0.8048384E-01
       -2   -1    0    0    0  501  0.00000000000E+00  0.00000000000E+00  0.36176718316E+04  0.36176718316E+04  0.25500000920E-02 0. -1.
        2   -1    0    0  501    0  0.00000000000E+00  0.00000000000E+00 -0.99244048103E+03  0.99244048104E+03  0.25500000920E-02 0.  1.
    10030    2    1    2    0    0  0.00000000000E+00  0.00000000000E+00  0.26252313506E+04  0.46101123127E+04  0.37896300468E+04 0.  0.
        3    1    3    3  502    0 -0.10462798865E+04  0.20168019049E+03 -0.59344092112E+03  0.12196510309E+04  0.10100000352E+00 0.  1.
       -3    1    3    3    0  502  0.10462798865E+04 -0.20168019049E+03  0.32186722717E+04  0.33904612818E+04  0.10100000352E+00 0. -1.
</event>
<event>
 5   0  0.4449262E-07  0.4081464E+04  0.7818609E-02  0.7988311E-01
        2   -1    0    0  501    0  0.00000000000E+00  0.00000000000E+00  0.21743145710E+04  0.21743145710E+04  0.25500000920E-02 0.  1.
       -2   -1    0    0    0  501  0.00000000000E+00  0.00000000000E+00 -0.19153565408E+04  0.19153565408E+04  0.25500000920E-02 0. -1.
    10030    2    1    2    0    0  0.00000000000E+00  0.00000000000E+00  0.25895803018E+03  0.40896711119E+04  0.40814642644E+04 0.  0.
        1    1    3    3  502    0 -0.84869666837E+03 -0.25569018656E+03 -0.17124021443E+04  0.19282076160E+04  0.50400001928E-02 0. -1.
       -1    1    3    3    0  502  0.84869666837E+03  0.25569018656E+03  0.19713601745E+04  0.21614634959E+04  0.50400001928E-02 0.  1.
</event>
<event>
 5   0  0.2601252E-07  0.2131867E+04  0.7818609E-02  0.8547334E-01
       -1   -1    0    0    0  501  0.00000000000E+00  0.00000000000E+00  0.65124388006E+03  0.65124388008E+03  0.50400001928E-02 0. -1.
        1   -1    0    0  501    0  0.00000000000E+00  0.00000000000E+00 -0.17446833827E+04  0.17446833827E+04  0.50400001928E-02 0.  1.
    10030    2    1    2    0    0  0.00000000000E+00  0.00000000000E+00 -0.10934395026E+04  0.23959272628E+04  0.21318671400E+04 0.  0.
        3    1    3    3  502    0 -0.38076245321E+03  0.20516488659E+03  0.54819175155E+03  0.69827421772E+03  0.10100000352E+00 0. -1.
       -3    1    3    3    0  502  0.38076245321E+03 -0.20516488659E+03 -0.16416312542E+04  0.16976530450E+04  0.10100000352E+00 0.  1.
</event>
<event>
 5   0  0.6043512E-07  0.4310345E+04  0.7818609E-02  0.7944708E-01
        2   -1    0    0  501    0  0.00000000000E+00  0.00000000000E+00  0.24348245483E+04  0.24348245483E+04  0.25500000920E-02 0. -1.
       -2   -1    0    0    0  501  0.00000000000E+00  0.00000000000E+00 -0.19076402173E+04  0.19076402173E+04  0.25500000920E-02 0.  1.
    10030    2    1    2    0    0  0.00000000000E+00  0.00000000000E+00  0.52718433101E+03  0.43424647656E+04  0.43103453367E+04 0.  0.
        3    1    3    3  502    0 -0.18885917990E+03 -0.11820072470E+04  0.20691413406E+04  0.23904298399E+04  0.10100000352E+00 0. -1.
       -3    1    3    3    0  502  0.18885917990E+03  0.11820072470E+04 -0.15419570096E+04  0.19520349258E+04  0.10100000352E+00 0.  1.
</event>
<event>
 5   0  0.5161550E-07  0.2121071E+04  0.7818609E-02  0.8552018E-01
       -2   -1    0    0    0  501  0.00000000000E+00  0.00000000000E+00  0.37253906291E+03  0.37253906292E+03  0.25500000920E-02 0.  1.
        2   -1    0    0  501    0  0.00000000000E+00  0.00000000000E+00 -0.30191071428E+04  0.30191071428E+04  0.25500000920E-02 0. -1.
    10030    2    1    2    0    0  0.00000000000E+00  0.00000000000E+00 -0.26465680799E+04  0.33916462058E+04  0.21210708105E+04 0.  0.
        2    1    3    3  502    0 -0.96642671537E+03  0.42187422681E+03 -0.15040297061E+04  0.18368624924E+04  0.25500000920E-02 0. -1.
       -2    1    3    3    0  502  0.96642671537E+03 -0.42187422681E+03 -0.11425383739E+04  0.15547837133E+04  0.25500000920E-02 0.  1.
</event>
<event>
 5   0  0.6043512E-07  0.3282869E+04  0.7818609E-02  0.8167268E-01
       -2   -1    0    0    0  501  0.00000000000E+00  0.00000000000E+00  0.28398797964E+04  0.28398797964E+04  0.25500000920E-02 0.  1.
        2   -1    0    0  501    0  0.00000000000E+00  0.00000000000E+00 -0.94874002616E+03  0.94874002616E+03  0.25500000920E-02 0. -1.
    10030    2    1    2    0    0  0.00000000000E+00  0.00000000000E+00  0.18911397702E+04  0.37886198225E+04  0.32828692525E+04 0.  0.
        3    1    3    3  502    0  0.75538728933E+03  0.80041125233E+03  0.23509823432E+04  0.25958401564E+04  0.10100000352E+00 0.  1.
       -3    1    3    3    0  502 -0.75538728933E+03 -0.80041125233E+03 -0.45984257295E+03  0.11927796661E+04  0.10100000352E+00 0. -1.
</event>
<event>
 5   0  0.3579559E-07  0.2765109E+04  0.7818609E-02  0.8314183E-01
        1   -1    0    0  501    0  0.00000000000E+00  0.00000000000E+00  0.11544466286E+04  0.11544466287E+04  0.50400001928E-02 0.  1.
       -1   -1    0    0    0  501  0.00000000000E+00  0.00000000000E+00 -0.16557337854E+04  0.16557337854E+04  0.50400001928E-02 0. -1.
    10030    2    1    2    0    0  0.00000000000E+00  0.00000000000E+00 -0.50128715675E+03  0.28101804141E+04  0.27651085234E+04 0.  0.
        4    1    3    3  502    0 -0.11978404248E+03  0.87404314063E+03  0.83120552636E+03  0.12121072017E+04  0.12699999809E+01 0.  1.
       -4    1    3    3    0  502  0.11978404248E+03 -0.87404314063E+03 -0.13324926831E+04  0.15980732123E+04  0.12699999809E+01 0. -1.
</event>
<event>
 5   0  0.2401125E-07  0.3834683E+04  0.7818609E-02  0.8038753E-01
        1   -1    0    0  501    0  0.00000000000E+00  0.00000000000E+00  0.21366949624E+04  0.21366949624E+04  0.50400001928E-02 0.  1.
       -1   -1    0    0    0  501  0.00000000000E+00  0.00000000000E+00 -0.17205068433E+04  0.17205068433E+04  0.50400001928E-02 0. -1.
    10030    2    1    2    0    0  0.00000000000E+00  0.00000000000E+00  0.41618811908E+03  0.38572018056E+04  0.38346829359E+04 0.  0.
        5    1    3    3  502    0  0.56321394642E+03  0.14570922623E+04  0.13263095421E+04  0.20492552066E+04  0.46999998093E+01 0.  1.
       -5    1    3    3    0  502 -0.56321394642E+03 -0.14570922623E+04 -0.91012142299E+03  0.18079465990E+04  0.46999998093E+01 0. -1.
</event>
<event>
 5   0  0.5161550E-07  0.3999535E+04  0.7818609E-02  0.8004640E-01
        2   -1    0    0  501    0  0.00000000000E+00  0.00000000000E+00  0.23540667310E+04  0.23540667310E+04  0.25500000920E-02 0.  1.
       -2   -1    0    0    0  501  0.00000000000E+00  0.00000000000E+00 -0.16987920268E+04  0.16987920268E+04  0.25500000920E-02 0. -1.
    10030    2    1    2    0    0  0.00000000000E+00  0.00000000000E+00  0.65527470417E+03  0.40528587579E+04  0.39995348696E+04 0.  0.
        2    1    3    3  502    0  0.85964955490E+03  0.51789616764E+03 -0.14251221267E+04  0.17430395503E+04  0.25500000920E-02 0. -1.
       -2    1    3    3    0  502 -0.85964955490E+03 -0.51789616764E+03  0.20803968309E+04  0.23098192076E+04  0.25500000920E-02 0.  1.
</event>
<event>
 5   0  0.2601252E-07  0.3948522E+04  0.7818609E-02  0.8015013E-01
        1   -1    0    0  501    0  0.00000000000E+00  0.00000000000E+00  0.24457945588E+04  0.24457945588E+04  0.50400001928E-02 0.  1.
       -1   -1    0    0    0  501  0.00000000000E+00  0.00000000000E+00 -0.15936359207E+04  0.15936359207E+04  0.50400001928E-02 0. -1.
    10030    2    1    2    0    0  0.00000000000E+00  0.00000000000E+00  0.85215863809E+03  0.40394304795E+04  0.39485217809E+04 0.  0.
        3    1    3    3  502    0  0.10886027805E+04  0.87462789251E+03 -0.10016437157E+04  0.17185226526E+04  0.10100000352E+00 0. -1.
       -3    1    3    3    0  502 -0.10886027805E+04 -0.87462789251E+03  0.18538023538E+04  0.23209078269E+04  0.10100000352E+00 0.  1.
</event>
<event>
 5   0  0.2601252E-07  0.2116990E+04  0.7818609E-02  0.8553796E-01
       -1   -1    0    0    0  501  0.00000000000E+00  0.00000000000E+00  0.50651208961E+03  0.50651208964E+03  0.50400001928E-02 0.  1.
        1   -1    0    0  501    0  0.00000000000E+00  0.00000000000E+00 -0.22120140046E+04  0.22120140046E+04  0.50400001928E-02 0. -1.
    10030    2    1    2    0    0  0.00000000000E+00  0.00000000000E+00 -0.17055019150E+04  0.27185260943E+04  0.21169901613E+04 0.  0.
        3    1    3    3  502    0 -0.31064614863E+03  0.97123224050E+03 -0.48813754106E+03  0.11305181838E+04  0.10100000352E+00 0.  1.
       -3    1    3    3    0  502  0.31064614863E+03 -0.97123224050E+03 -0.12173643739E+04  0.15880079105E+04  0.10100000352E+00 0. -1.
</event>
<event>
 5   0  0.7256473E-07  0.2472728E+04  0.7818609E-02  0.8412766E-01
       -2   -1    0    0    0  501  0.00000000000E+00  0.00000000000E+00  0.13346328652E+04  0.13346328652E+04  0.25500000920E-02 0. -1.
        2   -1    0    0  501    0  0.00000000000E+00  0.00000000000E+00 -0.11453306232E+04  0.11453306232E+04  0.25500000920E-02 0.  1.
    10030    2    1    2    0    0  0.00000000000E+00  0.00000000000E+00  0.18930224198E+03  0.24799634884E+04  0.24727279602E+04 0.  0.
        4    1    3    3  502    0  0.41038757714E+03  0.82167589763E+03 -0.73543311974E+03  0.11766191953E+04  0.12699999809E+01 0.  1.
       -4    1    3    3    0  502 -0.41038757714E+03 -0.82167589763E+03  0.92473536173E+03  0.13033442931E+04  0.12699999809E+01 0. -1.
</event>
<event>
 5   0  0.2601252E-07  0.3334125E+04  0.7818609E-02  0.8154266E-01
        1   -1    0    0  501    0  0.00000000000E+00  0.00000000000E+00  0.27150217947E+04  0.27150217947E+04  0.50400001928E-02 0. -1.
       -1   -1    0    0    0  501  0.00000000000E+00  0.00000000000E+00 -0.10236004342E+04  0.10236004342E+04  0.50400001928E-02 0.  1.
    10030    2    1    2    0    0  0.00000000000E+00  0.00000000000E+00  0.16914213604E+04  0.37386222289E+04  0.33341250654E+04 0.  0.
        3    1    3    3  502    0 -0.76173309777E+03  0.10135079514E+04 -0.36804376192E+03  0.13201863128E+04  0.10100000352E+00 0.  1.
       -3    1    3    3    0  502  0.76173309777E+03 -0.10135079514E+04  0.20594651224E+04  0.24184359161E+04  0.10100000352E+00 0. -1.
</event>
<event>
 5   0  0.2647879E-07  0.2721712E+04  0.7818609E-02  0.8327995E-01
        1   -1    0    0  501    0  0.00000000000E+00  0.00000000000E+00  0.20361630633E+04  0.20361630633E+04  0.50400001928E-02 0. -1.
       -1   -1    0    0    0  501  0.00000000000E+00  0.00000000000E+00 -0.90951874683E+03  0.90951874684E+03  0.50400001928E-02 0.  1.
    10030    2    1    2    0    0  0.00000000000E+00  0.00000000000E+00  0.11266443165E+04  0.29456818102E+04  0.27217115774E+04 0.  0.
        2    1    3    3  502    0  0.86121249510E+03  0.14680988510E+03 -0.56594194931E+03  0.10409276603E+04  0.25500000920E-02 0.  1.
       -2    1    3    3    0  502 -0.86121249510E+03 -0.14680988510E+03  0.16925862658E+04  0.19047541498E+04  0.25500000920E-02 0. -1.
</event>
<event>
 5   0  0.2601252E-07  0.2534744E+04  0.7818609E-02  0.8390711E-01
        1   -1    0    0  501    0  0.00000000000E+00  0.00000000000E+00  0.86216836683E+03  0.86216836684E+03  0.50400001928E-02 0.  1.
       -1   -1    0    0    0  501  0.00000000000E+00  0.00000000000E+00 -0.18630136211E+04  0.18630136211E+04  0.50400001928E-02 0. -1.
    10030    2    1    2    0    0  0.00000000000E+00  0.00000000000E+00 -0.10008452543E+04  0.27251819880E+04  0.25347437039E+04 0.  0.
        3    1    3    3  502    0  0.34938089396E+03 -0.12064127448E+04 -0.31818018243E+03  0.12956609736E+04  0.10100000352E+00 0. -1.
       -3    1    3    3    0  502 -0.34938089396E+03  0.12064127448E+04 -0.68266507186E+03  0.14295210143E+04  0.10100000352E+00 0.  1.
</event>
<event>
 5   0  0.4449262E-07  0.3984817E+04  0.7818609E-02  0.8007616E-01
        2   -1    0    0  501    0  0.00000000000E+00  0.00000000000E+00  0.13906550963E+04  0.13906550963E+04  0.25500000920E-02 0.  1.
       -2   -1    0    0    0  501  0.00000000000E+00  0.00000000000E+00 -0.28545480329E+04  0.28545480329E+04  0.25500000920E-02 0. -1.
    10030    2    1    2    0    0  0.00000000000E+00  0.00000000000E+00 -0.14638929366E+04  0.42452031292E+04  0.39848170696E+04 0.  0.
        1    1    3    3  502    0  0.15047779103E+04 -0.27268235795E+03  0.62860302005E+03  0.16534370216E+04  0.50400001928E-02 0.  1.
       -1    1    3    3    0  502 -0.15047779103E+04  0.27268235795E+03 -0.20924959567E+04  0.25917661076E+04  0.50400001928E-02 0. -1.
</event>
<event>
 5   0  0.2647879E-07  0.3962250E+04  0.7818609E-02  0.8012205E-01
        1   -1    0    0  501    0  0.00000000000E+00  0.00000000000E+00  0.30785936557E+04  0.30785936557E+04  0.50400001928E-02 0.  1.
       -1   -1    0    0    0  501  0.00000000000E+00  0.00000000000E+00 -0.12748864088E+04  0.12748864088E+04  0.50400001928E-02 0. -1.
    10030    2    1    2    0    0  0.00000000000E+00  0.00000000000E+00  0.18037072469E+04  0.43534800645E+04  0.39622504767E+04 0.  0.
        2    1    3    3  502    0 -0.17238236134E+04  0.77153762510E+03  0.24442637021E+03  0.19043587917E+04  0.25500000920E-02 0. -1.
       -2    1    3    3    0  502  0.17238236134E+04 -0.77153762510E+03  0.15592808767E+04  0.24491212729E+04  0.25500000920E-02 0.  1.
</event>
<event>
 5   0  0.2401125E-07  0.3999106E+04  0.7818609E-02  0.8004727E-01
       -1   -1    0    0    0  501  0.00000000000E+00  0.00000000000E+00  0.24201862960E+04  0.24201862960E+04  0.50400001928E-02 0. -1.
        1   -1    0    0  501    0  0.00000000000E+00  0.00000000000E+00 -0.16520269803E+04  0.16520269803E+04  0.50400001928E-02 0.  1.
    10030    2    1    2    0    0  0.00000000000E+00  0.00000000000E+00  0.76815931570E+03  0.40722132762E+04  0.39991064293E+04 0.  0.
        5    1    3    3  502    0 -0.66544110013E+02 -0.11153883191E+04 -0.13044472229E+04  0.17175924628E+04  0.46999998093E+01 0.  1.
       -5    1    3    3    0  502  0.66544110013E+02  0.11153883191E+04  0.20726065386E+04  0.23546208134E+04  0.46999998093E+01 0. -1.
</event>
<event>
 5   0  0.6043512E-07  0.3961917E+04  0.7818609E-02  0.8012273E-01
       -2   -1    0    0    0  501  0.00000000000E+00  0.00000000000E+00  0.19105471367E+04  0.19105471367E+04  0.25500000920E-02 0.  1.
        2   -1    0    0  501    0  0.00000000000E+00  0.00000000000E+00 -0.20539649646E+04  0.20539649646E+04  0.25500000920E-02 0. -1.
    10030    2    1    2    0    0  0.00000000000E+00  0.00000000000E+00 -0.14341782792E+03  0.39645121013E+04  0.39619171531E+04 0.  0.
        3    1    3    3  502    0  0.16976950076E+04  0.13636069418E+03  0.94060298285E+03  0.19456352586E+04  0.10100000352E+00 0.  1.
       -3    1    3    3    0  502 -0.16976950076E+04 -0.13636069418E+03 -0.10840208108E+04  0.20188768427E+04  0.10100000352E+00 0. -1.
</event>
<event>
 5   0  0.2900786E-07  0.2352491E+04  0.7818609E-02  0.8457508E-01
        1   -1    0    0  501    0  0.00000000000E+00  0.00000000000E+00  0.14443525985E+04  0.14443525985E+04  0.50400001928E-02 0. -1.
       -1   -1    0    0    0  501  0.00000000000E+00  0.00000000000E+00 -0.95790525876E+03  0.95790525877E+03  0.50400001928E-02 0.  1.
    10030    2    1    2    0    0  0.00000000000E+00  0.00000000000E+00  0.48644733975E+03  0.24022578573E+04  0.23524905523E+04 0.  0.
        3    1    3    3  502    0  0.35149181122E+02 -0.19994968579E+03  0.14263268231E+04  0.14407024531E+04  0.10100000352E+00 0. -1.
       -3    1    3    3    0  502 -0.35149181122E+02  0.19994968579E+03 -0.93987948339E+03  0.96155540417E+03  0.10100000352E+00 0.  1.
</event>
<event>
 5   0  0.7256473E-07  0.3964790E+04  0.7818609E-02  0.8011687E-01
        2   -1    0    0  501    0  0.00000000000E+00  0.00000000000E+00  0.19303748727E+04  0.19303748727E+04  0.25500000920E-02 0.  1.
       -2   -1    0    0    0  501  0.00000000000E+00  0.00000000000E+00 -0.20358174137E+04  0.20358174137E+04  0.25500000920E-02 0. -1.
    10030    2    1    2    0    0  0.00000000000E+00  0.00000000000E+00 -0.10544254099E+03  0.39661922864E+04  0.39647904261E+04 0.  0.
        4    1    3    3  502    0  0.47782761455E+03  0.88240370296E+03 -0.17629846933E+04  0.20285640651E+04  0.12699999809E+01 0. -1.
       -4    1    3    3    0  502 -0.47782761455E+03 -0.88240370296E+03  0.16575421524E+04  0.19376282213E+04  0.12699999809E+01 0.  1.
</event>
<event>
 5   0  0.2401125E-07  0.3934650E+04  0.7818609E-02  0.8017861E-01
       -3   -1    0    0    0  501  0.00000000000E+00  0.00000000000E+00  0.21791647537E+04  0.21791647561E+04  0.10100000352E+00 0.  1.
        3   -1    0    0  501    0  0.00000000000E+00  0.00000000000E+00 -0.17760789185E+04  0.17760789214E+04  0.10100000352E+00 0. -1.
    10030    2    1    2    0    0  0.00000000000E+00  0.00000000000E+00  0.40308583526E+03  0.39552436774E+04  0.39346504746E+04 0.  0.
        3    1    3    3  502    0  0.14953194939E+04  0.11666185579E+04  0.72714595580E+03  0.20311869682E+04  0.10100000352E+00 0. -1.
       -3    1    3    3    0  502 -0.14953194939E+04 -0.11666185579E+04 -0.32406012055E+03  0.19240567093E+04  0.10100000352E+00 0.  1.
</event>
<event>
 5   0  0.7570277E-07  0.2680043E+04  0.7818609E-02  0.8341509E-01
       -2   -1    0    0    0  501  0.00000000000E+00  0.00000000000E+00  0.87210837787E+03  0.87210837787E+03  0.25500000920E-02 0. -1.
        2   -1    0    0  501    0  0.00000000000E+00  0.00000000000E+00 -0.20589846383E+04  0.20589846383E+04  0.25500000920E-02 0.  1.
    10030    2    1    2    0    0  0.00000000000E+00  0.00000000000E+00 -0.11868762604E+04  0.29310930161E+04  0.26800430989E+04 0.  0.
        5    1    3    3  502    0 -0.48579477200E+03 -0.98166913620E+03 -0.14377407380E+04  0.18074267269E+04  0.46999998093E+01 0.  1.
       -5    1    3    3    0  502  0.48579477200E+03  0.98166913620E+03  0.25086447758E+03  0.11236662892E+04  0.46999998093E+01 0. -1.
</event>
<event>
 5   0  0.7570277E-07  0.2011623E+04  0.7818609E-02  0.8601206E-01
       -2   -1    0    0    0  501  0.00000000000E+00  0.00000000000E+00  0.76105733113E+03  0.76105733113E+03  0.25500000920E-02 0. -1.
        2   -1    0    0  501    0  0.00000000000E+00  0.00000000000E+00 -0.13292783564E+04  0.13292783564E+04  0.25500000920E-02 0.  1.
    10030    2    1    2    0    0  0.00000000000E+00  0.00000000000E+00 -0.56822102528E+03  0.20903356875E+04  0.20116232632E+04 0.  0.
        5    1    3    3  502    0  0.79936567775E+03 -0.58873639707E+03 -0.11643067744E+03  0.99958702704E+03  0.46999998093E+01 0. -1.
       -5    1    3    3    0  502 -0.79936567775E+03  0.58873639707E+03 -0.45179034785E+03  0.10907486605E+04  0.46999998093E+01 0.  1.
</event>
<event>
 5   0  0.2713405E-07  0.3940259E+04  0.7818609E-02  0.8016708E-01
       -1   -1    0    0    0  501  0.00000000000E+00  0.00000000000E+00  0.19108249473E+04  0.19108249473E+04  0.50400001928E-02 0.  1.
        1   -1    0    0  501    0  0.00000000000E+00  0.00000000000E+00 -0.20312743638E+04  0.20312743638E+04  0.50400001928E-02 0. -1.
    10030    2    1    2    0    0  0.00000000000E+00  0.00000000000E+00 -0.12044941651E+03  0.39420993110E+04  0.39402587372E+04 0.  0.
        1    1    3    3  502    0  0.18029754724E+04 -0.31872366196E+03 -0.78796011919E+03  0.19932853474E+04  0.50400001928E-02 0.  1.
       -1    1    3    3    0  502 -0.18029754724E+04  0.31872366196E+03  0.66751070267E+03  0.19488139636E+04  0.50400001928E-02 0. -1.
</event>
<event>
 5   0  0.4449262E-07  0.2004227E+04  0.7818609E-02  0.8604647E-01
       -2   -1    0    0    0  501  0.00000000000E+00  0.00000000000E+00  0.18412128123E+04  0.18412128123E+04  0.25500000920E-02 0.  1.
        2   -1    0    0  501    0  0.00000000000E+00  0.00000000000E+00 -0.54541819792E+03  0.54541819793E+03  0.25500000920E-02 0. -1.
    10030    2    1    2    0    0  0.00000000000E+00  0.00000000000E+00  0.12957946144E+04  0.23866310102E+04  0.20042265082E+04 0.  0.
        1    1    3    3  502    0  0.12469519365E+03  0.93135655010E+02  0.18267329288E+04  0.18333511215E+04  0.50400001928E-02 0.  1.
       -1    1    3    3    0  502 -0.12469519365E+03 -0.93135655010E+02 -0.53093831440E+03  0.55327988874E+03  0.50400001928E-02 0. -1.
</event>
<event>
 5   0  0.7570277E-07  0.3635989E+04  0.7818609E-02  0.8082297E-01
        2   -1    0    0  501    0  0.00000000000E+00  0.00000000000E+00  0.18959097871E+04  0.18959097871E+04  0.25500000920E-02 0.  1.
       -2   -1    0    0    0  501  0.00000000000E+00  0.00000000000E+00 -0.17432812266E+04  0.17432812266E+04  0.25500000920E-02 0. -1.
    10030    2    1    2    0    0  0.00000000000E+00  0.00000000000E+00  0.15262856056E+03  0.36391910137E+04  0.36359889654E+04 0.  0.
        5    1    3    3  502    0 -0.11438421378E+04  0.52819145105E+03 -0.12354584026E+04  0.17645794399E+04  0.46999998093E+01 0. -1.
       -5    1    3    3    0  502  0.11438421378E+04 -0.52819145105E+03  0.13880869632E+04  0.18746115738E+04  0.46999998093E+01 0.  1.
</event>
<event>
 5   0  0.2401125E-07  0.4022799E+04  0.7818609E-02  0.7999963E-01
       -1   -1    0    0    0  501  0.00000000000E+00  0.00000000000E+00  0.24319467712E+04  0.24319467712E+04  0.50400001928E-02 0.  1.
        1   -1    0    0  501    0  0.00000000000E+00  0.00000000000E+00 -0.16635754849E+04  0.16635754849E+04  0.50400001928E-02 0. -1.
    10030    2    1    2    0    0  0.00000000000E+00  0.00000000000E+00  0.76837128629E+03  0.40955222561E+04  0.40227985429E+04 0.  0.
        5    1    3    3  502    0  0.43283408253E+02  0.10061705582E+03  0.24289026910E+04  0.24313756636E+04  0.46999998093E+01 0.  1.
       -5    1    3    3    0  502 -0.43283408253E+02 -0.10061705582E+03 -0.16605314047E+04  0.16641465925E+04  0.46999998093E+01 0. -1.
</event>
<event>
 5   0  0.7570277E-07  0.2374579E+04  0.7818609E-02  0.8449082E-01
       -2   -1    0    0    0  501  0.00000000000E+00  0.00000000000E+00  0.79979203999E+03  0.79979203999E+03  0.25500000920E-02 0. -1.
        2   -1    0    0  501    0  0.00000000000E+00  0.00000000000E+00 -0.17625289333E+04  0.17625289333E+04  0.25500000920E-02 0.  1.
    10030    2    1    2    0    0  0.00000000000E+00  0.00000000000E+00 -0.96273689329E+03  0.25623209733E+04  0.23745792142E+04 0.  0.
        5    1    3    3  502    0 -0.77825079131E+02  0.39207611927E+03 -0.16877273345E+04  0.17344238444E+04  0.46999998093E+01 0.  1.
       -5    1    3    3    0  502  0.77825079131E+02 -0.39207611927E+03  0.72499044120E+03  0.82789712892E+03  0.46999998093E+01 0. -1.
</event>
<event>
 5   0  0.6043512E-07  0.3888459E+04  0.7818609E-02  0.8027434E-01
       -2   -1    0    0    0  501  0.00000000000E+00  0.00000000000E+00  0.19022262702E+04  0.19022262702E+04  0.25500000920E-02 0.  1.
        2   -1    0    0  501    0  0.00000000000E+00  0.00000000000E+00 -0.19871600028E+04  0.19871600028E+04  0.25500000920E-02 0. -1.
    10030    2    1    2    0    0  0.00000000000E+00  0.00000000000E+00 -0.84933732568E+02  0.38893862730E+04  0.38884588003E+04 0.  0.
        3    1    3    3  502    0  0.12792156265E+04 -0.73514443469E+03 -0.13089434235E+04  0.19723495773E+04  0.10100000352E+00 0. -1.
       -3    1    3    3    0  502 -0.12792156265E+04  0.73514443469E+03  0.12240096909E+04  0.19170366957E+04  0.10100000352E+00 0.  1.
</event>
<event>
 5   0  0.7256473E-07  0.4023151E+04  0.7818609E-02  0.7999893E-01
       -2   -1    0    0    0  501  0.00000000000E+00  0.00000000000E+00  0.16604930712E+04  0.16604930712E+04  0.25500000920E-02 0.  1.
        2   -1    0    0  501    0  0.00000000000E+00  0.00000000000E+00 -0.24368877757E+04  0.24368877757E+04  0.25500000920E-02 0. -1.
    10030    2    1    2    0    0  0.00000000000E+00  0.00000000000E+00 -0.77639470445E+03  0.40973808469E+04  0.40231506394E+04 0.  0.
        4    1    3    3  502    0 -0.15869867498E+04 -0.68578991396E+03 -0.14355683281E+04  0.22471521505E+04  0.12699999809E+01 0. -1.
       -4    1    3    3    0  502  0.15869867498E+04  0.68578991396E+03  0.65917362367E+03  0.18502286964E+04  0.12699999809E+01 0.  1.
</event>
<event>
 5   0  0.7570277E-07  0.2400229E+04  0.7818609E-02  0.8439418E-01
       -2   -1    0    0    0  501  0.00000000000E+00  0.00000000000E+00  0.17363082019E+04  0.17363082019E+04  0.25500000920E-02 0.  1.
        2   -1    0    0  501    0  0.00000000000E+00  0.00000000000E+00 -0.82950398103E+03  0.82950398103E+03  0.25500000920E-02 0. -1.
    10030    2    1    2    0    0  0.00000000000E+00  0.00000000000E+00  0.90680422090E+03  0.25658121830E+04  0.24002287939E+04 0.  0.
        5    1    3    3  502    0 -0.80191961686E+03  0.87083771598E+03  0.24278443257E+03  0.12084700121E+04  0.46999998093E+01 0. -1.
       -5    1    3    3    0  502  0.80191961686E+03 -0.87083771598E+03  0.66401978833E+03  0.13573421709E+04  0.46999998093E+01 0.  1.
</event>
<event>
 5   0  0.2713405E-07  0.3885733E+04  0.7818609E-02  0.8028003E-01
       -1   -1    0    0    0  501  0.00000000000E+00  0.00000000000E+00  0.14380136633E+04  0.14380136633E+04  0.50400001928E-02 0. -1.
        1   -1    0    0  501    0  0.00000000000E+00  0.00000000000E+00 -0.26249616613E+04  0.26249616614E+04  0.50400001928E-02 0.  1.
    10030    2    1    2    0    0  0.00000000000E+00  0.00000000000E+00 -0.11869479981E+04  0.40629753246E+04  0.38857332562E+04 0.  0.
        1    1    3    3  502    0  0.33126558331E+03  0.61976894786E+03  0.13004667724E+04  0.14781962866E+04  0.50400001928E-02 0. -1.
       -1    1    3    3    0  502 -0.33126558331E+03 -0.61976894786E+03 -0.24874147705E+04  0.25847790381E+04  0.50400001928E-02 0.  1.
</event>
<event>
 5   0  0.2601252E-07  0.2653650E+04  0.7818609E-02  0.8350202E-01
        1   -1    0    0  501    0  0.00000000000E+00  0.00000000000E+00  0.10833617209E+04  0.10833617209E+04  0.50400001928E-02 0. -1.
       -1   -1    0    0    0  501  0.00000000000E+00  0.00000000000E+00 -0.16250019845E+04  0.16250019845E+04  0.50400001928E-02 0.  1.
    10030    2    1    2    0    0  0.00000000000E+00  0.00000000000E+00 -0.54164026360E+03  0.27083637055E+04  0.26536502758E+04 0.  0.
        3    1    3    3  502    0  0.60600741958E+03 -0.77140033403E+03  0.64099895235E+03  0.11718289700E+04  0.10100000352E+00 0. -1.
       -3    1    3    3    0  502 -0.60600741958E+03  0.77140033403E+03 -0.11826392159E+04  0.15365347354E+04  0.10100000352E+00 0.  1.
</event>
<event>
 5   0  0.5161550E-07  0.3964000E+04  0.7818609E-02  0.8011849E-01
       -2   -1    0    0    0  501  0.00000000000E+00  0.00000000000E+00  0.20415932965E+04  0.20415932965E+04  0.25500000920E-02 0. -1.
        2   -1    0    0  501    0  0.00000000000E+00  0.00000000000E+00 -0.19241460413E+04  0.19241460413E+04  0.25500000920E-02 0.  1.
    10030    2    1    2    0    0  0.00000000000E+00  0.00000000000E+00  0.11744725520E+03  0.39657393378E+04  0.39639998281E+04 0.  0.
        2    1    3    3  502    0  0.15821458286E+04  0.99434548540E+03 -0.60218362584E+03  0.19632965865E+04  0.25500000920E-02 0.  1.
       -2    1    3    3    0  502 -0.15821458286E+04 -0.99434548540E+03  0.71963088103E+03  0.20024427513E+04  0.25500000920E-02 0. -1.
</event>
<event>
 5   0  0.3579559E-07  0.2242037E+04  0.7818609E-02  0.8501132E-01
        1   -1    0    0  501    0  0.00000000000E+00  0.00000000000E+00  0.14155133845E+04  0.14155133845E+04  0.50400001928E-02 0. -1.
       -1   -1    0    0    0  501  0.00000000000E+00  0.00000000000E+00 -0.88779283105E+03  0.88779283107E+03  0.50400001928E-02 0.  1.
    10030    2    1    2    0    0  0.00000000000E+00  0.00000000000E+00  0.52772055345E+03  0.23033062156E+04  0.22420371407E+04 0.  0.
        4    1    3    3  502    0 -0.19323079509E+03 -0.46686450767E+03 -0.76417596003E+03  0.91611523264E+03  0.12699999809E+01 0.  1.
       -4    1    3    3    0  502  0.19323079509E+03  0.46686450767E+03  0.12918965135E+04  0.13871909829E+04  0.12699999809E+01 0. -1.
</event>
<event>
 5   0  0.6043512E-07  0.4293277E+04  0.7818609E-02  0.7947862E-01
        2   -1    0    0  501    0  0.00000000000E+00  0.00000000000E+00  0.29955005281E+04  0.29955005281E+04  0.25500000920E-02 0.  1.
       -2   -1    0    0    0  501  0.00000000000E+00  0.00000000000E+00 -0.15383262240E+04  0.15383262240E+04  0.25500000920E-02 0. -1.
    10030    2    1    2    0    0  0.00000000000E+00  0.00000000000E+00  0.14571743041E+04  0.45338267521E+04  0.42932770776E+04 0.  0.
        3    1    3    3  502    0  0.15859812932E+04  0.13402948043E+04  0.13034496085E+04  0.24516744721E+04  0.10100000352E+00 0. -1.
       -3    1    3    3    0  502 -0.15859812932E+04 -0.13402948043E+04  0.15372469569E+03  0.20821522800E+04  0.10100000352E+00 0.  1.
</event>
<event>
 5   0  0.2713405E-07  0.2436602E+04  0.7818609E-02  0.8425926E-01
        1   -1    0    0  501    0  0.00000000000E+00  0.00000000000E+00  0.15857777474E+04  0.15857777474E+04  0.50400001928E-02 0. -1.
       -1   -1    0    0    0  501  0.00000000000E+00  0.00000000000E+00 -0.93598073325E+03  0.93598073326E+03  0.50400001928E-02 0.  1.
    10030    2    1    2    0    0  0.00000000000E+00  0.00000000000E+00  0.64979701414E+03  0.25217584807E+04  0.24366020757E+04 0.  0.
        1    1    3    3  502    0 -0.68581025101E+03 -0.78697715672E+01 -0.71719773244E+03  0.99235589439E+03  0.50400001928E-02 0.  1.
       -1    1    3    3    0  502  0.68581025101E+03  0.78697715672E+01  0.13669947466E+04  0.15294025863E+04  0.50400001928E-02 0. -1.
</event>
<event>
 5   0  0.5161550E-07  0.3902991E+04  0.7818609E-02  0.8024407E-01
       -2   -1    0    0    0  501  0.00000000000E+00  0.00000000000E+00  0.20750155241E+04  0.20750155241E+04  0.25500000920E-02 0.  1.
        2   -1    0    0  501    0  0.00000000000E+00  0.00000000000E+00 -0.18353287224E+04  0.18353287224E+04  0.25500000920E-02 0. -1.
    10030    2    1    2    0    0  0.00000000000E+00  0.00000000000E+00  0.23968680172E+03  0.39103442466E+04  0.39029914635E+04 0.  0.
        2    1    3    3  502    0 -0.90874045390E+03  0.66900951033E+03 -0.14753094957E+04  0.18573963082E+04  0.25500000920E-02 0. -1.
       -2    1    3    3    0  502  0.90874045390E+03 -0.66900951033E+03  0.17149962975E+04  0.20529479384E+04  0.25500000920E-02 0.  1.
</event>
<event>
 5   0  0.2401125E-07  0.4017102E+04  0.7818609E-02  0.8001105E-01
       -1   -1    0    0    0  501  0.00000000000E+00  0.00000000000E+00  0.13478330522E+04  0.13478330523E+04  0.50400001928E-02 0.  1.
        1   -1    0    0  501    0  0.00000000000E+00  0.00000000000E+00 -0.29931584537E+04  0.29931584538E+04  0.50400001928E-02 0. -1.
    10030    2    1    2    0    0  0.00000000000E+00  0.00000000000E+00 -0.16453254015E+04  0.43409915060E+04  0.40171023859E+04 0.  0.
        5    1    3    3  502    0  0.12830875909E+04  0.68618984660E+03  0.67356186204E+03  0.16033957538E+04  0.46999998093E+01 0.  1.
       -5    1    3    3    0  502 -0.12830875909E+04 -0.68618984660E+03 -0.23188872635E+04  0.27375957522E+04  0.46999998093E+01 0. -1.
</event>
<event>
 5   0  0.6043512E-07  0.4050118E+04  0.7818609E-02  0.7994512E-01
        2   -1    0    0  501    0  0.00000000000E+00  0.00000000000E+00  0.27760680979E+04  0.27760680979E+04  0.25500000920E-02 0. -1.
       -2   -1    0    0    0  501  0.00000000000E+00  0.00000000000E+00 -0.14772203909E+04  0.14772203909E+04  0.25500000920E-02 0.  1.
    10030    2    1    2    0    0  0.00000000000E+00  0.00000000000E+00  0.12988477071E+04  0.42532884888E+04  0.40501182209E+04 0.  0.
        3    1    3    3  502    0 -0.14918561713E+04 -0.11374802520E+04 -0.15130004075E+03  0.18821232351E+04  0.10100000352E+00 0.  1.
       -3    1    3    3    0  502  0.14918561713E+04  0.11374802520E+04  0.14501477478E+04  0.23711652537E+04  0.10100000352E+00 0. -1.
</event>
<event>
 5   0  0.3579559E-07  0.2166370E+04  0.7818609E-02  0.8532558E-01
       -1   -1    0    0    0  501  0.00000000000E+00  0.00000000000E+00  0.12670469701E+04  0.12670469701E+04  0.50400001928E-02 0. -1.
        1   -1    0    0  501    0  0.00000000000E+00  0.00000000000E+00 -0.92600309137E+03  0.92600309138E+03  0.50400001928E-02 0.  1.
    10030    2    1    2    0    0  0.00000000000E+00  0.00000000000E+00  0.34104387873E+03  0.21930500615E+04  0.21663696926E+04 0.  0.
        4    1    3    3  502    0  0.69441000327E+03  0.82969069743E+03  0.22308337786E+03  0.11046989239E+04  0.12699999809E+01 0. -1.
       -4    1    3    3    0  502 -0.69441000327E+03 -0.82969069743E+03  0.11796050088E+03  0.10883511376E+04  0.12699999809E+01 0.  1.
</event>
<event>
 5   0  0.7570277E-07  0.3163492E+04  0.7818609E-02  0.8198526E-01
        2   -1    0    0  501    0  0.00000000000E+00  0.00000000000E+00  0.25661018602E+04  0.25661018602E+04  0.25500000920E-02 0.  1.
       -2   -1    0    0    0  501  0.00000000000E+00  0.00000000000E+00 -0.97498872561E+03  0.97498872561E+03  0.25500000920E-02 0. -1.
    10030    2    1    2    0    0  0.00000000000E+00  0.00000000000E+00  0.15911131346E+04  0.35410905858E+04  0.31634919835E+04 0.  0.
        5    1    3    3  502    0  0.16238753218E+03 -0.54076937988E+03  0.24494473271E+04  0.25136856468E+04  0.46999998093E+01 0.  1.
       -5    1    3    3    0  502 -0.16238753218E+03  0.54076937988E+03 -0.85833419246E+03  0.10274049390E+04  0.46999998093E+01 0. -1.
</event>
<event>
 5   0  0.4449262E-07  0.3954083E+04  0.7818609E-02  0.8013874E-01
        2   -1    0    0  501    0  0.00000000000E+00  0.00000000000E+00  0.22980035008E+04  0.22980035008E+04  0.25500000920E-02 0. -1.
       -2   -1    0    0    0  501  0.00000000000E+00  0.00000000000E+00 -0.17009081221E+04  0.17009081221E+04  0.25500000920E-02 0.  1.
    10030    2    1    2    0    0  0.00000000000E+00  0.00000000000E+00  0.59709537868E+03  0.39989116229E+04  0.39540828616E+04 0.  0.
        1    1    3    3  502    0  0.40816878402E+03  0.18113302776E+04  0.98534454907E+03  0.21020045221E+04  0.50400001928E-02 0. -1.
       -1    1    3    3    0  502 -0.40816878402E+03 -0.18113302776E+04 -0.38824917039E+03  0.18969071008E+04  0.50400001928E-02 0.  1.
</event>
<event>
 5   0  0.2601252E-07  0.4102476E+04  0.7818609E-02  0.7984187E-01
        1   -1    0    0  501    0  0.00000000000E+00  0.00000000000E+00  0.17581595752E+04  0.17581595752E+04  0.50400001928E-02 0.  1.
       -1   -1    0    0    0  501  0.00000000000E+00  0.00000000000E+00 -0.23931720491E+04  0.23931720491E+04  0.50400001928E-02 0. -1.
    10030    2    1    2    0    0  0.00000000000E+00  0.00000000000E+00 -0.63501247390E+03  0.41513316243E+04  0.41024764976E+04 0.  0.
        3    1    3    3  502    0  0.27349885983E+03 -0.72205120988E+03  0.16054980457E+04  0.17815115944E+04  0.10100000352E+00 0.  1.
       -3    1    3    3    0  502 -0.27349885983E+03  0.72205120988E+03 -0.22405105196E+04  0.23698200300E+04  0.10100000352E+00 0. -1.
</event>
<event>
 5   0  0.2401125E-07  0.3192742E+04  0.7818609E-02  0.8190737E-01
        1   -1    0    0  501    0  0.00000000000E+00  0.00000000000E+00  0.16203536219E+04  0.16203536219E+04  0.50400001928E-02 0.  1.
       -1   -1    0    0    0  501  0.00000000000E+00  0.00000000000E+00 -0.15727433347E+04  0.15727433347E+04  0.50400001928E-02 0. -1.
    10030    2    1    2    0    0  0.00000000000E+00  0.00000000000E+00  0.47610287190E+02  0.31930969565E+04  0.31927419931E+04 0.  0.
        5    1    3    3  502    0 -0.14976364127E+04 -0.35366442048E+03 -0.40095953687E+03  0.15902150757E+04  0.46999998093E+01 0. -1.
       -5    1    3    3    0  502  0.14976364127E+04  0.35366442048E+03  0.44856982406E+03  0.16028818808E+04  0.46999998093E+01 0.  1.
</event>
<event>
 5   0  0.7256473E-07  0.4014760E+04  0.7818609E-02  0.8001576E-01
       -2   -1    0    0    0  501  0.00000000000E+00  0.00000000000E+00  0.15840279622E+04  0.15840279622E+04  0.25500000920E-02 0.  1.
        2   -1    0    0  501    0  0.00000000000E+00  0.00000000000E+00 -0.25438785490E+04  0.25438785490E+04  0.25500000920E-02 0. -1.
    10030    2    1    2    0    0  0.00000000000E+00  0.00000000000E+00 -0.95985058688E+03  0.41279065112E+04  0.40147601443E+04 0.  0.
        4    1    3    3  502    0  0.95505923737E+03 -0.17409752565E+04 -0.17763235269E+03  0.19936619213E+04  0.12699999809E+01 0. -1.
       -4    1    3    3    0  502 -0.95505923737E+03  0.17409752565E+04 -0.78221823419E+03  0.21342445899E+04  0.12699999809E+01 0.  1.
</event>
<event>
 5   0  0.3579559E-07  0.3990214E+04  0.7818609E-02  0.8006524E-01
       -1   -1    0    0    0  501  0.00000000000E+00  0.00000000000E+00  0.30632616707E+04  0.30632616707E+04  0.50400001928E-02 0. -1.
        1   -1    0    0  501    0  0.00000000000E+00  0.00000000000E+00 -0.12994162717E+04  0.12994162717E+04  0.50400001928E-02 0.  1.
    10030    2    1    2    0    0  0.00000000000E+00  0.00000000000E+00  0.17638453990E+04  0.43626779424E+04  0.39902140591E+04 0.  0.
        4    1    3    3  502    0  0.72328063692E+03  0.12065341465E+04  0.24287599452E+04  0.28067304841E+04  0.12699999809E+01 0.  1.
       -4    1    3    3    0  502 -0.72328063692E+03 -0.12065341465E+04 -0.66491454617E+03  0.15559474583E+04  0.12699999809E+01 0. -1.
</event>
<event>
 5   0  0.5161550E-07  0.2602471E+04  0.7818609E-02  0.8367362E-01
       -2   -1    0    0    0  501  0.00000000000E+00  0.00000000000E+00  0.16470661980E+04  0.16470661980E+04  0.25500000920E-02 0.  1.
        2   -1    0    0  501    0  0.00000000000E+00  0.00000000000E+00 -0.10280182381E+04  0.10280182381E+04  0.25500000920E-02 0. -1.
    10030    2    1    2    0    0  0.00000000000E+00  0.00000000000E+00  0.61904795987E+03  0.26750844362E+04  0.26024712033E+04 0.  0.
        2    1    3    3  502    0 -0.16795277384E+03 -0.12822200843E+04  0.16085936381E+03  0.13031393686E+04  0.25500000920E-02 0. -1.
       -2    1    3    3    0  502  0.16795277384E+03  0.12822200843E+04  0.45818859606E+03  0.13719450676E+04  0.25500000920E-02 0.  1.
</event>
<event>
 5   0  0.2713405E-07  0.2543635E+04  0.7818609E-02  0.8387603E-01
        1   -1    0    0  501    0  0.00000000000E+00  0.00000000000E+00  0.20006699114E+04  0.20006699114E+04  0.50400001928E-02 0.  1.
       -1   -1    0    0    0  501  0.00000000000E+00  0.00000000000E+00 -0.80848934719E+03  0.80848934721E+03  0.50400001928E-02 0. -1.
    10030    2    1    2    0    0  0.00000000000E+00  0.00000000000E+00  0.11921805642E+04  0.28091592586E+04  0.25436354382E+04 0.  0.
        1    1    3    3  502    0  0.93654815111E+03 -0.14345334234E+03 -0.34089582190E+03  0.10069316075E+04  0.50400001928E-02 0. -1.
       -1    1    3    3    0  502 -0.93654815111E+03  0.14345334234E+03  0.15330763861E+04  0.18022276511E+04  0.50400001928E-02 0.  1.
</event>
<event>
 5   0  0.5161550E-07  0.3826041E+04  0.7818609E-02  0.8040590E-01
        2   -1    0    0  501    0  0.00000000000E+00  0.00000000000E+00  0.29904546325E+04  0.29904546325E+04  0.25500000920E-02 0. -1.
       -2   -1    0    0    0  501  0.00000000000E+00  0.00000000000E+00 -0.12237761266E+04  0.12237761266E+04  0.25500000920E-02 0.  1.
    10030    2    1    2    0    0  0.00000000000E+00  0.00000000000E+00  0.17666785059E+04  0.42142307591E+04  0.38260407665E+04 0.  0.
        2    1    3    3  502    0  0.11891325428E+03  0.18017618853E+04  0.18744600063E+03  0.18153848784E+04  0.25500000920E-02 0.  1.
       -2    1    3    3    0  502 -0.11891325428E+03 -0.18017618853E+04  0.15792325053E+04  0.23988458807E+04  0.25500000920E-02 0. -1.
</event>
<event>
 5   0  0.4449262E-07  0.3095752E+04  0.7818609E-02  0.8216905E-01
       -2   -1    0    0    0  501  0.00000000000E+00  0.00000000000E+00  0.10802100935E+04  0.10802100935E+04  0.25500000920E-02 0. -1.
        2   -1    0    0  501    0  0.00000000000E+00  0.00000000000E+00 -0.22180123623E+04  0.22180123623E+04  0.25500000920E-02 0.  1.
    10030    2    1    2    0    0  0.00000000000E+00  0.00000000000E+00 -0.11378022688E+04  0.32982224559E+04  0.30957515025E+04 0.  0.
        1    1    3    3  502    0  0.14387437124E+04 -0.33679327335E+03 -0.10600347000E+04  0.18185397285E+04  0.50400001928E-02 0. -1.
       -1    1    3    3    0  502 -0.14387437124E+04  0.33679327335E+03 -0.77767568821E+02  0.14796827274E+04  0.50400001928E-02 0.  1.
</event>
<event>
 5   0  0.2713405E-07  0.4199665E+04  0.7818609E-02  0.7965436E-01
        1   -1    0    0  501    0  0.00000000000E+00  0.00000000000E+00  0.18675413308E+04  0.18675413308E+04  0.50400001928E-02 0. -1.
       -1   -1    0    0    0  501  0.00000000000E+00  0.00000000000E+00 -0.23610167019E+04  0.23610167019E+04  0.50400001928E-02 0.  1.
    10030    2    1    2    0    0  0.00000000000E+00  0.00000000000E+00 -0.49347537113E+03  0.42285580327E+04  0.41996648787E+04 0.  0.
        1    1    3    3  502    0 -0.72456580766E+03  0.15549094708E+03  0.17314989638E+04  0.18834175602E+04  0.50400001928E-02 0. -1.
       -1    1    3    3    0  502  0.72456580766E+03 -0.15549094708E+03 -0.22249743350E+04  0.23451404725E+04  0.50400001928E-02 0.  1.
</event>
<event>
 5   0  0.2601252E-07  0.4072980E+04  0.7818609E-02  0.7989984E-01
        1   -1    0    0  501    0  0.00000000000E+00  0.00000000000E+00  0.13325294890E+04  0.13325294891E+04  0.50400001928E-02 0. -1.
       -1   -1    0    0    0  501  0.00000000000E+00  0.00000000000E+00 -0.31123453445E+04  0.31123453445E+04  0.50400001928E-02 0.  1.
    10030    2    1    2    0    0  0.00000000000E+00  0.00000000000E+00 -0.17798158555E+04  0.44448748336E+04  0.40729802119E+04 0.  0.
        3    1    3    3  502    0  0.13548988679E+03 -0.18399242741E+04 -0.18309753755E+04  0.25992594483E+04  0.10100000352E+00 0.  1.
       -3    1    3    3    0  502 -0.13548988679E+03  0.18399242741E+04  0.51159520032E+02  0.18456153853E+04  0.10100000352E+00 0. -1.
</event>
<event>
 5   0  0.2713405E-07  0.4015315E+04  0.7818609E-02  0.8001464E-01
        1   -1    0    0  501    0  0.00000000000E+00  0.00000000000E+00  0.25554481548E+04  0.25554481548E+04  0.50400001928E-02 0.  1.
       -1   -1    0    0    0  501  0.00000000000E+00  0.00000000000E+00 -0.15772926146E+04  0.15772926146E+04  0.50400001928E-02 0. -1.
    10030    2    1    2    0    0  0.00000000000E+00  0.00000000000E+00  0.97815554015E+03  0.41327407694E+04  0.40153154305E+04 0.  0.
        1    1    3    3  502    0  0.63614417282E+03 -0.32587242048E+03  0.24200612354E+04  0.25234041741E+04  0.50400001928E-02 0.  1.
       -1    1    3    3    0  502 -0.63614417282E+03  0.32587242048E+03 -0.14419056952E+04  0.16093365953E+04  0.50400001928E-02 0. -1.
</event>
<event>
 5   0  0.2401125E-07  0.2508047E+04  0.7818609E-02  0.8400124E-01
        1   -1    0    0  501    0  0.00000000000E+00  0.00000000000E+00  0.10865208959E+04  0.10865208959E+04  0.50400001928E-02 0.  1.
       -1   -1    0    0    0  501  0.00000000000E+00  0.00000000000E+00 -0.14473490255E+04  0.14473490255E+04  0.50400001928E-02 0. -1.
    10030    2    1    2    0    0  0.00000000000E+00  0.00000000000E+00 -0.36082812954E+03  0.25338699214E+04  0.25080470170E+04 0.  0.
        5    1    3    3  502    0  0.10576847894E+04  0.49489297265E+03 -0.64221627790E+03  0.13326965167E+04  0.46999998093E+01 0. -1.
       -5    1    3    3    0  502 -0.10576847894E+04 -0.49489297265E+03  0.28138814836E+03  0.12011734047E+04  0.46999998093E+01 0.  1.
</event>
<event>
 5   0  0.5161550E-07  0.3739729E+04  0.7818609E-02  0.8059214E-01
       -2   -1    0    0    0  501  0.00000000000E+00  0.00000000000E+00  0.19992052120E+04  0.19992052120E+04  0.25500000920E-02 0.  1.
        2   -1    0    0  501    0  0.00000000000E+00  0.00000000000E+00 -0.17488914987E+04  0.17488914987E+04  0.25500000920E-02 0. -1.
    10030    2    1    2    0    0  0.00000000000E+00  0.00000000000E+00  0.25031371336E+03  0.37480967107E+04  0.37397288669E+04 0.  0.
        2    1    3    3  502    0  0.16472999041E+04  0.73318175118E+03  0.62148260716E+03  0.19071950832E+04  0.25500000920E-02 0.  1.
       -2    1    3    3    0  502 -0.16472999041E+04 -0.73318175118E+03 -0.37116889381E+03  0.18409016275E+04  0.25500000920E-02 0. -1.
</event>
<event>
 5   0  0.2713405E-07  0.2515301E+04  0.7818609E-02  0.8397555E-01
       -1   -1    0    0    0  501  0.00000000000E+00  0.00000000000E+00  0.11435439020E+04  0.11435439020E+04  0.50400001928E-02 0. -1.
        1   -1    0    0  501    0  0.00000000000E+00  0.00000000000E+00 -0.13831432213E+04  0.13831432213E+04  0.50400001928E-02 0.  1.
    10030    2    1    2    0    0  0.00000000000E+00  0.00000000000E+00 -0.23959931929E+03  0.25266871233E+04  0.25153011719E+04 0.  0.
        1    1    3    3  502    0 -0.45389908872E+03 -0.10047088436E+04 -0.72770078811E+03  0.13209892809E+04  0.50400001928E-02 0.  1.
       -1    1    3    3    0  502  0.45389908872E+03  0.10047088436E+04  0.48810146882E+03  0.12056978424E+04  0.50400001928E-02 0. -1.
</event>
<event>
 5   0  0.4449262E-07  0.4111677E+04  0.7818609E-02  0.7982389E-01
        2   -1    0    0  501    0  0.00000000000E+00  0.00000000000E+00  0.27891949939E+04  0.27891949939E+04  0.25500000920E-02 0. -1.
       -2   -1    0    0    0  501  0.00000000000E+00  0.00000000000E+00 -0.15153016562E+04  0.15153016562E+04  0.25500000920E-02 0.  1.
    10030    2    1    2    0    0  0.00000000000E+00  0.00000000000E+00  0.12738933377E+04  0.43044966501E+04  0.41116769298E+04 0.  0.
        1    1    3    3  502    0 -0.10333888883E+04  0.11775319383E+04 -0.75664317314E+03  0.17398226782E+04  0.50400001928E-02 0.  1.
       -1    1    3    3    0  502  0.10333888883E+04 -0.11775319383E+04  0.20305365109E+04  0.25646739719E+04  0.50400001928E-02 0. -1.
</event>
<event>
 5   0  0.7256473E-07  0.2742734E+04  0.7818609E-02  0.8321271E-01
        2   -1    0    0  501    0  0.00000000000E+00  0.00000000000E+00  0.17628350372E+04  0.17628350372E+04  0.25500000920E-02 0.  1.
       -2   -1    0    0    0  501  0.00000000000E+00  0.00000000000E+00 -0.10668316049E+04  0.10668316049E+04  0.25500000920E-02 0. -1.
    10030    2    1    2    0    0  0.00000000000E+00  0.00000000000E+00  0.69600343231E+03  0.28296666422E+04  0.27427344983E+04 0.  0.
        4    1    3    3  502    0  0.43901658292E+02 -0.85444415331E+03  0.14537195054E+04  0.16868029464E+04  0.12699999809E+01 0.  1.
       -4    1    3    3    0  502 -0.43901658292E+02  0.85444415331E+03 -0.75771607310E+03  0.11428636957E+04  0.12699999809E+01 0. -1.
</event>
<event>
 5   0  0.2601252E-07  0.2797352E+04  0.7818609E-02  0.8304091E-01
       -1   -1    0    0    0  501  0.00000000000E+00  0.00000000000E+00  0.13230196122E+04  0.13230196122E+04  0.50400001928E-02 0.  1.
        1   -1    0    0  501    0  0.00000000000E+00  0.00000000000E+00 -0.14786588284E+04  0.14786588284E+04  0.50400001928E-02 0. -1.
    10030    2    1    2    0    0  0.00000000000E+00  0.00000000000E+00 -0.15563921622E+03  0.28016784406E+04  0.27973520548E+04 0.  0.
        3    1    3    3  502    0  0.82004169396E+03 -0.99719905198E+03 -0.61662960960E+03  0.14307712657E+04  0.10100000352E+00 0. -1.
       -3    1    3    3    0  502 -0.82004169396E+03  0.99719905198E+03  0.46099039338E+03  0.13709071749E+04  0.10100000352E+00 0.  1.
</event>
<event>
 5   0  0.4449262E-07  0.2640711E+04  0.7818609E-02  0.8354503E-01
       -2   -1    0    0    0  501  0.00000000000E+00  0.00000000000E+00  0.72654428029E+03  0.72654428030E+03  0.25500000920E-02 0. -1.
        2   -1    0    0  501    0  0.00000000000E+00  0.00000000000E+00 -0.23994940109E+04  0.23994940109E+04  0.25500000920E-02 0.  1.
    10030    2    1    2    0    0  0.00000000000E+00  0.00000000000E+00 -0.16729497306E+04  0.31260382912E+04  0.26407110021E+04 0.  0.
        1    1    3    3  502    0  0.99636974358E+03 -0.64270194648E+02 -0.18592386201E+04  0.21103676387E+04  0.50400001928E-02 0.  1.
       -1    1    3    3    0  502 -0.99636974358E+03  0.64270194648E+02  0.18628888957E+03  0.10156706525E+04  0.50400001928E-02 0. -1.
</event>
<event>
 5   0  0.4449262E-07  0.3960480E+04  0.7818609E-02  0.8012567E-01
       -2   -1    0    0    0  501  0.00000000000E+00  0.00000000000E+00  0.17590796619E+04  0.17590796619E+04  0.25500000920E-02 0.  1.
        2   -1    0    0  501    0  0.00000000000E+00  0.00000000000E+00 -0.22292056432E+04  0.22292056432E+04  0.25500000920E-02 0. -1.
    10030    2    1    2    0    0  0.00000000000E+00  0.00000000000E+00 -0.47012598123E+03  0.39882853051E+04  0.39604799250E+04 0.  0.
        1    1    3    3  502    0 -0.21315055497E+03  0.13474051169E+04 -0.16805557556E+04  0.21645325952E+04  0.50400001928E-02 0. -1.
       -1    1    3    3    0  502  0.21315055497E+03 -0.13474051169E+04  0.12104297744E+04  0.18237527099E+04  0.50400001928E-02 0.  1.
</event>
<event>
 5   0  0.7570277E-07  0.3972218E+04  0.7818609E-02  0.8010175E-01
        2   -1    0    0  501    0  0.00000000000E+00  0.00000000000E+00  0.25563036394E+04  0.25563036394E+04  0.25500000920E-02 0. -1.
       -2   -1    0    0    0  501  0.00000000000E+00  0.00000000000E+00 -0.15430989626E+04  0.15430989626E+04  0.25500000920E-02 0.  1.
    10030    2    1    2    0    0  0.00000000000E+00  0.00000000000E+00  0.10132046768E+04  0.40994026019E+04  0.39722182689E+04 0.  0.
        5    1    3    3  502    0 -0.19603579576E+04  0.29477527307E+03  0.63177737467E+03  0.20806394509E+04  0.46999998093E+01 0.  1.
       -5    1    3    3    0  502  0.19603579576E+04 -0.29477527307E+03  0.38142730211E+03  0.20187631511E+04  0.46999998093E+01 0. -1.
</event>
<event>
 5   0  0.2601252E-07  0.4153471E+04  0.7818609E-02  0.7974282E-01
       -1   -1    0    0    0  501  0.00000000000E+00  0.00000000000E+00  0.13250266780E+04  0.13250266781E+04  0.50400001928E-02 0.  1.
        1   -1    0    0  501    0  0.00000000000E+00  0.00000000000E+00 -0.32549010347E+04  0.32549010347E+04  0.50400001928E-02 0. -1.
    10030    2    1    2    0    0  0.00000000000E+00  0.00000000000E+00 -0.19298743567E+04  0.45799277128E+04  0.41534711774E+04 0.  0.
        3    1    3    3  502    0  0.15727028208E+04 -0.57164004042E+03 -0.23211213964E+04  0.28614281479E+04  0.10100000352E+00 0. -1.
       -3    1    3    3    0  502 -0.15727028208E+04  0.57164004042E+03  0.39124703969E+03  0.17184995649E+04  0.10100000352E+00 0.  1.
</event>
<event>
 5   0  0.3579559E-07  0.2273889E+04  0.7818609E-02  0.8488288E-01
       -1   -1    0    0    0  501  0.00000000000E+00  0.00000000000E+00  0.51699156976E+03  0.51699156979E+03  0.50400001928E-02 0. -1.
        1   -1    0    0  501    0  0.00000000000E+00  0.00000000000E+00 -0.25003168821E+04  0.25003168821E+04  0.50400001928E-02 0.  1.
    10030    2    1    2    0    0  0.00000000000E+00  0.00000000000E+00 -0.19833253124E+04  0.30173084519E+04  0.22738889593E+04 0.  0.
        4    1    3    3  502    0 -0.78162325474E+03  0.19541244031E+03 -0.20561280555E+04  0.22083444314E+04  0.12699999809E+01 0.  1.
       -4    1    3    3    0  502  0.78162325474E+03 -0.19541244031E+03  0.72802743142E+02  0.80896402052E+03  0.12699999809E+01 0. -1.
</event>
<event>
 5   0  0.6043512E-07  0.3080337E+04  0.7818609E-02  0.8221155E-01
       -2   -1    0    0    0  501  0.00000000000E+00  0.00000000000E+00  0.15932773146E+04  0.15932773146E+04  0.25500000920E-02 0. -1.
        2   -1    0    0  501    0  0.00000000000E+00  0.00000000000E+00 -0.14888300063E+04  0.14888300063E+04  0.25500000920E-02 0.  1.
    10030    2    1    2    0    0  0.00000000000E+00  0.00000000000E+00  0.10444730825E+03  0.30821073209E+04  0.30803370428E+04 0.  0.
        3    1    3    3  502    0  0.10141687774E+03 -0.78017373020E+03  0.13770550794E+04  0.15859499154E+04  0.10100000352E+00 0. -1.
       -3    1    3    3    0  502 -0.10141687774E+03  0.78017373020E+03 -0.12726077712E+04  0.14961574054E+04  0.10100000352E+00 0.  1.
</event>
<event>
 5   0  0.4449262E-07  0.3141953E+04  0.7818609E-02  0.8204318E-01
       -2   -1    0    0    0  501  0.00000000000E+00  0.00000000000E+00  0.21301264616E+04  0.21301264616E+04  0.25500000920E-02 0.  1.
        2   -1    0    0  501    0  0.00000000000E+00  0.00000000000E+00 -0.11586012118E+04  0.11586012118E+04  0.25500000920E-02 0. -1.
    10030    2    1    2    0    0  0.00000000000E+00  0.00000000000E+00  0.97152524986E+03  0.32887276734E+04  0.31419529593E+04 0.  0.
        1    1    3    3  502    0 -0.15605367319E+03  0.67636277271E+03  0.19609052437E+04  0.20801367080E+04  0.50400001928E-02 0.  1.
       -1    1    3    3    0  502  0.15605367319E+03 -0.67636277271E+03 -0.98937999387E+03  0.12085909653E+04  0.50400001928E-02 0. -1.
</event>
<event>
 5   0  0.5161550E-07  0.4039069E+04  0.7818609E-02  0.7996711E-01
        2   -1    0    0  501    0  0.00000000000E+00  0.00000000000E+00  0.16696872565E+04  0.16696872565E+04  0.25500000920E-02 0.  1.
       -2   -1    0    0    0  501  0.00000000000E+00  0.00000000000E+00 -0.24426844173E+04  0.24426844173E+04  0.25500000920E-02 0. -1.
    10030    2    1    2    0    0  0.00000000000E+00  0.00000000000E+00 -0.77299716079E+03  0.41123716738E+04  0.40390687259E+04 0.  0.
        2    1    3    3  502    0 -0.13295047054E+04  0.50630198755E+03  0.10729008927E+04  0.17818644140E+04  0.25500000920E-02 0.  1.
       -2    1    3    3    0  502  0.13295047054E+04 -0.50630198755E+03 -0.18458980535E+04  0.23305072598E+04  0.25500000920E-02 0. -1.
</event>
<event>
 5   0  0.4449262E-07  0.2119410E+04  0.7818609E-02  0.8552741E-01
       -2   -1    0    0    0  501  0.00000000000E+00  0.00000000000E+00  0.93412582021E+03  0.93412582022E+03  0.25500000920E-02 0. -1.
        2   -1    0    0  501    0  0.00000000000E+00  0.00000000000E+00 -0.12021664790E+04  0.12021664790E+04  0.25500000920E-02 0.  1.
    10030    2    1    2    0    0  0.00000000000E+00  0.00000000000E+00 -0.26804065882E+03  0.21362922993E+04  0.21194100578E+04 0.  0.
        1    1    3    3  502    0  0.16526182334E+03  0.29977262544E+03  0.87686390709E+03  0.94131047417E+03  0.50400001928E-02 0. -1.
       -1    1    3    3    0  502 -0.16526182334E+03 -0.29977262544E+03 -0.11449045659E+04  0.11949818251E+04  0.50400001928E-02 0.  1.
</event>
<event>
 5   0  0.2601252E-07  0.3850101E+04  0.7818609E-02  0.8035488E-01
        1   -1    0    0  501    0  0.00000000000E+00  0.00000000000E+00  0.19890748740E+04  0.19890748740E+04  0.50400001928E-02 0. -1.
       -1   -1    0    0    0  501  0.00000000000E+00  0.00000000000E+00 -0.18630874140E+04  0.18630874140E+04  0.50400001928E-02 0.  1.
    10030    2    1    2    0    0  0.00000000000E+00  0.00000000000E+00  0.12598745997E+03  0.38521622880E+04  0.38501014861E+04 0.  0.
        3    1    3    3  502    0 -0.89036575368E+03 -0.10115459458E+04 -0.13124580617E+04  0.18810961032E+04  0.10100000352E+00 0. -1.
       -3    1    3    3    0  502  0.89036575368E+03  0.10115459458E+04  0.14384455217E+04  0.19710661848E+04  0.10100000352E+00 0.  1.
</event>
<event>
 5   0  0.2647879E-07  0.4043499E+04  0.7818609E-02  0.7995828E-01
        1   -1    0    0  501    0  0.00000000000E+00  0.00000000000E+00  0.24122072926E+04  0.24122072926E+04  0.50400001928E-02 0. -1.
       -1   -1    0    0    0  501  0.00000000000E+00  0.00000000000E+00 -0.16944942103E+04  0.16944942103E+04  0.50400001928E-02 0.  1.
    10030    2    1    2    0    0  0.00000000000E+00  0.00000000000E+00  0.71771308234E+03  0.41067015029E+04  0.40434991239E+04 0.  0.
        2    1    3    3  502    0  0.12492112513E+04 -0.11811847326E+04  0.14393200615E+04  0.22421793778E+04  0.25500000920E-02 0. -1.
       -2    1    3    3    0  502 -0.12492112513E+04  0.11811847326E+04 -0.72160697916E+03  0.18645221251E+04  0.25500000920E-02 0.  1.
</event>
<event>
 5   0  0.2601252E-07  0.3269201E+04  0.7818609E-02  0.8170777E-01
        1   -1    0    0  501    0  0.00000000000E+00  0.00000000000E+00  0.20598881362E+04  0.20598881362E+04  0.50400001928E-02 0.  1.
       -1   -1    0    0    0  501  0.00000000000E+00  0.00000000000E+00 -0.12971186965E+04  0.12971186965E+04  0.50400001928E-02 0. -1.
    10030    2    1    2    0    0  0.00000000000E+00  0.00000000000E+00  0.76276943973E+03  0.33570068327E+04  0.32692013790E+04 0.  0.
        3    1    3    3  502    0 -0.69996581058E+03  0.34934879845E+03  0.18551760993E+04  0.20133740558E+04  0.10100000352E+00 0.  1.
       -3    1    3    3    0  502  0.69996581058E+03 -0.34934879845E+03 -0.10924066596E+04  0.13436327769E+04  0.10100000352E+00 0. -1.
</event>
<event>
 5   0  0.2647879E-07  0.2152329E+04  0.7818609E-02  0.8538536E-01
        1   -1    0    0  501    0  0.00000000000E+00  0.00000000000E+00  0.11870035053E+04  0.11870035053E+04  0.50400001928E-02 0.  1.
       -1   -1    0    0    0  501  0.00000000000E+00  0.00000000000E+00 -0.97567510032E+03  0.97567510033E+03  0.50400001928E-02 0. -1.
    10030    2    1    2    0    0  0.00000000000E+00  0.00000000000E+00  0.21132840493E+03  0.21626786056E+04  0.21523287519E+04 0.  0.
        2    1    3    3  502    0  0.40261524464E+03 -0.75373049731E+03  0.76296659073E+03  0.11455682941E+04  0.25500000920E-02 0.  1.
       -2    1    3    3    0  502 -0.40261524464E+03  0.75373049731E+03 -0.55163818579E+03  0.10171103115E+04  0.25500000920E-02 0. -1.
</event>
<event>
 5   0  0.4449262E-07  0.3700949E+04  0.7818609E-02  0.8067752E-01
        2   -1    0    0  501    0  0.00000000000E+00  0.00000000000E+00  0.19272945210E+04  0.19272945210E+04  0.25500000920E-02 0.  1.
       -2   -1    0    0    0  501  0.00000000000E+00  0.00000000000E+00 -0.17767165516E+04  0.17767165516E+04  0.25500000920E-02 0. -1.
    10030    2    1    2    0    0  0.00000000000E+00  0.00000000000E+00  0.15057796935E+03  0.37040110726E+04  0.37009491081E+04 0.  0.
        1    1    3    3  502    0  0.10631589271E+04  0.78855032835E+03 -0.12188924427E+04  0.17993935955E+04  0.50400001928E-02 0. -1.
       -1    1    3    3    0  502 -0.10631589271E+04 -0.78855032835E+03  0.13694704120E+04  0.19046174771E+04  0.50400001928E-02 0.  1.
</event>
<event>
 5   0  0.2713405E-07  0.2973155E+04  0.7818609E-02  0.8251438E-01
       -1   -1    0    0    0  501  0.00000000000E+00  0.00000000000E+00  0.12015534424E+04  0.12015534424E+04  0.50400001928E-02 0. -1.
        1   -1    0    0  501    0  0.00000000000E+00  0.00000000000E+00 -0.18392130255E+04  0.18392130255E+04  0.50400001928E-02 0.  1.
    10030    2    1    2    0    0  0.00000000000E+00  0.00000000000E+00 -0.63765958310E+03  0.30407664678E+04  0.29731550528E+04 0.  0.
        1    1    3    3  502    0 -0.18157775111E+02  0.89103175178E+03  0.89803621225E+03  0.12652020890E+04  0.50400001928E-02 0. -1.
       -1    1    3    3    0  502  0.18157775111E+02 -0.89103175178E+03 -0.15356957954E+04  0.17755643788E+04  0.50400001928E-02 0.  1.
</event>
<event>
 5   0  0.6043512E-07  0.3965066E+04  0.7818609E-02  0.8011631E-01
       -2   -1    0    0    0  501  0.00000000000E+00  0.00000000000E+00  0.25061017860E+04  0.25061017860E+04  0.25500000920E-02 0. -1.
        2   -1    0    0  501    0  0.00000000000E+00  0.00000000000E+00 -0.15683472167E+04  0.15683472167E+04  0.25500000920E-02 0.  1.
    10030    2    1    2    0    0  0.00000000000E+00  0.00000000000E+00  0.93775456929E+03  0.40744490028E+04  0.39650663354E+04 0.  0.
        3    1    3    3  502    0 -0.49980821037E+03  0.18606792394E+04 -0.11460120158E+02  0.19266724744E+04  0.10100000352E+00 0. -1.
       -3    1    3    3    0  502  0.49980821037E+03 -0.18606792394E+04  0.94921468944E+03  0.21477765284E+04  0.10100000352E+00 0.  1.
</event>
<event>
 5   0  0.4449262E-07  0.2691184E+04  0.7818609E-02  0.8337871E-01
        2   -1    0    0  501    0  0.00000000000E+00  0.00000000000E+00  0.95097905763E+03  0.95097905763E+03  0.25500000920E-02 0.  1.
       -2   -1    0    0    0  501  0.00000000000E+00  0.00000000000E+00 -0.19039519049E+04  0.19039519049E+04  0.25500000920E-02 0. -1.
    10030    2    1    2    0    0  0.00000000000E+00  0.00000000000E+00 -0.95297284726E+03  0.28549309625E+04  0.26911844146E+04 0.  0.
        1    1    3    3  502    0  0.11148631182E+04 -0.51628307653E+03  0.10567560384E+03  0.12331404303E+04  0.50400001928E-02 0.  1.
       -1    1    3    3    0  502 -0.11148631182E+04  0.51628307653E+03 -0.10586484511E+04  0.16217905323E+04  0.50400001928E-02 0. -1.
</event>
<event>
 5   0  0.2713405E-07  0.2064715E+04  0.7818609E-02  0.8576948E-01
        1   -1    0    0  501    0  0.00000000000E+00  0.00000000000E+00  0.14770382392E+04  0.14770382392E+04  0.50400001928E-02 0.  1.
       -1   -1    0    0    0  501  0.00000000000E+00  0.00000000000E+00 -0.72155323267E+03  0.72155323268E+03  0.50400001928E-02 0. -1.
    10030    2    1    2    0    0  0.00000000000E+00  0.00000000000E+00  0.75548500648E+03  0.21985914718E+04  0.20647147176E+04 0.  0.
        1    1    3    3  502    0 -0.69198926473E+03  0.51891804843E+03 -0.22239363210E+03  0.89307559093E+03  0.50400001928E-02 0. -1.
       -1    1    3    3    0  502  0.69198926473E+03 -0.51891804843E+03  0.97787863858E+03  0.13055158809E+04  0.50400001928E-02 0.  1.
</event>
<event>
 5   0  0.7256473E-07  0.3701551E+04  0.7818609E-02  0.8067618E-01
       -2   -1    0    0    0  501  0.00000000000E+00  0.00000000000E+00  0.30805152264E+04  0.30805152264E+04  0.25500000920E-02 0.  1.
        2   -1    0    0  501    0  0.00000000000E+00  0.00000000000E+00 -0.11119472012E+04  0.11119472012E+04  0.25500000920E-02 0. -1.
    10030    2    1    2    0    0  0.00000000000E+00  0.00000000000E+00  0.19685680252E+04  0.41924624276E+04  0.37015511799E+04 0.  0.
        4    1    3    3  502    0 -0.48822190398E+03  0.12816655113E+04 -0.42324417281E+03  0.14353272634E+04  0.12699999809E+01 0. -1.
       -4    1    3    3    0  502  0.48822190398E+03 -0.12816655113E+04  0.23918121980E+04  0.27571351642E+04  0.12699999809E+01 0.  1.
</event>
<event>
 5   0  0.6043512E-07  0.2356996E+04  0.7818609E-02  0.8455781E-01
        2   -1    0    0  501    0  0.00000000000E+00  0.00000000000E+00  0.13456498987E+04  0.13456498987E+04  0.25500000920E-02 0. -1.
       -2   -1    0    0    0  501  0.00000000000E+00  0.00000000000E+00 -0.10321088384E+04  0.10321088384E+04  0.25500000920E-02 0.  1.
    10030    2    1    2    0    0  0.00000000000E+00  0.00000000000E+00  0.31354106034E+03  0.23777587370E+04  0.23569956757E+04 0.  0.
        3    1    3    3  502    0 -0.89413297269E+03  0.51202584199E+03 -0.42029377849E+03  0.11127852920E+04  0.10100000352E+00 0.  1.
       -3    1    3    3    0  502  0.89413297269E+03 -0.51202584199E+03  0.73383483883E+03  0.12649734450E+04  0.10100000352E+00 0. -1.
</event>
<event>
 5   0  0.7570277E-07  0.2532423E+04  0.7818609E-02  0.8391525E-01
       -2   -1    0    0    0  501  0.00000000000E+00  0.00000000000E+00  0.17563615217E+04  0.17563615217E+04  0.25500000920E-02 0.  1.
        2   -1    0    0  501    0  0.00000000000E+00  0.00000000000E+00 -0.91284817406E+03  0.91284817406E+03  0.25500000920E-02 0. -1.
    10030    2    1    2    0    0  0.00000000000E+00  0.00000000000E+00  0.84351334769E+03  0.26692096958E+04  0.25324228779E+04 0.  0.
        5    1    3    3  502    0  0.46926556945E+02 -0.52972821438E+02  0.17542662219E+04  0.17556993732E+04  0.46999998093E+01 0.  1.
       -5    1    3    3    0  502 -0.46926556945E+02  0.52972821438E+02 -0.91075287426E+03  0.91351032262E+03  0.46999998093E+01 0. -1.
</event>
<event>
 5   0  0.2647879E-07  0.3376073E+04  0.7818609E-02  0.8143804E-01
        1   -1    0    0  501    0  0.00000000000E+00  0.00000000000E+00  0.22871160527E+04  0.22871160527E+04  0.50400001928E-02 0.  1.
       -1   -1    0    0    0  501  0.00000000000E+00  0.00000000000E+00 -0.12458781065E+04  0.12458781065E+04  0.50400001928E-02 0. -1.
    10030    2    1    2    0    0  0.00000000000E+00  0.00000000000E+00  0.10412379462E+04  0.35329941592E+04  0.33760733506E+04 0.  0.
        2    1    3    3  502    0  0.48022967113E+03  0.12668399766E+04 -0.53314236601E+03  0.14559343549E+04  0.25500000920E-02 0. -1.
       -2    1    3    3    0  502 -0.48022967113E+03 -0.12668399766E+04  0.15743803122E+04  0.20770598044E+04  0.25500000920E-02 0.  1.
</event>
<event>
 5   0  0.2713405E-07  0.2814721E+04  0.7818609E-02  0.8298713E-01
       -1   -1    0    0    0  501  0.00000000000E+00  0.00000000000E+00  0.16479193888E+04  0.16479193889E+04  0.50400001928E-02 0. -1.
        1   -1    0    0  501    0  0.00000000000E+00  0.00000000000E+00 -0.12019177179E+04  0.12019177179E+04  0.50400001928E-02 0.  1.
    10030    2    1    2    0    0  0.00000000000E+00  0.00000000000E+00  0.44600167095E+03  0.28498371068E+04  0.28147209532E+04 0.  0.
        1    1    3    3  502    0 -0.12043861490E+04  0.10156459314E+03  0.95296867394E+03  0.15391590743E+04  0.50400001928E-02 0. -1.
       -1    1    3    3    0  502  0.12043861490E+04 -0.10156459314E+03 -0.50696700299E+03  0.13106780324E+04  0.50400001928E-02 0.  1.
</event>
<event>
 5   0  0.3087751E-07  0.1987907E+04  0.7818609E-02  0.8612296E-01
       -1   -1    0    0    0  501  0.00000000000E+00  0.00000000000E+00  0.10706102553E+04  0.10706102554E+04  0.50400001928E-02 0. -1.
        1   -1    0    0  501    0  0.00000000000E+00  0.00000000000E+00 -0.92278527537E+03  0.92278527538E+03  0.50400001928E-02 0.  1.
    10030    2    1    2    0    0  0.00000000000E+00  0.00000000000E+00  0.14782497998E+03  0.19933955307E+04  0.19879068181E+04 0.  0.
        3    1    3    3  502    0 -0.48396731537E+03  0.29634620131E+03  0.89219127430E+03  0.10573791721E+04  0.10100000352E+00 0. -1.
       -3    1    3    3    0  502  0.48396731537E+03 -0.29634620131E+03 -0.74436629433E+03  0.93601635867E+03  0.10100000352E+00 0.  1.
</event>
<event>
 5   0  0.4449262E-07  0.4020317E+04  0.7818609E-02  0.8000460E-01
        2   -1    0    0  501    0  0.00000000000E+00  0.00000000000E+00  0.22224048675E+04  0.22224048675E+04  0.25500000920E-02 0.  1.
       -2   -1    0    0    0  501  0.00000000000E+00  0.00000000000E+00 -0.18181825725E+04  0.18181825725E+04  0.25500000920E-02 0. -1.
    10030    2    1    2    0    0  0.00000000000E+00  0.00000000000E+00  0.40422229501E+03  0.40405874399E+04  0.40203173004E+04 0.  0.
        1    1    3    3  502    0  0.18409666320E+04  0.70574730659E+02 -0.60605684851E+03  0.19394442081E+04  0.50400001928E-02 0. -1.
       -1    1    3    3    0  502 -0.18409666320E+04 -0.70574730659E+02  0.10102791435E+04  0.21011432318E+04  0.50400001928E-02 0.  1.
</event>
<event>
 5   0  0.3579559E-07  0.3933392E+04  0.7818609E-02  0.8018120E-01
       -1   -1    0    0    0  501  0.00000000000E+00  0.00000000000E+00  0.14186333342E+04  0.14186333342E+04  0.50400001928E-02 0.  1.
        1   -1    0    0  501    0  0.00000000000E+00  0.00000000000E+00 -0.27264918161E+04  0.27264918162E+04  0.50400001928E-02 0. -1.
    10030    2    1    2    0    0  0.00000000000E+00  0.00000000000E+00 -0.13078584820E+04  0.41451251503E+04  0.39333915014E+04 0.  0.
        4    1    3    3  502    0 -0.79243544069E+03  0.98429210642E+03 -0.22420705578E+04  0.25736485536E+04  0.12699999809E+01 0. -1.
       -4    1    3    3    0  502  0.79243544069E+03 -0.98429210642E+03  0.93421207584E+03  0.15714765967E+04  0.12699999809E+01 0.  1.
</event>
<event>
 5   0  0.4449262E-07  0.3970149E+04  0.7818609E-02  0.8010596E-01
       -2   -1    0    0    0  501  0.00000000000E+00  0.00000000000E+00  0.19836684963E+04  0.19836684963E+04  0.25500000920E-02 0. -1.
        2   -1    0    0  501    0  0.00000000000E+00  0.00000000000E+00 -0.19864815111E+04  0.19864815111E+04  0.25500000920E-02 0.  1.
    10030    2    1    2    0    0  0.00000000000E+00  0.00000000000E+00 -0.28130148019E+01  0.39701500075E+04  0.39701490109E+04 0.  0.
        1    1    3    3  502    0  0.10684753885E+03  0.13191298839E+04 -0.14809340820E+04  0.19861233100E+04  0.50400001928E-02 0.  1.
       -1    1    3    3    0  502 -0.10684753885E+03 -0.13191298839E+04  0.14781210672E+04  0.19840266975E+04  0.50400001928E-02 0. -1.
</event>
<event>
 5   0  0.2713405E-07  0.4159185E+04  0.7818609E-02  0.7973182E-01
        1   -1    0    0  501    0  0.00000000000E+00  0.00000000000E+00  0.21274767640E+04  0.21274767640E+04  0.50400001928E-02 0. -1.
       -1   -1    0    0    0  501  0.00000000000E+00  0.00000000000E+00 -0.20327858340E+04  0.20327858340E+04  0.50400001928E-02 0.  1.
    10030    2    1    2    0    0  0.00000000000E+00  0.00000000000E+00  0.94690929979E+02  0.41602625980E+04  0.41591848375E+04 0.  0.
        1    1    3    3  502    0 -0.85646791782E+03  0.55867289919E+03 -0.17639390331E+04  0.20389050039E+04  0.50400001928E-02 0.  1.
       -1    1    3    3    0  502  0.85646791782E+03 -0.55867289919E+03  0.18586299631E+04  0.21213575941E+04  0.50400001928E-02 0. -1.
</event>
<event>
 5   0  0.7570277E-07  0.2308408E+04  0.7818609E-02  0.8474613E-01
        2   -1    0    0  501    0  0.00000000000E+00  0.00000000000E+00  0.14541668406E+04  0.14541668406E+04  0.25500000920E-02 0.  1.
       -2   -1    0    0    0  501  0.00000000000E+00  0.00000000000E+00 -0.91611682924E+03  0.91611682924E+03  0.25500000920E-02 0. -1.
    10030    2    1    2    0    0  0.00000000000E+00  0.00000000000E+00  0.53805001138E+03  0.23702836699E+04  0.23084078628E+04 0.  0.
        5    1    3    3  502    0 -0.78924006845E+02 -0.82704493652E+03  0.10917077604E+04  0.13718892994E+04  0.46999998093E+01 0.  1.
       -5    1    3    3    0  502  0.78924006845E+02  0.82704493652E+03 -0.55365774899E+03  0.99839437042E+03  0.46999998093E+01 0. -1.
</event>
<event>
 5   0  0.2401125E-07  0.3644009E+04  0.7818609E-02  0.8080485E-01
        1   -1    0    0  501    0  0.00000000000E+00  0.00000000000E+00  0.11568089040E+04  0.11568089040E+04  0.50400001928E-02 0.  1.
       -1   -1    0    0    0  501  0.00000000000E+00  0.00000000000E+00 -0.28697054111E+04  0.28697054111E+04  0.50400001928E-02 0. -1.
    10030    2    1    2    0    0  0.00000000000E+00  0.00000000000E+00 -0.17128965071E+04  0.40265143151E+04  0.36440092049E+04 0.  0.
        5    1    3    3  502    0  0.14435656033E+04 -0.11039001303E+04 -0.10013699319E+04  0.20749074628E+04  0.46999998093E+01 0. -1.
       -5    1    3    3    0  502 -0.14435656033E+04  0.11039001303E+04 -0.71152657519E+03  0.19516068523E+04  0.46999998093E+01 0.  1.
</event>
<event>
 5   0  0.6043512E-07  0.3809998E+04  0.7818609E-02  0.8044013E-01
        2   -1    0    0  501    0  0.00000000000E+00  0.00000000000E+00  0.24772628812E+04  0.24772628812E+04  0.25500000920E-02 0.  1.
       -2   -1    0    0    0  501  0.00000000000E+00  0.00000000000E+00 -0.14649314711E+04  0.14649314711E+04  0.25500000920E-02 0. -1.
    10030    2    1    2    0    0  0.00000000000E+00  0.00000000000E+00  0.10123314101E+04  0.39421943523E+04  0.38099975626E+04 0.  0.
        3    1    3    3  502    0  0.41533429195E+03 -0.18494633222E+04  0.30983698324E+03  0.19206811606E+04  0.10100000352E+00 0. -1.
       -3    1    3    3    0  502 -0.41533429195E+03  0.18494633222E+04  0.70249442686E+03  0.20215131917E+04  0.10100000352E+00 0.  1.
</event>
<event>
 5   0  0.6043512E-07  0.4083865E+04  0.7818609E-02  0.7987839E-01
        2   -1    0    0  501    0  0.00000000000E+00  0.00000000000E+00  0.20994612660E+04  0.20994612660E+04  0.25500000920E-02 0. -1.
       -2   -1    0    0    0  501  0.00000000000E+00  0.00000000000E+00 -0.19859798490E+04  0.19859798490E+04  0.25500000920E-02 0.  1.
    10030    2    1    2    0    0  0.00000000000E+00  0.00000000000E+00  0.11348141699E+03  0.40854411150E+04  0.40838647226E+04 0.  0.
        3    1    3    3  502    0  0.11229871323E+04 -0.13595418011E+04  0.10867175356E+04  0.20713302539E+04  0.10100000352E+00 0. -1.
       -3    1    3    3    0  502 -0.11229871323E+04  0.13595418011E+04 -0.97323611860E+03  0.20141108611E+04  0.10100000352E+00 0.  1.
</event>
<event>
 5   0  0.6043512E-07  0.3927005E+04  0.7818609E-02  0.8019436E-01
       -2   -1    0    0    0  501  0.00000000000E+00  0.00000000000E+00  0.14075560525E+04  0.14075560525E+04  0.25500000920E-02 0. -1.
        2   -1    0    0  501    0  0.00000000000E+00  0.00000000000E+00 -0.27390326451E+04  0.27390326451E+04  0.25500000920E-02 0.  1.
    10030    2    1    2    0    0  0.00000000000E+00  0.00000000000E+00 -0.13314765926E+04  0.41465886976E+04  0.39270049542E+04 0.  0.
        3    1    3    3  502    0  0.58780298993E+03  0.13048636781E+04  0.75373707088E+03  0.16174984252E+04  0.10100000352E+00 0. -1.
       -3    1    3    3    0  502 -0.58780298993E+03 -0.13048636781E+04 -0.20852136635E+04  0.25290902724E+04  0.10100000352E+00 0.  1.
</event>
<event>
 5   0  0.2647879E-07  0.3912764E+04  0.7818609E-02  0.8022380E-01
        1   -1    0    0  501    0  0.00000000000E+00  0.00000000000E+00  0.29048051472E+04  0.29048051472E+04  0.50400001928E-02 0.  1.
       -1   -1    0    0    0  501  0.00000000000E+00  0.00000000000E+00 -0.13176205976E+04  0.13176205976E+04  0.50400001928E-02 0. -1.
    10030    2    1    2    0    0  0.00000000000E+00  0.00000000000E+00  0.15871845496E+04  0.42224257449E+04  0.39127642884E+04 0.  0.
        2    1    3    3  502    0  0.16622404976E+04 -0.10049115962E+04  0.54157104824E+03  0.20164796027E+04  0.25500000920E-02 0.  1.
       -2    1    3    3    0  502 -0.16622404976E+04  0.10049115962E+04  0.10456135014E+04  0.22059461422E+04  0.25500000920E-02 0. -1.
</event>
<event>
 5   0  0.2401125E-07  0.3335413E+04  0.7818609E-02  0.8153943E-01
       -3   -1    0    0    0  501  0.00000000000E+00  0.00000000000E+00  0.95547164210E+03  0.95547164744E+03  0.10100000352E+00 0.  1.
        3   -1    0    0  501    0  0.00000000000E+00  0.00000000000E+00 -0.29108607673E+04  0.29108607691E+04  0.10100000352E+00 0. -1.
    10030    2    1    2    0    0  0.00000000000E+00  0.00000000000E+00 -0.19553891252E+04  0.38663324165E+04  0.33354129765E+04 0.  0.
        1    1    3    3  502    0 -0.10152203191E+01  0.16626022239E+04 -0.11288226676E+04  0.20095989153E+04  0.50400001928E-02 0. -1.
       -1    1    3    3    0  502  0.10152203191E+01 -0.16626022239E+04 -0.82656645756E+03  0.18567335012E+04  0.50400001928E-02 0.  1.
</event>
<event>
 5   0  0.5161550E-07  0.2207241E+04  0.7818609E-02  0.8515420E-01
        2   -1    0    0  501    0  0.00000000000E+00  0.00000000000E+00  0.15421022237E+04  0.15421022237E+04  0.25500000920E-02 0. -1.
       -2   -1    0    0    0  501  0.00000000000E+00  0.00000000000E+00 -0.78981688956E+03  0.78981688956E+03  0.25500000920E-02 0.  1.
    10030    2    1    2    0    0  0.00000000000E+00  0.00000000000E+00  0.75228533412E+03  0.23319191132E+04  0.22072411574E+04 0.  0.
        2    1    3    3  502    0  0.10749649128E+04 -0.95268859770E+02  0.13211349647E+03  0.10872348851E+04  0.25500000920E-02 0. -1.
       -2    1    3    3    0  502 -0.10749649128E+04  0.95268859770E+02  0.62017183765E+03  0.12446842281E+04  0.25500000920E-02 0.  1.
</event>
<event>
 5   0  0.7448962E-07  0.2050186E+04  0.7818609E-02  0.8583510E-01
       -2   -1    0    0    0  501  0.00000000000E+00  0.00000000000E+00  0.75684159100E+03  0.75684159100E+03  0.25500000920E-02 0. -1.
        2   -1    0    0  501    0  0.00000000000E+00  0.00000000000E+00 -0.13884216666E+04  0.13884216666E+04  0.25500000920E-02 0.  1.
    10030    2    1    2    0    0  0.00000000000E+00  0.00000000000E+00 -0.63158007557E+03  0.21452632576E+04  0.20501856141E+04 0.  0.
        1    1    3    3  502    0  0.21060121487E+03  0.83350190144E+03  0.26843688806E+03  0.90063125323E+03  0.50400001928E-02 0. -1.
       -1    1    3    3    0  502 -0.21060121487E+03 -0.83350190144E+03 -0.90001696363E+03  0.12446320043E+04  0.50400001928E-02 0.  1.
</event>
<event>
 5   0  0.2713405E-07  0.3996311E+04  0.7818609E-02  0.8005291E-01
       -1   -1    0    0    0  501  0.00000000000E+00  0.00000000000E+00  0.20589788511E+04  0.20589788512E+04  0.50400001928E-02 0. -1.
        1   -1    0    0  501    0  0.00000000000E+00  0.00000000000E+00 -0.19391285487E+04  0.19391285487E+04  0.50400001928E-02 0.  1.
    10030    2    1    2    0    0  0.00000000000E+00  0.00000000000E+00  0.11985030242E+03  0.39981073999E+04  0.39963106343E+04 0.  0.
        1    1    3    3  502    0 -0.19651440670E+04  0.26066125244E+03 -0.19096474981E+03  0.19915328338E+04  0.50400001928E-02 0.  1.
       -1    1    3    3    0  502  0.19651440670E+04 -0.26066125244E+03  0.31081505223E+03  0.20065745661E+04  0.50400001928E-02 0. -1.
</event>
<event>
 5   0  0.4449262E-07  0.2082219E+04  0.7818609E-02  0.8569117E-01
        2   -1    0    0  501    0  0.00000000000E+00  0.00000000000E+00  0.22036284142E+04  0.22036284142E+04  0.25500000920E-02 0. -1.
       -2   -1    0    0    0  501  0.00000000000E+00  0.00000000000E+00 -0.49187484844E+03  0.49187484845E+03  0.25500000920E-02 0.  1.
    10030    2    1    2    0    0  0.00000000000E+00  0.00000000000E+00  0.17117535658E+04  0.26955032626E+04  0.20822193854E+04 0.  0.
        1    1    3    3  502    0  0.32762157922E+03 -0.98597054729E+02 -0.41702062456E+03  0.53941030738E+03  0.50400001928E-02 0.  1.
       -1    1    3    3    0  502 -0.32762157922E+03  0.98597054729E+02  0.21287741903E+04  0.21560929553E+04  0.50400001928E-02 0. -1.
</event>
<event>
 5   0  0.2647879E-07  0.2136308E+04  0.7818609E-02  0.8545416E-01
       -1   -1    0    0    0  501  0.00000000000E+00  0.00000000000E+00  0.15868746176E+04  0.15868746176E+04  0.50400001928E-02 0. -1.
        1   -1    0    0  501    0  0.00000000000E+00  0.00000000000E+00 -0.71899407473E+03  0.71899407474E+03  0.50400001928E-02 0.  1.
    10030    2    1    2    0    0  0.00000000000E+00  0.00000000000E+00  0.86788054290E+03  0.23058686924E+04  0.21363084491E+04 0.  0.
        2    1    3    3  502    0  0.91369598437E+03  0.29174400155E+03  0.94135761832E+03  0.13439155777E+04  0.25500000920E-02 0. -1.
       -2    1    3    3    0  502 -0.91369598437E+03 -0.29174400155E+03 -0.73477075427E+02  0.96195311471E+03  0.25500000920E-02 0.  1.
</event>
<event>
 5   0  0.6043512E-07  0.4248051E+04  0.7818609E-02  0.7956294E-01
        2   -1    0    0  501    0  0.00000000000E+00  0.00000000000E+00  0.16310750263E+04  0.16310750263E+04  0.25500000920E-02 0. -1.
       -2   -1    0    0    0  501  0.00000000000E+00  0.00000000000E+00 -0.27659574962E+04  0.27659574962E+04  0.25500000920E-02 0.  1.
    10030    2    1    2    0    0  0.00000000000E+00  0.00000000000E+00 -0.11348824700E+04  0.43970325225E+04  0.42480509393E+04 0.  0.
        3    1    3    3  502    0 -0.98920904387E+03 -0.18793048390E+04 -0.53214281982E+03  0.21894056730E+04  0.10100000352E+00 0.  1.
       -3    1    3    3    0  502  0.98920904387E+03  0.18793048390E+04 -0.60273965013E+03  0.22076268494E+04  0.10100000352E+00 0. -1.
</event>
<event>
 5   0  0.2713405E-07  0.3108415E+04  0.7818609E-02  0.8213432E-01
        1   -1    0    0  501    0  0.00000000000E+00  0.00000000000E+00  0.15522690867E+04  0.15522690867E+04  0.50400001928E-02 0. -1.
       -1   -1    0    0    0  501  0.00000000000E+00  0.00000000000E+00 -0.15561481163E+04  0.15561481163E+04  0.50400001928E-02 0.  1.
    10030    2    1    2    0    0  0.00000000000E+00  0.00000000000E+00 -0.38790296027E+01  0.31084172030E+04  0.31084147827E+04 0.  0.
        1    1    3    3  502    0  0.83463624352E+03 -0.11319209177E+04  0.65964847930E+03  0.15533829982E+04  0.50400001928E-02 0. -1.
       -1    1    3    3    0  502 -0.83463624352E+03  0.11319209177E+04 -0.66352750890E+03  0.15550342048E+04  0.50400001928E-02 0.  1.
</event>
<event>
 5   0  0.5161550E-07  0.2106210E+04  0.7818609E-02  0.8558513E-01
       -2   -1    0    0    0  501  0.00000000000E+00  0.00000000000E+00  0.77764299664E+03  0.77764299665E+03  0.25500000920E-02 0. -1.
        2   -1    0    0  501    0  0.00000000000E+00  0.00000000000E+00 -0.14261429531E+04  0.14261429531E+04  0.25500000920E-02 0.  1.
    10030    2    1    2    0    0  0.00000000000E+00  0.00000000000E+00 -0.64849995644E+03  0.22037859497E+04  0.21062099417E+04 0.  0.
        2    1    3    3  502    0 -0.11280086191E+03  0.66135234831E+03  0.52509437789E+03  0.85195954643E+03  0.25500000920E-02 0. -1.
       -2    1    3    3    0  502  0.11280086191E+03 -0.66135234831E+03 -0.11735943343E+04  0.13518264033E+04  0.25500000920E-02 0.  1.
</event>
<event>
 5   0  0.2601252E-07  0.3969122E+04  0.7818609E-02  0.8010805E-01
        1   -1    0    0  501    0  0.00000000000E+00  0.00000000000E+00  0.29970798104E+04  0.29970798104E+04  0.50400001928E-02 0.  1.
       -1   -1    0    0    0  501  0.00000000000E+00  0.00000000000E+00 -0.13141064313E+04  0.13141064313E+04  0.50400001928E-02 0. -1.
    10030    2    1    2    0    0  0.00000000000E+00  0.00000000000E+00  0.16829733791E+04  0.43111862417E+04  0.39691217437E+04 0.  0.
        3    1    3    3  502    0 -0.10349388442E+04 -0.81103098936E+03 -0.77309636756E+03  0.15253024883E+04  0.10100000352E+00 0. -1.
       -3    1    3    3    0  502  0.10349388442E+04  0.81103098936E+03  0.24560697467E+04  0.27858837535E+04  0.10100000352E+00 0.  1.
</event>
<event>
 5   0  0.7570277E-07  0.3553265E+04  0.7818609E-02  0.8101282E-01
        2   -1    0    0  501    0  0.00000000000E+00  0.00000000000E+00  0.18464526223E+04  0.18464526223E+04  0.25500000920E-02 0. -1.
       -2   -1    0    0    0  501  0.00000000000E+00  0.00000000000E+00 -0.17094525854E+04  0.17094525854E+04  0.25500000920E-02 0.  1.
    10030    2    1    2    0    0  0.00000000000E+00  0.00000000000E+00  0.13700003697E+03  0.35559052077E+04  0.35532650951E+04 0.  0.
        5    1    3    3  502    0 -0.13687808704E+04 -0.11298146060E+04  0.14830263251E+03  0.17810271968E+04  0.46999998093E+01 0. -1.
       -5    1    3    3    0  502  0.13687808704E+04  0.11298146060E+04 -0.11302595534E+02  0.17748780109E+04  0.46999998093E+01 0.  1.
</event>
<event>
 5   0  0.2401125E-07  0.4087025E+04  0.7818609E-02  0.7987217E-01
        1   -1    0    0  501    0  0.00000000000E+00  0.00000000000E+00  0.17373647464E+04  0.17373647464E+04  0.50400001928E-02 0. -1.
       -1   -1    0    0    0  501  0.00000000000E+00  0.00000000000E+00 -0.24036080594E+04  0.24036080594E+04  0.50400001928E-02 0.  1.
    10030    2    1    2    0    0  0.00000000000E+00  0.00000000000E+00 -0.66624331300E+03  0.41409728057E+04  0.40870252783E+04 0.  0.
        5    1    3    3  502    0 -0.34074614407E+03 -0.10067733535E+04  0.14352590973E+04  0.17859706846E+04  0.46999998093E+01 0. -1.
       -5    1    3    3    0  502  0.34074614407E+03  0.10067733535E+04 -0.21015024103E+04  0.23550021211E+04  0.46999998093E+01 0.  1.
</event>
<event>
 5   0  0.4449262E-07  0.4214235E+04  0.7818609E-02  0.7962670E-01
        2   -1    0    0  501    0  0.00000000000E+00  0.00000000000E+00  0.21552934512E+04  0.21552934512E+04  0.25500000920E-02 0.  1.
       -2   -1    0    0    0  501  0.00000000000E+00  0.00000000000E+00 -0.20600182678E+04  0.20600182678E+04  0.25500000920E-02 0. -1.
    10030    2    1    2    0    0  0.00000000000E+00  0.00000000000E+00  0.95275183392E+02  0.42153117191E+04  0.42142348687E+04 0.  0.
        1    1    3    3  502    0  0.50504811582E+03  0.17914889215E+04  0.10355324706E+04  0.21299844255E+04  0.50400001928E-02 0.  1.
       -1    1    3    3    0  502 -0.50504811582E+03 -0.17914889215E+04 -0.94025728717E+03  0.20853272936E+04  0.50400001928E-02 0. -1.
</event>
<event>
 5   0  0.2401125E-07  0.3200525E+04  0.7818609E-02  0.8188678E-01
        1   -1    0    0  501    0  0.00000000000E+00  0.00000000000E+00  0.22834434079E+04  0.22834434079E+04  0.50400001928E-02 0. -1.
       -1   -1    0    0    0  501  0.00000000000E+00  0.00000000000E+00 -0.11214819241E+04  0.11214819241E+04  0.50400001928E-02 0.  1.
    10030    2    1    2    0    0  0.00000000000E+00  0.00000000000E+00  0.11619614838E+04  0.34049253320E+04  0.32005252735E+04 0.  0.
        5    1    3    3  502    0  0.99710453589E+03 -0.14669947159E+03 -0.74141623804E+03  0.12511827678E+04  0.46999998093E+01 0.  1.
       -5    1    3    3    0  502 -0.99710453589E+03  0.14669947159E+03  0.19033777219E+04  0.21537425641E+04  0.46999998093E+01 0. -1.
</event>
<event>
 5   0  0.4449262E-07  0.2014605E+04  0.7818609E-02  0.8599823E-01
       -2   -1    0    0    0  501  0.00000000000E+00  0.00000000000E+00  0.49321164773E+03  0.49321164773E+03  0.25500000920E-02 0.  1.
        2   -1    0    0  501    0  0.00000000000E+00  0.00000000000E+00 -0.20572465771E+04  0.20572465771E+04  0.25500000920E-02 0. -1.
    10030    2    1    2    0    0  0.00000000000E+00  0.00000000000E+00 -0.15640349294E+04  0.25504582248E+04  0.20146046501E+04 0.  0.
        1    1    3    3  502    0 -0.52683862454E+03  0.72971762780E+03 -0.13546725297E+04  0.16264022920E+04  0.50400001928E-02 0. -1.
       -1    1    3    3    0  502  0.52683862454E+03 -0.72971762780E+03 -0.20936239969E+03  0.92405593286E+03  0.50400001928E-02 0.  1.
</event>
<event>
 5   0  0.6043512E-07  0.2815010E+04  0.7818609E-02  0.8298624E-01
       -2   -1    0    0    0  501  0.00000000000E+00  0.00000000000E+00  0.12559174246E+04  0.12559174246E+04  0.25500000920E-02 0.  1.
        2   -1    0    0  501    0  0.00000000000E+00  0.00000000000E+00 -0.15773888562E+04  0.15773888562E+04  0.25500000920E-02 0. -1.
    10030    2    1    2    0    0  0.00000000000E+00  0.00000000000E+00 -0.32147143158E+03  0.28333062809E+04  0.28150098756E+04 0.  0.
        3    1    3    3  502    0 -0.13354835719E+04  0.11185215373E+03  0.27222627623E+03  0.13675285850E+04  0.10100000352E+00 0.  1.
       -3    1    3    3    0  502  0.13354835719E+04 -0.11185215373E+03 -0.59369770780E+03  0.14657776958E+04  0.10100000352E+00 0. -1.
</event>
<event>
 5   0  0.6043512E-07  0.2040423E+04  0.7818609E-02  0.8587951E-01
       -2   -1    0    0    0  501  0.00000000000E+00  0.00000000000E+00  0.11887646970E+04  0.11887646970E+04  0.25500000920E-02 0.  1.
        2   -1    0    0  501    0  0.00000000000E+00  0.00000000000E+00 -0.87555747542E+03  0.87555747542E+03  0.25500000920E-02 0. -1.
    10030    2    1    2    0    0  0.00000000000E+00  0.00000000000E+00  0.31320722160E+03  0.20643221724E+04  0.20404233061E+04 0.  0.
        3    1    3    3  502    0 -0.34904496622E+03 -0.47881748748E+03 -0.68362560302E+03  0.90467814723E+03  0.10100000352E+00 0. -1.
       -3    1    3    3    0  502  0.34904496622E+03  0.47881748748E+03  0.99683282462E+03  0.11596440252E+04  0.10100000352E+00 0.  1.
</event>
<event>
 5   0  0.2601252E-07  0.4061579E+04  0.7818609E-02  0.7992238E-01
       -1   -1    0    0    0  501  0.00000000000E+00  0.00000000000E+00  0.13563091587E+04  0.13563091587E+04  0.50400001928E-02 0. -1.
        1   -1    0    0  501    0  0.00000000000E+00  0.00000000000E+00 -0.30406826291E+04  0.30406826291E+04  0.50400001928E-02 0.  1.
    10030    2    1    2    0    0  0.00000000000E+00  0.00000000000E+00 -0.16843734704E+04  0.43969917879E+04  0.40615788549E+04 0.  0.
        3    1    3    3  502    0  0.81930314707E+03  0.14234438780E+04 -0.21352516646E+04  0.26938355188E+04  0.10100000352E+00 0.  1.
       -3    1    3    3    0  502 -0.81930314707E+03 -0.14234438780E+04  0.45087819422E+03  0.17031562691E+04  0.10100000352E+00 0. -1.
</event>
<event>
 5   0  0.2401125E-07  0.3991539E+04  0.7818609E-02  0.8006256E-01
       -1   -1    0    0    0  501  0.00000000000E+00  0.00000000000E+00  0.28394938532E+04  0.28394938532E+04  0.50400001928E-02 0. -1.
        1   -1    0    0  501    0  0.00000000000E+00  0.00000000000E+00 -0.14027482640E+04  0.14027482640E+04  0.50400001928E-02 0.  1.
    10030    2    1    2    0    0  0.00000000000E+00  0.00000000000E+00  0.14367455892E+04  0.42422421172E+04  0.39915385871E+04 0.  0.
        5    1    3    3  502    0 -0.13971175177E+04 -0.43161061308E+03  0.21619346668E+04  0.26100208185E+04  0.46999998093E+01 0. -1.
       -5    1    3    3    0  502  0.13971175177E+04  0.43161061308E+03 -0.72518907762E+03  0.16322212987E+04  0.46999998093E+01 0.  1.
</event>
<event>
 5   0  0.6043512E-07  0.2143869E+04  0.7818609E-02  0.8542161E-01
       -2   -1    0    0    0  501  0.00000000000E+00  0.00000000000E+00  0.13665721680E+04  0.13665721680E+04  0.25500000920E-02 0. -1.
        2   -1    0    0  501    0  0.00000000000E+00  0.00000000000E+00 -0.84082162541E+03  0.84082162541E+03  0.25500000920E-02 0.  1.
    10030    2    1    2    0    0  0.00000000000E+00  0.00000000000E+00  0.52575054262E+03  0.22073937934E+04  0.21438688687E+04 0.  0.
        3    1    3    3  502    0 -0.44472212461E+02 -0.87824135818E+03  0.89402961959E+03  0.12540233777E+04  0.10100000352E+00 0. -1.
       -3    1    3    3    0  502  0.44472212461E+02  0.87824135818E+03 -0.36827907697E+03  0.95337041575E+03  0.10100000352E+00 0.  1.
</event>
<event>
 5   0  0.7570277E-07  0.4375515E+04  0.7818609E-02  0.7932800E-01
       -2   -1    0    0    0  501  0.00000000000E+00  0.00000000000E+00  0.31654427347E+04  0.31654427347E+04  0.25500000920E-02 0.  1.
        2   -1    0    0  501    0  0.00000000000E+00  0.00000000000E+00 -0.15120423053E+04  0.15120423053E+04  0.25500000920E-02 0. -1.
    10030    2    1    2    0    0  0.00000000000E+00  0.00000000000E+00  0.16534004294E+04  0.46774850400E+04  0.43755152062E+04 0.  0.
        5    1    3    3  502    0 -0.11130557856E+04  0.16868070755E+03 -0.11786378168E+04  0.16298943390E+04  0.46999998093E+01 0. -1.
       -5    1    3    3    0  502  0.11130557856E+04 -0.16868070755E+03  0.28320382463E+04  0.30475907011E+04  0.46999998093E+01 0.  1.
</event>
<event>
 5   0  0.7256473E-07  0.2309335E+04  0.7818609E-02  0.8474250E-01
       -2   -1    0    0    0  501  0.00000000000E+00  0.00000000000E+00  0.97174481337E+03  0.97174481338E+03  0.25500000920E-02 0. -1.
        2   -1    0    0  501    0  0.00000000000E+00  0.00000000000E+00 -0.13720233553E+04  0.13720233553E+04  0.25500000920E-02 0.  1.
    10030    2    1    2    0    0  0.00000000000E+00  0.00000000000E+00 -0.40027854192E+03  0.23437681687E+04  0.23093346049E+04 0.  0.
        4    1    3    3  502    0 -0.83170053378E+03 -0.62432358703E+03 -0.70936680568E+03  0.12588520950E+04  0.12699999809E+01 0.  1.
       -4    1    3    3    0  502  0.83170053378E+03  0.62432358703E+03  0.30908826376E+03  0.10849160737E+04  0.12699999809E+01 0. -1.
</event>
<event>
 5   0  0.2601252E-07  0.2080856E+04  0.7818609E-02  0.8569724E-01
       -1   -1    0    0    0  501  0.00000000000E+00  0.00000000000E+00  0.38835060650E+03  0.38835060653E+03  0.50400001928E-02 0.  1.
        1   -1    0    0  501    0  0.00000000000E+00  0.00000000000E+00 -0.27874052489E+04  0.27874052489E+04  0.50400001928E-02 0. -1.
    10030    2    1    2    0    0  0.00000000000E+00  0.00000000000E+00 -0.23990546424E+04  0.31757558555E+04  0.20808560921E+04 0.  0.
        3    1    3    3  502    0  0.15473246702E+03  0.21208667043E+03  0.33696864504E+03  0.42716597484E+03  0.10100000352E+00 0.  1.
       -3    1    3    3    0  502 -0.15473246702E+03 -0.21208667043E+03 -0.27360232875E+04  0.27485898806E+04  0.10100000352E+00 0. -1.
</event>
<event>
 5   0  0.3579559E-07  0.2493075E+04  0.7818609E-02  0.8405457E-01
        1   -1    0    0  501    0  0.00000000000E+00  0.00000000000E+00  0.16450098358E+04  0.16450098358E+04  0.50400001928E-02 0. -1.
       -1   -1    0    0    0  501  0.00000000000E+00  0.00000000000E+00 -0.94458731296E+03  0.94458731297E+03  0.50400001928E-02 0.  1.
    10030    2    1    2    0    0  0.00000000000E+00  0.00000000000E+00  0.70042252287E+03  0.25895971488E+04  0.24930747447E+04 0.  0.
        4    1    3    3  502    0 -0.31647552517E+02  0.57986639621E+03 -0.79549187137E+03  0.98491397358E+03  0.12699999809E+01 0.  1.
       -4    1    3    3    0  502  0.31647552517E+02 -0.57986639621E+03  0.14959143942E+04  0.16046831752E+04  0.12699999809E+01 0. -1.
</event>
<event>
 5   0  0.3579559E-07  0.3919431E+04  0.7818609E-02  0.8021000E-01
        1   -1    0    0  501    0  0.00000000000E+00  0.00000000000E+00  0.11634157508E+04  0.11634157508E+04  0.50400001928E-02 0.  1.
       -1   -1    0    0    0  501  0.00000000000E+00  0.00000000000E+00 -0.33010428322E+04  0.33010428322E+04  0.50400001928E-02 0. -1.
    10030    2    1    2    0    0  0.00000000000E+00  0.00000000000E+00 -0.21376270814E+04  0.44644585830E+04  0.39194311960E+04 0.  0.
        4    1    3    3  502    0  0.22355362592E+03  0.47731970524E+03  0.10811631532E+04  0.12027991110E+04  0.12699999809E+01 0.  1.
       -4    1    3    3    0  502 -0.22355362592E+03 -0.47731970524E+03 -0.32187902345E+04  0.32616594720E+04  0.12699999809E+01 0. -1.
</event>
<event>
 5   0  0.2401125E-07  0.2515950E+04  0.7818609E-02  0.8397325E-01
        4   -1    0    0  501    0  0.00000000000E+00  0.00000000000E+00  0.77467317473E+03  0.77467421575E+03  0.12699999809E+01 0. -1.
       -4   -1    0    0    0  501  0.00000000000E+00  0.00000000000E+00 -0.20427961197E+04  0.20427965145E+04  0.12699999809E+01 0.  1.
    10030    2    1    2    0    0  0.00000000000E+00  0.00000000000E+00 -0.12681229450E+04  0.28174707303E+04  0.25159502205E+04 0.  0.
        5    1    3    3  502    0 -0.63854769009E+03  0.10708248197E+04 -0.44644057334E+03  0.13242885723E+04  0.46999998093E+01 0. -1.
       -5    1    3    3    0  502  0.63854769009E+03 -0.10708248197E+04 -0.82168237167E+03  0.14931821580E+04  0.46999998093E+01 0.  1.
</event>
<event>
 5   0  0.5161550E-07  0.3525830E+04  0.7818609E-02  0.8107696E-01
       -2   -1    0    0    0  501  0.00000000000E+00  0.00000000000E+00  0.14080965459E+04  0.14080965459E+04  0.25500000920E-02 0. -1.
        2   -1    0    0  501    0  0.00000000000E+00  0.00000000000E+00 -0.22071419526E+04  0.22071419526E+04  0.25500000920E-02 0.  1.
    10030    2    1    2    0    0  0.00000000000E+00  0.00000000000E+00 -0.79904540669E+03  0.36152384985E+04  0.35258298086E+04 0.  0.
        2    1    3    3  502    0  0.29420408520E+03 -0.11309571384E+04  0.95389141756E+03  0.15084856410E+04  0.25500000920E-02 0. -1.
       -2    1    3    3    0  502 -0.29420408520E+03  0.11309571384E+04 -0.17529368243E+04  0.21067528575E+04  0.25500000920E-02 0.  1.
</event>
<event>
 5   0  0.4449262E-07  0.3971236E+04  0.7818609E-02  0.8010374E-01
       -2   -1    0    0    0  501  0.00000000000E+00  0.00000000000E+00  0.17350444230E+04  0.17350444230E+04  0.25500000920E-02 0.  1.
        2   -1    0    0  501    0  0.00000000000E+00  0.00000000000E+00 -0.22723789402E+04  0.22723789402E+04  0.25500000920E-02 0. -1.
    10030    2    1    2    0    0  0.00000000000E+00  0.00000000000E+00 -0.53733451717E+03  0.40074233631E+04  0.39712357810E+04 0.  0.
        1    1    3    3  502    0  0.86684704018E+01 -0.14419009237E+03 -0.22670697623E+04  0.22716670602E+04  0.50400001928E-02 0. -1.
       -1    1    3    3    0  502 -0.86684704018E+01  0.14419009237E+03  0.17297352451E+04  0.17357563030E+04  0.50400001928E-02 0.  1.
</event>
<event>
 5   0  0.2647879E-07  0.4078338E+04  0.7818609E-02  0.7988927E-01
       -1   -1    0    0    0  501  0.00000000000E+00  0.00000000000E+00  0.15333321076E+04  0.15333321076E+04  0.50400001928E-02 0. -1.
        1   -1    0    0  501    0  0.00000000000E+00  0.00000000000E+00 -0.27118782231E+04  0.27118782231E+04  0.50400001928E-02 0.  1.
    10030    2    1    2    0    0  0.00000000000E+00  0.00000000000E+00 -0.11785461155E+04  0.42452103306E+04  0.40783378728E+04 0.  0.
        2    1    3    3  502    0 -0.14923341707E+04 -0.11834700408E+04 -0.13474631055E+04  0.23330922474E+04  0.25500000920E-02 0.  1.
       -2    1    3    3    0  502  0.14923341707E+04  0.11834700408E+04  0.16891698997E+03  0.19121180832E+04  0.25500000920E-02 0. -1.
</event>
<event>
 5   0  0.6043512E-07  0.3874754E+04  0.7818609E-02  0.8030300E-01
       -2   -1    0    0    0  501  0.00000000000E+00  0.00000000000E+00  0.11834968225E+04  0.11834968225E+04  0.25500000920E-02 0.  1.
        2   -1    0    0  501    0  0.00000000000E+00  0.00000000000E+00 -0.31714748231E+04  0.31714748231E+04  0.25500000920E-02 0. -1.
    10030    2    1    2    0    0  0.00000000000E+00  0.00000000000E+00 -0.19879780006E+04  0.43549716457E+04  0.38747543798E+04 0.  0.
        3    1    3    3  502    0  0.81410428880E+03 -0.11695370641E+04 -0.24692354856E+04  0.28509132976E+04  0.10100000352E+00 0. -1.
       -3    1    3    3    0  502 -0.81410428880E+03  0.11695370641E+04  0.48125748494E+03  0.15040583480E+04  0.10100000352E+00 0.  1.
</event>
<event>
 5   0  0.4449262E-07  0.3977533E+04  0.7818609E-02  0.8009094E-01
       -2   -1    0    0    0  501  0.00000000000E+00  0.00000000000E+00  0.17576977863E+04  0.17576977863E+04  0.25500000920E-02 0.  1.
        2   -1    0    0  501    0  0.00000000000E+00  0.00000000000E+00 -0.22502121610E+04  0.22502121610E+04  0.25500000920E-02 0. -1.
    10030    2    1    2    0    0  0.00000000000E+00  0.00000000000E+00 -0.49251437471E+03  0.40079099473E+04  0.39775333734E+04 0.  0.
        1    1    3    3  502    0  0.18593928645E+04 -0.10808059437E+03  0.45632650392E+03  0.19176175629E+04  0.50400001928E-02 0.  1.
       -1    1    3    3    0  502 -0.18593928645E+04  0.10808059437E+03 -0.94884087862E+03  0.20902923844E+04  0.50400001928E-02 0. -1.
</event>
<event>
 5   0  0.5161550E-07  0.2522682E+04  0.7818609E-02  0.8394949E-01
        2   -1    0    0  501    0  0.00000000000E+00  0.00000000000E+00  0.23018839450E+04  0.23018839450E+04  0.25500000920E-02 0. -1.
       -2   -1    0    0    0  501  0.00000000000E+00  0.00000000000E+00 -0.69116487917E+03  0.69116487918E+03  0.25500000920E-02 0.  1.
    10030    2    1    2    0    0  0.00000000000E+00  0.00000000000E+00  0.16107190658E+04  0.29930488242E+04  0.25226821748E+04 0.  0.
        2    1    3    3  502    0 -0.84852387020E+03  0.92155031062E+03  0.98027054467E+03  0.15906533482E+04  0.25500000920E-02 0. -1.
       -2    1    3    3    0  502  0.84852387020E+03 -0.92155031062E+03  0.63044852117E+03  0.14023954760E+04  0.25500000920E-02 0.  1.
</event>
<event>
 5   0  0.5161550E-07  0.3992324E+04  0.7818609E-02  0.8006097E-01
        2   -1    0    0  501    0  0.00000000000E+00  0.00000000000E+00  0.22493925669E+04  0.22493925669E+04  0.25500000920E-02 0. -1.
       -2   -1    0    0    0  501  0.00000000000E+00  0.00000000000E+00 -0.17714392837E+04  0.17714392837E+04  0.25500000920E-02 0.  1.
    10030    2    1    2    0    0  0.00000000000E+00  0.00000000000E+00  0.47795328318E+03  0.40208318507E+04  0.39923238133E+04 0.  0.
        2    1    3    3  502    0  0.15332394234E+04 -0.23798132112E+03  0.15038123080E+04  0.21607659976E+04  0.25500000920E-02 0. -1.
       -2    1    3    3    0  502 -0.15332394234E+04  0.23798132112E+03 -0.10258590249E+04  0.18600658530E+04  0.25500000920E-02 0.  1.
</event>
<event>
 5   0  0.5161550E-07  0.3842355E+04  0.7818609E-02  0.8037126E-01
        2   -1    0    0  501    0  0.00000000000E+00  0.00000000000E+00  0.23715845453E+04  0.23715845453E+04  0.25500000920E-02 0. -1.
       -2   -1    0    0    0  501  0.00000000000E+00  0.00000000000E+00 -0.15563110264E+04  0.15563110264E+04  0.25500000920E-02 0.  1.
    10030    2    1    2    0    0  0.00000000000E+00  0.00000000000E+00  0.81527351890E+03  0.39278955717E+04  0.38423550997E+04 0.  0.
        2    1    3    3  502    0  0.12861873652E+04  0.12031765228E+04 -0.37691991126E+03  0.18011053004E+04  0.25500000920E-02 0.  1.
       -2    1    3    3    0  502 -0.12861873652E+04 -0.12031765228E+04  0.11921934302E+04  0.21267902714E+04  0.25500000920E-02 0. -1.
</event>
<event>
 5   0  0.5161550E-07  0.3815928E+04  0.7818609E-02  0.8042745E-01
        2   -1    0    0  501    0  0.00000000000E+00  0.00000000000E+00  0.16864194058E+04  0.16864194058E+04  0.25500000920E-02 0.  1.
       -2   -1    0    0    0  501  0.00000000000E+00  0.00000000000E+00 -0.21586125720E+04  0.21586125720E+04  0.25500000920E-02 0. -1.
    10030    2    1    2    0    0  0.00000000000E+00  0.00000000000E+00 -0.47219316619E+03  0.38450319778E+04  0.38159277409E+04 0.  0.
        2    1    3    3  502    0  0.12886535034E+04  0.26265827211E+03  0.11567301005E+04  0.17514684539E+04  0.25500000920E-02 0.  1.
       -2    1    3    3    0  502 -0.12886535034E+04 -0.26265827211E+03 -0.16289232667E+04  0.20935635239E+04  0.25500000920E-02 0. -1.
</event>
<event>
 5   0  0.4449262E-07  0.4001414E+04  0.7818609E-02  0.8004261E-01
        2   -1    0    0  501    0  0.00000000000E+00  0.00000000000E+00  0.19518405310E+04  0.19518405310E+04  0.25500000920E-02 0. -1.
       -2   -1    0    0    0  501  0.00000000000E+00  0.00000000000E+00 -0.20507970415E+04  0.20507970415E+04  0.25500000920E-02 0.  1.
    10030    2    1    2    0    0  0.00000000000E+00  0.00000000000E+00 -0.98956510468E+02  0.40026375725E+04  0.40014141432E+04 0.  0.
        1    1    3    3  502    0 -0.13077016952E+04 -0.14285039607E+04  0.45279228192E+03  0.19889012394E+04  0.50400001928E-02 0. -1.
       -1    1    3    3    0  502  0.13077016952E+04  0.14285039607E+04 -0.55174879238E+03  0.20137363331E+04  0.50400001928E-02 0.  1.
</event>
<event>
 5   0  0.7256473E-07  0.2911469E+04  0.7818609E-02  0.8269473E-01
       -2   -1    0    0    0  501  0.00000000000E+00  0.00000000000E+00  0.78764597249E+03  0.78764597250E+03  0.25500000920E-02 0. -1.
        2   -1    0    0  501    0  0.00000000000E+00  0.00000000000E+00 -0.26905019134E+04  0.26905019134E+04  0.25500000920E-02 0.  1.
    10030    2    1    2    0    0  0.00000000000E+00  0.00000000000E+00 -0.19028559409E+04  0.34781478859E+04  0.29114690423E+04 0.  0.
        4    1    3    3  502    0 -0.13914523321E+04  0.10854412193E+03 -0.45707353912E+03  0.14686181436E+04  0.12699999809E+01 0.  1.
       -4    1    3    3    0  502  0.13914523321E+04 -0.10854412193E+03 -0.14457824018E+04  0.20095297422E+04  0.12699999809E+01 0. -1.
</event>
<event>
 5   0  0.7256473E-07  0.3699750E+04  0.7818609E-02  0.8068017E-01
       -2   -1    0    0    0  501  0.00000000000E+00  0.00000000000E+00  0.24337035020E+04  0.24337035020E+04  0.25500000920E-02 0. -1.
        2   -1    0    0  501    0  0.00000000000E+00  0.00000000000E+00 -0.14061031205E+04  0.14061031205E+04  0.25500000920E-02 0.  1.
    10030    2    1    2    0    0  0.00000000000E+00  0.00000000000E+00  0.10276003815E+04  0.38398066225E+04  0.36997503097E+04 0.  0.
        4    1    3    3  502    0 -0.18196031224E+02  0.18371078370E+04  0.28942124299E+03  0.18598555237E+04  0.12699999809E+01 0.  1.
       -4    1    3    3    0  502  0.18196031224E+02 -0.18371078370E+04  0.73817913850E+03  0.19799510988E+04  0.12699999809E+01 0. -1.
</event>
<event>
 5   0  0.3579559E-07  0.3947578E+04  0.7818609E-02  0.8015206E-01
        1   -1    0    0  501    0  0.00000000000E+00  0.00000000000E+00  0.17256231859E+04  0.17256231859E+04  0.50400001928E-02 0.  1.
       -1   -1    0    0    0  501  0.00000000000E+00  0.00000000000E+00 -0.22576436836E+04  0.22576436836E+04  0.50400001928E-02 0. -1.
    10030    2    1    2    0    0  0.00000000000E+00  0.00000000000E+00 -0.53202049767E+03  0.39832668695E+04  0.39475776298E+04 0.  0.
        4    1    3    3  502    0 -0.63517811210E+03  0.10837068655E+04  0.12702419740E+04  0.17864456582E+04  0.12699999809E+01 0.  1.
       -4    1    3    3    0  502  0.63517811210E+03 -0.10837068655E+04 -0.18022624717E+04  0.21968212112E+04  0.12699999809E+01 0. -1.
</event>
<event>
 5   0  0.2713405E-07  0.2899103E+04  0.7818609E-02  0.8273144E-01
        1   -1    0    0  501    0  0.00000000000E+00  0.00000000000E+00  0.18213693832E+04  0.18213693832E+04  0.50400001928E-02 0. -1.
       -1   -1    0    0    0  501  0.00000000000E+00  0.00000000000E+00 -0.11536372069E+04  0.11536372069E+04  0.50400001928E-02 0.  1.
    10030    2    1    2    0    0  0.00000000000E+00  0.00000000000E+00  0.66773217624E+03  0.29750065901E+04  0.28991029564E+04 0.  0.
        1    1    3    3  502    0  0.47894709144E+03 -0.12577410776E+04  0.88638330972E+03  0.16115142899E+04  0.50400001928E-02 0. -1.
       -1    1    3    3    0  502 -0.47894709144E+03  0.12577410776E+04 -0.21865113347E+03  0.13634923003E+04  0.50400001928E-02 0.  1.
</event>
<event>
 5   0  0.2647879E-07  0.2376693E+04  0.7818609E-02  0.8448281E-01
       -1   -1    0    0    0  501  0.00000000000E+00  0.00000000000E+00  0.12949957860E+04  0.12949957860E+04  0.50400001928E-02 0.  1.
        1   -1    0    0  501    0  0.00000000000E+00  0.00000000000E+00 -0.10904800374E+04  0.10904800374E+04  0.50400001928E-02 0. -1.
    10030    2    1    2    0    0  0.00000000000E+00  0.00000000000E+00  0.20451574862E+03  0.23854758234E+04  0.23766927047E+04 0.  0.
        2    1    3    3  502    0 -0.27110043272E+03 -0.28733584964E+03  0.12271626850E+04  0.12891802010E+04  0.25500000920E-02 0.  1.
       -2    1    3    3    0  502  0.27110043272E+03  0.28733584964E+03 -0.10226469364E+04  0.10962956224E+04  0.25500000920E-02 0. -1.
</event>
<event>
 5   0  0.5161550E-07  0.4061313E+04  0.7818609E-02  0.7992291E-01
       -2   -1    0    0    0  501  0.00000000000E+00  0.00000000000E+00  0.23435520302E+04  0.23435520302E+04  0.25500000920E-02 0. -1.
        2   -1    0    0  501    0  0.00000000000E+00  0.00000000000E+00 -0.17595364950E+04  0.17595364950E+04  0.25500000920E-02 0.  1.
    10030    2    1    2    0    0  0.00000000000E+00  0.00000000000E+00  0.58401553517E+03  0.41030885252E+04  0.40613127558E+04 0.  0.
        2    1    3    3  502    0 -0.42973277764E+03 -0.19798070402E+04  0.43221260261E+03  0.20715004008E+04  0.25500000920E-02 0.  1.
       -2    1    3    3    0  502  0.42973277764E+03  0.19798070402E+04  0.15180293257E+03  0.20315881244E+04  0.25500000920E-02 0. -1.
</event>
<event>
 5   0  0.5161550E-07  0.3907091E+04  0.7818609E-02  0.8023556E-01
        2   -1    0    0  501    0  0.00000000000E+00  0.00000000000E+00  0.24857779359E+04  0.24857779359E+04  0.25500000920E-02 0. -1.
       -2   -1    0    0    0  501  0.00000000000E+00  0.00000000000E+00 -0.15352695788E+04  0.15352695788E+04  0.25500000920E-02 0.  1.
    10030    2    1    2    0    0  0.00000000000E+00  0.00000000000E+00  0.95050835707E+03  0.40210475147E+04  0.39070906028E+04 0.  0.
        2    1    3    3  502    0 -0.17937483019E+03  0.11731810264E+03 -0.15231321861E+04  0.15381386554E+04  0.25500000920E-02 0.  1.
       -2    1    3    3    0  502  0.17937483019E+03 -0.11731810264E+03  0.24736405431E+04  0.24829088593E+04  0.25500000920E-02 0. -1.
</event>
<event>
 5   0  0.5161550E-07  0.3914519E+04  0.7818609E-02  0.8022016E-01
       -2   -1    0    0    0  501  0.00000000000E+00  0.00000000000E+00  0.12091029767E+04  0.12091029767E+04  0.25500000920E-02 0. -1.
        2   -1    0    0  501    0  0.00000000000E+00  0.00000000000E+00 -0.31683526493E+04  0.31683526493E+04  0.25500000920E-02 0.  1.
    10030    2    1    2    0    0  0.00000000000E+00  0.00000000000E+00 -0.19592496726E+04  0.43774556260E+04  0.39145189332E+04 0.  0.
        2    1    3    3  502    0 -0.15905126020E+04  0.31264756465E+03  0.24709614294E+03  0.16396753766E+04  0.25500000920E-02 0. -1.
       -2    1    3    3    0  502  0.15905126020E+04 -0.31264756465E+03 -0.22063458155E+04  0.27377802495E+04  0.25500000920E-02 0.  1.
</event>
<event>
 5   0  0.4449262E-07  0.2439197E+04  0.7818609E-02  0.8424973E-01
       -2   -1    0    0    0  501  0.00000000000E+00  0.00000000000E+00  0.20496961940E+04  0.20496961940E+04  0.25500000920E-02 0. -1.
        2   -1    0    0  501    0  0.00000000000E+00  0.00000000000E+00 -0.72567876097E+03  0.72567876098E+03  0.25500000920E-02 0.  1.
    10030    2    1    2    0    0  0.00000000000E+00  0.00000000000E+00  0.13240174330E+04  0.27753749550E+04  0.24391974044E+04 0.  0.
        1    1    3    3  502    0 -0.17411848672E+03 -0.53557339665E+03  0.18928917980E+04  0.19748912551E+04  0.50400001928E-02 0. -1.
       -1    1    3    3    0  502  0.17411848672E+03  0.53557339665E+03 -0.56887436496E+03  0.80048369987E+03  0.50400001928E-02 0.  1.
</event>
<event>
 5   0  0.6043512E-07  0.3298952E+04  0.7818609E-02  0.8163162E-01
        2   -1    0    0  501    0  0.00000000000E+00  0.00000000000E+00  0.18549050747E+04  0.18549050747E+04  0.25500000920E-02 0. -1.
       -2   -1    0    0    0  501  0.00000000000E+00  0.00000000000E+00 -0.14667983704E+04  0.14667983704E+04  0.25500000920E-02 0.  1.
    10030    2    1    2    0    0  0.00000000000E+00  0.00000000000E+00  0.38810670427E+03  0.33217034451E+04  0.32989524039E+04 0.  0.
        3    1    3    3  502    0 -0.15924061482E+04  0.14058815450E+03 -0.21525885853E+03  0.16130278226E+04  0.10100000352E+00 0.  1.
       -3    1    3    3    0  502  0.15924061482E+04 -0.14058815450E+03  0.60336556280E+03  0.17086756224E+04  0.10100000352E+00 0. -1.
</event>
<event>
 5   0  0.7570277E-07  0.4025163E+04  0.7818609E-02  0.7999489E-01
       -2   -1    0    0    0  501  0.00000000000E+00  0.00000000000E+00  0.13833148820E+04  0.13833148820E+04  0.25500000920E-02 0.  1.
        2   -1    0    0  501    0  0.00000000000E+00  0.00000000000E+00 -0.29281003895E+04  0.29281003895E+04  0.25500000920E-02 0. -1.
    10030    2    1    2    0    0  0.00000000000E+00  0.00000000000E+00 -0.15447855075E+04  0.43114152715E+04  0.40251632736E+04 0.  0.
        5    1    3    3  502    0 -0.12517525094E+03  0.60150176784E+03 -0.28251906773E+04  0.28912277103E+04  0.46999998093E+01 0. -1.
       -5    1    3    3    0  502  0.12517525094E+03 -0.60150176784E+03  0.12804051698E+04  0.14201875612E+04  0.46999998093E+01 0.  1.
</event>
<event>
 5   0  0.2733774E-07  0.1964421E+04  0.7818609E-02  0.8623438E-01
        1   -1    0    0  501    0  0.00000000000E+00  0.00000000000E+00  0.11967556143E+04  0.11967556143E+04  0.50400001928E-02 0. -1.
       -1   -1    0    0    0  501  0.00000000000E+00  0.00000000000E+00 -0.80612757102E+03  0.80612757103E+03  0.50400001928E-02 0.  1.
    10030    2    1    2    0    0  0.00000000000E+00  0.00000000000E+00  0.39062804332E+03  0.20028831854E+04  0.19644212344E+04 0.  0.
        1    1    3    3  502    0 -0.58867773641E+03  0.21879894418E+03 -0.57466968532E+03  0.85126946531E+03  0.50400001928E-02 0.  1.
       -1    1    3    3    0  502  0.58867773641E+03 -0.21879894418E+03  0.96529772864E+03  0.11516137201E+04  0.50400001928E-02 0. -1.
</event>
<event>
 5   0  0.3579559E-07  0.2396912E+04  0.7818609E-02  0.8440661E-01
       -1   -1    0    0    0  501  0.00000000000E+00  0.00000000000E+00  0.10122428982E+04  0.10122428983E+04  0.50400001928E-02 0. -1.
        1   -1    0    0  501    0  0.00000000000E+00  0.00000000000E+00 -0.14189250694E+04  0.14189250694E+04  0.50400001928E-02 0.  1.
    10030    2    1    2    0    0  0.00000000000E+00  0.00000000000E+00 -0.40668217116E+03  0.24311679677E+04  0.23969120340E+04 0.  0.
        4    1    3    3  502    0  0.83338914674E+03 -0.28330896975E+02 -0.10764306866E+04  0.13616331171E+04  0.12699999809E+01 0.  1.
       -4    1    3    3    0  502 -0.83338914674E+03  0.28330896975E+02  0.66974851547E+03  0.10695348505E+04  0.12699999809E+01 0. -1.
</event>
<event>
 5   0  0.7570277E-07  0.4073511E+04  0.7818609E-02  0.7989879E-01
        2   -1    0    0  501    0  0.00000000000E+00  0.00000000000E+00  0.30667259765E+04  0.30667259765E+04  0.25500000920E-02 0. -1.
       -2   -1    0    0    0  501  0.00000000000E+00  0.00000000000E+00 -0.13527040129E+04  0.13527040129E+04  0.25500000920E-02 0.  1.
    10030    2    1    2    0    0  0.00000000000E+00  0.00000000000E+00  0.17140219635E+04  0.44194299894E+04  0.40735107880E+04 0.  0.
        5    1    3    3  502    0  0.91003944777E+03 -0.15199890072E+04  0.19472398199E+04  0.26325469387E+04  0.46999998093E+01 0. -1.
       -5    1    3    3    0  502 -0.91003944777E+03  0.15199890072E+04 -0.23321785631E+03  0.17868830507E+04  0.46999998093E+01 0.  1.
</event>
<event>
 5   0  0.4449262E-07  0.3808382E+04  0.7818609E-02  0.8044358E-01
       -2   -1    0    0    0  501  0.00000000000E+00  0.00000000000E+00  0.15386735202E+04  0.15386735202E+04  0.25500000920E-02 0.  1.
        2   -1    0    0  501    0  0.00000000000E+00  0.00000000000E+00 -0.23565388705E+04  0.23565388705E+04  0.25500000920E-02 0. -1.
    10030    2    1    2    0    0  0.00000000000E+00  0.00000000000E+00 -0.81786535030E+03  0.38952123908E+04  0.38083823125E+04 0.  0.
        1    1    3    3  502    0 -0.12980165458E+04  0.10738538076E+04 -0.13168280454E+04  0.21382340972E+04  0.50400001928E-02 0. -1.
       -1    1    3    3    0  502  0.12980165458E+04 -0.10738538076E+04  0.49896269507E+03  0.17569782936E+04  0.50400001928E-02 0.  1.
</event>
<event>
 5   0  0.7570277E-07  0.2187336E+04  0.7818609E-02  0.8523718E-01
       -2   -1    0    0    0  501  0.00000000000E+00  0.00000000000E+00  0.87091480681E+03  0.87091480681E+03  0.25500000920E-02 0.  1.
        2   -1    0    0  501    0  0.00000000000E+00  0.00000000000E+00 -0.13733942385E+04  0.13733942385E+04  0.25500000920E-02 0. -1.
    10030    2    1    2    0    0  0.00000000000E+00  0.00000000000E+00 -0.50247943170E+03  0.22443090453E+04  0.21873357108E+04 0.  0.
        5    1    3    3  502    0  0.35180397351E+03 -0.22761323630E+03 -0.12877570908E+04  0.13542208963E+04  0.46999998093E+01 0. -1.
       -5    1    3    3    0  502 -0.35180397351E+03  0.22761323630E+03  0.78527765910E+03  0.89008814900E+03  0.46999998093E+01 0.  1.
</event>
<event>
 5   0  0.6043512E-07  0.4084431E+04  0.7818609E-02  0.7987727E-01
        2   -1    0    0  501    0  0.00000000000E+00  0.00000000000E+00  0.25523195537E+04  0.25523195537E+04  0.25500000920E-02 0.  1.
       -2   -1    0    0    0  501  0.00000000000E+00  0.00000000000E+00 -0.16340601389E+04  0.16340601389E+04  0.25500000920E-02 0. -1.
    10030    2    1    2    0    0  0.00000000000E+00  0.00000000000E+00  0.91825941479E+03  0.41863796925E+04  0.40844307532E+04 0.  0.
        3    1    3    3  502    0  0.43356965981E+03  0.17410989779E+04 -0.54052741444E+03  0.18739205417E+04  0.10100000352E+00 0. -1.
       -3    1    3    3    0  502 -0.43356965981E+03 -0.17410989779E+04  0.14587868292E+04  0.23124591508E+04  0.10100000352E+00 0.  1.
</event>
<event>
 5   0  0.7256473E-07  0.2978150E+04  0.7818609E-02  0.8249998E-01
       -2   -1    0    0    0  501  0.00000000000E+00  0.00000000000E+00  0.11226189403E+04  0.11226189403E+04  0.25500000920E-02 0.  1.
        2   -1    0    0  501    0  0.00000000000E+00  0.00000000000E+00 -0.19751528082E+04  0.19751528082E+04  0.25500000920E-02 0. -1.
    10030    2    1    2    0    0  0.00000000000E+00  0.00000000000E+00 -0.85253386787E+03  0.30977717486E+04  0.29781497293E+04 0.  0.
        4    1    3    3  502    0 -0.11925319488E+04  0.78969493628E+03  0.46079200145E+01  0.14303053475E+04  0.12699999809E+01 0.  1.
       -4    1    3    3    0  502  0.11925319488E+04 -0.78969493628E+03 -0.85714178788E+03  0.16674664011E+04  0.12699999809E+01 0. -1.
</event>
<event>
 5   0  0.2601252E-07  0.3685087E+04  0.7818609E-02  0.8071275E-01
        1   -1    0    0  501    0  0.00000000000E+00  0.00000000000E+00  0.15393160515E+04  0.15393160515E+04  0.50400001928E-02 0.  1.
       -1   -1    0    0    0  501  0.00000000000E+00  0.00000000000E+00 -0.22055028290E+04  0.22055028290E+04  0.50400001928E-02 0. -1.
    10030    2    1    2    0    0  0.00000000000E+00  0.00000000000E+00 -0.66618677750E+03  0.37448188805E+04  0.36850866510E+04 0.  0.
        3    1    3    3  502    0  0.18049664833E+04 -0.13271193808E+03 -0.68431008842E+03  0.19348893435E+04  0.10100000352E+00 0. -1.
       -3    1    3    3    0  502 -0.18049664833E+04  0.13271193808E+03  0.18123310926E+02  0.18099295370E+04  0.10100000352E+00 0.  1.
</event>
<event>
 5   0  0.2713405E-07  0.2144053E+04  0.7818609E-02  0.8542082E-01
        1   -1    0    0  501    0  0.00000000000E+00  0.00000000000E+00  0.20517603235E+04  0.20517603235E+04  0.50400001928E-02 0.  1.
       -1   -1    0    0    0  501  0.00000000000E+00  0.00000000000E+00 -0.56012446341E+03  0.56012446343E+03  0.50400001928E-02 0. -1.
    10030    2    1    2    0    0  0.00000000000E+00  0.00000000000E+00  0.14916358601E+04  0.26118847869E+04  0.21440533111E+04 0.  0.
        1    1    3    3  502    0 -0.67753682223E+03 -0.70665433234E+03  0.21366594811E+03  0.10020327481E+04  0.50400001928E-02 0. -1.
       -1    1    3    3    0  502  0.67753682223E+03  0.70665433234E+03  0.12779699119E+04  0.16098520388E+04  0.50400001928E-02 0.  1.
</event>
<event>
 5   0  0.2647879E-07  0.2025032E+04  0.7818609E-02  0.8595006E-01
       -1   -1    0    0    0  501  0.00000000000E+00  0.00000000000E+00  0.88206713697E+03  0.88206713699E+03  0.50400001928E-02 0.  1.
        1   -1    0    0  501    0  0.00000000000E+00  0.00000000000E+00 -0.11622569812E+04  0.11622569812E+04  0.50400001928E-02 0. -1.
    10030    2    1    2    0    0  0.00000000000E+00  0.00000000000E+00 -0.28018984418E+03  0.20443241182E+04  0.20250320371E+04 0.  0.
        2    1    3    3  502    0  0.91809410884E+03  0.39109792691E+03  0.32809367612E+02  0.99846423858E+03  0.25500000920E-02 0. -1.
       -2    1    3    3    0  502 -0.91809410884E+03 -0.39109792691E+03 -0.31299921179E+03  0.10458598796E+04  0.25500000920E-02 0.  1.
</event>
<event>
 5   0  0.2601252E-07  0.3871786E+04  0.7818609E-02  0.8030923E-01
       -1   -1    0    0    0  501  0.00000000000E+00  0.00000000000E+00  0.17590033409E+04  0.17590033409E+04  0.50400001928E-02 0. -1.
        1   -1    0    0  501    0  0.00000000000E+00  0.00000000000E+00 -0.21305706535E+04  0.21305706535E+04  0.50400001928E-02 0.  1.
    10030    2    1    2    0    0  0.00000000000E+00  0.00000000000E+00 -0.37156731260E+03  0.38895739943E+04  0.38717855816E+04 0.  0.
        3    1    3    3  502    0 -0.14268252621E+04  0.10148425791E+04  0.64381004447E+03  0.18655366982E+04  0.10100000352E+00 0. -1.
       -3    1    3    3    0  502  0.14268252621E+04 -0.10148425791E+04 -0.10153773571E+04  0.20240372961E+04  0.10100000352E+00 0.  1.
</event>
<event>
 5   0  0.5161550E-07  0.3197823E+04  0.7818609E-02  0.8189392E-01
       -2   -1    0    0    0  501  0.00000000000E+00  0.00000000000E+00  0.13115673356E+04  0.13115673356E+04  0.25500000920E-02 0. -1.
        2   -1    0    0  501    0  0.00000000000E+00  0.00000000000E+00 -0.19492080215E+04  0.19492080215E+04  0.25500000920E-02 0.  1.
    10030    2    1    2    0    0  0.00000000000E+00  0.00000000000E+00 -0.63764068591E+03  0.32607753570E+04  0.31978227413E+04 0.  0.
        2    1    3    3  502    0  0.84176079382E+02 -0.15493099197E+04  0.74877182353E+02  0.15534006026E+04  0.25500000920E-02 0.  1.
       -2    1    3    3    0  502 -0.84176079382E+02  0.15493099197E+04 -0.71251786826E+03  0.17073747545E+04  0.25500000920E-02 0. -1.
</event>
<event>
 5   0  0.7570277E-07  0.2443662E+04  0.7818609E-02  0.8423336E-01
       -2   -1    0    0    0  501  0.00000000000E+00  0.00000000000E+00  0.71262396239E+03  0.71262396239E+03  0.25500000920E-02 0. -1.
        2   -1    0    0  501    0  0.00000000000E+00  0.00000000000E+00 -0.20948936747E+04  0.20948936747E+04  0.25500000920E-02 0.  1.
    10030    2    1    2    0    0  0.00000000000E+00  0.00000000000E+00 -0.13822697123E+04  0.28075176370E+04  0.24436623590E+04 0.  0.
        5    1    3    3  502    0  0.38441173033E+03  0.27385042798E+03 -0.19859188721E+04  0.20412403807E+04  0.46999998093E+01 0.  1.
       -5    1    3    3    0  502 -0.38441173033E+03 -0.27385042798E+03  0.60364915986E+03  0.76627725630E+03  0.46999998093E+01 0. -1.
</event>
<event>
 5   0  0.6043512E-07  0.2297948E+04  0.7818609E-02  0.8478731E-01
       -2   -1    0    0    0  501  0.00000000000E+00  0.00000000000E+00  0.63855557772E+03  0.63855557773E+03  0.25500000920E-02 0. -1.
        2   -1    0    0  501    0  0.00000000000E+00  0.00000000000E+00 -0.20673871530E+04  0.20673871530E+04  0.25500000920E-02 0.  1.
    10030    2    1    2    0    0  0.00000000000E+00  0.00000000000E+00 -0.14288315752E+04  0.27059427307E+04  0.22979483004E+04 0.  0.
        3    1    3    3  502    0 -0.37601764367E+03  0.35378160769E+03  0.49427260446E+03  0.71474198982E+03  0.10100000352E+00 0. -1.
       -3    1    3    3    0  502  0.37601764367E+03 -0.35378160769E+03 -0.19231041797E+04  0.19912007409E+04  0.10100000352E+00 0.  1.
</event>
<event>
 5   0  0.3579559E-07  0.2087909E+04  0.7818609E-02  0.8566588E-01
        1   -1    0    0  501    0  0.00000000000E+00  0.00000000000E+00  0.63816839190E+03  0.63816839192E+03  0.50400001928E-02 0.  1.
       -1   -1    0    0    0  501  0.00000000000E+00  0.00000000000E+00 -0.17077637230E+04  0.17077637230E+04  0.50400001928E-02 0. -1.
    10030    2    1    2    0    0  0.00000000000E+00  0.00000000000E+00 -0.10695953311E+04  0.23459321149E+04  0.20879088379E+04 0.  0.
        4    1    3    3  502    0 -0.85842535463E+02 -0.58835173263E+03  0.42933100713E+03  0.73338491174E+03  0.12699999809E+01 0.  1.
       -4    1    3    3    0  502  0.85842535463E+02  0.58835173263E+03 -0.14989263382E+04  0.16125472032E+04  0.12699999809E+01 0. -1.
</event>
<event>
 5   0  0.4449262E-07  0.2425302E+04  0.7818609E-02  0.8430091E-01
        2   -1    0    0  501    0  0.00000000000E+00  0.00000000000E+00  0.12014085101E+04  0.12014085101E+04  0.25500000920E-02 0.  1.
       -2   -1    0    0    0  501  0.00000000000E+00  0.00000000000E+00 -0.12239991903E+04  0.12239991903E+04  0.25500000920E-02 0. -1.
    10030    2    1    2    0    0  0.00000000000E+00  0.00000000000E+00 -0.22590680207E+02  0.24254077004E+04  0.24253024913E+04 0.  0.
        1    1    3    3  502    0  0.91556332831E+02 -0.28086841740E+03  0.11648736217E+04  0.12017488026E+04  0.50400001928E-02 0.  1.
       -1    1    3    3    0  502 -0.91556332831E+02  0.28086841740E+03 -0.11874643019E+04  0.12236588979E+04  0.50400001928E-02 0. -1.
</event>
<event>
 5   0  0.7267351E-07  0.2205583E+04  0.7818609E-02  0.8516108E-01
        2   -1    0    0  501    0  0.00000000000E+00  0.00000000000E+00  0.14525065915E+04  0.14525065915E+04  0.25500000920E-02 0.  1.
       -2   -1    0    0    0  501  0.00000000000E+00  0.00000000000E+00 -0.83727646479E+03  0.83727646480E+03  0.25500000920E-02 0. -1.
    10030    2    1    2    0    0  0.00000000000E+00  0.00000000000E+00  0.61523012675E+03  0.22897830563E+04  0.22055834458E+04 0.  0.
        3    1    3    3  502    0  0.79666212024E+03 -0.19643248932E+03  0.10725563320E+04  0.13504196949E+04  0.10100000352E+00 0.  1.
       -3    1    3    3    0  502 -0.79666212024E+03  0.19643248932E+03 -0.45732620527E+03  0.93936336149E+03  0.10100000352E+00 0. -1.
</event>
<event>
 5   0  0.6043512E-07  0.2089098E+04  0.7818609E-02  0.8566061E-01
        2   -1    0    0  501    0  0.00000000000E+00  0.00000000000E+00  0.26026627524E+04  0.26026627524E+04  0.25500000920E-02 0. -1.
       -2   -1    0    0    0  501  0.00000000000E+00  0.00000000000E+00 -0.41921795406E+03  0.41921795407E+03  0.25500000920E-02 0.  1.
    10030    2    1    2    0    0  0.00000000000E+00  0.00000000000E+00  0.21834447984E+04  0.30218807065E+04  0.20890983262E+04 0.  0.
        3    1    3    3  502    0  0.53372328975E+03 -0.82984698100E+02 -0.20152943562E+03  0.57650770486E+03  0.10100000352E+00 0.  1.
       -3    1    3    3    0  502 -0.53372328975E+03  0.82984698100E+02  0.23849742340E+04  0.24453730016E+04  0.10100000352E+00 0. -1.
</event>
<event>
 5   0  0.4449262E-07  0.3824383E+04  0.7818609E-02  0.8040943E-01
       -2   -1    0    0    0  501  0.00000000000E+00  0.00000000000E+00  0.17649019446E+04  0.17649019446E+04  0.25500000920E-02 0. -1.
        2   -1    0    0  501    0  0.00000000000E+00  0.00000000000E+00 -0.20717728301E+04  0.20717728301E+04  0.25500000920E-02 0.  1.
    10030    2    1    2    0    0  0.00000000000E+00  0.00000000000E+00 -0.30687088550E+03  0.38366747748E+04  0.38243827720E+04 0.  0.
        1    1    3    3  502    0  0.45879176109E+03 -0.13832933789E+04 -0.13953502717E+04  0.20176701497E+04  0.50400001928E-02 0.  1.
       -1    1    3    3    0  502 -0.45879176109E+03  0.13832933789E+04  0.10884793862E+04  0.18190046251E+04  0.50400001928E-02 0. -1.
</event>
<event>
 5   0  0.3579559E-07  0.3997328E+04  0.7818609E-02  0.8005086E-01
        1   -1    0    0  501    0  0.00000000000E+00  0.00000000000E+00  0.23650084819E+04  0.23650084820E+04  0.50400001928E-02 0.  1.
       -1   -1    0    0    0  501  0.00000000000E+00  0.00000000000E+00 -0.16890666228E+04  0.16890666228E+04  0.50400001928E-02 0. -1.
    10030    2    1    2    0    0  0.00000000000E+00  0.00000000000E+00  0.67594185919E+03  0.40540751047E+04  0.39973275520E+04 0.  0.
        4    1    3    3  502    0  0.14496960111E+04  0.62020648601E+03 -0.90762600771E+03  0.18193573570E+04  0.12699999809E+01 0. -1.
       -4    1    3    3    0  502 -0.14496960111E+04 -0.62020648601E+03  0.15835678669E+04  0.22347177477E+04  0.12699999809E+01 0.  1.
</event>
<event>
 5   0  0.7570277E-07  0.3697788E+04  0.7818609E-02  0.8068452E-01
        2   -1    0    0  501    0  0.00000000000E+00  0.00000000000E+00  0.18129725670E+04  0.18129725670E+04  0.25500000920E-02 0.  1.
       -2   -1    0    0    0  501  0.00000000000E+00  0.00000000000E+00 -0.18855268790E+04  0.18855268790E+04  0.25500000920E-02 0. -1.
    10030    2    1    2    0    0  0.00000000000E+00  0.00000000000E+00 -0.72554311982E+02  0.36984994460E+04  0.36977877202E+04 0.  0.
        5    1    3    3  502    0 -0.16189717686E+04  0.30681777260E+03  0.80244234161E+03  0.18327963702E+04  0.46999998093E+01 0.  1.
       -5    1    3    3    0  502  0.16189717686E+04 -0.30681777260E+03 -0.87499665359E+03  0.18657030758E+04  0.46999998093E+01 0. -1.
</event>
<event>
 5   0  0.2601252E-07  0.4078234E+04  0.7818609E-02  0.7988948E-01
        1   -1    0    0  501    0  0.00000000000E+00  0.00000000000E+00  0.26096690152E+04  0.26096690152E+04  0.50400001928E-02 0. -1.
       -1   -1    0    0    0  501  0.00000000000E+00  0.00000000000E+00 -0.15933051207E+04  0.15933051207E+04  0.50400001928E-02 0.  1.
    10030    2    1    2    0    0  0.00000000000E+00  0.00000000000E+00  0.10163638945E+04  0.42029741359E+04  0.40782344245E+04 0.  0.
        3    1    3    3  502    0  0.32599953214E+03  0.39050435324E+03 -0.15268626843E+04  0.16093722415E+04  0.10100000352E+00 0.  1.
       -3    1    3    3    0  502 -0.32599953214E+03 -0.39050435324E+03  0.25432265788E+04  0.25936018943E+04  0.10100000352E+00 0. -1.
</event>
<event>
 5   0  0.5161550E-07  0.3928184E+04  0.7818609E-02  0.8019193E-01
        2   -1    0    0  501    0  0.00000000000E+00  0.00000000000E+00  0.13720568980E+04  0.13720568980E+04  0.25500000920E-02 0. -1.
       -2   -1    0    0    0  501  0.00000000000E+00  0.00000000000E+00 -0.28115874987E+04  0.28115874987E+04  0.25500000920E-02 0.  1.
    10030    2    1    2    0    0  0.00000000000E+00  0.00000000000E+00 -0.14395306008E+04  0.41836443967E+04  0.39281843245E+04 0.  0.
        2    1    3    3  502    0  0.15730951135E+04 -0.83363586416E+03  0.16368616971E+03  0.17878395208E+04  0.25500000920E-02 0. -1.
       -2    1    3    3    0  502 -0.15730951135E+04  0.83363586416E+03 -0.16032167705E+04  0.23958048759E+04  0.25500000920E-02 0.  1.
</event>
<event>
 5   0  0.2713405E-07  0.3806981E+04  0.7818609E-02  0.8044659E-01
        1   -1    0    0  501    0  0.00000000000E+00  0.00000000000E+00  0.17802813701E+04  0.17802813701E+04  0.50400001928E-02 0. -1.
       -1   -1    0    0    0  501  0.00000000000E+00  0.00000000000E+00 -0.20352262624E+04  0.20352262625E+04  0.50400001928E-02 0.  1.
    10030    2    1    2    0    0  0.00000000000E+00  0.00000000000E+00 -0.25494489240E+03  0.38155076325E+04  0.38069806403E+04 0.  0.
        1    1    3    3  502    0 -0.46918225990E+03 -0.17986309834E+04  0.28340920489E+03  0.18802994934E+04  0.50400001928E-02 0. -1.
       -1    1    3    3    0  502  0.46918225990E+03  0.17986309834E+04 -0.53835409728E+03  0.19352081391E+04  0.50400001928E-02 0.  1.
</event>
<event>
 5   0  0.2401125E-07  0.2760971E+04  0.7818609E-02  0.8315489E-01
        3   -1    0    0  501    0  0.00000000000E+00  0.00000000000E+00  0.23813419365E+04  0.23813419387E+04  0.10100000352E+00 0.  1.
       -3   -1    0    0    0  501  0.00000000000E+00  0.00000000000E+00 -0.80027972540E+03  0.80027973177E+03  0.10100000352E+00 0. -1.
    10030    2    1    2    0    0  0.00000000000E+00  0.00000000000E+00  0.15810622111E+04  0.31816216705E+04  0.27609706153E+04 0.  0.
        5    1    3    3  502    0  0.19978743595E+03  0.10630634339E+04 -0.19787802573E+03  0.10996347972E+04  0.46999998093E+01 0. -1.
       -5    1    3    3    0  502 -0.19978743595E+03 -0.10630634339E+04  0.17789402369E+04  0.20819868733E+04  0.46999998093E+01 0.  1.
</event>
<event>
 5   0  0.2647879E-07  0.2104688E+04  0.7818609E-02  0.8559181E-01
       -1   -1    0    0    0  501  0.00000000000E+00  0.00000000000E+00  0.99262956675E+03  0.99262956676E+03  0.50400001928E-02 0. -1.
        1   -1    0    0  501    0  0.00000000000E+00  0.00000000000E+00 -0.11156511151E+04  0.11156511151E+04  0.50400001928E-02 0.  1.
    10030    2    1    2    0    0  0.00000000000E+00  0.00000000000E+00 -0.12302154832E+03  0.21082806818E+04  0.21046883694E+04 0.  0.
        2    1    3    3  502    0 -0.73149049579E+02  0.57227748972E+03 -0.94311292124E+03  0.11055832356E+04  0.25500000920E-02 0.  1.
       -2    1    3    3    0  502  0.73149049579E+02 -0.57227748972E+03  0.82009137292E+03  0.10026974462E+04  0.25500000920E-02 0. -1.
</event>
<event>
 5   0  0.7256473E-07  0.3136453E+04  0.7818609E-02  0.8205804E-01
        2   -1    0    0  501    0  0.00000000000E+00  0.00000000000E+00  0.18141625444E+04  0.18141625444E+04  0.25500000920E-02 0. -1.
       -2   -1    0    0    0  501  0.00000000000E+00  0.00000000000E+00 -0.13556304888E+04  0.13556304888E+04  0.25500000920E-02 0.  1.
    10030    2    1    2    0    0  0.00000000000E+00  0.00000000000E+00  0.45853205559E+03  0.31697930332E+04  0.31364528097E+04 0.  0.
        4    1    3    3  502    0 -0.12496376446E+04  0.26239654928E+03  0.11493757448E+04  0.17179966261E+04  0.12699999809E+01 0. -1.
       -4    1    3    3    0  502  0.12496376446E+04 -0.26239654928E+03 -0.69084368918E+03  0.14517964071E+04  0.12699999809E+01 0.  1.
</event>
<event>
 5   0  0.2401125E-07  0.3835182E+04  0.7818609E-02  0.8038647E-01
        1   -1    0    0  501    0  0.00000000000E+00  0.00000000000E+00  0.21750787364E+04  0.21750787364E+04  0.50400001928E-02 0. -1.
       -1   -1    0    0    0  501  0.00000000000E+00  0.00000000000E+00 -0.16905846233E+04  0.16905846233E+04  0.50400001928E-02 0.  1.
    10030    2    1    2    0    0  0.00000000000E+00  0.00000000000E+00  0.48449411307E+03  0.38656633598E+04  0.38351816991E+04 0.  0.
        5    1    3    3  502    0 -0.99832557533E+03  0.93009221719E+03  0.16003262642E+04  0.21030434443E+04  0.46999998093E+01 0. -1.
       -5    1    3    3    0  502  0.99832557533E+03 -0.93009221719E+03 -0.11158321511E+04  0.17626199154E+04  0.46999998093E+01 0.  1.
</event>
<event>
 5   0  0.2897736E-07  0.1982792E+04  0.7818609E-02  0.8614708E-01
        1   -1    0    0  501    0  0.00000000000E+00  0.00000000000E+00  0.11818312889E+04  0.11818312889E+04  0.50400001928E-02 0.  1.
       -1   -1    0    0    0  501  0.00000000000E+00  0.00000000000E+00 -0.83164663241E+03  0.83164663242E+03  0.50400001928E-02 0. -1.
    10030    2    1    2    0    0  0.00000000000E+00  0.00000000000E+00  0.35018465650E+03  0.20134779213E+04  0.19827919826E+04 0.  0.
        2    1    3    3  502    0 -0.42358051125E+03  0.55506854212E+03 -0.53960700916E+03  0.88243824731E+03  0.25500000920E-02 0. -1.
       -2    1    3    3    0  502  0.42358051125E+03 -0.55506854212E+03  0.88979166566E+03  0.11310396740E+04  0.25500000920E-02 0.  1.
</event>
<event>
 5   0  0.2401125E-07  0.4155634E+04  0.7818609E-02  0.7973866E-01
       -1   -1    0    0    0  501  0.00000000000E+00  0.00000000000E+00  0.26462598854E+04  0.26462598854E+04  0.50400001928E-02 0. -1.
        1   -1    0    0  501    0  0.00000000000E+00  0.00000000000E+00 -0.16314815053E+04  0.16314815053E+04  0.50400001928E-02 0.  1.
    10030    2    1    2    0    0  0.00000000000E+00  0.00000000000E+00  0.10147783801E+04  0.42777413908E+04  0.41556342772E+04 0.  0.
        5    1    3    3  502    0  0.16272399015E+04  0.13708050198E+02 -0.82255054504E+03  0.18233784843E+04  0.46999998093E+01 0.  1.
       -5    1    3    3    0  502 -0.16272399015E+04 -0.13708050198E+02  0.18373289251E+04  0.24543629065E+04  0.46999998093E+01 0. -1.
</event>
<event>
 5   0  0.2647879E-07  0.2107667E+04  0.7818609E-02  0.8557874E-01
       -1   -1    0    0    0  501  0.00000000000E+00  0.00000000000E+00  0.69446208507E+03  0.69446208509E+03  0.50400001928E-02 0. -1.
        1   -1    0    0  501    0  0.00000000000E+00  0.00000000000E+00 -0.15991730138E+04  0.15991730138E+04  0.50400001928E-02 0.  1.
    10030    2    1    2    0    0  0.00000000000E+00  0.00000000000E+00 -0.90471092876E+03  0.22936350989E+04  0.21076669809E+04 0.  0.
        2    1    3    3  502    0 -0.31523817792E+03  0.99494046803E+03 -0.61111603550E+03  0.12094397267E+04  0.25500000920E-02 0. -1.
       -2    1    3    3    0  502  0.31523817792E+03 -0.99494046803E+03 -0.29359489325E+03  0.10841953722E+04  0.25500000920E-02 0.  1.
</event>
<event>
 5   0  0.3579559E-07  0.3946947E+04  0.7818609E-02  0.8015335E-01
        1   -1    0    0  501    0  0.00000000000E+00  0.00000000000E+00  0.18019636995E+04  0.18019636995E+04  0.50400001928E-02 0.  1.
       -1   -1    0    0    0  501  0.00000000000E+00  0.00000000000E+00 -0.21613075843E+04  0.21613075843E+04  0.50400001928E-02 0. -1.
    10030    2    1    2    0    0  0.00000000000E+00  0.00000000000E+00 -0.35934388482E+03  0.39632712838E+04  0.39469470787E+04 0.  0.
        4    1    3    3  502    0  0.18522547073E+03  0.14899351298E+04 -0.14657427094E+04  0.20982417565E+04  0.12699999809E+01 0. -1.
       -4    1    3    3    0  502 -0.18522547073E+03 -0.14899351298E+04  0.11063988245E+04  0.18650295273E+04  0.12699999809E+01 0.  1.
</event>
<event>
 5   0  0.4449262E-07  0.3507580E+04  0.7818609E-02  0.8111996E-01
        2   -1    0    0  501    0  0.00000000000E+00  0.00000000000E+00  0.25093681336E+04  0.25093681336E+04  0.25500000920E-02 0. -1.
       -2   -1    0    0    0  501  0.00000000000E+00  0.00000000000E+00 -0.12257185239E+04  0.12257185239E+04  0.25500000920E-02 0.  1.
    10030    2    1    2    0    0  0.00000000000E+00  0.00000000000E+00  0.12836496097E+04  0.37350866575E+04  0.35075797950E+04 0.  0.
        1    1    3    3  502    0  0.15211300121E+04 -0.64747524374E+03  0.12652175873E+04  0.20817867922E+04  0.50400001928E-02 0.  1.
       -1    1    3    3    0  502 -0.15211300121E+04  0.64747524374E+03  0.18432022382E+02  0.16532998652E+04  0.50400001928E-02 0. -1.
</event>
<event>
 5   0  0.2713405E-07  0.3987927E+04  0.7818609E-02  0.8006986E-01
        1   -1    0    0  501    0  0.00000000000E+00  0.00000000000E+00  0.28112533317E+04  0.28112533317E+04  0.50400001928E-02 0. -1.
       -1   -1    0    0    0  501  0.00000000000E+00  0.00000000000E+00 -0.14142771346E+04  0.14142771346E+04  0.50400001928E-02 0.  1.
    10030    2    1    2    0    0  0.00000000000E+00  0.00000000000E+00  0.13969761971E+04  0.42255304663E+04  0.39879274349E+04 0.  0.
        1    1    3    3  502    0 -0.14042491673E+04 -0.11103233235E+04 -0.23198878861E+03  0.18051460895E+04  0.50400001928E-02 0.  1.
       -1    1    3    3    0  502  0.14042491673E+04  0.11103233235E+04  0.16289649858E+04  0.24203843768E+04  0.50400001928E-02 0. -1.
</event>
<event>
 5   0  0.5161550E-07  0.4018692E+04  0.7818609E-02  0.8000786E-01
        2   -1    0    0  501    0  0.00000000000E+00  0.00000000000E+00  0.27032763845E+04  0.27032763845E+04  0.25500000920E-02 0. -1.
       -2   -1    0    0    0  501  0.00000000000E+00  0.00000000000E+00 -0.14935474596E+04  0.14935474596E+04  0.25500000920E-02 0.  1.
    10030    2    1    2    0    0  0.00000000000E+00  0.00000000000E+00  0.12097289249E+04  0.41968238442E+04  0.40186921140E+04 0.  0.
        2    1    3    3  502    0 -0.10354023119E+04 -0.60478958418E+03 -0.10789447360E+04  0.16130561466E+04  0.25500000920E-02 0.  1.
       -2    1    3    3    0  502  0.10354023119E+04  0.60478958418E+03  0.22886736609E+04  0.25837676976E+04  0.25500000920E-02 0. -1.
</event>
<event>
 5   0  0.4449262E-07  0.4037349E+04  0.7818609E-02  0.7997054E-01
       -2   -1    0    0    0  501  0.00000000000E+00  0.00000000000E+00  0.16957630571E+04  0.16957630571E+04  0.25500000920E-02 0. -1.
        2   -1    0    0  501    0  0.00000000000E+00  0.00000000000E+00 -0.24030757731E+04  0.24030757731E+04  0.25500000920E-02 0.  1.
    10030    2    1    2    0    0  0.00000000000E+00  0.00000000000E+00 -0.70731271599E+03  0.40988388303E+04  0.40373491896E+04 0.  0.
        1    1    3    3  502    0  0.14634935871E+04  0.13668853561E+04 -0.95105181948E+02  0.20048027463E+04  0.50400001928E-02 0.  1.
       -1    1    3    3    0  502 -0.14634935871E+04 -0.13668853561E+04 -0.61220753404E+03  0.20940360839E+04  0.50400001928E-02 0. -1.
</event>
<event>
 5   0  0.2401125E-07  0.4032546E+04  0.7818609E-02  0.7998013E-01
       -1   -1    0    0    0  501  0.00000000000E+00  0.00000000000E+00  0.25218099581E+04  0.25218099581E+04  0.50400001928E-02 0.  1.
        1   -1    0    0  501    0  0.00000000000E+00  0.00000000000E+00 -0.16120790182E+04  0.16120790183E+04  0.50400001928E-02 0. -1.
    10030    2    1    2    0    0  0.00000000000E+00  0.00000000000E+00  0.90973093986E+03  0.41338889764E+04  0.40325460550E+04 0.  0.
        5    1    3    3  502    0  0.77054027250E+03 -0.11623624510E+04 -0.10379298153E+04  0.17384300879E+04  0.46999998093E+01 0. -1.
       -5    1    3    3    0  502 -0.77054027250E+03  0.11623624510E+04  0.19476607551E+04  0.23954588884E+04  0.46999998093E+01 0.  1.
</event>
<event>
 5   0  0.2601252E-07  0.2139674E+04  0.7818609E-02  0.8543965E-01
       -1   -1    0    0    0  501  0.00000000000E+00  0.00000000000E+00  0.10544321951E+04  0.10544321951E+04  0.50400001928E-02 0.  1.
        1   -1    0    0  501    0  0.00000000000E+00  0.00000000000E+00 -0.10854665541E+04  0.10854665542E+04  0.50400001928E-02 0. -1.
    10030    2    1    2    0    0  0.00000000000E+00  0.00000000000E+00 -0.31034359049E+02  0.21398987493E+04  0.21396736961E+04 0.  0.
        3    1    3    3  502    0 -0.91747796531E+03  0.49915061335E+03  0.21609672912E+03  0.10665903422E+04  0.10100000352E+00 0.  1.
       -3    1    3    3    0  502  0.91747796531E+03 -0.49915061335E+03 -0.24713108817E+03  0.10733084070E+04  0.10100000352E+00 0. -1.
</event>
<event>
 5   0  0.7256473E-07  0.2542416E+04  0.7818609E-02  0.8388028E-01
        2   -1    0    0  501    0  0.00000000000E+00  0.00000000000E+00  0.21520836237E+04  0.21520836237E+04  0.25500000920E-02 0.  1.
       -2   -1    0    0    0  501  0.00000000000E+00  0.00000000000E+00 -0.75088623528E+03  0.75088623529E+03  0.25500000920E-02 0. -1.
    10030    2    1    2    0    0  0.00000000000E+00  0.00000000000E+00  0.14011973884E+04  0.29029698590E+04  0.25424161502E+04 0.  0.
        4    1    3    3  502    0 -0.86039750591E+02  0.12390716242E+04  0.39153344399E+03  0.13023061772E+04  0.12699999809E+01 0.  1.
       -4    1    3    3    0  502  0.86039750591E+02 -0.12390716242E+04  0.10096639444E+04  0.16006636817E+04  0.12699999809E+01 0. -1.
</event>
<event>
 5   0  0.7256473E-07  0.3906286E+04  0.7818609E-02  0.8023723E-01
       -2   -1    0    0    0  501  0.00000000000E+00  0.00000000000E+00  0.16340575960E+04  0.16340575960E+04  0.25500000920E-02 0.  1.
        2   -1    0    0  501    0  0.00000000000E+00  0.00000000000E+00 -0.23345373227E+04  0.23345373227E+04  0.25500000920E-02 0. -1.
    10030    2    1    2    0    0  0.00000000000E+00  0.00000000000E+00 -0.70047972677E+03  0.39685949187E+04  0.39062864438E+04 0.  0.
        4    1    3    3  502    0 -0.29267784408E+03 -0.45151341095E+03 -0.22577513537E+04  0.23209841595E+04  0.12699999809E+01 0. -1.
       -4    1    3    3    0  502  0.29267784408E+03  0.45151341095E+03  0.15572716269E+04  0.16476107592E+04  0.12699999809E+01 0.  1.
</event>
<event>
 5   0  0.5161550E-07  0.2184936E+04  0.7818609E-02  0.8524724E-01
        2   -1    0    0  501    0  0.00000000000E+00  0.00000000000E+00  0.89305001286E+03  0.89305001286E+03  0.25500000920E-02 0.  1.
       -2   -1    0    0    0  501  0.00000000000E+00  0.00000000000E+00 -0.13364162842E+04  0.13364162842E+04  0.25500000920E-02 0. -1.
    10030    2    1    2    0    0  0.00000000000E+00  0.00000000000E+00 -0.44336627138E+03  0.22294662971E+04  0.21849362277E+04 0.  0.
        2    1    3    3  502    0 -0.91709144163E+03  0.31559831013E+03  0.29138419814E+03  0.10127012178E+04  0.25500000920E-02 0.  1.
       -2    1    3    3    0  502  0.91709144163E+03 -0.31559831013E+03 -0.73475046952E+03  0.12167650793E+04  0.25500000920E-02 0. -1.
</event>
<event>
 5   0  0.2601252E-07  0.3986728E+04  0.7818609E-02  0.8007229E-01
       -1   -1    0    0    0  501  0.00000000000E+00  0.00000000000E+00  0.27662247011E+04  0.27662247011E+04  0.50400001928E-02 0.  1.
        1   -1    0    0  501    0  0.00000000000E+00  0.00000000000E+00 -0.14364344957E+04  0.14364344957E+04  0.50400001928E-02 0. -1.
    10030    2    1    2    0    0  0.00000000000E+00  0.00000000000E+00  0.13297902054E+04  0.42026591968E+04  0.39867282745E+04 0.  0.
        3    1    3    3  502    0 -0.25054808460E+03 -0.46757728627E+03  0.26904505237E+04  0.27422485103E+04  0.10100000352E+00 0.  1.
       -3    1    3    3    0  502  0.25054808460E+03  0.46757728627E+03 -0.13606603183E+04  0.14604106865E+04  0.10100000352E+00 0. -1.
</event>
<event>
 5   0  0.4449262E-07  0.3672143E+04  0.7818609E-02  0.8074163E-01
        2   -1    0    0  501    0  0.00000000000E+00  0.00000000000E+00  0.24059417572E+04  0.24059417572E+04  0.25500000920E-02 0. -1.
       -2   -1    0    0    0  501  0.00000000000E+00  0.00000000000E+00 -0.14011807218E+04  0.14011807218E+04  0.25500000920E-02 0.  1.
    10030    2    1    2    0    0  0.00000000000E+00  0.00000000000E+00  0.10047610354E+04  0.38071224789E+04  0.36721433566E+04 0.  0.
        1    1    3    3  502    0  0.10958580044E+04 -0.10532681839E+04  0.15702310541E+04  0.21853842217E+04  0.50400001928E-02 0. -1.
       -1    1    3    3    0  502 -0.10958580044E+04  0.10532681839E+04 -0.56547001868E+03  0.16217382573E+04  0.50400001928E-02 0.  1.
</event>
<event>
 5   0  0.2401125E-07  0.3919407E+04  0.7818609E-02  0.8021005E-01
       -1   -1    0    0    0  501  0.00000000000E+00  0.00000000000E+00  0.15600652326E+04  0.15600652326E+04  0.50400001928E-02 0. -1.
        1   -1    0    0  501    0  0.00000000000E+00  0.00000000000E+00 -0.24617164451E+04  0.24617164451E+04  0.50400001928E-02 0.  1.
    10030    2    1    2    0    0  0.00000000000E+00  0.00000000000E+00 -0.90165121247E+03  0.40217816777E+04  0.39194072198E+04 0.  0.
        5    1    3    3  502    0 -0.15346896874E+04 -0.74135888700E+03  0.54166665188E+03  0.17883820307E+04  0.46999998093E+01 0. -1.
       -5    1    3    3    0  502  0.15346896874E+04  0.74135888700E+03 -0.14433178643E+04  0.22333996470E+04  0.46999998093E+01 0.  1.
</event>
<event>
 5   0  0.2713405E-07  0.3911784E+04  0.7818609E-02  0.8022583E-01
       -1   -1    0    0    0  501  0.00000000000E+00  0.00000000000E+00  0.22072138370E+04  0.22072138370E+04  0.50400001928E-02 0. -1.
        1   -1    0    0  501    0  0.00000000000E+00  0.00000000000E+00 -0.17331865686E+04  0.17331865686E+04  0.50400001928E-02 0.  1.
    10030    2    1    2    0    0  0.00000000000E+00  0.00000000000E+00  0.47402726842E+03  0.39404004056E+04  0.39117839288E+04 0.  0.
        1    1    3    3  502    0  0.44343153107E+03 -0.46502002831E+03 -0.16238331772E+04  0.17463417011E+04  0.50400001928E-02 0.  1.
       -1    1    3    3    0  502 -0.44343153107E+03  0.46502002831E+03  0.20978604457E+04  0.21940587045E+04  0.50400001928E-02 0. -1.
</event>
<event>
 5   0  0.2401125E-07  0.3990277E+04  0.7818609E-02  0.8006511E-01
        1   -1    0    0  501    0  0.00000000000E+00  0.00000000000E+00  0.20856772889E+04  0.20856772889E+04  0.50400001928E-02 0. -1.
       -1   -1    0    0    0  501  0.00000000000E+00  0.00000000000E+00 -0.19085295616E+04  0.19085295616E+04  0.50400001928E-02 0.  1.
    10030    2    1    2    0    0  0.00000000000E+00  0.00000000000E+00  0.17714772730E+03  0.39942068505E+04  0.39902765628E+04 0.  0.
        5    1    3    3  502    0  0.75283821486E+03 -0.87465935461E+03  0.17176781440E+04  0.20693560981E+04  0.46999998093E+01 0. -1.
       -5    1    3    3    0  502 -0.75283821486E+03  0.87465935461E+03 -0.15405304167E+04  0.19248507524E+04  0.46999998093E+01 0.  1.
</event>
<event>
 5   0  0.7256473E-07  0.3901411E+04  0.7818609E-02  0.8024736E-01
       -2   -1    0    0    0  501  0.00000000000E+00  0.00000000000E+00  0.19519139907E+04  0.19519139907E+04  0.25500000920E-02 0.  1.
        2   -1    0    0  501    0  0.00000000000E+00  0.00000000000E+00 -0.19494975278E+04  0.19494975278E+04  0.25500000920E-02 0. -1.
    10030    2    1    2    0    0  0.00000000000E+00  0.00000000000E+00  0.24164628927E+01  0.39014115185E+04  0.39014107702E+04 0.  0.
        4    1    3    3  502    0  0.41112455510E+03 -0.13148413926E+04 -0.13798852957E+04  0.19498503352E+04  0.12699999809E+01 0. -1.
       -4    1    3    3    0  502 -0.41112455510E+03  0.13148413926E+04  0.13823017586E+04  0.19515611833E+04  0.12699999809E+01 0.  1.
</event>
<event>
 5   0  0.2647879E-07  0.3850578E+04  0.7818609E-02  0.8035387E-01
        1   -1    0    0  501    0  0.00000000000E+00  0.00000000000E+00  0.11462482761E+04  0.11462482762E+04  0.50400001928E-02 0. -1.
       -1   -1    0    0    0  501  0.00000000000E+00  0.00000000000E+00 -0.32338001362E+04  0.32338001362E+04  0.50400001928E-02 0.  1.
    10030    2    1    2    0    0  0.00000000000E+00  0.00000000000E+00 -0.20875518600E+04  0.43800484123E+04  0.38505780509E+04 0.  0.
        2    1    3    3  502    0 -0.16130170184E+04 -0.63068847076E+03 -0.20003255843E+04  0.26459203109E+04  0.25500000920E-02 0.  1.
       -2    1    3    3    0  502  0.16130170184E+04  0.63068847076E+03 -0.87226275748E+02  0.17341281014E+04  0.25500000920E-02 0. -1.
</event>
<event>
 5   0  0.2713405E-07  0.2962438E+04  0.7818609E-02  0.8254539E-01
       -1   -1    0    0    0  501  0.00000000000E+00  0.00000000000E+00  0.21995278254E+04  0.21995278254E+04  0.50400001928E-02 0. -1.
        1   -1    0    0  501    0  0.00000000000E+00  0.00000000000E+00 -0.99749094554E+03  0.99749094556E+03  0.50400001928E-02 0.  1.
    10030    2    1    2    0    0  0.00000000000E+00  0.00000000000E+00  0.12020368799E+04  0.31970187710E+04  0.29624375709E+04 0.  0.
        1    1    3    3  502    0  0.79711742903E+03 -0.44536424257E+00  0.19483208419E+04  0.21050773138E+04  0.50400001928E-02 0. -1.
       -1    1    3    3    0  502 -0.79711742903E+03  0.44536424257E+00 -0.74628396201E+03  0.10919414572E+04  0.50400001928E-02 0.  1.
</event>
<event>
 5   0  0.7271793E-07  0.2073278E+04  0.7818609E-02  0.8573107E-01
       -2   -1    0    0    0  501  0.00000000000E+00  0.00000000000E+00  0.64078381882E+03  0.64078381882E+03  0.25500000920E-02 0. -1.
        2   -1    0    0  501    0  0.00000000000E+00  0.00000000000E+00 -0.16770401035E+04  0.16770401035E+04  0.25500000920E-02 0.  1.
    10030    2    1    2    0    0  0.00000000000E+00  0.00000000000E+00 -0.10362562847E+04  0.23178239223E+04  0.20732777545E+04 0.  0.
        2    1    3    3  502    0 -0.23137470972E+03 -0.54469462357E+03  0.43337511005E+03  0.73351242339E+03  0.25500000920E-02 0. -1.
       -2    1    3    3    0  502  0.23137470972E+03  0.54469462357E+03 -0.14696313947E+04  0.15843114989E+04  0.25500000920E-02 0.  1.
</event>
<event>
 5   0  0.2713405E-07  0.3962327E+04  0.7818609E-02  0.8012190E-01
       -1   -1    0    0    0  501  0.00000000000E+00  0.00000000000E+00  0.21524590575E+04  0.21524590575E+04  0.50400001928E-02 0. -1.
        1   -1    0    0  501    0  0.00000000000E+00  0.00000000000E+00 -0.18234999105E+04  0.18234999105E+04  0.50400001928E-02 0.  1.
    10030    2    1    2    0    0  0.00000000000E+00  0.00000000000E+00  0.32895914695E+03  0.39759589680E+04  0.39623270429E+04 0.  0.
        1    1    3    3  502    0 -0.16129518690E+04  0.12210499447E+02 -0.98980231635E+03  0.18924775965E+04  0.50400001928E-02 0.  1.
       -1    1    3    3    0  502  0.16129518690E+04 -0.12210499447E+02  0.13187614633E+04  0.20834813714E+04  0.50400001928E-02 0. -1.
</event>
<event>
 5   0  0.7256473E-07  0.3698239E+04  0.7818609E-02  0.8068352E-01
        2   -1    0    0  501    0  0.00000000000E+00  0.00000000000E+00  0.22045496672E+04  0.22045496672E+04  0.25500000920E-02 0.  1.
       -2   -1    0    0    0  501  0.00000000000E+00  0.00000000000E+00 -0.15509938521E+04  0.15509938521E+04  0.25500000920E-02 0. -1.
    10030    2    1    2    0    0  0.00000000000E+00  0.00000000000E+00  0.65355581513E+03  0.37555435193E+04  0.36982390298E+04 0.  0.
        4    1    3    3  502    0 -0.62041735014E+03 -0.16184213664E+04 -0.32743737458E+03  0.17639224061E+04  0.12699999809E+01 0.  1.
       -4    1    3    3    0  502  0.62041735014E+03  0.16184213664E+04  0.98099318971E+03  0.19916211132E+04  0.12699999809E+01 0. -1.
</event>
<event>
 5   0  0.4449262E-07  0.4027274E+04  0.7818609E-02  0.7999067E-01
       -2   -1    0    0    0  501  0.00000000000E+00  0.00000000000E+00  0.14944019861E+04  0.14944019861E+04  0.25500000920E-02 0. -1.
        2   -1    0    0  501    0  0.00000000000E+00  0.00000000000E+00 -0.27132813110E+04  0.27132813110E+04  0.25500000920E-02 0.  1.
    10030    2    1    2    0    0  0.00000000000E+00  0.00000000000E+00 -0.12188793249E+04  0.42076832970E+04  0.40272735094E+04 0.  0.
        1    1    3    3  502    0  0.52339941705E+03 -0.26669018087E+03 -0.26217692437E+04  0.26867721469E+04  0.50400001928E-02 0.  1.
       -1    1    3    3    0  502 -0.52339941705E+03  0.26669018087E+03  0.14028899188E+04  0.15209111501E+04  0.50400001928E-02 0. -1.
</event>
<event>
 5   0  0.4449262E-07  0.3499648E+04  0.7818609E-02  0.8113873E-01
       -2   -1    0    0    0  501  0.00000000000E+00  0.00000000000E+00  0.13691628144E+04  0.13691628144E+04  0.25500000920E-02 0.  1.
        2   -1    0    0  501    0  0.00000000000E+00  0.00000000000E+00 -0.22363188587E+04  0.22363188587E+04  0.25500000920E-02 0. -1.
    10030    2    1    2    0    0  0.00000000000E+00  0.00000000000E+00 -0.86715604434E+03  0.36054816730E+04  0.34996483380E+04 0.  0.
        1    1    3    3  502    0  0.29995493625E+03 -0.48241388291E+03  0.12715219450E+04  0.13926464644E+04  0.50400001928E-02 0.  1.
       -1    1    3    3    0  502 -0.29995493625E+03  0.48241388291E+03 -0.21386779894E+04  0.22128352086E+04  0.50400001928E-02 0. -1.
</event>
<event>
 5   0  0.4449262E-07  0.2759073E+04  0.7818609E-02  0.8316088E-01
        2   -1    0    0  501    0  0.00000000000E+00  0.00000000000E+00  0.22896709511E+04  0.22896709511E+04  0.25500000920E-02 0.  1.
       -2   -1    0    0    0  501  0.00000000000E+00  0.00000000000E+00 -0.83117653519E+03  0.83117653519E+03  0.25500000920E-02 0. -1.
    10030    2    1    2    0    0  0.00000000000E+00  0.00000000000E+00  0.14584944159E+04  0.31208474863E+04  0.27590728645E+04 0.  0.
        1    1    3    3  502    0 -0.37676100613E+03  0.36631687403E+03  0.21720301462E+04  0.22346927896E+04  0.50400001928E-02 0.  1.
       -1    1    3    3    0  502  0.37676100613E+03 -0.36631687403E+03 -0.71353573032E+03  0.88615469665E+03  0.50400001928E-02 0. -1.
</event>
<event>
 5   0  0.6043512E-07  0.4007513E+04  0.7818609E-02  0.8003033E-01
        2   -1    0    0  501    0  0.00000000000E+00  0.00000000000E+00  0.15299376856E+04  0.15299376856E+04  0.25500000920E-02 0. -1.
       -2   -1    0    0    0  501  0.00000000000E+00  0.00000000000E+00 -0.26243159762E+04  0.26243159762E+04  0.25500000920E-02 0.  1.
    10030    2    1    2    0    0  0.00000000000E+00  0.00000000000E+00 -0.10943782906E+04  0.41542536618E+04  0.40075129000E+04 0.  0.
        3    1    3    3  502    0 -0.13297955359E+04 -0.10907087326E+04  0.51858068562E+03  0.17963651200E+04  0.10100000352E+00 0. -1.
       -3    1    3    3    0  502  0.13297955359E+04  0.10907087326E+04 -0.16129589762E+04  0.23578885419E+04  0.10100000352E+00 0.  1.
</event>
<event>
 5   0  0.2401125E-07  0.2587195E+04  0.7818609E-02  0.8372564E-01
       -3   -1    0    0    0  501  0.00000000000E+00  0.00000000000E+00  0.15375248575E+04  0.15375248608E+04  0.10100000352E+00 0.  1.
        3   -1    0    0  501    0  0.00000000000E+00  0.00000000000E+00 -0.10883686501E+04  0.10883686548E+04  0.10100000352E+00 0. -1.
    10030    2    1    2    0    0  0.00000000000E+00  0.00000000000E+00  0.44915620732E+03  0.26258935156E+04  0.25871945147E+04 0.  0.
        2    1    3    3  502    0  0.44331553871E+03  0.12009156201E+03  0.14519821051E+04  0.15228928668E+04  0.25500000920E-02 0.  1.
       -2    1    3    3    0  502 -0.44331553871E+03 -0.12009156201E+03 -0.10028258978E+04  0.11030006488E+04  0.25500000920E-02 0. -1.
</event>
<event>
 5   0  0.2713405E-07  0.2930073E+04  0.7818609E-02  0.8263986E-01
        1   -1    0    0  501    0  0.00000000000E+00  0.00000000000E+00  0.11195393114E+04  0.11195393114E+04  0.50400001928E-02 0.  1.
       -1   -1    0    0    0  501  0.00000000000E+00  0.00000000000E+00 -0.19171565594E+04  0.19171565594E+04  0.50400001928E-02 0. -1.
    10030    2    1    2    0    0  0.00000000000E+00  0.00000000000E+00 -0.79761724802E+03  0.30366958708E+04  0.29300731283E+04 0.  0.
        1    1    3    3  502    0  0.11615585919E+03 -0.14587338779E+04 -0.47161762629E+03  0.15374719170E+04  0.50400001928E-02 0.  1.
       -1    1    3    3    0  502 -0.11615585919E+03  0.14587338779E+04 -0.32599962174E+03  0.14992239538E+04  0.50400001928E-02 0. -1.
</event>
<event>
 5   0  0.2647879E-07  0.2747121E+04  0.7818609E-02  0.8319876E-01
        1   -1    0    0  501    0  0.00000000000E+00  0.00000000000E+00  0.33934127138E+04  0.33934127138E+04  0.50400001928E-02 0.  1.
       -1   -1    0    0    0  501  0.00000000000E+00  0.00000000000E+00 -0.55597967384E+03  0.55597967386E+03  0.50400001928E-02 0. -1.
    10030    2    1    2    0    0  0.00000000000E+00  0.00000000000E+00  0.28374330400E+04  0.39493923877E+04  0.27471210340E+04 0.  0.
        2    1    3    3  502    0 -0.68346309035E+03 -0.62829339940E+03 -0.36644702795E+02  0.92909484223E+03  0.25500000920E-02 0. -1.
       -2    1    3    3    0  502  0.68346309035E+03  0.62829339940E+03  0.28740777428E+04  0.30202975455E+04  0.25500000920E-02 0.  1.
</event>
<event>
 5   0  0.7256473E-07  0.4253444E+04  0.7818609E-02  0.7955283E-01
       -2   -1    0    0    0  501  0.00000000000E+00  0.00000000000E+00  0.18113117980E+04  0.18113117980E+04  0.25500000920E-02 0. -1.
        2   -1    0    0  501    0  0.00000000000E+00  0.00000000000E+00 -0.24970554259E+04  0.24970554259E+04  0.25500000920E-02 0.  1.
    10030    2    1    2    0    0  0.00000000000E+00  0.00000000000E+00 -0.68574362788E+03  0.43083672239E+04  0.42534437592E+04 0.  0.
        4    1    3    3  502    0 -0.17287229375E+04 -0.19645600286E+03  0.89597731534E+03  0.19570015121E+04  0.12699999809E+01 0. -1.
       -4    1    3    3    0  502  0.17287229375E+04  0.19645600286E+03 -0.15817209432E+04  0.23513657119E+04  0.12699999809E+01 0.  1.
</event>
<event>
 5   0  0.2713405E-07  0.3340797E+04  0.7818609E-02  0.8152592E-01
       -1   -1    0    0    0  501  0.00000000000E+00  0.00000000000E+00  0.11715961531E+04  0.11715961531E+04  0.50400001928E-02 0.  1.
        1   -1    0    0  501    0  0.00000000000E+00  0.00000000000E+00 -0.23815637728E+04  0.23815637728E+04  0.50400001928E-02 0. -1.
    10030    2    1    2    0    0  0.00000000000E+00  0.00000000000E+00 -0.12099676197E+04  0.35531599259E+04  0.33407968838E+04 0.  0.
        1    1    3    3  502    0 -0.96059683966E+03  0.99583976538E+03 -0.16003070298E+04  0.21155201999E+04  0.50400001928E-02 0. -1.
       -1    1    3    3    0  502  0.96059683966E+03 -0.99583976538E+03  0.39033941009E+03  0.14376397260E+04  0.50400001928E-02 0.  1.
</event>
<event>
 5   0  0.7570277E-07  0.3806279E+04  0.7818609E-02  0.8044809E-01
       -2   -1    0    0    0  501  0.00000000000E+00  0.00000000000E+00  0.22178654160E+04  0.22178654160E+04  0.25500000920E-02 0. -1.
        2   -1    0    0  501    0  0.00000000000E+00  0.00000000000E+00 -0.16330749705E+04  0.16330749705E+04  0.25500000920E-02 0.  1.
    10030    2    1    2    0    0  0.00000000000E+00  0.00000000000E+00  0.58479044556E+03  0.38509403865E+04  0.38062792850E+04 0.  0.
        5    1    3    3  502    0 -0.87756945742E+03 -0.14205751499E+04  0.12162118203E+04  0.20657577764E+04  0.46999998093E+01 0. -1.
       -5    1    3    3    0  502  0.87756945742E+03  0.14205751499E+04 -0.63142137473E+03  0.17851826101E+04  0.46999998093E+01 0.  1.
</event>
<event>
 5   0  0.2601252E-07  0.4005654E+04  0.7818609E-02  0.8003407E-01
       -1   -1    0    0    0  501  0.00000000000E+00  0.00000000000E+00  0.15957592536E+04  0.15957592536E+04  0.50400001928E-02 0. -1.
        1   -1    0    0  501    0  0.00000000000E+00  0.00000000000E+00 -0.25137352420E+04  0.25137352420E+04  0.50400001928E-02 0.  1.
    10030    2    1    2    0    0  0.00000000000E+00  0.00000000000E+00 -0.91797598841E+03  0.41094944956E+04  0.40056541406E+04 0.  0.
        3    1    3    3  502    0 -0.18531427404E+04 -0.75931330875E+03 -0.43341087560E+03  0.20490338490E+04  0.10100000352E+00 0. -1.
       -3    1    3    3    0  502  0.18531427404E+04  0.75931330875E+03 -0.48456511281E+03  0.20604606465E+04  0.10100000352E+00 0.  1.
</event>
<event>
 5   0  0.2713405E-07  0.1972817E+04  0.7818609E-02  0.8619436E-01
        1   -1    0    0  501    0  0.00000000000E+00  0.00000000000E+00  0.21811175153E+04  0.21811175154E+04  0.50400001928E-02 0. -1.
       -1   -1    0    0    0  501  0.00000000000E+00  0.00000000000E+00 -0.44610225668E+03  0.44610225671E+03  0.50400001928E-02 0.  1.
    10030    2    1    2    0    0  0.00000000000E+00  0.00000000000E+00  0.17350152587E+04  0.26272197721E+04  0.19728167130E+04 0.  0.
        1    1    3    3  502    0  0.13717201923E+02 -0.19912954593E+03  0.21539427479E+04  0.21631713059E+04  0.50400001928E-02 0. -1.
       -1    1    3    3    0  502 -0.13717201923E+02  0.19912954593E+03 -0.41892748920E+03  0.46404846614E+03  0.50400001928E-02 0.  1.
</event>
<event>
 5   0  0.2601252E-07  0.4020915E+04  0.7818609E-02  0.8000340E-01
        1   -1    0    0  501    0  0.00000000000E+00  0.00000000000E+00  0.29407662328E+04  0.29407662328E+04  0.50400001928E-02 0. -1.
       -1   -1    0    0    0  501  0.00000000000E+00  0.00000000000E+00 -0.13744514259E+04  0.13744514259E+04  0.50400001928E-02 0.  1.
    10030    2    1    2    0    0  0.00000000000E+00  0.00000000000E+00  0.15663148069E+04  0.43152176588E+04  0.40209154888E+04 0.  0.
        3    1    3    3  502    0 -0.84480189349E+03 -0.78296092125E+03  0.25515571992E+04  0.27994932032E+04  0.10100000352E+00 0. -1.
       -3    1    3    3    0  502  0.84480189349E+03  0.78296092125E+03 -0.98524239233E+03  0.15157244556E+04  0.10100000352E+00 0.  1.
</event>
<event>
 5   0  0.7570277E-07  0.4056039E+04  0.7818609E-02  0.7993336E-01
        2   -1    0    0  501    0  0.00000000000E+00  0.00000000000E+00  0.21121769035E+04  0.21121769035E+04  0.25500000920E-02 0.  1.
       -2   -1    0    0    0  501  0.00000000000E+00  0.00000000000E+00 -0.19472156614E+04  0.19472156614E+04  0.25500000920E-02 0. -1.
    10030    2    1    2    0    0  0.00000000000E+00  0.00000000000E+00  0.16496124211E+03  0.40593925648E+04  0.40560394209E+04 0.  0.
        5    1    3    3  502    0 -0.24264413267E+03 -0.13735686155E+04  0.15558644171E+04  0.20895700732E+04  0.46999998093E+01 0.  1.
       -5    1    3    3    0  502  0.24264413267E+03  0.13735686155E+04 -0.13909031750E+04  0.19698224916E+04  0.46999998093E+01 0. -1.
</event>
<event>
 5   0  0.2401125E-07  0.3545243E+04  0.7818609E-02  0.8103151E-01
       -1   -1    0    0    0  501  0.00000000000E+00  0.00000000000E+00  0.14304115284E+04  0.14304115284E+04  0.50400001928E-02 0. -1.
        1   -1    0    0  501    0  0.00000000000E+00  0.00000000000E+00 -0.21967010761E+04  0.21967010761E+04  0.50400001928E-02 0.  1.
    10030    2    1    2    0    0  0.00000000000E+00  0.00000000000E+00 -0.76628954769E+03  0.36271126046E+04  0.35452427527E+04 0.  0.
        5    1    3    3  502    0  0.38294331750E+03 -0.75818188883E+03 -0.19749270705E+04  0.21498475259E+04  0.46999998093E+01 0.  1.
       -5    1    3    3    0  502 -0.38294331750E+03  0.75818188883E+03  0.12086375228E+04  0.14772650786E+04  0.46999998093E+01 0. -1.
</event>
<event>
 5   0  0.6043512E-07  0.3906463E+04  0.7818609E-02  0.8023686E-01
        2   -1    0    0  501    0  0.00000000000E+00  0.00000000000E+00  0.23071526848E+04  0.23071526848E+04  0.25500000920E-02 0.  1.
       -2   -1    0    0    0  501  0.00000000000E+00  0.00000000000E+00 -0.16536026416E+04  0.16536026416E+04  0.25500000920E-02 0. -1.
    10030    2    1    2    0    0  0.00000000000E+00  0.00000000000E+00  0.65355004317E+03  0.39607553264E+04  0.39064632466E+04 0.  0.
        3    1    3    3  502    0 -0.36914328389E+03  0.59846383955E+03  0.21743765412E+04  0.22852437691E+04  0.10100000352E+00 0.  1.
       -3    1    3    3    0  502  0.36914328389E+03 -0.59846383955E+03 -0.15208264980E+04  0.16755115573E+04  0.10100000352E+00 0. -1.
</event>
<event>
 5   0  0.6043512E-07  0.4059026E+04  0.7818609E-02  0.7992744E-01
        2   -1    0    0  501    0  0.00000000000E+00  0.00000000000E+00  0.20654635958E+04  0.20654635958E+04  0.25500000920E-02 0. -1.
       -2   -1    0    0    0  501  0.00000000000E+00  0.00000000000E+00 -0.19941881144E+04  0.19941881144E+04  0.25500000920E-02 0.  1.
    10030    2    1    2    0    0  0.00000000000E+00  0.00000000000E+00  0.71275481424E+02  0.40596517102E+04  0.40590259686E+04 0.  0.
        3    1    3    3  502    0  0.16387684067E+04 -0.62362512582E+03  0.10577800041E+04  0.20477716512E+04  0.10100000352E+00 0. -1.
       -3    1    3    3    0  502 -0.16387684067E+04  0.62362512582E+03 -0.98650452267E+03  0.20118800590E+04  0.10100000352E+00 0.  1.
</event>
<event>
 5   0  0.2713405E-07  0.3834621E+04  0.7818609E-02  0.8038766E-01
       -1   -1    0    0    0  501  0.00000000000E+00  0.00000000000E+00  0.20430096054E+04  0.20430096054E+04  0.50400001928E-02 0. -1.
        1   -1    0    0  501    0  0.00000000000E+00  0.00000000000E+00 -0.17993448580E+04  0.17993448580E+04  0.50400001928E-02 0.  1.
    10030    2    1    2    0    0  0.00000000000E+00  0.00000000000E+00  0.24366474744E+03  0.38423544634E+04  0.38346206218E+04 0.  0.
        1    1    3    3  502    0  0.29688538523E+03  0.35581030710E+03 -0.17423867584E+04  0.18029568831E+04  0.50400001928E-02 0.  1.
       -1    1    3    3    0  502 -0.29688538523E+03 -0.35581030710E+03  0.19860515058E+04  0.20393975803E+04  0.50400001928E-02 0. -1.
</event>
<event>
 5   0  0.6043512E-07  0.3945941E+04  0.7818609E-02  0.8015542E-01
       -2   -1    0    0    0  501  0.00000000000E+00  0.00000000000E+00  0.14423764496E+04  0.14423764496E+04  0.25500000920E-02 0. -1.
        2   -1    0    0  501    0  0.00000000000E+00  0.00000000000E+00 -0.26987495018E+04  0.26987495018E+04  0.25500000920E-02 0.  1.
    10030    2    1    2    0    0  0.00000000000E+00  0.00000000000E+00 -0.12563730523E+04  0.41411259514E+04  0.39459410663E+04 0.  0.
        3    1    3    3  502    0  0.75778491131E+03  0.55430606849E+03  0.11929052893E+04  0.15180633151E+04  0.10100000352E+00 0. -1.
       -3    1    3    3    0  502 -0.75778491131E+03 -0.55430606849E+03 -0.24492783415E+04  0.26230626363E+04  0.10100000352E+00 0.  1.
</event>
<event>
 5   0  0.2713405E-07  0.3993193E+04  0.7818609E-02  0.8005921E-01
        1   -1    0    0  501    0  0.00000000000E+00  0.00000000000E+00  0.14160661030E+04  0.14160661030E+04  0.50400001928E-02 0.  1.
       -1   -1    0    0    0  501  0.00000000000E+00  0.00000000000E+00 -0.28151210122E+04  0.28151210122E+04  0.50400001928E-02 0. -1.
    10030    2    1    2    0    0  0.00000000000E+00  0.00000000000E+00 -0.13990549092E+04  0.42311871152E+04  0.39931929285E+04 0.  0.
        1    1    3    3  502    0  0.44214475408E+03  0.17106446016E+04  0.28572988873E+03  0.17898152156E+04  0.50400001928E-02 0.  1.
       -1    1    3    3    0  502 -0.44214475408E+03 -0.17106446016E+04 -0.16847847979E+04  0.24413718996E+04  0.50400001928E-02 0. -1.
</event>
<event>
 5   0  0.5161550E-07  0.3767899E+04  0.7818609E-02  0.8053079E-01
       -2   -1    0    0    0  501  0.00000000000E+00  0.00000000000E+00  0.20291175396E+04  0.20291175396E+04  0.25500000920E-02 0.  1.
        2   -1    0    0  501    0  0.00000000000E+00  0.00000000000E+00 -0.17491666736E+04  0.17491666736E+04  0.25500000920E-02 0. -1.
    10030    2    1    2    0    0  0.00000000000E+00  0.00000000000E+00  0.27995086604E+03  0.37782842131E+04  0.37678985002E+04 0.  0.
        2    1    3    3  502    0 -0.14310603686E+04  0.16729291451E+03 -0.10771841409E+04  0.17989570232E+04  0.25500000920E-02 0. -1.
       -2    1    3    3    0  502  0.14310603686E+04 -0.16729291451E+03  0.13571350069E+04  0.19793271900E+04  0.25500000920E-02 0.  1.
</event>
<event>
 5   0  0.2647879E-07  0.2206651E+04  0.7818609E-02  0.8515665E-01
       -1   -1    0    0    0  501  0.00000000000E+00  0.00000000000E+00  0.72953884740E+03  0.72953884742E+03  0.50400001928E-02 0. -1.
        1   -1    0    0  501    0  0.00000000000E+00  0.00000000000E+00 -0.16686262857E+04  0.16686262858E+04  0.50400001928E-02 0.  1.
    10030    2    1    2    0    0  0.00000000000E+00  0.00000000000E+00 -0.93908743834E+03  0.23981651332E+04  0.22066514879E+04 0.  0.
        2    1    3    3  502    0  0.26077829704E+03 -0.47776306775E+03 -0.15125584363E+04  0.16075123304E+04  0.25500000920E-02 0.  1.
       -2    1    3    3    0  502 -0.26077829704E+03  0.47776306775E+03  0.57347099793E+03  0.79065280281E+03  0.25500000920E-02 0. -1.
</event>
<event>
 5   0  0.7256473E-07  0.3982010E+04  0.7818609E-02  0.8008186E-01
       -2   -1    0    0    0  501  0.00000000000E+00  0.00000000000E+00  0.18402540925E+04  0.18402540925E+04  0.25500000920E-02 0. -1.
        2   -1    0    0  501    0  0.00000000000E+00  0.00000000000E+00 -0.21541052496E+04  0.21541052496E+04  0.25500000920E-02 0.  1.
    10030    2    1    2    0    0  0.00000000000E+00  0.00000000000E+00 -0.31385115710E+03  0.39943593421E+04  0.39820100458E+04 0.  0.
        4    1    3    3  502    0 -0.16335429967E+04 -0.76633312220E+03  0.68733191912E+03  0.19308433278E+04  0.12699999809E+01 0.  1.
       -4    1    3    3    0  502  0.16335429967E+04  0.76633312220E+03 -0.10011830762E+04  0.20635160143E+04  0.12699999809E+01 0. -1.
</event>
<event>
 5   0  0.5161550E-07  0.2899917E+04  0.7818609E-02  0.8272902E-01
       -2   -1    0    0    0  501  0.00000000000E+00  0.00000000000E+00  0.11773191964E+04  0.11773191964E+04  0.25500000920E-02 0.  1.
        2   -1    0    0  501    0  0.00000000000E+00  0.00000000000E+00 -0.17857342856E+04  0.17857342856E+04  0.25500000920E-02 0. -1.
    10030    2    1    2    0    0  0.00000000000E+00  0.00000000000E+00 -0.60841508922E+03  0.29630534820E+04  0.28999167258E+04 0.  0.
        2    1    3    3  502    0  0.44253439942E+03 -0.88248830467E+02  0.11037462249E+04  0.11924262156E+04  0.25500000920E-02 0.  1.
       -2    1    3    3    0  502 -0.44253439942E+03  0.88248830467E+02 -0.17121613141E+04  0.17706272664E+04  0.25500000920E-02 0. -1.
</event>
<event>
 5   0  0.3579559E-07  0.2626030E+04  0.7818609E-02  0.8359413E-01
        1   -1    0    0  501    0  0.00000000000E+00  0.00000000000E+00  0.12793431923E+04  0.12793431923E+04  0.50400001928E-02 0.  1.
       -1   -1    0    0    0  501  0.00000000000E+00  0.00000000000E+00 -0.13475732353E+04  0.13475732353E+04  0.50400001928E-02 0. -1.
    10030    2    1    2    0    0  0.00000000000E+00  0.00000000000E+00 -0.68230042960E+02  0.26269164276E+04  0.26260301938E+04 0.  0.
        4    1    3    3  502    0  0.81621466069E+03  0.30225255717E+03  0.94929561154E+03  0.12879156617E+04  0.12699999809E+01 0.  1.
       -4    1    3    3    0  502 -0.81621466069E+03 -0.30225255717E+03 -0.10175256545E+04  0.13390007659E+04  0.12699999809E+01 0. -1.
</event>
<event>
 5   0  0.2401125E-07  0.2398059E+04  0.7818609E-02  0.8440230E-01
       -1   -1    0    0    0  501  0.00000000000E+00  0.00000000000E+00  0.12577638598E+04  0.12577638599E+04  0.50400001928E-02 0.  1.
        1   -1    0    0  501    0  0.00000000000E+00  0.00000000000E+00 -0.11430383533E+04  0.11430383533E+04  0.50400001928E-02 0. -1.
    10030    2    1    2    0    0  0.00000000000E+00  0.00000000000E+00  0.11472550652E+03  0.24008022132E+04  0.23980594916E+04 0.  0.
        5    1    3    3  502    0  0.33408981477E+03  0.81973802718E+03  0.86702984419E+03  0.12390921185E+04  0.46999998093E+01 0.  1.
       -5    1    3    3    0  502 -0.33408981477E+03 -0.81973802718E+03 -0.75230433766E+03  0.11617100946E+04  0.46999998093E+01 0. -1.
</event>
<event>
 5   0  0.3579559E-07  0.4263786E+04  0.7818609E-02  0.7953349E-01
        1   -1    0    0  501    0  0.00000000000E+00  0.00000000000E+00  0.25955110329E+04  0.25955110329E+04  0.50400001928E-02 0. -1.
       -1   -1    0    0    0  501  0.00000000000E+00  0.00000000000E+00 -0.17510877063E+04  0.17510877063E+04  0.50400001928E-02 0.  1.
    10030    2    1    2    0    0  0.00000000000E+00  0.00000000000E+00  0.84442332668E+03  0.43465987392E+04  0.42637858583E+04 0.  0.
        4    1    3    3  502    0  0.10989682587E+03  0.63407190172E+03  0.24941337653E+04  0.25758162475E+04  0.12699999809E+01 0. -1.
       -4    1    3    3    0  502 -0.10989682587E+03 -0.63407190172E+03 -0.16497104386E+04  0.17707824917E+04  0.12699999809E+01 0.  1.
</event>
<event>
 5   0  0.6043512E-07  0.4042490E+04  0.7818609E-02  0.7996029E-01
       -2   -1    0    0    0  501  0.00000000000E+00  0.00000000000E+00  0.21261299580E+04  0.21261299580E+04  0.25500000920E-02 0.  1.
        2   -1    0    0  501    0  0.00000000000E+00  0.00000000000E+00 -0.19215341526E+04  0.19215341526E+04  0.25500000920E-02 0. -1.
    10030    2    1    2    0    0  0.00000000000E+00  0.00000000000E+00  0.20459580540E+03  0.40476641107E+04  0.40424899888E+04 0.  0.
        3    1    3    3  502    0  0.12189559874E+02 -0.17932393065E+04  0.10360017879E+04  0.20710276460E+04  0.10100000352E+00 0.  1.
       -3    1    3    3    0  502 -0.12189559874E+02  0.17932393065E+04 -0.83140598252E+03  0.19766364647E+04  0.10100000352E+00 0. -1.
</event>
<event>
 5   0  0.4449262E-07  0.3828231E+04  0.7818609E-02  0.8040124E-01
        2   -1    0    0  501    0  0.00000000000E+00  0.00000000000E+00  0.14449650904E+04  0.14449650904E+04  0.25500000920E-02 0. -1.
       -2   -1    0    0    0  501  0.00000000000E+00  0.00000000000E+00 -0.25355891786E+04  0.25355891786E+04  0.25500000920E-02 0.  1.
    10030    2    1    2    0    0  0.00000000000E+00  0.00000000000E+00 -0.10906240882E+04  0.39805542691E+04  0.38282308430E+04 0.  0.
        1    1    3    3  502    0  0.18360568561E+03 -0.17735052601E+04 -0.12692967230E+04  0.21886402460E+04  0.50400001928E-02 0. -1.
       -1    1    3    3    0  502 -0.18360568561E+03  0.17735052601E+04  0.17867263478E+03  0.17919140230E+04  0.50400001928E-02 0.  1.
</event>
<event>
 5   0  0.4449262E-07  0.4076985E+04  0.7818609E-02  0.7989194E-01
       -2   -1    0    0    0  501  0.00000000000E+00  0.00000000000E+00  0.19174984022E+04  0.19174984022E+04  0.25500000920E-02 0. -1.
        2   -1    0    0  501    0  0.00000000000E+00  0.00000000000E+00 -0.21671211381E+04  0.21671211381E+04  0.25500000920E-02 0.  1.
    10030    2    1    2    0    0  0.00000000000E+00  0.00000000000E+00 -0.24962273583E+03  0.40846195403E+04  0.40769848269E+04 0.  0.
        1    1    3    3  502    0  0.10740477013E+04 -0.13244722690E+04 -0.12438838479E+04  0.21106994773E+04  0.50400001928E-02 0.  1.
       -1    1    3    3    0  502 -0.10740477013E+04  0.13244722690E+04  0.99426111209E+03  0.19739200630E+04  0.50400001928E-02 0. -1.
</event>
<event>
 5   0  0.7570277E-07  0.3190495E+04  0.7818609E-02  0.8191332E-01
       -2   -1    0    0    0  501  0.00000000000E+00  0.00000000000E+00  0.93479087700E+03  0.93479087701E+03  0.25500000920E-02 0. -1.
        2   -1    0    0  501    0  0.00000000000E+00  0.00000000000E+00 -0.27223351286E+04  0.27223351286E+04  0.25500000920E-02 0.  1.
    10030    2    1    2    0    0  0.00000000000E+00  0.00000000000E+00 -0.17875442516E+04  0.36571260056E+04  0.31904946590E+04 0.  0.
        5    1    3    3  502    0  0.96434931630E+02 -0.21414057188E+02  0.93127368513E+03  0.93651002371E+03  0.46999998093E+01 0. -1.
       -5    1    3    3    0  502 -0.96434931630E+02  0.21414057188E+02 -0.27188179367E+04  0.27206159819E+04  0.46999998093E+01 0.  1.
</event>
<event>
 5   0  0.7256473E-07  0.4433555E+04  0.7818609E-02  0.7922374E-01
        2   -1    0    0  501    0  0.00000000000E+00  0.00000000000E+00  0.17716264272E+04  0.17716264273E+04  0.25500000920E-02 0.  1.
       -2   -1    0    0    0  501  0.00000000000E+00  0.00000000000E+00 -0.27737806978E+04  0.27737806979E+04  0.25500000920E-02 0. -1.
    10030    2    1    2    0    0  0.00000000000E+00  0.00000000000E+00 -0.10021542706E+04  0.45454071251E+04  0.44335553172E+04 0.  0.
        4    1    3    3  502    0 -0.12580036666E+04  0.12362456236E+04 -0.18777971614E+04  0.25762376169E+04  0.12699999809E+01 0. -1.
       -4    1    3    3    0  502  0.12580036666E+04 -0.12362456236E+04  0.87564289076E+03  0.19691695082E+04  0.12699999809E+01 0.  1.
</event>
<event>
 5   0  0.2713405E-07  0.4057978E+04  0.7818609E-02  0.7992952E-01
        1   -1    0    0  501    0  0.00000000000E+00  0.00000000000E+00  0.14260746496E+04  0.14260746496E+04  0.50400001928E-02 0.  1.
       -1   -1    0    0    0  501  0.00000000000E+00  0.00000000000E+00 -0.28868033394E+04  0.28868033394E+04  0.50400001928E-02 0. -1.
    10030    2    1    2    0    0  0.00000000000E+00  0.00000000000E+00 -0.14607286898E+04  0.43128779890E+04  0.40579783443E+04 0.  0.
        1    1    3    3  502    0  0.10813921839E+03  0.20174943683E+04 -0.53204350098E+03  0.20892697059E+04  0.50400001928E-02 0.  1.
       -1    1    3    3    0  502 -0.10813921839E+03 -0.20174943683E+04 -0.92868518886E+03  0.22236082831E+04  0.50400001928E-02 0. -1.
</event>
<event>
 5   0  0.4449262E-07  0.3539573E+04  0.7818609E-02  0.8104475E-01
        2   -1    0    0  501    0  0.00000000000E+00  0.00000000000E+00  0.22683411212E+04  0.22683411212E+04  0.25500000920E-02 0. -1.
       -2   -1    0    0    0  501  0.00000000000E+00  0.00000000000E+00 -0.13808084791E+04  0.13808084791E+04  0.25500000920E-02 0.  1.
    10030    2    1    2    0    0  0.00000000000E+00  0.00000000000E+00  0.88753264213E+03  0.36491496004E+04  0.35395732250E+04 0.  0.
        1    1    3    3  502    0  0.11678076592E+04 -0.40182652131E+03  0.17506469420E+04  0.21424294615E+04  0.50400001928E-02 0. -1.
       -1    1    3    3    0  502 -0.11678076592E+04  0.40182652131E+03 -0.86311429983E+03  0.15067201388E+04  0.50400001928E-02 0.  1.
</event>
<event>
 5   0  0.3579559E-07  0.3286357E+04  0.7818609E-02  0.8166375E-01
       -1   -1    0    0    0  501  0.00000000000E+00  0.00000000000E+00  0.17955294973E+04  0.17955294973E+04  0.50400001928E-02 0.  1.
        1   -1    0    0  501    0  0.00000000000E+00  0.00000000000E+00 -0.15037547432E+04  0.15037547432E+04  0.50400001928E-02 0. -1.
    10030    2    1    2    0    0  0.00000000000E+00  0.00000000000E+00  0.29177475406E+03  0.32992842405E+04  0.32863572528E+04 0.  0.
        4    1    3    3  502    0 -0.82035596104E+03  0.26075100393E+03 -0.12592822745E+04  0.15253748551E+04  0.12699999809E+01 0. -1.
       -4    1    3    3    0  502  0.82035596104E+03 -0.26075100393E+03  0.15510570286E+04  0.17739093854E+04  0.12699999809E+01 0.  1.
</event>
<event>
 5   0  0.2401125E-07  0.2233297E+04  0.7818609E-02  0.8504696E-01
        1   -1    0    0  501    0  0.00000000000E+00  0.00000000000E+00  0.73275846610E+03  0.73275846612E+03  0.50400001928E-02 0.  1.
       -1   -1    0    0    0  501  0.00000000000E+00  0.00000000000E+00 -0.17016577377E+04  0.17016577377E+04  0.50400001928E-02 0. -1.
    10030    2    1    2    0    0  0.00000000000E+00  0.00000000000E+00 -0.96889927160E+03  0.24344162038E+04  0.22332972160E+04 0.  0.
        5    1    3    3  502    0 -0.58854915820E+03 -0.31463982245E+02  0.54938089930E+03  0.80574285992E+03  0.46999998093E+01 0.  1.
       -5    1    3    3    0  502  0.58854915820E+03  0.31463982245E+02 -0.15182801709E+04  0.16286733439E+04  0.46999998093E+01 0. -1.
</event>
<event>
 5   0  0.6043512E-07  0.4136560E+04  0.7818609E-02  0.7977551E-01
        2   -1    0    0  501    0  0.00000000000E+00  0.00000000000E+00  0.19076997054E+04  0.19076997054E+04  0.25500000920E-02 0.  1.
       -2   -1    0    0    0  501  0.00000000000E+00  0.00000000000E+00 -0.22423765829E+04  0.22423765829E+04  0.25500000920E-02 0. -1.
    10030    2    1    2    0    0  0.00000000000E+00  0.00000000000E+00 -0.33467687752E+03  0.41500762883E+04  0.41365595108E+04 0.  0.
        3    1    3    3  502    0  0.15102903217E+04 -0.44036151527E+03  0.11797649809E+04  0.19664029445E+04  0.10100000352E+00 0.  1.
       -3    1    3    3    0  502 -0.15102903217E+04  0.44036151527E+03 -0.15144418584E+04  0.21836733438E+04  0.10100000352E+00 0. -1.
</event>
<event>
 5   0  0.2401125E-07  0.3837836E+04  0.7818609E-02  0.8038084E-01
        1   -1    0    0  501    0  0.00000000000E+00  0.00000000000E+00  0.25904575358E+04  0.25904575358E+04  0.50400001928E-02 0.  1.
       -1   -1    0    0    0  501  0.00000000000E+00  0.00000000000E+00 -0.14214653005E+04  0.14214653006E+04  0.50400001928E-02 0. -1.
    10030    2    1    2    0    0  0.00000000000E+00  0.00000000000E+00  0.11689922352E+04  0.40119228363E+04  0.38378355878E+04 0.  0.
        5    1    3    3  502    0 -0.40773795473E+03  0.49597184476E+03  0.24748324976E+04  0.25567667652E+04  0.46999998093E+01 0.  1.
       -5    1    3    3    0  502  0.40773795473E+03 -0.49597184476E+03 -0.13058402624E+04  0.14551560711E+04  0.46999998093E+01 0. -1.
</event>
<event>
 5   0  0.2401125E-07  0.2518956E+04  0.7818609E-02  0.8396263E-01
        4   -1    0    0  501    0  0.00000000000E+00  0.00000000000E+00  0.10411030866E+04  0.10411038612E+04  0.12699999809E+01 0.  1.
       -4   -1    0    0    0  501  0.00000000000E+00  0.00000000000E+00 -0.15236562304E+04  0.15236567597E+04  0.12699999809E+01 0. -1.
    10030    2    1    2    0    0  0.00000000000E+00  0.00000000000E+00 -0.48255314385E+03  0.25647606209E+04  0.25189560350E+04 0.  0.
        4    1    3    3  502    0  0.85391845755E+03  0.60431742284E+03 -0.95539089472E+03  0.14167390918E+04  0.12699999809E+01 0. -1.
       -4    1    3    3    0  502 -0.85391845755E+03 -0.60431742284E+03  0.47283775088E+03  0.11480215291E+04  0.12699999809E+01 0.  1.
</event>
<event>
 5   0  0.5161550E-07  0.3817050E+04  0.7818609E-02  0.8042506E-01
        2   -1    0    0  501    0  0.00000000000E+00  0.00000000000E+00  0.23817701199E+04  0.23817701199E+04  0.25500000920E-02 0. -1.
       -2   -1    0    0    0  501  0.00000000000E+00  0.00000000000E+00 -0.15293109193E+04  0.15293109193E+04  0.25500000920E-02 0.  1.
    10030    2    1    2    0    0  0.00000000000E+00  0.00000000000E+00  0.85245920062E+03  0.39110810393E+04  0.38170496731E+04 0.  0.
        2    1    3    3  502    0  0.10324483766E+04  0.67812236367E+03 -0.10644877972E+04  0.16306237643E+04  0.25500000920E-02 0.  1.
       -2    1    3    3    0  502 -0.10324483766E+04 -0.67812236367E+03  0.19169469978E+04  0.22804572749E+04  0.25500000920E-02 0. -1.
</event>
<event>
 5   0  0.4449262E-07  0.3828005E+04  0.7818609E-02  0.8040172E-01
       -2   -1    0    0    0  501  0.00000000000E+00  0.00000000000E+00  0.27485793380E+04  0.27485793380E+04  0.25500000920E-02 0. -1.
        2   -1    0    0  501    0  0.00000000000E+00  0.00000000000E+00 -0.13328357128E+04  0.13328357128E+04  0.25500000920E-02 0.  1.
    10030    2    1    2    0    0  0.00000000000E+00  0.00000000000E+00  0.14157436252E+04  0.40814150507E+04  0.38280045460E+04 0.  0.
        1    1    3    3  502    0 -0.10558371988E+04  0.88151393480E+03 -0.71123307588E+03  0.15484545508E+04  0.50400001928E-02 0.  1.
       -1    1    3    3    0  502  0.10558371988E+04 -0.88151393480E+03  0.21269767011E+04  0.25329605000E+04  0.50400001928E-02 0. -1.
</event>
<event>
 5   0  0.2601252E-07  0.2153209E+04  0.7818609E-02  0.8538160E-01
        1   -1    0    0  501    0  0.00000000000E+00  0.00000000000E+00  0.21040342713E+04  0.21040342713E+04  0.50400001928E-02 0. -1.
       -1   -1    0    0    0  501  0.00000000000E+00  0.00000000000E+00 -0.55088334735E+03  0.55088334738E+03  0.50400001928E-02 0.  1.
    10030    2    1    2    0    0  0.00000000000E+00  0.00000000000E+00  0.15531509239E+04  0.26549176187E+04  0.21532091792E+04 0.  0.
        3    1    3    3  502    0  0.71534370042E+03  0.13089291940E+03 -0.20226886471E+03  0.75482598651E+03  0.10100000352E+00 0.  1.
       -3    1    3    3    0  502 -0.71534370042E+03 -0.13089291940E+03  0.17554197886E+04  0.19000916322E+04  0.10100000352E+00 0. -1.
</event>
<event>
 5   0  0.6043512E-07  0.4010880E+04  0.7818609E-02  0.8002355E-01
       -2   -1    0    0    0  501  0.00000000000E+00  0.00000000000E+00  0.20136914954E+04  0.20136914954E+04  0.25500000920E-02 0.  1.
        2   -1    0    0  501    0  0.00000000000E+00  0.00000000000E+00 -0.19972225365E+04  0.19972225365E+04  0.25500000920E-02 0. -1.
    10030    2    1    2    0    0  0.00000000000E+00  0.00000000000E+00  0.16468958962E+02  0.40109140319E+04  0.40108802207E+04 0.  0.
        3    1    3    3  502    0 -0.15973740828E+04  0.83360091465E+02  0.12178880789E+04  0.20104238976E+04  0.10100000352E+00 0.  1.
       -3    1    3    3    0  502  0.15973740828E+04 -0.83360091465E+02 -0.12014191200E+04  0.20004901342E+04  0.10100000352E+00 0. -1.
</event>
<event>
 5   0  0.7256473E-07  0.3192110E+04  0.7818609E-02  0.8190904E-01
       -2   -1    0    0    0  501  0.00000000000E+00  0.00000000000E+00  0.13328111259E+04  0.13328111259E+04  0.25500000920E-02 0.  1.
        2   -1    0    0  501    0  0.00000000000E+00  0.00000000000E+00 -0.19112918016E+04  0.19112918016E+04  0.25500000920E-02 0. -1.
    10030    2    1    2    0    0  0.00000000000E+00  0.00000000000E+00 -0.57848067562E+03  0.32441029275E+04  0.31921096335E+04 0.  0.
        4    1    3    3  502    0  0.13178985093E+04  0.74754989103E+03  0.22063052894E+03  0.15311325102E+04  0.12699999809E+01 0.  1.
       -4    1    3    3    0  502 -0.13178985093E+04 -0.74754989103E+03 -0.79911120456E+03  0.17129704173E+04  0.12699999809E+01 0. -1.
</event>
<event>
 5   0  0.5161550E-07  0.4009569E+04  0.7818609E-02  0.8002619E-01
       -2   -1    0    0    0  501  0.00000000000E+00  0.00000000000E+00  0.18106192433E+04  0.18106192433E+04  0.25500000920E-02 0. -1.
        2   -1    0    0  501    0  0.00000000000E+00  0.00000000000E+00 -0.22197714027E+04  0.22197714027E+04  0.25500000920E-02 0.  1.
    10030    2    1    2    0    0  0.00000000000E+00  0.00000000000E+00 -0.40915215944E+03  0.40303906460E+04  0.40095689631E+04 0.  0.
        2    1    3    3  502    0  0.20013525690E+04 -0.10948798962E+03 -0.16239278699E+03  0.20109130122E+04  0.25500000920E-02 0.  1.
       -2    1    3    3    0  502 -0.20013525690E+04  0.10948798962E+03 -0.24675937245E+03  0.20194776338E+04  0.25500000920E-02 0. -1.
</event>
<event>
 5   0  0.6043512E-07  0.3345319E+04  0.7818609E-02  0.8151459E-01
       -2   -1    0    0    0  501  0.00000000000E+00  0.00000000000E+00  0.12324004520E+04  0.12324004520E+04  0.25500000920E-02 0. -1.
        2   -1    0    0  501    0  0.00000000000E+00  0.00000000000E+00 -0.22701959235E+04  0.22701959235E+04  0.25500000920E-02 0.  1.
    10030    2    1    2    0    0  0.00000000000E+00  0.00000000000E+00 -0.10377954715E+04  0.35025963756E+04  0.33453194062E+04 0.  0.
        3    1    3    3  502    0 -0.36307140619E+03  0.70807445269E+03 -0.20593255465E+04  0.22077164658E+04  0.10100000352E+00 0.  1.
       -3    1    3    3    0  502  0.36307140619E+03 -0.70807445269E+03  0.10215300750E+04  0.12948799098E+04  0.10100000352E+00 0. -1.
</event>
<event>
 5   0  0.5161550E-07  0.2844603E+04  0.7818609E-02  0.8289553E-01
        2   -1    0    0  501    0  0.00000000000E+00  0.00000000000E+00  0.11848296597E+04  0.11848296597E+04  0.25500000920E-02 0. -1.
       -2   -1    0    0    0  501  0.00000000000E+00  0.00000000000E+00 -0.17073688456E+04  0.17073688456E+04  0.25500000920E-02 0.  1.
    10030    2    1    2    0    0  0.00000000000E+00  0.00000000000E+00 -0.52253918586E+03  0.28921985053E+04  0.28446027830E+04 0.  0.
        2    1    3    3  502    0  0.11610000189E+04 -0.25990456269E+03 -0.10537140298E+04  0.15892717459E+04  0.25500000920E-02 0.  1.
       -2    1    3    3    0  502 -0.11610000189E+04  0.25990456269E+03  0.53117484399E+03  0.13029267594E+04  0.25500000920E-02 0. -1.
</event>
<event>
 5   0  0.6043512E-07  0.3818666E+04  0.7818609E-02  0.8042161E-01
        2   -1    0    0  501    0  0.00000000000E+00  0.00000000000E+00  0.22214222066E+04  0.22214222066E+04  0.25500000920E-02 0. -1.
       -2   -1    0    0    0  501  0.00000000000E+00  0.00000000000E+00 -0.16410896132E+04  0.16410896132E+04  0.25500000920E-02 0.  1.
    10030    2    1    2    0    0  0.00000000000E+00  0.00000000000E+00  0.58033259345E+03  0.38625118198E+04  0.38186662121E+04 0.  0.
        3    1    3    3  502    0  0.13137822390E+04  0.13471325207E+04  0.61755394731E+03  0.19804450731E+04  0.10100000352E+00 0.  1.
       -3    1    3    3    0  502 -0.13137822390E+04 -0.13471325207E+04 -0.37221353858E+02  0.18820667467E+04  0.10100000352E+00 0. -1.
</event>
<event>
 5   0  0.2401125E-07  0.2051816E+04  0.7818609E-02  0.8582771E-01
       -3   -1    0    0    0  501  0.00000000000E+00  0.00000000000E+00  0.85297716832E+03  0.85297717430E+03  0.10100000352E+00 0.  1.
        3   -1    0    0  501    0  0.00000000000E+00  0.00000000000E+00 -0.12338988697E+04  0.12338988738E+04  0.10100000352E+00 0. -1.
    10030    2    1    2    0    0  0.00000000000E+00  0.00000000000E+00 -0.38092170135E+03  0.20868760481E+04  0.20518163411E+04 0.  0.
        1    1    3    3  502    0 -0.11251913498E+03 -0.31599343135E+03 -0.11765504111E+04  0.12234309438E+04  0.50400001928E-02 0. -1.
       -1    1    3    3    0  502  0.11251913498E+03  0.31599343135E+03  0.79562870973E+03  0.86344510431E+03  0.50400001928E-02 0.  1.
</event>
<event>
 5   0  0.7256473E-07  0.2222207E+04  0.7818609E-02  0.8509241E-01
       -2   -1    0    0    0  501  0.00000000000E+00  0.00000000000E+00  0.14092446617E+04  0.14092446617E+04  0.25500000920E-02 0. -1.
        2   -1    0    0  501    0  0.00000000000E+00  0.00000000000E+00 -0.87603752624E+03  0.87603752625E+03  0.25500000920E-02 0.  1.
    10030    2    1    2    0    0  0.00000000000E+00  0.00000000000E+00  0.53320713547E+03  0.22852821880E+04  0.22222071977E+04 0.  0.
        4    1    3    3  502    0 -0.13448029439E+03 -0.56955308359E+03 -0.70470162052E+03  0.91601400179E+03  0.12699999809E+01 0.  1.
       -4    1    3    3    0  502  0.13448029439E+03  0.56955308359E+03  0.12379087560E+04  0.13692681862E+04  0.12699999809E+01 0. -1.
</event>
<event>
 5   0  0.5161550E-07  0.3982328E+04  0.7818609E-02  0.8008121E-01
        2   -1    0    0  501    0  0.00000000000E+00  0.00000000000E+00  0.22499626713E+04  0.22499626713E+04  0.25500000920E-02 0. -1.
       -2   -1    0    0    0  501  0.00000000000E+00  0.00000000000E+00 -0.17621334238E+04  0.17621334238E+04  0.25500000920E-02 0.  1.
    10030    2    1    2    0    0  0.00000000000E+00  0.00000000000E+00  0.48782924747E+03  0.40120960950E+04  0.39823281760E+04 0.  0.
        2    1    3    3  502    0  0.11654882706E+04 -0.15734796699E+04  0.60790914528E+03  0.20503060038E+04  0.25500000920E-02 0. -1.
       -2    1    3    3    0  502 -0.11654882706E+04  0.15734796699E+04 -0.12007989781E+03  0.19617900912E+04  0.25500000920E-02 0.  1.
</event>
<event>
 5   0  0.6043512E-07  0.4118816E+04  0.7818609E-02  0.7980997E-01
        2   -1    0    0  501    0  0.00000000000E+00  0.00000000000E+00  0.33323368303E+04  0.33323368303E+04  0.25500000920E-02 0. -1.
       -2   -1    0    0    0  501  0.00000000000E+00  0.00000000000E+00 -0.12727288743E+04  0.12727288743E+04  0.25500000920E-02 0.  1.
    10030    2    1    2    0    0  0.00000000000E+00  0.00000000000E+00  0.20596079560E+04  0.46050657046E+04  0.41188159963E+04 0.  0.
        3    1    3    3  502    0 -0.16013530850E+04  0.12010815772E+04  0.48869200696E+03  0.20605214258E+04  0.10100000352E+00 0.  1.
       -3    1    3    3    0  502  0.16013530850E+04 -0.12010815772E+04  0.15709159490E+04  0.25445442789E+04  0.10100000352E+00 0. -1.
</event>
<event>
 5   0  0.3579559E-07  0.4025798E+04  0.7818609E-02  0.7999362E-01
       -1   -1    0    0    0  501  0.00000000000E+00  0.00000000000E+00  0.14794290295E+04  0.14794290295E+04  0.50400001928E-02 0. -1.
        1   -1    0    0  501    0  0.00000000000E+00  0.00000000000E+00 -0.27387342628E+04  0.27387342628E+04  0.50400001928E-02 0.  1.
    10030    2    1    2    0    0  0.00000000000E+00  0.00000000000E+00 -0.12593052332E+04  0.42181632923E+04  0.40257982923E+04 0.  0.
        4    1    3    3  502    0 -0.57216879830E+03 -0.18139042841E+04 -0.13200259595E+04  0.23151881203E+04  0.12699999809E+01 0.  1.
       -4    1    3    3    0  502  0.57216879830E+03  0.18139042841E+04  0.60720726264E+02  0.19029751720E+04  0.12699999809E+01 0. -1.
</event>
<event>
 5   0  0.4449262E-07  0.2424080E+04  0.7818609E-02  0.8430543E-01
        2   -1    0    0  501    0  0.00000000000E+00  0.00000000000E+00  0.26154547336E+04  0.26154547336E+04  0.25500000920E-02 0. -1.
       -2   -1    0    0    0  501  0.00000000000E+00  0.00000000000E+00 -0.56167728854E+03  0.56167728854E+03  0.25500000920E-02 0.  1.
    10030    2    1    2    0    0  0.00000000000E+00  0.00000000000E+00  0.20537774451E+04  0.31771320222E+04  0.24240804633E+04 0.  0.
        1    1    3    3  502    0 -0.23682310578E+03  0.10404306741E+04  0.27345004468E+03  0.11015244428E+04  0.50400001928E-02 0.  1.
       -1    1    3    3    0  502  0.23682310578E+03 -0.10404306741E+04  0.17803274004E+04  0.20756075794E+04  0.50400001928E-02 0. -1.
</event>
<event>
 5   0  0.3579559E-07  0.2337262E+04  0.7818609E-02  0.8463372E-01
        1   -1    0    0  501    0  0.00000000000E+00  0.00000000000E+00  0.14007993535E+04  0.14007993535E+04  0.50400001928E-02 0. -1.
       -1   -1    0    0    0  501  0.00000000000E+00  0.00000000000E+00 -0.97494257953E+03  0.97494257955E+03  0.50400001928E-02 0.  1.
    10030    2    1    2    0    0  0.00000000000E+00  0.00000000000E+00  0.42585677398E+03  0.23757419331E+04  0.23372624458E+04 0.  0.
        4    1    3    3  502    0 -0.66086188573E+03 -0.38379039534E+03  0.11116015826E+04  0.13489600405E+04  0.12699999809E+01 0. -1.
       -4    1    3    3    0  502  0.66086188573E+03  0.38379039534E+03 -0.68574480858E+03  0.10267818926E+04  0.12699999809E+01 0.  1.
</event>
<event>
 5   0  0.5161550E-07  0.2080027E+04  0.7818609E-02  0.8570093E-01
        2   -1    0    0  501    0  0.00000000000E+00  0.00000000000E+00  0.12821378432E+04  0.12821378432E+04  0.25500000920E-02 0. -1.
       -2   -1    0    0    0  501  0.00000000000E+00  0.00000000000E+00 -0.84361299603E+03  0.84361299603E+03  0.25500000920E-02 0.  1.
    10030    2    1    2    0    0  0.00000000000E+00  0.00000000000E+00  0.43852484715E+03  0.21257508392E+04  0.20800270645E+04 0.  0.
        2    1    3    3  502    0  0.15954382253E+03  0.41844544108E+03 -0.74002861306E+03  0.86498159901E+03  0.25500000920E-02 0.  1.
       -2    1    3    3    0  502 -0.15954382253E+03 -0.41844544108E+03  0.11785534602E+04  0.12607692402E+04  0.25500000920E-02 0. -1.
</event>
<event>
 5   0  0.6043512E-07  0.4082911E+04  0.7818609E-02  0.7988026E-01
        2   -1    0    0  501    0  0.00000000000E+00  0.00000000000E+00  0.28915805350E+04  0.28915805350E+04  0.25500000920E-02 0. -1.
       -2   -1    0    0    0  501  0.00000000000E+00  0.00000000000E+00 -0.14412676226E+04  0.14412676226E+04  0.25500000920E-02 0.  1.
    10030    2    1    2    0    0  0.00000000000E+00  0.00000000000E+00  0.14503129124E+04  0.43328481576E+04  0.40829114138E+04 0.  0.
        3    1    3    3  502    0 -0.17147175490E+04  0.10629168653E+04  0.39380421431E+03  0.20555121757E+04  0.10100000352E+00 0. -1.
       -3    1    3    3    0  502  0.17147175490E+04 -0.10629168653E+04  0.10565086981E+04  0.22773359819E+04  0.10100000352E+00 0.  1.
</event>
<event>
 5   0  0.2713405E-07  0.2413206E+04  0.7818609E-02  0.8434576E-01
        1   -1    0    0  501    0  0.00000000000E+00  0.00000000000E+00  0.20058157478E+04  0.20058157478E+04  0.50400001928E-02 0.  1.
       -1   -1    0    0    0  501  0.00000000000E+00  0.00000000000E+00 -0.72583505580E+03  0.72583505582E+03  0.50400001928E-02 0. -1.
    10030    2    1    2    0    0  0.00000000000E+00  0.00000000000E+00  0.12799806920E+04  0.27316508036E+04  0.24132064854E+04 0.  0.
        1    1    3    3  502    0 -0.21464650673E+03  0.10055968131E+04 -0.74663443628E+02  0.10309571782E+04  0.50400001928E-02 0. -1.
       -1    1    3    3    0  502  0.21464650673E+03 -0.10055968131E+04  0.13546441356E+04  0.17006936254E+04  0.50400001928E-02 0.  1.
</event>
<event>
 5   0  0.2647879E-07  0.3970778E+04  0.7818609E-02  0.8010468E-01
       -1   -1    0    0    0  501  0.00000000000E+00  0.00000000000E+00  0.13587397495E+04  0.13587397495E+04  0.50400001928E-02 0.  1.
        1   -1    0    0  501    0  0.00000000000E+00  0.00000000000E+00 -0.29010482999E+04  0.29010482999E+04  0.50400001928E-02 0. -1.
    10030    2    1    2    0    0  0.00000000000E+00  0.00000000000E+00 -0.15423085504E+04  0.42597880494E+04  0.39707780800E+04 0.  0.
        2    1    3    3  502    0  0.14143048649E+04 -0.56049968122E+03  0.59737174399E+03  0.16344023813E+04  0.25500000920E-02 0.  1.
       -2    1    3    3    0  502 -0.14143048649E+04  0.56049968122E+03 -0.21396802944E+04  0.26253856680E+04  0.25500000920E-02 0. -1.
</event>
<event>
 5   0  0.2601252E-07  0.4050502E+04  0.7818609E-02  0.7994435E-01
       -1   -1    0    0    0  501  0.00000000000E+00  0.00000000000E+00  0.16026584304E+04  0.16026584304E+04  0.50400001928E-02 0. -1.
        1   -1    0    0  501    0  0.00000000000E+00  0.00000000000E+00 -0.25592743168E+04  0.25592743168E+04  0.50400001928E-02 0.  1.
    10030    2    1    2    0    0  0.00000000000E+00  0.00000000000E+00 -0.95661588639E+03  0.41619327471E+04  0.40505024673E+04 0.  0.
        3    1    3    3  502    0  0.11697819026E+03  0.84220151398E+03 -0.23669867093E+04  0.25150772114E+04  0.10100000352E+00 0.  1.
       -3    1    3    3    0  502 -0.11697819026E+03 -0.84220151398E+03  0.14103708229E+04  0.16468555357E+04  0.10100000352E+00 0. -1.
</event>
<event>
 5   0  0.2401125E-07  0.2456394E+04  0.7818609E-02  0.8418687E-01
       -1   -1    0    0    0  501  0.00000000000E+00  0.00000000000E+00  0.96308090537E+03  0.96308090538E+03  0.50400001928E-02 0.  1.
        1   -1    0    0  501    0  0.00000000000E+00  0.00000000000E+00 -0.15662944201E+04  0.15662944201E+04  0.50400001928E-02 0. -1.
    10030    2    1    2    0    0  0.00000000000E+00  0.00000000000E+00 -0.60321351469E+03  0.25293753254E+04  0.24563943072E+04 0.  0.
        5    1    3    3  502    0  0.86835594795E+03 -0.79728678287E+03  0.53214689142E+02  0.11800687097E+04  0.46999998093E+01 0. -1.
       -5    1    3    3    0  502 -0.86835594795E+03  0.79728678287E+03 -0.65642820383E+03  0.13493066157E+04  0.46999998093E+01 0.  1.
</event>
<event>
 5   0  0.2401125E-07  0.2053103E+04  0.7818609E-02  0.8582188E-01
        1   -1    0    0  501    0  0.00000000000E+00  0.00000000000E+00  0.13451663523E+04  0.13451663524E+04  0.50400001928E-02 0. -1.
       -1   -1    0    0    0  501  0.00000000000E+00  0.00000000000E+00 -0.78340309080E+03  0.78340309081E+03  0.50400001928E-02 0.  1.
    10030    2    1    2    0    0  0.00000000000E+00  0.00000000000E+00  0.56176326154E+03  0.21285694432E+04  0.20531025090E+04 0.  0.
        5    1    3    3  502    0 -0.47835649214E+03  0.88775148261E+03  0.47992222350E+03  0.11168146933E+04  0.46999998093E+01 0. -1.
       -5    1    3    3    0  502  0.47835649214E+03 -0.88775148261E+03  0.81841038043E+02  0.10117547499E+04  0.46999998093E+01 0.  1.
</event>
<event>
 5   0  0.2713405E-07  0.2054535E+04  0.7818609E-02  0.8581540E-01
       -1   -1    0    0    0  501  0.00000000000E+00  0.00000000000E+00  0.54817537174E+03  0.54817537177E+03  0.50400001928E-02 0. -1.
        1   -1    0    0  501    0  0.00000000000E+00  0.00000000000E+00 -0.19250755764E+04  0.19250755764E+04  0.50400001928E-02 0.  1.
    10030    2    1    2    0    0  0.00000000000E+00  0.00000000000E+00 -0.13769002047E+04  0.24732509482E+04  0.20545354899E+04 0.  0.
        1    1    3    3  502    0  0.85800062832E+02 -0.32679552016E+03  0.47937421076E+03  0.58647812981E+03  0.50400001928E-02 0. -1.
       -1    1    3    3    0  502 -0.85800062832E+02  0.32679552016E+03 -0.18562744155E+04  0.18867728184E+04  0.50400001928E-02 0.  1.
</event>
<event>
 5   0  0.6043512E-07  0.2554204E+04  0.7818609E-02  0.8383925E-01
        2   -1    0    0  501    0  0.00000000000E+00  0.00000000000E+00  0.15013644675E+04  0.15013644675E+04  0.25500000920E-02 0.  1.
       -2   -1    0    0    0  501  0.00000000000E+00  0.00000000000E+00 -0.10863383811E+04  0.10863383811E+04  0.25500000920E-02 0. -1.
    10030    2    1    2    0    0  0.00000000000E+00  0.00000000000E+00  0.41502608641E+03  0.25877028487E+04  0.25542042558E+04 0.  0.
        3    1    3    3  502    0  0.79435476499E+03  0.92844119935E+03  0.58385124830E+03  0.13542100441E+04  0.10100000352E+00 0.  1.
       -3    1    3    3    0  502 -0.79435476499E+03 -0.92844119935E+03 -0.16882516189E+03  0.12334928045E+04  0.10100000352E+00 0. -1.
</event>
<event>
 5   0  0.2401125E-07  0.3753501E+04  0.7818609E-02  0.8056208E-01
       -1   -1    0    0    0  501  0.00000000000E+00  0.00000000000E+00  0.28335981192E+04  0.28335981192E+04  0.50400001928E-02 0.  1.
        1   -1    0    0  501    0  0.00000000000E+00  0.00000000000E+00 -0.12430102741E+04  0.12430102741E+04  0.50400001928E-02 0. -1.
    10030    2    1    2    0    0  0.00000000000E+00  0.00000000000E+00  0.15905878451E+04  0.40766083933E+04  0.37535005394E+04 0.  0.
        5    1    3    3  502    0 -0.30919727385E+03  0.52861865283E+03 -0.11314312606E+04  0.12865455381E+04  0.46999998093E+01 0. -1.
       -5    1    3    3    0  502  0.30919727385E+03 -0.52861865283E+03  0.27220191056E+04  0.27900628552E+04  0.46999998093E+01 0.  1.
</event>
<event>
 5   0  0.2401125E-07  0.2235369E+04  0.7818609E-02  0.8503849E-01
       -1   -1    0    0    0  501  0.00000000000E+00  0.00000000000E+00  0.11082454364E+04  0.11082454364E+04  0.50400001928E-02 0. -1.
        1   -1    0    0  501    0  0.00000000000E+00  0.00000000000E+00 -0.11272038832E+04  0.11272038832E+04  0.50400001928E-02 0.  1.
    10030    2    1    2    0    0  0.00000000000E+00  0.00000000000E+00 -0.18958446813E+02  0.22354493196E+04  0.22353689266E+04 0.  0.
        5    1    3    3  502    0 -0.67332613674E+03  0.89108260189E+03 -0.51909273467E+02  0.11180845015E+04  0.46999998093E+01 0. -1.
       -5    1    3    3    0  502  0.67332613674E+03 -0.89108260189E+03  0.32950826654E+02  0.11173648181E+04  0.46999998093E+01 0.  1.
</event>
<event>
 5   0  0.6043512E-07  0.4060502E+04  0.7818609E-02  0.7992451E-01
       -2   -1    0    0    0  501  0.00000000000E+00  0.00000000000E+00  0.13849027191E+04  0.13849027191E+04  0.25500000920E-02 0.  1.
        2   -1    0    0  501    0  0.00000000000E+00  0.00000000000E+00 -0.29763244346E+04  0.29763244346E+04  0.25500000920E-02 0. -1.
    10030    2    1    2    0    0  0.00000000000E+00  0.00000000000E+00 -0.15914217155E+04  0.43612271537E+04  0.40605023346E+04 0.  0.
        3    1    3    3  502    0 -0.96792094608E+03  0.51489766075E+03 -0.26310448402E+04  0.28503311247E+04  0.10100000352E+00 0. -1.
       -3    1    3    3    0  502  0.96792094608E+03 -0.51489766075E+03  0.10396231247E+04  0.15108960290E+04  0.10100000352E+00 0.  1.
</event>
<event>
 5   0  0.2647879E-07  0.2373573E+04  0.7818609E-02  0.8449464E-01
       -1   -1    0    0    0  501  0.00000000000E+00  0.00000000000E+00  0.12881319175E+04  0.12881319175E+04  0.50400001928E-02 0.  1.
        1   -1    0    0  501    0  0.00000000000E+00  0.00000000000E+00 -0.10934142499E+04  0.10934142499E+04  0.50400001928E-02 0. -1.
    10030    2    1    2    0    0  0.00000000000E+00  0.00000000000E+00  0.19471766758E+03  0.23815461674E+04  0.23735726611E+04 0.  0.
        2    1    3    3  502    0 -0.11396859264E+04 -0.32854733758E+03  0.56794934730E+02  0.11874565375E+04  0.25500000920E-02 0. -1.
       -2    1    3    3    0  502  0.11396859264E+04  0.32854733758E+03  0.13792273285E+03  0.11940896299E+04  0.25500000920E-02 0.  1.
</event>
<event>
 5   0  0.2401125E-07  0.4019752E+04  0.7818609E-02  0.8000574E-01
        1   -1    0    0  501    0  0.00000000000E+00  0.00000000000E+00  0.27218861632E+04  0.27218861632E+04  0.50400001928E-02 0.  1.
       -1   -1    0    0    0  501  0.00000000000E+00  0.00000000000E+00 -0.14841181267E+04  0.14841181267E+04  0.50400001928E-02 0. -1.
    10030    2    1    2    0    0  0.00000000000E+00  0.00000000000E+00  0.12377680365E+04  0.42060042899E+04  0.40197515315E+04 0.  0.
        5    1    3    3  502    0  0.14106443800E+04  0.12969043226E+04 -0.15595175254E+02  0.19162838224E+04  0.46999998093E+01 0. -1.
       -5    1    3    3    0  502 -0.14106443800E+04 -0.12969043226E+04  0.12533632117E+04  0.22897204675E+04  0.46999998093E+01 0.  1.
</event>
<event>
 5   0  0.4449262E-07  0.3175738E+04  0.7818609E-02  0.8195254E-01
       -2   -1    0    0    0  501  0.00000000000E+00  0.00000000000E+00  0.24633029198E+04  0.24633029198E+04  0.25500000920E-02 0. -1.
        2   -1    0    0  501    0  0.00000000000E+00  0.00000000000E+00 -0.10235557099E+04  0.10235557099E+04  0.25500000920E-02 0.  1.
    10030    2    1    2    0    0  0.00000000000E+00  0.00000000000E+00  0.14397472099E+04  0.34868586297E+04  0.31757378789E+04 0.  0.
        1    1    3    3  502    0  0.55284014821E+03 -0.14786107615E+04  0.53159288081E+03  0.16656869467E+04  0.50400001928E-02 0.  1.
       -1    1    3    3    0  502 -0.55284014821E+03  0.14786107615E+04  0.90815432914E+03  0.18211716830E+04  0.50400001928E-02 0. -1.
</event>
<event>
 5   0  0.6043512E-07  0.4054170E+04  0.7818609E-02  0.7993707E-01
        2   -1    0    0  501    0  0.00000000000E+00  0.00000000000E+00  0.17250751039E+04  0.17250751039E+04  0.25500000920E-02 0. -1.
       -2   -1    0    0    0  501  0.00000000000E+00  0.00000000000E+00 -0.23819676398E+04  0.23819676399E+04  0.25500000920E-02 0.  1.
    10030    2    1    2    0    0  0.00000000000E+00  0.00000000000E+00 -0.65689253591E+03  0.41070427438E+04  0.40541697418E+04 0.  0.
        3    1    3    3  502    0  0.19043551047E+04 -0.68762091395E+03 -0.42812759669E+03  0.20694646978E+04  0.10100000352E+00 0. -1.
       -3    1    3    3    0  502 -0.19043551047E+04  0.68762091395E+03 -0.22876493922E+03  0.20375780460E+04  0.10100000352E+00 0.  1.
</event>
<event>
 5   0  0.2401125E-07  0.3958236E+04  0.7818609E-02  0.8013025E-01
       -1   -1    0    0    0  501  0.00000000000E+00  0.00000000000E+00  0.21643299378E+04  0.21643299378E+04  0.50400001928E-02 0. -1.
        1   -1    0    0  501    0  0.00000000000E+00  0.00000000000E+00 -0.18097554115E+04  0.18097554115E+04  0.50400001928E-02 0.  1.
    10030    2    1    2    0    0  0.00000000000E+00  0.00000000000E+00  0.35457452633E+03  0.39740853493E+04  0.39582358783E+04 0.  0.
        5    1    3    3  502    0 -0.17848304643E+04 -0.74892926069E+03 -0.23712560473E+03  0.19500680670E+04  0.46999998093E+01 0.  1.
       -5    1    3    3    0  502  0.17848304643E+04  0.74892926069E+03  0.59170013105E+03  0.20240172822E+04  0.46999998093E+01 0. -1.
</event>
<event>
 5   0  0.7256473E-07  0.3118440E+04  0.7818609E-02  0.8210695E-01
       -2   -1    0    0    0  501  0.00000000000E+00  0.00000000000E+00  0.16173573662E+04  0.16173573662E+04  0.25500000920E-02 0.  1.
        2   -1    0    0  501    0  0.00000000000E+00  0.00000000000E+00 -0.15031728065E+04  0.15031728065E+04  0.25500000920E-02 0. -1.
    10030    2    1    2    0    0  0.00000000000E+00  0.00000000000E+00  0.11418455973E+03  0.31205301727E+04  0.31184403867E+04 0.  0.
        4    1    3    3  502    0  0.57599400984E+03 -0.12061255402E+04 -0.74635180024E+03  0.15308659447E+04  0.12699999809E+01 0. -1.
       -4    1    3    3    0  502 -0.57599400984E+03  0.12061255402E+04  0.86053635996E+03  0.15896642280E+04  0.12699999809E+01 0.  1.
</event>
<event>
 5   0  0.2401125E-07  0.2564711E+04  0.7818609E-02  0.8380288E-01
        3   -1    0    0  501    0  0.00000000000E+00  0.00000000000E+00  0.20816602999E+04  0.20816603024E+04  0.10100000352E+00 0. -1.
       -3   -1    0    0    0  501  0.00000000000E+00  0.00000000000E+00 -0.78996355277E+03  0.78996355923E+03  0.10100000352E+00 0.  1.
    10030    2    1    2    0    0  0.00000000000E+00  0.00000000000E+00  0.12916967471E+04  0.28716238616E+04  0.25647111174E+04 0.  0.
        5    1    3    3  502    0 -0.75305442982E+03 -0.16123731357E+03 -0.50219327922E+03  0.91940667023E+03  0.46999998093E+01 0.  1.
       -5    1    3    3    0  502  0.75305442982E+03  0.16123731357E+03  0.17938900264E+04  0.19522171914E+04  0.46999998093E+01 0. -1.
</event>
<event>
 5   0  0.2713405E-07  0.1995405E+04  0.7818609E-02  0.8608772E-01
        1   -1    0    0  501    0  0.00000000000E+00  0.00000000000E+00  0.10255885737E+04  0.10255885737E+04  0.50400001928E-02 0.  1.
       -1   -1    0    0    0  501  0.00000000000E+00  0.00000000000E+00 -0.97057417748E+03  0.97057417749E+03  0.50400001928E-02 0. -1.
    10030    2    1    2    0    0  0.00000000000E+00  0.00000000000E+00  0.55014396197E+02  0.19961627512E+04  0.19954045067E+04 0.  0.
        1    1    3    3  502    0 -0.78135445764E+03 -0.59777061374E+03 -0.13858387495E+03  0.99350389307E+03  0.50400001928E-02 0. -1.
       -1    1    3    3    0  502  0.78135445764E+03  0.59777061374E+03  0.19359827115E+03  0.10026588581E+04  0.50400001928E-02 0.  1.
</event>
<event>
 5   0  0.7570277E-07  0.3946062E+04  0.7818609E-02  0.8015517E-01
        2   -1    0    0  501    0  0.00000000000E+00  0.00000000000E+00  0.26734242566E+04  0.26734242566E+04  0.25500000920E-02 0. -1.
       -2   -1    0    0    0  501  0.00000000000E+00  0.00000000000E+00 -0.14561289310E+04  0.14561289310E+04  0.25500000920E-02 0.  1.
    10030    2    1    2    0    0  0.00000000000E+00  0.00000000000E+00  0.12172953256E+04  0.41295531876E+04  0.39460615326E+04 0.  0.
        5    1    3    3  502    0  0.90401581508E+03  0.17489404753E+04  0.74425295783E+03  0.21047498510E+04  0.46999998093E+01 0. -1.
       -5    1    3    3    0  502 -0.90401581508E+03 -0.17489404753E+04  0.47304236782E+03  0.20248033366E+04  0.46999998093E+01 0.  1.
</event>
<event>
 5   0  0.2647879E-07  0.3278241E+04  0.7818609E-02  0.8168454E-01
       -1   -1    0    0    0  501  0.00000000000E+00  0.00000000000E+00  0.11553867368E+04  0.11553867368E+04  0.50400001928E-02 0.  1.
        1   -1    0    0  501    0  0.00000000000E+00  0.00000000000E+00 -0.23253823804E+04  0.23253823804E+04  0.50400001928E-02 0. -1.
    10030    2    1    2    0    0  0.00000000000E+00  0.00000000000E+00 -0.11699956435E+04  0.34807691172E+04  0.32782409676E+04 0.  0.
        2    1    3    3  502    0  0.25195151017E+03 -0.70701106396E+03  0.96220540169E+03  0.12203210410E+04  0.25500000920E-02 0.  1.
       -2    1    3    3    0  502 -0.25195151017E+03  0.70701106396E+03 -0.21322010452E+04  0.22604480762E+04  0.25500000920E-02 0. -1.
</event>
<event>
 5   0  0.2647879E-07  0.3306908E+04  0.7818609E-02  0.8161140E-01
        1   -1    0    0  501    0  0.00000000000E+00  0.00000000000E+00  0.20221705287E+04  0.20221705287E+04  0.50400001928E-02 0. -1.
       -1   -1    0    0    0  501  0.00000000000E+00  0.00000000000E+00 -0.13519680489E+04  0.13519680489E+04  0.50400001928E-02 0.  1.
    10030    2    1    2    0    0  0.00000000000E+00  0.00000000000E+00  0.67020247983E+03  0.33741385776E+04  0.33069078876E+04 0.  0.
        2    1    3    3  502    0  0.76817484241E+03  0.13764369313E+04 -0.17428661028E+03  0.15858899826E+04  0.25500000920E-02 0.  1.
       -2    1    3    3    0  502 -0.76817484241E+03 -0.13764369313E+04  0.84448909011E+03  0.17882485950E+04  0.25500000920E-02 0. -1.
</event>
<event>
 5   0  0.3579559E-07  0.2700645E+04  0.7818609E-02  0.8334796E-01
       -1   -1    0    0    0  501  0.00000000000E+00  0.00000000000E+00  0.84303054650E+03  0.84303054652E+03  0.50400001928E-02 0.  1.
        1   -1    0    0  501    0  0.00000000000E+00  0.00000000000E+00 -0.21628759507E+04  0.21628759507E+04  0.50400001928E-02 0. -1.
    10030    2    1    2    0    0  0.00000000000E+00  0.00000000000E+00 -0.13198454042E+04  0.30059064972E+04  0.27006447340E+04 0.  0.
        4    1    3    3  502    0 -0.72177896352E+03  0.10993961441E+04 -0.10006855576E+04  0.16525767612E+04  0.12699999809E+01 0. -1.
       -4    1    3    3    0  502  0.72177896352E+03 -0.10993961441E+04 -0.31915984664E+03  0.13533297360E+04  0.12699999809E+01 0.  1.
</event>
<event>
 5   0  0.2601252E-07  0.2493228E+04  0.7818609E-02  0.8405402E-01
        1   -1    0    0  501    0  0.00000000000E+00  0.00000000000E+00  0.12422638966E+04  0.12422638966E+04  0.50400001928E-02 0. -1.
       -1   -1    0    0    0  501  0.00000000000E+00  0.00000000000E+00 -0.12509788855E+04  0.12509788855E+04  0.50400001928E-02 0.  1.
    10030    2    1    2    0    0  0.00000000000E+00  0.00000000000E+00 -0.87149889428E+01  0.24932427821E+04  0.24932275507E+04 0.  0.
        3    1    3    3  502    0  0.56472647912E+02 -0.10116300007E+04  0.72191237342E+03  0.12440827559E+04  0.10100000352E+00 0. -1.
       -3    1    3    3    0  502 -0.56472647912E+02  0.10116300007E+04 -0.73062736237E+03  0.12491600263E+04  0.10100000352E+00 0.  1.
</event>
<event>
 5   0  0.5161550E-07  0.3570383E+04  0.7818609E-02  0.8097310E-01
        2   -1    0    0  501    0  0.00000000000E+00  0.00000000000E+00  0.15075551476E+04  0.15075551476E+04  0.25500000920E-02 0.  1.
       -2   -1    0    0    0  501  0.00000000000E+00  0.00000000000E+00 -0.21139578655E+04  0.21139578655E+04  0.25500000920E-02 0. -1.
    10030    2    1    2    0    0  0.00000000000E+00  0.00000000000E+00 -0.60640271789E+03  0.36215130130E+04  0.35703826472E+04 0.  0.
        2    1    3    3  502    0 -0.73035458721E+03  0.13632328243E+04 -0.12076470172E+04  0.19622010280E+04  0.25500000920E-02 0. -1.
       -2    1    3    3    0  502  0.73035458721E+03 -0.13632328243E+04  0.60124429927E+03  0.16593119850E+04  0.25500000920E-02 0.  1.
</event>
<event>
 5   0  0.2401125E-07  0.4055084E+04  0.7818609E-02  0.7993526E-01
       -1   -1    0    0    0  501  0.00000000000E+00  0.00000000000E+00  0.14182848699E+04  0.14182848699E+04  0.50400001928E-02 0.  1.
        1   -1    0    0  501    0  0.00000000000E+00  0.00000000000E+00 -0.28985190710E+04  0.28985190710E+04  0.50400001928E-02 0. -1.
    10030    2    1    2    0    0  0.00000000000E+00  0.00000000000E+00 -0.14802342011E+04  0.43168039409E+04  0.40550835964E+04 0.  0.
        5    1    3    3  502    0 -0.16553890027E+04 -0.95621049340E+03 -0.14591770364E+04  0.24049679772E+04  0.46999998093E+01 0. -1.
       -5    1    3    3    0  502  0.16553890027E+04  0.95621049340E+03 -0.21057164690E+02  0.19118359637E+04  0.46999998093E+01 0.  1.
</event>
<event>
 5   0  0.5161550E-07  0.3873763E+04  0.7818609E-02  0.8030508E-01
       -2   -1    0    0    0  501  0.00000000000E+00  0.00000000000E+00  0.25172742413E+04  0.25172742413E+04  0.25500000920E-02 0.  1.
        2   -1    0    0  501    0  0.00000000000E+00  0.00000000000E+00 -0.14903061951E+04  0.14903061951E+04  0.25500000920E-02 0. -1.
    10030    2    1    2    0    0  0.00000000000E+00  0.00000000000E+00  0.10269680462E+04  0.40075804364E+04  0.38737627168E+04 0.  0.
        2    1    3    3  502    0  0.48450674234E+03 -0.16396616855E+04 -0.42804945668E+03  0.17625162591E+04  0.25500000920E-02 0. -1.
       -2    1    3    3    0  502 -0.48450674234E+03  0.16396616855E+04  0.14550175029E+04  0.22450641773E+04  0.25500000920E-02 0.  1.
</event>
<event>
 5   0  0.3579559E-07  0.4001887E+04  0.7818609E-02  0.8004166E-01
       -1   -1    0    0    0  501  0.00000000000E+00  0.00000000000E+00  0.28791393967E+04  0.28791393967E+04  0.50400001928E-02 0. -1.
        1   -1    0    0  501    0  0.00000000000E+00  0.00000000000E+00 -0.13906151926E+04  0.13906151926E+04  0.50400001928E-02 0.  1.
    10030    2    1    2    0    0  0.00000000000E+00  0.00000000000E+00  0.14885242041E+04  0.42697545893E+04  0.40018870482E+04 0.  0.
        4    1    3    3  502    0  0.68301745544E+03  0.65544622632E+03 -0.11365880284E+04  0.14791742829E+04  0.12699999809E+01 0.  1.
       -4    1    3    3    0  502 -0.68301745544E+03 -0.65544622632E+03  0.26251122325E+04  0.27905803064E+04  0.12699999809E+01 0. -1.
</event>
<event>
 5   0  0.2401125E-07  0.3534669E+04  0.7818609E-02  0.8105623E-01
        1   -1    0    0  501    0  0.00000000000E+00  0.00000000000E+00  0.14140872648E+04  0.14140872648E+04  0.50400001928E-02 0. -1.
       -1   -1    0    0    0  501  0.00000000000E+00  0.00000000000E+00 -0.22088252870E+04  0.22088252870E+04  0.50400001928E-02 0.  1.
    10030    2    1    2    0    0  0.00000000000E+00  0.00000000000E+00 -0.79473802216E+03  0.36229125518E+04  0.35346692680E+04 0.  0.
        5    1    3    3  502    0 -0.42073939784E+03 -0.13825235258E+04 -0.14401452660E+04  0.20402042588E+04  0.46999998093E+01 0.  1.
       -5    1    3    3    0  502  0.42073939784E+03  0.13825235258E+04  0.64540724381E+03  0.15827082930E+04  0.46999998093E+01 0. -1.
</event>
<event>
 5   0  0.4449262E-07  0.3942032E+04  0.7818609E-02  0.8016344E-01
       -2   -1    0    0    0  501  0.00000000000E+00  0.00000000000E+00  0.16079189931E+04  0.16079189931E+04  0.25500000920E-02 0. -1.
        2   -1    0    0  501    0  0.00000000000E+00  0.00000000000E+00 -0.24161067473E+04  0.24161067473E+04  0.25500000920E-02 0.  1.
    10030    2    1    2    0    0  0.00000000000E+00  0.00000000000E+00 -0.80818775418E+03  0.40240257405E+04  0.39420319270E+04 0.  0.
        1    1    3    3  502    0  0.64145866813E+03 -0.12978240084E+04  0.96129515317E+03  0.17377873147E+04  0.50400001928E-02 0. -1.
       -1    1    3    3    0  502 -0.64145866813E+03  0.12978240084E+04 -0.17694829074E+04  0.22862384257E+04  0.50400001928E-02 0.  1.
</event>
<event>
 5   0  0.2713405E-07  0.2820608E+04  0.7818609E-02  0.8296899E-01
        1   -1    0    0  501    0  0.00000000000E+00  0.00000000000E+00  0.10670358017E+04  0.10670358017E+04  0.50400001928E-02 0. -1.
       -1   -1    0    0    0  501  0.00000000000E+00  0.00000000000E+00 -0.18640018204E+04  0.18640018204E+04  0.50400001928E-02 0.  1.
    10030    2    1    2    0    0  0.00000000000E+00  0.00000000000E+00 -0.79696601874E+03  0.29310376221E+04  0.28206075067E+04 0.  0.
        1    1    3    3  502    0 -0.59254865223E+03 -0.75613081278E+03 -0.14714331311E+04  0.17572601317E+04  0.50400001928E-02 0. -1.
       -1    1    3    3    0  502  0.59254865223E+03  0.75613081278E+03  0.67446711231E+03  0.11737774904E+04  0.50400001928E-02 0.  1.
</event>
<event>
 5   0  0.5161550E-07  0.3460128E+04  0.7818609E-02  0.8123305E-01
        2   -1    0    0  501    0  0.00000000000E+00  0.00000000000E+00  0.18752579323E+04  0.18752579323E+04  0.25500000920E-02 0.  1.
       -2   -1    0    0    0  501  0.00000000000E+00  0.00000000000E+00 -0.15961119942E+04  0.15961119942E+04  0.25500000920E-02 0. -1.
    10030    2    1    2    0    0  0.00000000000E+00  0.00000000000E+00  0.27914593810E+03  0.34713699265E+04  0.34601281352E+04 0.  0.
        2    1    3    3  502    0 -0.96263502156E+03 -0.92843835938E+03  0.12406165065E+04  0.18242240235E+04  0.25500000920E-02 0.  1.
       -2    1    3    3    0  502  0.96263502156E+03  0.92843835938E+03 -0.96147056838E+03  0.16471459030E+04  0.25500000920E-02 0. -1.
</event>
<event>
 5   0  0.3579559E-07  0.2179957E+04  0.7818609E-02  0.8526817E-01
        1   -1    0    0  501    0  0.00000000000E+00  0.00000000000E+00  0.16829196763E+04  0.16829196763E+04  0.50400001928E-02 0.  1.
       -1   -1    0    0    0  501  0.00000000000E+00  0.00000000000E+00 -0.70594765486E+03  0.70594765487E+03  0.50400001928E-02 0. -1.
    10030    2    1    2    0    0  0.00000000000E+00  0.00000000000E+00  0.97697202141E+03  0.23888673312E+04  0.21799570627E+04 0.  0.
        4    1    3    3  502    0  0.86007037314E+03 -0.46185142693E+03  0.10197373187E+04  0.14116988345E+04  0.12699999809E+01 0.  1.
       -4    1    3    3    0  502 -0.86007037314E+03  0.46185142693E+03 -0.42765297261E+02  0.97716849666E+03  0.12699999809E+01 0. -1.
</event>
<event>
 5   0  0.2401125E-07  0.3964303E+04  0.7818609E-02  0.8011787E-01
        3   -1    0    0  501    0  0.00000000000E+00  0.00000000000E+00  0.21332881601E+04  0.21332881625E+04  0.10100000352E+00 0. -1.
       -3   -1    0    0    0  501  0.00000000000E+00  0.00000000000E+00 -0.18417220131E+04  0.18417220158E+04  0.10100000352E+00 0.  1.
    10030    2    1    2    0    0  0.00000000000E+00  0.00000000000E+00  0.29156614702E+03  0.39750101783E+04  0.39643025994E+04 0.  0.
        3    1    3    3  502    0 -0.15286588361E+04 -0.35589986263E+03  0.13596151567E+04  0.20765394130E+04  0.10100000352E+00 0. -1.
       -3    1    3    3    0  502  0.15286588361E+04  0.35589986263E+03 -0.10680490097E+04  0.18984707653E+04  0.10100000352E+00 0.  1.
</event>
<event>
 5   0  0.2601252E-07  0.3906627E+04  0.7818609E-02  0.8023652E-01
        1   -1    0    0  501    0  0.00000000000E+00  0.00000000000E+00  0.24758953339E+04  0.24758953339E+04  0.50400001928E-02 0. -1.
       -1   -1    0    0    0  501  0.00000000000E+00  0.00000000000E+00 -0.15410318981E+04  0.15410318981E+04  0.50400001928E-02 0.  1.
    10030    2    1    2    0    0  0.00000000000E+00  0.00000000000E+00  0.93486343576E+03  0.40169272320E+04  0.39066270289E+04 0.  0.
        3    1    3    3  502    0  0.18658934170E+04 -0.48783474801E+03  0.14902313470E+03  0.19343600724E+04  0.10100000352E+00 0. -1.
       -3    1    3    3    0  502 -0.18658934170E+04  0.48783474801E+03  0.78584030106E+03  0.20825671595E+04  0.10100000352E+00 0.  1.
</event>
<event>
 5   0  0.3579559E-07  0.2120182E+04  0.7818609E-02  0.8552405E-01
       -1   -1    0    0    0  501  0.00000000000E+00  0.00000000000E+00  0.11140678341E+04  0.11140678341E+04  0.50400001928E-02 0. -1.
        1   -1    0    0  501    0  0.00000000000E+00  0.00000000000E+00 -0.10087295961E+04  0.10087295961E+04  0.50400001928E-02 0.  1.
    10030    2    1    2    0    0  0.00000000000E+00  0.00000000000E+00  0.10533823801E+03  0.21227974302E+04  0.21201822529E+04 0.  0.
        4    1    3    3  502    0 -0.18932648318E+03 -0.76572902351E+03 -0.65644604957E+03  0.10262107403E+04  0.12699999809E+01 0.  1.
       -4    1    3    3    0  502  0.18932648318E+03  0.76572902351E+03  0.76178428759E+03  0.10965866899E+04  0.12699999809E+01 0. -1.
</event>
<event>
 5   0  0.6043512E-07  0.3981047E+04  0.7818609E-02  0.8008381E-01
       -2   -1    0    0    0  501  0.00000000000E+00  0.00000000000E+00  0.24683517643E+04  0.24683517643E+04  0.25500000920E-02 0. -1.
        2   -1    0    0  501    0  0.00000000000E+00  0.00000000000E+00 -0.16051942321E+04  0.16051942321E+04  0.25500000920E-02 0.  1.
    10030    2    1    2    0    0  0.00000000000E+00  0.00000000000E+00  0.86315753212E+03  0.40735459964E+04  0.39810471059E+04 0.  0.
        3    1    3    3  502    0  0.50514089146E+03 -0.65323209237E+03  0.22848218546E+04  0.24294629868E+04  0.10100000352E+00 0. -1.
       -3    1    3    3    0  502 -0.50514089146E+03  0.65323209237E+03 -0.14216643224E+04  0.16440830097E+04  0.10100000352E+00 0.  1.
</event>
<event>
 5   0  0.4449262E-07  0.3845051E+04  0.7818609E-02  0.8036556E-01
        2   -1    0    0  501    0  0.00000000000E+00  0.00000000000E+00  0.22506698464E+04  0.22506698464E+04  0.25500000920E-02 0. -1.
       -2   -1    0    0    0  501  0.00000000000E+00  0.00000000000E+00 -0.16422240656E+04  0.16422240656E+04  0.25500000920E-02 0.  1.
    10030    2    1    2    0    0  0.00000000000E+00  0.00000000000E+00  0.60844578083E+03  0.38928939120E+04  0.38450509414E+04 0.  0.
        1    1    3    3  502    0 -0.20289568214E+03 -0.35166801031E+03 -0.15983256992E+04  0.16490852276E+04  0.50400001928E-02 0.  1.
       -1    1    3    3    0  502  0.20289568214E+03  0.35166801031E+03  0.22067714800E+04  0.22438086844E+04  0.50400001928E-02 0. -1.
</event>
<event>
 5   0  0.2401125E-07  0.2855509E+04  0.7818609E-02  0.8286239E-01
        3   -1    0    0  501    0  0.00000000000E+00  0.00000000000E+00  0.21128851412E+04  0.21128851436E+04  0.10100000352E+00 0. -1.
       -3   -1    0    0    0  501  0.00000000000E+00  0.00000000000E+00 -0.96478662889E+03  0.96478663417E+03  0.10100000352E+00 0.  1.
    10030    2    1    2    0    0  0.00000000000E+00  0.00000000000E+00  0.11480985123E+04  0.30776717778E+04  0.28555093027E+04 0.  0.
        5    1    3    3  502    0  0.88420572784E+03 -0.66303783735E+03 -0.40016769295E+03  0.11754127851E+04  0.46999998093E+01 0.  1.
       -5    1    3    3    0  502 -0.88420572784E+03  0.66303783735E+03  0.15482662053E+04  0.19022589927E+04  0.46999998093E+01 0. -1.
</event>
<event>
 5   0  0.4449262E-07  0.3998157E+04  0.7818609E-02  0.8004918E-01
       -2   -1    0    0    0  501  0.00000000000E+00  0.00000000000E+00  0.23054443324E+04  0.23054443324E+04  0.25500000920E-02 0.  1.
        2   -1    0    0  501    0  0.00000000000E+00  0.00000000000E+00 -0.17334250479E+04  0.17334250479E+04  0.25500000920E-02 0. -1.
    10030    2    1    2    0    0  0.00000000000E+00  0.00000000000E+00  0.57201928456E+03  0.40388693803E+04  0.39981570516E+04 0.  0.
        1    1    3    3  502    0 -0.44142192253E+03  0.19496815706E+04  0.27160216142E+03  0.20173941793E+04  0.50400001928E-02 0. -1.
       -1    1    3    3    0  502  0.44142192253E+03 -0.19496815706E+04  0.30041712314E+03  0.20214752010E+04  0.50400001928E-02 0.  1.
</event>
<event>
 5   0  0.7570277E-07  0.4035439E+04  0.7818609E-02  0.7997435E-01
        2   -1    0    0  501    0  0.00000000000E+00  0.00000000000E+00  0.14551040584E+04  0.14551040584E+04  0.25500000920E-02 0. -1.
       -2   -1    0    0    0  501  0.00000000000E+00  0.00000000000E+00 -0.27978699466E+04  0.27978699466E+04  0.25500000920E-02 0.  1.
    10030    2    1    2    0    0  0.00000000000E+00  0.00000000000E+00 -0.13427658882E+04  0.42529740051E+04  0.40354389671E+04 0.  0.
        5    1    3    3  502    0  0.17020983612E+04 -0.10220188494E+04 -0.29211073429E+03  0.20067416702E+04  0.46999998093E+01 0. -1.
       -5    1    3    3    0  502 -0.17020983612E+04  0.10220188494E+04 -0.10506551539E+04  0.22462323349E+04  0.46999998093E+01 0.  1.
</event>
<event>
 5   0  0.3579559E-07  0.2015660E+04  0.7818609E-02  0.8599334E-01
        1   -1    0    0  501    0  0.00000000000E+00  0.00000000000E+00  0.21882555430E+04  0.21882555430E+04  0.50400001928E-02 0.  1.
       -1   -1    0    0    0  501  0.00000000000E+00  0.00000000000E+00 -0.46416931909E+03  0.46416931912E+03  0.50400001928E-02 0. -1.
    10030    2    1    2    0    0  0.00000000000E+00  0.00000000000E+00  0.17240862239E+04  0.26524248621E+04  0.20156597783E+04 0.  0.
        4    1    3    3  502    0  0.79583817511E+03 -0.61201146243E+03  0.97828370492E+03  0.14017692575E+04  0.12699999809E+01 0. -1.
       -4    1    3    3    0  502 -0.79583817511E+03  0.61201146243E+03  0.74580251897E+03  0.12506556046E+04  0.12699999809E+01 0.  1.
</event>
<event>
 5   0  0.6043512E-07  0.3912417E+04  0.7818609E-02  0.8022452E-01
       -2   -1    0    0    0  501  0.00000000000E+00  0.00000000000E+00  0.17664084050E+04  0.17664084050E+04  0.25500000920E-02 0. -1.
        2   -1    0    0  501    0  0.00000000000E+00  0.00000000000E+00 -0.21664027024E+04  0.21664027024E+04  0.25500000920E-02 0.  1.
    10030    2    1    2    0    0  0.00000000000E+00  0.00000000000E+00 -0.39999429742E+03  0.39328111074E+04  0.39124171261E+04 0.  0.
        3    1    3    3  502    0  0.55060356231E+03 -0.16425382435E+04  0.71339536136E+03  0.18735071700E+04  0.10100000352E+00 0.  1.
       -3    1    3    3    0  502 -0.55060356231E+03  0.16425382435E+04 -0.11133896588E+04  0.20593039374E+04  0.10100000352E+00 0. -1.
</event>
<event>
 5   0  0.2601252E-07  0.3863330E+04  0.7818609E-02  0.8032699E-01
       -1   -1    0    0    0  501  0.00000000000E+00  0.00000000000E+00  0.19529740891E+04  0.19529740891E+04  0.50400001928E-02 0.  1.
        1   -1    0    0  501    0  0.00000000000E+00  0.00000000000E+00 -0.19105887880E+04  0.19105887880E+04  0.50400001928E-02 0. -1.
    10030    2    1    2    0    0  0.00000000000E+00  0.00000000000E+00  0.42385301039E+02  0.38635628771E+04  0.38633303757E+04 0.  0.
        3    1    3    3  502    0 -0.61805128611E+03 -0.16912882322E+04 -0.67805405615E+03  0.19241103373E+04  0.10100000352E+00 0. -1.
       -3    1    3    3    0  502  0.61805128611E+03  0.16912882322E+04  0.72043935719E+03  0.19394525399E+04  0.10100000352E+00 0.  1.
</event>
<event>
 5   0  0.2647879E-07  0.2213216E+04  0.7818609E-02  0.8512947E-01
       -1   -1    0    0    0  501  0.00000000000E+00  0.00000000000E+00  0.63480898551E+03  0.63480898553E+03  0.50400001928E-02 0. -1.
        1   -1    0    0  501    0  0.00000000000E+00  0.00000000000E+00 -0.19290555374E+04  0.19290555374E+04  0.50400001928E-02 0.  1.
    10030    2    1    2    0    0  0.00000000000E+00  0.00000000000E+00 -0.12942465519E+04  0.25638645229E+04  0.22132164727E+04 0.  0.
        2    1    3    3  502    0  0.40070598696E+03 -0.84751824982E+03  0.34021269294E+02  0.93808843854E+03  0.25500000920E-02 0. -1.
       -2    1    3    3    0  502 -0.40070598696E+03  0.84751824982E+03 -0.13282678212E+04  0.16257760844E+04  0.25500000920E-02 0.  1.
</event>
<event>
 5   0  0.4449262E-07  0.3922707E+04  0.7818609E-02  0.8020323E-01
        2   -1    0    0  501    0  0.00000000000E+00  0.00000000000E+00  0.24616961332E+04  0.24616961332E+04  0.25500000920E-02 0.  1.
       -2   -1    0    0    0  501  0.00000000000E+00  0.00000000000E+00 -0.15627064836E+04  0.15627064836E+04  0.25500000920E-02 0. -1.
    10030    2    1    2    0    0  0.00000000000E+00  0.00000000000E+00  0.89898964958E+03  0.40244026168E+04  0.39227074875E+04 0.  0.
        1    1    3    3  502    0  0.69705519713E+03  0.21371258967E+03  0.23175089530E+04  0.24294869347E+04  0.50400001928E-02 0.  1.
       -1    1    3    3    0  502 -0.69705519713E+03 -0.21371258967E+03 -0.14185193034E+04  0.15949156821E+04  0.50400001928E-02 0. -1.
</event>
<event>
 5   0  0.2401125E-07  0.2190473E+04  0.7818609E-02  0.8522404E-01
        1   -1    0    0  501    0  0.00000000000E+00  0.00000000000E+00  0.20289313531E+04  0.20289313531E+04  0.50400001928E-02 0. -1.
       -1   -1    0    0    0  501  0.00000000000E+00  0.00000000000E+00 -0.59121901826E+03  0.59121901828E+03  0.50400001928E-02 0.  1.
    10030    2    1    2    0    0  0.00000000000E+00  0.00000000000E+00  0.14377123349E+04  0.26201503714E+04  0.21904728282E+04 0.  0.
        5    1    3    3  502    0  0.26499736615E+01 -0.92446680725E+03  0.16400234588E+02  0.92462801047E+03  0.46999998093E+01 0.  1.
       -5    1    3    3    0  502 -0.26499736615E+01  0.92446680725E+03  0.14213121003E+04  0.16955223609E+04  0.46999998093E+01 0. -1.
</event>
<event>
 5   0  0.6043512E-07  0.2858690E+04  0.7818609E-02  0.8285275E-01
        2   -1    0    0  501    0  0.00000000000E+00  0.00000000000E+00  0.12087775611E+04  0.12087775611E+04  0.25500000920E-02 0.  1.
       -2   -1    0    0    0  501  0.00000000000E+00  0.00000000000E+00 -0.16901602935E+04  0.16901602935E+04  0.25500000920E-02 0. -1.
    10030    2    1    2    0    0  0.00000000000E+00  0.00000000000E+00 -0.48138273247E+03  0.28989378546E+04  0.28586904956E+04 0.  0.
        3    1    3    3  502    0  0.49616007367E+02 -0.11776738090E+04  0.57917781071E+03  0.13133256623E+04  0.10100000352E+00 0.  1.
       -3    1    3    3    0  502 -0.49616007367E+02  0.11776738090E+04 -0.10605605432E+04  0.15856121923E+04  0.10100000352E+00 0. -1.
</event>
<event>
 5   0  0.7256473E-07  0.2325430E+04  0.7818609E-02  0.8467961E-01
        2   -1    0    0  501    0  0.00000000000E+00  0.00000000000E+00  0.19143178649E+04  0.19143178649E+04  0.25500000920E-02 0.  1.
       -2   -1    0    0    0  501  0.00000000000E+00  0.00000000000E+00 -0.70620798215E+03  0.70620798215E+03  0.25500000920E-02 0. -1.
    10030    2    1    2    0    0  0.00000000000E+00  0.00000000000E+00  0.12081098828E+04  0.26205258471E+04  0.23254303314E+04 0.  0.
        4    1    3    3  502    0  0.71168420661E+03  0.78315291085E+03  0.61172378396E+02  0.10599842284E+04  0.12699999809E+01 0. -1.
       -4    1    3    3    0  502 -0.71168420661E+03 -0.78315291085E+03  0.11469375044E+04  0.15605416187E+04  0.12699999809E+01 0.  1.
</event>
<event>
 5   0  0.7256473E-07  0.3037383E+04  0.7818609E-02  0.8233136E-01
       -2   -1    0    0    0  501  0.00000000000E+00  0.00000000000E+00  0.87961515107E+03  0.87961515107E+03  0.25500000920E-02 0.  1.
        2   -1    0    0  501    0  0.00000000000E+00  0.00000000000E+00 -0.26220826708E+04  0.26220826708E+04  0.25500000920E-02 0. -1.
    10030    2    1    2    0    0  0.00000000000E+00  0.00000000000E+00 -0.17424675198E+04  0.35016978219E+04  0.30373828502E+04 0.  0.
        4    1    3    3  502    0 -0.48129530505E+03  0.13298325425E+04 -0.15093038913E+04  0.20683567417E+04  0.12699999809E+01 0. -1.
       -4    1    3    3    0  502  0.48129530505E+03 -0.13298325425E+04 -0.23316362847E+03  0.14333410802E+04  0.12699999809E+01 0.  1.
</event>
<event>
 5   0  0.4449262E-07  0.3993734E+04  0.7818609E-02  0.8005812E-01
        2   -1    0    0  501    0  0.00000000000E+00  0.00000000000E+00  0.26747590529E+04  0.26747590529E+04  0.25500000920E-02 0. -1.
       -2   -1    0    0    0  501  0.00000000000E+00  0.00000000000E+00 -0.14907802606E+04  0.14907802606E+04  0.25500000920E-02 0.  1.
    10030    2    1    2    0    0  0.00000000000E+00  0.00000000000E+00  0.11839787922E+04  0.41655393135E+04  0.39937340913E+04 0.  0.
        1    1    3    3  502    0 -0.14832958754E+04  0.91995007636E+03  0.16037730120E+04  0.23703507485E+04  0.50400001928E-02 0. -1.
       -1    1    3    3    0  502  0.14832958754E+04 -0.91995007636E+03 -0.41979421976E+03  0.17951885650E+04  0.50400001928E-02 0.  1.
</event>
<event>
 5   0  0.2401125E-07  0.3986813E+04  0.7818609E-02  0.8007212E-01
       -1   -1    0    0    0  501  0.00000000000E+00  0.00000000000E+00  0.20527397470E+04  0.20527397471E+04  0.50400001928E-02 0. -1.
        1   -1    0    0  501    0  0.00000000000E+00  0.00000000000E+00 -0.19357887092E+04  0.19357887092E+04  0.50400001928E-02 0.  1.
    10030    2    1    2    0    0  0.00000000000E+00  0.00000000000E+00  0.11695103785E+03  0.39885284563E+04  0.39868134771E+04 0.  0.
        5    1    3    3  502    0  0.37553915278E+03 -0.13837312910E+04  0.14439562202E+04  0.20348890871E+04  0.46999998093E+01 0. -1.
       -5    1    3    3    0  502 -0.37553915278E+03  0.13837312910E+04 -0.13270051823E+04  0.19536393692E+04  0.46999998093E+01 0.  1.
</event>
<event>
 5   0  0.7570277E-07  0.2142515E+04  0.7818609E-02  0.8542743E-01
        2   -1    0    0  501    0  0.00000000000E+00  0.00000000000E+00  0.81076431268E+03  0.81076431269E+03  0.25500000920E-02 0.  1.
       -2   -1    0    0    0  501  0.00000000000E+00  0.00000000000E+00 -0.14154448290E+04  0.14154448290E+04  0.25500000920E-02 0. -1.
    10030    2    1    2    0    0  0.00000000000E+00  0.00000000000E+00 -0.60468051635E+03  0.22262091417E+04  0.21425145544E+04 0.  0.
        5    1    3    3  502    0 -0.19818012098E+03  0.49042270417E+03 -0.12702772062E+04  0.13760145565E+04  0.46999998093E+01 0. -1.
       -5    1    3    3    0  502  0.19818012098E+03 -0.49042270417E+03  0.66559668988E+03  0.85019458519E+03  0.46999998093E+01 0.  1.
</event>
<event>
 5   0  0.7256473E-07  0.4003986E+04  0.7818609E-02  0.8003743E-01
        2   -1    0    0  501    0  0.00000000000E+00  0.00000000000E+00  0.28059806637E+04  0.28059806637E+04  0.25500000920E-02 0.  1.
       -2   -1    0    0    0  501  0.00000000000E+00  0.00000000000E+00 -0.14283691635E+04  0.14283691635E+04  0.25500000920E-02 0. -1.
    10030    2    1    2    0    0  0.00000000000E+00  0.00000000000E+00  0.13776115002E+04  0.42343498272E+04  0.40039861405E+04 0.  0.
        4    1    3    3  502    0  0.57086694329E+03 -0.14244183887E+04 -0.67090356934E+03  0.16748044738E+04  0.12699999809E+01 0. -1.
       -4    1    3    3    0  502 -0.57086694329E+03  0.14244183887E+04  0.20485150696E+04  0.25595453534E+04  0.12699999809E+01 0.  1.
</event>
<event>
 5   0  0.2601252E-07  0.2494639E+04  0.7818609E-02  0.8404898E-01
        1   -1    0    0  501    0  0.00000000000E+00  0.00000000000E+00  0.14594224222E+04  0.14594224222E+04  0.50400001928E-02 0. -1.
       -1   -1    0    0    0  501  0.00000000000E+00  0.00000000000E+00 -0.10660426082E+04  0.10660426082E+04  0.50400001928E-02 0.  1.
    10030    2    1    2    0    0  0.00000000000E+00  0.00000000000E+00  0.39337981404E+03  0.25254650304E+04  0.24946394412E+04 0.  0.
        3    1    3    3  502    0 -0.16016701402E+03 -0.11853884684E+04 -0.16124252983E+03  0.12069790624E+04  0.10100000352E+00 0.  1.
       -3    1    3    3    0  502  0.16016701402E+03  0.11853884684E+04  0.55462234387E+03  0.13184859680E+04  0.10100000352E+00 0. -1.
</event>
<event>
 5   0  0.2713405E-07  0.4028350E+04  0.7818609E-02  0.7998852E-01
        1   -1    0    0  501    0  0.00000000000E+00  0.00000000000E+00  0.26386875155E+04  0.26386875155E+04  0.50400001928E-02 0. -1.
       -1   -1    0    0    0  501  0.00000000000E+00  0.00000000000E+00 -0.15374691143E+04  0.15374691143E+04  0.50400001928E-02 0.  1.
    10030    2    1    2    0    0  0.00000000000E+00  0.00000000000E+00  0.11012184012E+04  0.41761566298E+04  0.40283498146E+04 0.  0.
        1    1    3    3  502    0  0.16320082300E+04 -0.27190026259E+03 -0.64024222513E+03  0.17740605183E+04  0.50400001928E-02 0.  1.
       -1    1    3    3    0  502 -0.16320082300E+04  0.27190026259E+03  0.17414606263E+04  0.24020961115E+04  0.50400001928E-02 0. -1.
</event>
<event>
 5   0  0.5161550E-07  0.4020815E+04  0.7818609E-02  0.8000361E-01
        2   -1    0    0  501    0  0.00000000000E+00  0.00000000000E+00  0.28802423035E+04  0.28802423035E+04  0.25500000920E-02 0.  1.
       -2   -1    0    0    0  501  0.00000000000E+00  0.00000000000E+00 -0.14032633824E+04  0.14032633824E+04  0.25500000920E-02 0. -1.
    10030    2    1    2    0    0  0.00000000000E+00  0.00000000000E+00  0.14769789211E+04  0.42835056859E+04  0.40208151198E+04 0.  0.
        2    1    3    3  502    0 -0.19273918813E+04 -0.54807437881E+03  0.56502147591E+03  0.20819400224E+04  0.25500000920E-02 0. -1.
       -2    1    3    3    0  502  0.19273918813E+04  0.54807437881E+03  0.91195744522E+03  0.22015656635E+04  0.25500000920E-02 0.  1.
</event>
<event>
 5   0  0.2647879E-07  0.2441861E+04  0.7818609E-02  0.8423996E-01
       -1   -1    0    0    0  501  0.00000000000E+00  0.00000000000E+00  0.94571885902E+03  0.94571885904E+03  0.50400001928E-02 0.  1.
        1   -1    0    0  501    0  0.00000000000E+00  0.00000000000E+00 -0.15762302992E+04  0.15762302992E+04  0.50400001928E-02 0. -1.
    10030    2    1    2    0    0  0.00000000000E+00  0.00000000000E+00 -0.63051144016E+03  0.25219491582E+04  0.24418605367E+04 0.  0.
        2    1    3    3  502    0  0.55877607026E+03 -0.77153088865E+03  0.47345332797E+03  0.10637897643E+04  0.25500000920E-02 0.  1.
       -2    1    3    3    0  502 -0.55877607026E+03  0.77153088865E+03 -0.11039647681E+04  0.14581593939E+04  0.25500000920E-02 0. -1.
</event>
<event>
 5   0  0.4449262E-07  0.3996100E+04  0.7818609E-02  0.8005334E-01
        2   -1    0    0  501    0  0.00000000000E+00  0.00000000000E+00  0.14640757451E+04  0.14640757451E+04  0.25500000920E-02 0.  1.
       -2   -1    0    0    0  501  0.00000000000E+00  0.00000000000E+00 -0.27267737201E+04  0.27267737201E+04  0.25500000920E-02 0. -1.
    10030    2    1    2    0    0  0.00000000000E+00  0.00000000000E+00 -0.12626979750E+04  0.41908494652E+04  0.39960997314E+04 0.  0.
        1    1    3    3  502    0  0.16502313561E+04  0.48378865323E+03 -0.16982213784E+04  0.24168721190E+04  0.50400001928E-02 0. -1.
       -1    1    3    3    0  502 -0.16502313561E+04 -0.48378865323E+03  0.43552340339E+03  0.17739773461E+04  0.50400001928E-02 0.  1.
</event>
<event>
 5   0  0.4449262E-07  0.3957601E+04  0.7818609E-02  0.8013155E-01
        2   -1    0    0  501    0  0.00000000000E+00  0.00000000000E+00  0.14523292600E+04  0.14523292600E+04  0.25500000920E-02 0.  1.
       -2   -1    0    0    0  501  0.00000000000E+00  0.00000000000E+00 -0.26961187863E+04  0.26961187863E+04  0.25500000920E-02 0. -1.
    10030    2    1    2    0    0  0.00000000000E+00  0.00000000000E+00 -0.12437895264E+04  0.41484480463E+04  0.39576013957E+04 0.  0.
        1    1    3    3  502    0 -0.30007521396E+03  0.18621544003E+04  0.52789885222E+01  0.18861845118E+04  0.50400001928E-02 0.  1.
       -1    1    3    3    0  502  0.30007521396E+03 -0.18621544003E+04 -0.12490685149E+04  0.22622635345E+04  0.50400001928E-02 0. -1.
</event>
<event>
 5   0  0.4449262E-07  0.3896955E+04  0.7818609E-02  0.8025663E-01
       -2   -1    0    0    0  501  0.00000000000E+00  0.00000000000E+00  0.14018146016E+04  0.14018146016E+04  0.25500000920E-02 0. -1.
        2   -1    0    0  501    0  0.00000000000E+00  0.00000000000E+00 -0.27083210453E+04  0.27083210453E+04  0.25500000920E-02 0.  1.
    10030    2    1    2    0    0  0.00000000000E+00  0.00000000000E+00 -0.13065064436E+04  0.41101356469E+04  0.38969547019E+04 0.  0.
        1    1    3    3  502    0 -0.17999216195E+04 -0.39825480753E+03 -0.13188371602E+04  0.22666398442E+04  0.50400001928E-02 0.  1.
       -1    1    3    3    0  502  0.17999216195E+04  0.39825480753E+03  0.12330716508E+02  0.18434958028E+04  0.50400001928E-02 0. -1.
</event>
<event>
 5   0  0.7570277E-07  0.2874929E+04  0.7818609E-02  0.8280376E-01
       -2   -1    0    0    0  501  0.00000000000E+00  0.00000000000E+00  0.11338782372E+04  0.11338782372E+04  0.25500000920E-02 0. -1.
        2   -1    0    0  501    0  0.00000000000E+00  0.00000000000E+00 -0.18223332019E+04  0.18223332019E+04  0.25500000920E-02 0.  1.
    10030    2    1    2    0    0  0.00000000000E+00  0.00000000000E+00 -0.68845496463E+03  0.29562114391E+04  0.28749288399E+04 0.  0.
        5    1    3    3  502    0 -0.12139664109E+04  0.62770062680E+03  0.11397090828E+03  0.13713985495E+04  0.46999998093E+01 0. -1.
       -5    1    3    3    0  502  0.12139664109E+04 -0.62770062680E+03 -0.80242587291E+03  0.15848128896E+04  0.46999998093E+01 0.  1.
</event>
<event>
 5   0  0.6043512E-07  0.2956817E+04  0.7818609E-02  0.8256171E-01
        2   -1    0    0  501    0  0.00000000000E+00  0.00000000000E+00  0.12785493121E+04  0.12785493121E+04  0.25500000920E-02 0. -1.
       -2   -1    0    0    0  501  0.00000000000E+00  0.00000000000E+00 -0.17095088796E+04  0.17095088796E+04  0.25500000920E-02 0.  1.
    10030    2    1    2    0    0  0.00000000000E+00  0.00000000000E+00 -0.43095956759E+03  0.29880581917E+04  0.29568168033E+04 0.  0.
        3    1    3    3  502    0 -0.10329024024E+04 -0.14152064899E+03 -0.12747803415E+04  0.16468091560E+04  0.10100000352E+00 0.  1.
       -3    1    3    3    0  502  0.10329024024E+04  0.14152064899E+03  0.84382077390E+03  0.13412490357E+04  0.10100000352E+00 0. -1.
</event>
<event>
 5   0  0.8857140E-07  0.1971899E+04  0.7818609E-02  0.8619873E-01
        2   -1    0    0  501    0  0.00000000000E+00  0.00000000000E+00  0.19349285594E+04  0.19349285594E+04  0.25500000920E-02 0. -1.
       -2   -1    0    0    0  501  0.00000000000E+00  0.00000000000E+00 -0.50239388281E+03  0.50239388282E+03  0.25500000920E-02 0.  1.
    10030    2    1    2    0    0  0.00000000000E+00  0.00000000000E+00  0.14325346765E+04  0.24373224422E+04  0.19718988533E+04 0.  0.
        3    1    3    3  502    0 -0.11946475580E+03  0.48343130453E+03  0.17680674358E+04  0.18368560428E+04  0.10100000352E+00 0. -1.
       -3    1    3    3    0  502  0.11946475580E+03 -0.48343130453E+03 -0.33553275926E+03  0.60046639941E+03  0.10100000352E+00 0.  1.
</event>
<event>
 5   0  0.7256473E-07  0.4003899E+04  0.7818609E-02  0.8003760E-01
       -2   -1    0    0    0  501  0.00000000000E+00  0.00000000000E+00  0.26013571463E+04  0.26013571463E+04  0.25500000920E-02 0. -1.
        2   -1    0    0  501    0  0.00000000000E+00  0.00000000000E+00 -0.15406583654E+04  0.15406583654E+04  0.25500000920E-02 0.  1.
    10030    2    1    2    0    0  0.00000000000E+00  0.00000000000E+00  0.10606987809E+04  0.41420155117E+04  0.40038994238E+04 0.  0.
        4    1    3    3  502    0 -0.17495470470E+04 -0.96781551230E+03  0.42577167505E+03  0.20442272055E+04  0.12699999809E+01 0. -1.
       -4    1    3    3    0  502  0.17495470470E+04  0.96781551230E+03  0.63492710585E+03  0.20977883063E+04  0.12699999809E+01 0.  1.
</event>
<event>
 5   0  0.7256473E-07  0.4145218E+04  0.7818609E-02  0.7975875E-01
        2   -1    0    0  501    0  0.00000000000E+00  0.00000000000E+00  0.19002168833E+04  0.19002168833E+04  0.25500000920E-02 0.  1.
       -2   -1    0    0    0  501  0.00000000000E+00  0.00000000000E+00 -0.22606412082E+04  0.22606412082E+04  0.25500000920E-02 0. -1.
    10030    2    1    2    0    0  0.00000000000E+00  0.00000000000E+00 -0.36042432490E+03  0.41608580914E+04  0.41452182528E+04 0.  0.
        4    1    3    3  502    0 -0.88511528220E+02  0.10316762714E+04 -0.19824017183E+04  0.22365393815E+04  0.12699999809E+01 0. -1.
       -4    1    3    3    0  502  0.88511528220E+02 -0.10316762714E+04  0.16219773934E+04  0.19243187099E+04  0.12699999809E+01 0.  1.
</event>
<event>
 5   0  0.7570277E-07  0.4030262E+04  0.7818609E-02  0.7998469E-01
       -2   -1    0    0    0  501  0.00000000000E+00  0.00000000000E+00  0.19086113865E+04  0.19086113865E+04  0.25500000920E-02 0. -1.
        2   -1    0    0  501    0  0.00000000000E+00  0.00000000000E+00 -0.21275957048E+04  0.21275957048E+04  0.25500000920E-02 0.  1.
    10030    2    1    2    0    0  0.00000000000E+00  0.00000000000E+00 -0.21898431838E+03  0.40362070913E+04  0.40302622188E+04 0.  0.
        5    1    3    3  502    0 -0.85523672610E+03 -0.12576204566E+04 -0.14334453028E+04  0.20899345915E+04  0.46999998093E+01 0.  1.
       -5    1    3    3    0  502  0.85523672610E+03  0.12576204566E+04  0.12144609845E+04  0.19462724998E+04  0.46999998093E+01 0. -1.
</event>
<event>
 5   0  0.4449262E-07  0.3995910E+04  0.7818609E-02  0.8005372E-01
        2   -1    0    0  501    0  0.00000000000E+00  0.00000000000E+00  0.25163360027E+04  0.25163360027E+04  0.25500000920E-02 0. -1.
       -2   -1    0    0    0  501  0.00000000000E+00  0.00000000000E+00 -0.15863637037E+04  0.15863637037E+04  0.25500000920E-02 0.  1.
    10030    2    1    2    0    0  0.00000000000E+00  0.00000000000E+00  0.92997229898E+03  0.41026997063E+04  0.39959099594E+04 0.  0.
        1    1    3    3  502    0 -0.49773922555E+02  0.79438721843E+03  0.23465263302E+04  0.24778446914E+04  0.50400001928E-02 0. -1.
       -1    1    3    3    0  502  0.49773922555E+02 -0.79438721843E+03 -0.14165540312E+04  0.16248550149E+04  0.50400001928E-02 0.  1.
</event>
<event>
 5   0  0.2647879E-07  0.3415161E+04  0.7818609E-02  0.8134195E-01
        1   -1    0    0  501    0  0.00000000000E+00  0.00000000000E+00  0.26453889477E+04  0.26453889477E+04  0.50400001928E-02 0.  1.
       -1   -1    0    0    0  501  0.00000000000E+00  0.00000000000E+00 -0.11022315928E+04  0.11022315928E+04  0.50400001928E-02 0. -1.
    10030    2    1    2    0    0  0.00000000000E+00  0.00000000000E+00  0.15431573549E+04  0.37476205405E+04  0.34151610641E+04 0.  0.
        2    1    3    3  502    0 -0.10585568537E+04  0.28431950847E+03 -0.66525655473E+03  0.12821647628E+04  0.25500000920E-02 0. -1.
       -2    1    3    3    0  502  0.10585568537E+04 -0.28431950847E+03  0.22084139096E+04  0.24654557777E+04  0.25500000920E-02 0.  1.
</event>
<event>
 5   0  0.7256473E-07  0.4032598E+04  0.7818609E-02  0.7998003E-01
        2   -1    0    0  501    0  0.00000000000E+00  0.00000000000E+00  0.14897853783E+04  0.14897853783E+04  0.25500000920E-02 0. -1.
       -2   -1    0    0    0  501  0.00000000000E+00  0.00000000000E+00 -0.27288903954E+04  0.27288903954E+04  0.25500000920E-02 0.  1.
    10030    2    1    2    0    0  0.00000000000E+00  0.00000000000E+00 -0.12391050171E+04  0.42186757737E+04  0.40325976790E+04 0.  0.
        4    1    3    3  502    0  0.80125471773E+03  0.49024692079E+03 -0.24860050691E+04  0.26575503725E+04  0.12699999809E+01 0.  1.
       -4    1    3    3    0  502 -0.80125471773E+03 -0.49024692079E+03  0.12469000519E+04  0.15611254013E+04  0.12699999809E+01 0. -1.
</event>
<event>
 5   0  0.5161550E-07  0.4062731E+04  0.7818609E-02  0.7992010E-01
       -2   -1    0    0    0  501  0.00000000000E+00  0.00000000000E+00  0.15109276072E+04  0.15109276072E+04  0.25500000920E-02 0. -1.
        2   -1    0    0  501    0  0.00000000000E+00  0.00000000000E+00 -0.27310678738E+04  0.27310678738E+04  0.25500000920E-02 0.  1.
    10030    2    1    2    0    0  0.00000000000E+00  0.00000000000E+00 -0.12201402666E+04  0.42419954810E+04  0.40627310261E+04 0.  0.
        2    1    3    3  502    0 -0.56518572943E+03 -0.13554777726E+04 -0.20754532219E+04  0.25424910967E+04  0.25500000920E-02 0.  1.
       -2    1    3    3    0  502  0.56518572943E+03  0.13554777726E+04  0.85531295529E+03  0.16995043843E+04  0.25500000920E-02 0. -1.
</event>
<event>
 5   0  0.2647879E-07  0.4000824E+04  0.7818609E-02  0.8004380E-01
        1   -1    0    0  501    0  0.00000000000E+00  0.00000000000E+00  0.12469404851E+04  0.12469404851E+04  0.50400001928E-02 0. -1.
       -1   -1    0    0    0  501  0.00000000000E+00  0.00000000000E+00 -0.32091740543E+04  0.32091740543E+04  0.50400001928E-02 0.  1.
    10030    2    1    2    0    0  0.00000000000E+00  0.00000000000E+00 -0.19622335692E+04  0.44561145394E+04  0.40008244411E+04 0.  0.
        2    1    3    3  502    0 -0.10114685523E+04  0.16161682081E+04 -0.16554765862E+04  0.25250091161E+04  0.25500000920E-02 0.  1.
       -2    1    3    3    0  502  0.10114685523E+04 -0.16161682081E+04 -0.30675698299E+03  0.19311054233E+04  0.25500000920E-02 0. -1.
</event>
<event>
 5   0  0.7570277E-07  0.3932967E+04  0.7818609E-02  0.8018207E-01
       -2   -1    0    0    0  501  0.00000000000E+00  0.00000000000E+00  0.18063293251E+04  0.18063293251E+04  0.25500000920E-02 0.  1.
        2   -1    0    0  501    0  0.00000000000E+00  0.00000000000E+00 -0.21408376004E+04  0.21408376004E+04  0.25500000920E-02 0. -1.
    10030    2    1    2    0    0  0.00000000000E+00  0.00000000000E+00 -0.33450827527E+03  0.39471669255E+04  0.39329671944E+04 0.  0.
        5    1    3    3  502    0 -0.17467918343E+04 -0.19873230196E+03 -0.10514909827E+04  0.20485193719E+04  0.46999998093E+01 0.  1.
       -5    1    3    3    0  502  0.17467918343E+04  0.19873230196E+03  0.71698270747E+03  0.18986475537E+04  0.46999998093E+01 0. -1.
</event>
<event>
 5   0  0.5161550E-07  0.4004869E+04  0.7818609E-02  0.8003565E-01
       -2   -1    0    0    0  501  0.00000000000E+00  0.00000000000E+00  0.25236468312E+04  0.25236468312E+04  0.25500000920E-02 0. -1.
        2   -1    0    0  501    0  0.00000000000E+00  0.00000000000E+00 -0.15888692305E+04  0.15888692305E+04  0.25500000920E-02 0.  1.
    10030    2    1    2    0    0  0.00000000000E+00  0.00000000000E+00  0.93477760067E+03  0.41125160617E+04  0.40048694355E+04 0.  0.
        2    1    3    3  502    0 -0.26693059875E+03  0.18863085485E+04  0.11006767154E+04  0.22002047897E+04  0.25500000920E-02 0. -1.
       -2    1    3    3    0  502  0.26693059875E+03 -0.18863085485E+04 -0.16589911473E+03  0.19123112720E+04  0.25500000920E-02 0.  1.
</event>
<event>
 5   0  0.7256473E-07  0.3999592E+04  0.7818609E-02  0.8004629E-01
        2   -1    0    0  501    0  0.00000000000E+00  0.00000000000E+00  0.16712741572E+04  0.16712741572E+04  0.25500000920E-02 0. -1.
       -2   -1    0    0    0  501  0.00000000000E+00  0.00000000000E+00 -0.23928955169E+04  0.23928955169E+04  0.25500000920E-02 0.  1.
    10030    2    1    2    0    0  0.00000000000E+00  0.00000000000E+00 -0.72162135968E+03  0.40641696741E+04  0.39995921984E+04 0.  0.
        4    1    3    3  502    0  0.10837376503E+03 -0.16818869846E+04  0.73299587222E+03  0.18378719388E+04  0.12699999809E+01 0. -1.
       -4    1    3    3    0  502 -0.10837376503E+03  0.16818869846E+04 -0.14546172319E+04  0.22262977353E+04  0.12699999809E+01 0.  1.
</event>
<event>
 5   0  0.2647879E-07  0.4068302E+04  0.7818609E-02  0.7990908E-01
        1   -1    0    0  501    0  0.00000000000E+00  0.00000000000E+00  0.14380205742E+04  0.14380205742E+04  0.50400001928E-02 0.  1.
       -1   -1    0    0    0  501  0.00000000000E+00  0.00000000000E+00 -0.28774066564E+04  0.28774066564E+04  0.50400001928E-02 0. -1.
    10030    2    1    2    0    0  0.00000000000E+00  0.00000000000E+00 -0.14393860823E+04  0.43154272306E+04  0.40683018434E+04 0.  0.
        2    1    3    3  502    0  0.28357519849E+03 -0.96441645635E+03 -0.25955181546E+04  0.27833843581E+04  0.25500000920E-02 0. -1.
       -2    1    3    3    0  502 -0.28357519849E+03  0.96441645635E+03  0.11561320723E+04  0.15320428725E+04  0.25500000920E-02 0.  1.
</event>
<event>
 5   0  0.7570277E-07  0.3974027E+04  0.7818609E-02  0.8009807E-01
        2   -1    0    0  501    0  0.00000000000E+00  0.00000000000E+00  0.19232436360E+04  0.19232436360E+04  0.25500000920E-02 0.  1.
       -2   -1    0    0    0  501  0.00000000000E+00  0.00000000000E+00 -0.20528981441E+04  0.20528981441E+04  0.25500000920E-02 0. -1.
    10030    2    1    2    0    0  0.00000000000E+00  0.00000000000E+00 -0.12965450813E+03  0.39761417801E+04  0.39740273231E+04 0.  0.
        5    1    3    3  502    0  0.16378445717E+04  0.67883022370E+03  0.83278769304E+03  0.19588013542E+04  0.46999998093E+01 0.  1.
       -5    1    3    3    0  502 -0.16378445717E+04 -0.67883022370E+03 -0.96244220117E+03  0.20173404259E+04  0.46999998093E+01 0. -1.
</event>
<event>
 5   0  0.8808389E-07  0.2060659E+04  0.7818609E-02  0.8578774E-01
        2   -1    0    0  501    0  0.00000000000E+00  0.00000000000E+00  0.20115311220E+04  0.20115311220E+04  0.25500000920E-02 0.  1.
       -2   -1    0    0    0  501  0.00000000000E+00  0.00000000000E+00 -0.52774685039E+03  0.52774685039E+03  0.25500000920E-02 0. -1.
    10030    2    1    2    0    0  0.00000000000E+00  0.00000000000E+00  0.14837842716E+04  0.25392779724E+04  0.20606593257E+04 0.  0.
        3    1    3    3  502    0 -0.17422066957E+03 -0.20374594550E+03 -0.48401872514E+03  0.55329864314E+03  0.10100000352E+00 0. -1.
       -3    1    3    3    0  502  0.17422066957E+03  0.20374594550E+03  0.19678029968E+04  0.19859793293E+04  0.10100000352E+00 0.  1.
</event>
<event>
 5   0  0.6043512E-07  0.3964562E+04  0.7818609E-02  0.8011734E-01
        2   -1    0    0  501    0  0.00000000000E+00  0.00000000000E+00  0.13262085371E+04  0.13262085371E+04  0.25500000920E-02 0.  1.
       -2   -1    0    0    0  501  0.00000000000E+00  0.00000000000E+00 -0.29629116468E+04  0.29629116468E+04  0.25500000920E-02 0. -1.
    10030    2    1    2    0    0  0.00000000000E+00  0.00000000000E+00 -0.16367031097E+04  0.42891201838E+04  0.39645623822E+04 0.  0.
        3    1    3    3  502    0  0.82713942913E+03 -0.60818081472E+03 -0.26528685073E+04  0.28446010029E+04  0.10100000352E+00 0. -1.
       -3    1    3    3    0  502 -0.82713942913E+03  0.60818081472E+03  0.10161653976E+04  0.14445191809E+04  0.10100000352E+00 0.  1.
</event>
<event>
 5   0  0.2601252E-07  0.2071418E+04  0.7818609E-02  0.8573939E-01
        1   -1    0    0  501    0  0.00000000000E+00  0.00000000000E+00  0.93176674388E+03  0.93176674390E+03  0.50400001928E-02 0. -1.
       -1   -1    0    0    0  501  0.00000000000E+00  0.00000000000E+00 -0.11512468488E+04  0.11512468488E+04  0.50400001928E-02 0.  1.
    10030    2    1    2    0    0  0.00000000000E+00  0.00000000000E+00 -0.21948010492E+03  0.20830135927E+04  0.20714183814E+04 0.  0.
        3    1    3    3  502    0 -0.62472494403E+02 -0.84704913558E+03  0.48628210531E+03  0.97870595522E+03  0.10100000352E+00 0. -1.
       -3    1    3    3    0  502  0.62472494403E+02  0.84704913558E+03 -0.70576221023E+03  0.11043076375E+04  0.10100000352E+00 0.  1.
</event>
<event>
 5   0  0.5161550E-07  0.4028063E+04  0.7818609E-02  0.7998909E-01
        2   -1    0    0  501    0  0.00000000000E+00  0.00000000000E+00  0.27297144530E+04  0.27297144530E+04  0.25500000920E-02 0.  1.
       -2   -1    0    0    0  501  0.00000000000E+00  0.00000000000E+00 -0.14859877324E+04  0.14859877324E+04  0.25500000920E-02 0. -1.
    10030    2    1    2    0    0  0.00000000000E+00  0.00000000000E+00  0.12437267206E+04  0.42157021855E+04  0.40280626560E+04 0.  0.
        2    1    3    3  502    0 -0.74369252338E+03  0.89106492549E+03  0.23445171334E+04  0.26160726022E+04  0.25500000920E-02 0.  1.
       -2    1    3    3    0  502  0.74369252338E+03 -0.89106492549E+03 -0.11007904129E+04  0.15996295833E+04  0.25500000920E-02 0. -1.
</event>
<event>
 5   0  0.2647879E-07  0.3659904E+04  0.7818609E-02  0.8076906E-01
        1   -1    0    0  501    0  0.00000000000E+00  0.00000000000E+00  0.16573237758E+04  0.16573237758E+04  0.50400001928E-02 0.  1.
       -1   -1    0    0    0  501  0.00000000000E+00  0.00000000000E+00 -0.20205615493E+04  0.20205615493E+04  0.50400001928E-02 0. -1.
    10030    2    1    2    0    0  0.00000000000E+00  0.00000000000E+00 -0.36323777350E+03  0.36778853252E+04  0.36599042044E+04 0.  0.
        2    1    3    3  502    0  0.15944729948E+04 -0.84644858876E+03 -0.48293422362E+03  0.18687013697E+04  0.25500000920E-02 0. -1.
       -2    1    3    3    0  502 -0.15944729948E+04  0.84644858876E+03  0.11969645012E+03  0.18091839555E+04  0.25500000920E-02 0.  1.
</event>
<event>
 5   0  0.4449262E-07  0.3321363E+04  0.7818609E-02  0.8157481E-01
        2   -1    0    0  501    0  0.00000000000E+00  0.00000000000E+00  0.22111308758E+04  0.22111308758E+04  0.25500000920E-02 0. -1.
       -2   -1    0    0    0  501  0.00000000000E+00  0.00000000000E+00 -0.12472637412E+04  0.12472637412E+04  0.25500000920E-02 0.  1.
    10030    2    1    2    0    0  0.00000000000E+00  0.00000000000E+00  0.96386713461E+03  0.34583946170E+04  0.33213631951E+04 0.  0.
        1    1    3    3  502    0  0.61647344313E+03  0.14033562865E+04 -0.18350660792E+03  0.15437367159E+04  0.50400001928E-02 0.  1.
       -1    1    3    3    0  502 -0.61647344313E+03 -0.14033562865E+04  0.11473737425E+04  0.19146579010E+04  0.50400001928E-02 0. -1.
</event>
<event>
 5   0  0.7003621E-07  0.2081616E+04  0.7818609E-02  0.8569385E-01
        2   -1    0    0  501    0  0.00000000000E+00  0.00000000000E+00  0.20788424799E+04  0.20788424799E+04  0.25500000920E-02 0. -1.
       -2   -1    0    0    0  501  0.00000000000E+00  0.00000000000E+00 -0.52109824679E+03  0.52109824680E+03  0.25500000920E-02 0.  1.
    10030    2    1    2    0    0  0.00000000000E+00  0.00000000000E+00  0.15577442331E+04  0.25999407267E+04  0.20816158835E+04 0.  0.
        3    1    3    3  502    0 -0.42044001302E+03  0.57188026993E+03 -0.17189948543E+03  0.73031930755E+03  0.10100000352E+00 0.  1.
       -3    1    3    3    0  502  0.42044001302E+03 -0.57188026993E+03  0.17296437185E+04  0.18696214191E+04  0.10100000352E+00 0. -1.
</event>
<event>
 5   0  0.2401125E-07  0.4013681E+04  0.7818609E-02  0.8001792E-01
        3   -1    0    0  501    0  0.00000000000E+00  0.00000000000E+00  0.21940492551E+04  0.21940492574E+04  0.10100000352E+00 0. -1.
       -3   -1    0    0    0  501  0.00000000000E+00  0.00000000000E+00 -0.18356056484E+04  0.18356056512E+04  0.10100000352E+00 0.  1.
    10030    2    1    2    0    0  0.00000000000E+00  0.00000000000E+00  0.35844360664E+03  0.40296549086E+04  0.40136812110E+04 0.  0.
        5    1    3    3  502    0  0.83093102809E+02 -0.16539529044E+04  0.13172772959E+04  0.21160591291E+04  0.46999998093E+01 0. -1.
       -5    1    3    3    0  502 -0.83093102809E+02  0.16539529044E+04 -0.95883368921E+03  0.19135957795E+04  0.46999998093E+01 0.  1.
</event>
<event>
 5   0  0.5161550E-07  0.3825445E+04  0.7818609E-02  0.8040716E-01
       -2   -1    0    0    0  501  0.00000000000E+00  0.00000000000E+00  0.18921476043E+04  0.18921476043E+04  0.25500000920E-02 0. -1.
        2   -1    0    0  501    0  0.00000000000E+00  0.00000000000E+00 -0.19335209693E+04  0.19335209693E+04  0.25500000920E-02 0.  1.
    10030    2    1    2    0    0  0.00000000000E+00  0.00000000000E+00 -0.41373364945E+02  0.38256685736E+04  0.38254448473E+04 0.  0.
        2    1    3    3  502    0  0.46909579087E+03 -0.18538949878E+04 -0.59798855733E+02  0.19132572723E+04  0.25500000920E-02 0. -1.
       -2    1    3    3    0  502 -0.46909579087E+03  0.18538949878E+04  0.18425490787E+02  0.19124113013E+04  0.25500000920E-02 0.  1.
</event>
<event>
 5   0  0.2713405E-07  0.4024360E+04  0.7818609E-02  0.7999650E-01
       -1   -1    0    0    0  501  0.00000000000E+00  0.00000000000E+00  0.23520199581E+04  0.23520199581E+04  0.50400001928E-02 0.  1.
        1   -1    0    0  501    0  0.00000000000E+00  0.00000000000E+00 -0.17214431603E+04  0.17214431603E+04  0.50400001928E-02 0. -1.
    10030    2    1    2    0    0  0.00000000000E+00  0.00000000000E+00  0.63057679773E+03  0.40734631184E+04  0.40243601577E+04 0.  0.
        1    1    3    3  502    0  0.10023352167E+04 -0.12505333660E+04 -0.91625716517E+03  0.18460868828E+04  0.50400001928E-02 0. -1.
       -1    1    3    3    0  502 -0.10023352167E+04  0.12505333660E+04  0.15468339629E+04  0.22273762356E+04  0.50400001928E-02 0.  1.
</event>
<event>
 5   0  0.5161550E-07  0.3700069E+04  0.7818609E-02  0.8067947E-01
        2   -1    0    0  501    0  0.00000000000E+00  0.00000000000E+00  0.24587385819E+04  0.24587385819E+04  0.25500000920E-02 0.  1.
       -2   -1    0    0    0  501  0.00000000000E+00  0.00000000000E+00 -0.13920255985E+04  0.13920255985E+04  0.25500000920E-02 0. -1.
    10030    2    1    2    0    0  0.00000000000E+00  0.00000000000E+00  0.10667129834E+04  0.38507641804E+04  0.37000686729E+04 0.  0.
        2    1    3    3  502    0 -0.34563077369E+03 -0.75450112754E+03 -0.11874340547E+04  0.14487001820E+04  0.25500000920E-02 0. -1.
       -2    1    3    3    0  502  0.34563077369E+03  0.75450112754E+03  0.22541470381E+04  0.24020639984E+04  0.25500000920E-02 0.  1.
</event>
<event>
 5   0  0.2601252E-07  0.3995780E+04  0.7818609E-02  0.8005398E-01
       -1   -1    0    0    0  501  0.00000000000E+00  0.00000000000E+00  0.19474436197E+04  0.19474436197E+04  0.50400001928E-02 0. -1.
        1   -1    0    0  501    0  0.00000000000E+00  0.00000000000E+00 -0.20496428780E+04  0.20496428780E+04  0.50400001928E-02 0.  1.
    10030    2    1    2    0    0  0.00000000000E+00  0.00000000000E+00 -0.10219925832E+03  0.39970864977E+04  0.39957797464E+04 0.  0.
        3    1    3    3  502    0  0.84788348405E+03  0.10725064351E+04  0.14062184168E+04  0.19612819027E+04  0.10100000352E+00 0.  1.
       -3    1    3    3    0  502 -0.84788348405E+03 -0.10725064351E+04 -0.15084176751E+04  0.20358045949E+04  0.10100000352E+00 0. -1.
</event>
<event>
 5   0  0.2647879E-07  0.2126150E+04  0.7818609E-02  0.8549811E-01
       -1   -1    0    0    0  501  0.00000000000E+00  0.00000000000E+00  0.11578708595E+04  0.11578708595E+04  0.50400001928E-02 0. -1.
        1   -1    0    0  501    0  0.00000000000E+00  0.00000000000E+00 -0.97604018916E+03  0.97604018918E+03  0.50400001928E-02 0.  1.
    10030    2    1    2    0    0  0.00000000000E+00  0.00000000000E+00  0.18183067032E+03  0.21339110487E+04  0.21261500349E+04 0.  0.
        2    1    3    3  502    0  0.25537412349E+03  0.19087991812E+03 -0.92692529250E+03  0.98022527205E+03  0.25500000920E-02 0.  1.
       -2    1    3    3    0  502 -0.25537412349E+03 -0.19087991812E+03  0.11087559628E+04  0.11536857766E+04  0.25500000920E-02 0. -1.
</event>
<event>
 5   0  0.4449262E-07  0.3917108E+04  0.7818609E-02  0.8021480E-01
        2   -1    0    0  501    0  0.00000000000E+00  0.00000000000E+00  0.20422236336E+04  0.20422236336E+04  0.25500000920E-02 0. -1.
       -2   -1    0    0    0  501  0.00000000000E+00  0.00000000000E+00 -0.18783127769E+04  0.18783127769E+04  0.25500000920E-02 0.  1.
    10030    2    1    2    0    0  0.00000000000E+00  0.00000000000E+00  0.16391085670E+03  0.39205364104E+04  0.39171084969E+04 0.  0.
        1    1    3    3  502    0  0.14144160628E+04  0.96080285535E+03 -0.87398238778E+03  0.19203020960E+04  0.50400001928E-02 0.  1.
       -1    1    3    3    0  502 -0.14144160628E+04 -0.96080285535E+03  0.10378932445E+04  0.20002343144E+04  0.50400001928E-02 0. -1.
</event>
<event>
 5   0  0.2713405E-07  0.2373348E+04  0.7818609E-02  0.8449550E-01
       -1   -1    0    0    0  501  0.00000000000E+00  0.00000000000E+00  0.94152786274E+03  0.94152786275E+03  0.50400001928E-02 0. -1.
        1   -1    0    0  501    0  0.00000000000E+00  0.00000000000E+00 -0.14956483564E+04  0.14956483564E+04  0.50400001928E-02 0.  1.
    10030    2    1    2    0    0  0.00000000000E+00  0.00000000000E+00 -0.55412049366E+03  0.24371762192E+04  0.23733475097E+04 0.  0.
        1    1    3    3  502    0  0.49361903164E+03 -0.10577927904E+04 -0.49636706499E+03  0.12684500775E+04  0.50400001928E-02 0.  1.
       -1    1    3    3    0  502 -0.49361903164E+03  0.10577927904E+04 -0.57753428677E+02  0.11687261417E+04  0.50400001928E-02 0. -1.
</event>
<event>
 5   0  0.7570277E-07  0.3956413E+04  0.7818609E-02  0.8013398E-01
       -2   -1    0    0    0  501  0.00000000000E+00  0.00000000000E+00  0.11753342604E+04  0.11753342604E+04  0.25500000920E-02 0. -1.
        2   -1    0    0  501    0  0.00000000000E+00  0.00000000000E+00 -0.33295221023E+04  0.33295221023E+04  0.25500000920E-02 0.  1.
    10030    2    1    2    0    0  0.00000000000E+00  0.00000000000E+00 -0.21541878419E+04  0.45048563627E+04  0.39564132229E+04 0.  0.
        5    1    3    3  502    0  0.40043870705E+03 -0.12798288032E+03 -0.32780664250E+04  0.33049163912E+04  0.46999998093E+01 0.  1.
       -5    1    3    3    0  502 -0.40043870705E+03  0.12798288032E+03  0.11238785831E+04  0.11999399715E+04  0.46999998093E+01 0. -1.
</event>
<event>
 5   0  0.7570277E-07  0.4018028E+04  0.7818609E-02  0.8000920E-01
        2   -1    0    0  501    0  0.00000000000E+00  0.00000000000E+00  0.14165901455E+04  0.14165901455E+04  0.25500000920E-02 0.  1.
       -2   -1    0    0    0  501  0.00000000000E+00  0.00000000000E+00 -0.28491921598E+04  0.28491921598E+04  0.25500000920E-02 0. -1.
    10030    2    1    2    0    0  0.00000000000E+00  0.00000000000E+00 -0.14326020144E+04  0.42657823053E+04  0.40180281413E+04 0.  0.
        5    1    3    3  502    0  0.68604526468E+03  0.16691885335E+04  0.22089159443E+03  0.18181484131E+04  0.46999998093E+01 0.  1.
       -5    1    3    3    0  502 -0.68604526468E+03 -0.16691885335E+04 -0.16534936088E+04  0.24476338921E+04  0.46999998093E+01 0. -1.
</event>
<event>
 5   0  0.7256473E-07  0.3947976E+04  0.7818609E-02  0.8015124E-01
        2   -1    0    0  501    0  0.00000000000E+00  0.00000000000E+00  0.25588008171E+04  0.25588008171E+04  0.25500000920E-02 0. -1.
       -2   -1    0    0    0  501  0.00000000000E+00  0.00000000000E+00 -0.15228339531E+04  0.15228339531E+04  0.25500000920E-02 0.  1.
    10030    2    1    2    0    0  0.00000000000E+00  0.00000000000E+00  0.10359668640E+04  0.40816347702E+04  0.39479760706E+04 0.  0.
        4    1    3    3  502    0  0.14809731912E+04 -0.12741289059E+04  0.22567276833E+03  0.19666255040E+04  0.12699999809E+01 0.  1.
       -4    1    3    3    0  502 -0.14809731912E+04  0.12741289059E+04  0.81029409571E+03  0.21150092662E+04  0.12699999809E+01 0. -1.
</event>
<event>
 5   0  0.2647879E-07  0.2364911E+04  0.7818609E-02  0.8452758E-01
       -1   -1    0    0    0  501  0.00000000000E+00  0.00000000000E+00  0.96284890564E+03  0.96284890565E+03  0.50400001928E-02 0. -1.
        1   -1    0    0  501    0  0.00000000000E+00  0.00000000000E+00 -0.14521505409E+04  0.14521505409E+04  0.50400001928E-02 0.  1.
    10030    2    1    2    0    0  0.00000000000E+00  0.00000000000E+00 -0.48930163527E+03  0.24149994466E+04  0.23649114649E+04 0.  0.
        2    1    3    3  502    0  0.10599877768E+04  0.51417410962E+03 -0.14125186718E+03  0.11865501220E+04  0.25500000920E-02 0. -1.
       -2    1    3    3    0  502 -0.10599877768E+04 -0.51417410962E+03 -0.34804976809E+03  0.12284493246E+04  0.25500000920E-02 0.  1.
</event>
<event>
 5   0  0.3579559E-07  0.4035434E+04  0.7818609E-02  0.7997436E-01
        1   -1    0    0  501    0  0.00000000000E+00  0.00000000000E+00  0.28478292265E+04  0.28478292266E+04  0.50400001928E-02 0. -1.
       -1   -1    0    0    0  501  0.00000000000E+00  0.00000000000E+00 -0.14295734899E+04  0.14295734899E+04  0.50400001928E-02 0.  1.
    10030    2    1    2    0    0  0.00000000000E+00  0.00000000000E+00  0.14182557367E+04  0.42774027165E+04  0.40354336402E+04 0.  0.
        4    1    3    3  502    0  0.15773739290E+04 -0.10625174719E+04  0.14234250058E+04  0.23755404122E+04  0.12699999809E+01 0. -1.
       -4    1    3    3    0  502 -0.15773739290E+04  0.10625174719E+04 -0.51692691094E+01  0.19018623042E+04  0.12699999809E+01 0.  1.
</event>
<event>
 5   0  0.6043512E-07  0.2188904E+04  0.7818609E-02  0.8523061E-01
       -2   -1    0    0    0  501  0.00000000000E+00  0.00000000000E+00  0.10388927973E+04  0.10388927973E+04  0.25500000920E-02 0. -1.
        2   -1    0    0  501    0  0.00000000000E+00  0.00000000000E+00 -0.11529820820E+04  0.11529820820E+04  0.25500000920E-02 0.  1.
    10030    2    1    2    0    0  0.00000000000E+00  0.00000000000E+00 -0.11408928462E+03  0.21918748793E+04  0.21889036346E+04 0.  0.
        3    1    3    3  502    0  0.76422836264E+03  0.75878825146E+03  0.13820764967E+03  0.10857743621E+04  0.10100000352E+00 0.  1.
       -3    1    3    3    0  502 -0.76422836264E+03 -0.75878825146E+03 -0.25229693429E+03  0.11061005172E+04  0.10100000352E+00 0. -1.
</event>
<event>
 5   0  0.7256473E-07  0.2865540E+04  0.7818609E-02  0.8283205E-01
        2   -1    0    0  501    0  0.00000000000E+00  0.00000000000E+00  0.21955829014E+04  0.21955829015E+04  0.25500000920E-02 0. -1.
       -2   -1    0    0    0  501  0.00000000000E+00  0.00000000000E+00 -0.93498183265E+03  0.93498183266E+03  0.25500000920E-02 0.  1.
    10030    2    1    2    0    0  0.00000000000E+00  0.00000000000E+00  0.12606010688E+04  0.31305647341E+04  0.28655401759E+04 0.  0.
        4    1    3    3  502    0  0.31972449717E+03 -0.13961194596E+04  0.67197589666E+03  0.15820640057E+04  0.12699999809E+01 0. -1.
       -4    1    3    3    0  502 -0.31972449717E+03  0.13961194596E+04  0.58862517214E+03  0.15485007284E+04  0.12699999809E+01 0.  1.
</event>
<event>
 5   0  0.4449262E-07  0.4063282E+04  0.7818609E-02  0.7991901E-01
       -2   -1    0    0    0  501  0.00000000000E+00  0.00000000000E+00  0.20038309256E+04  0.20038309256E+04  0.25500000920E-02 0. -1.
        2   -1    0    0  501    0  0.00000000000E+00  0.00000000000E+00 -0.20598365885E+04  0.20598365885E+04  0.25500000920E-02 0.  1.
    10030    2    1    2    0    0  0.00000000000E+00  0.00000000000E+00 -0.56005662903E+02  0.40636675142E+04  0.40632815595E+04 0.  0.
        1    1    3    3  502    0  0.95562783992E+03  0.17694792836E+04  0.26061209633E+03  0.20278560521E+04  0.50400001928E-02 0. -1.
       -1    1    3    3    0  502 -0.95562783992E+03 -0.17694792836E+04 -0.31661775923E+03  0.20358114620E+04  0.50400001928E-02 0.  1.
</event>
<event>
 5   0  0.2401125E-07  0.2156413E+04  0.7818609E-02  0.8536792E-01
        1   -1    0    0  501    0  0.00000000000E+00  0.00000000000E+00  0.68237609659E+03  0.68237609661E+03  0.50400001928E-02 0.  1.
       -1   -1    0    0    0  501  0.00000000000E+00  0.00000000000E+00 -0.17036486610E+04  0.17036486610E+04  0.50400001928E-02 0. -1.
    10030    2    1    2    0    0  0.00000000000E+00  0.00000000000E+00 -0.10212725644E+04  0.23860247576E+04  0.21564128763E+04 0.  0.
        5    1    3    3  502    0 -0.28984205036E+03  0.93531809325E+03 -0.11273904837E+02  0.97927398650E+03  0.46999998093E+01 0.  1.
       -5    1    3    3    0  502  0.28984205036E+03 -0.93531809325E+03 -0.10099986596E+04  0.14067507711E+04  0.46999998093E+01 0. -1.
</event>
<event>
 5   0  0.2713405E-07  0.4027676E+04  0.7818609E-02  0.7998987E-01
       -1   -1    0    0    0  501  0.00000000000E+00  0.00000000000E+00  0.26314734019E+04  0.26314734019E+04  0.50400001928E-02 0.  1.
        1   -1    0    0  501    0  0.00000000000E+00  0.00000000000E+00 -0.15411682490E+04  0.15411682490E+04  0.50400001928E-02 0. -1.
    10030    2    1    2    0    0  0.00000000000E+00  0.00000000000E+00  0.10903051530E+04  0.41726416509E+04  0.40276758832E+04 0.  0.
        1    1    3    3  502    0  0.50288971981E+03  0.17910836947E+04 -0.25374763868E+03  0.18775693691E+04  0.50400001928E-02 0. -1.
       -1    1    3    3    0  502 -0.50288971981E+03 -0.17910836947E+04  0.13440527916E+04  0.22950722818E+04  0.50400001928E-02 0.  1.
</event>
<event>
 5   0  0.6043512E-07  0.3939417E+04  0.7818609E-02  0.8016881E-01
        2   -1    0    0  501    0  0.00000000000E+00  0.00000000000E+00  0.30769788340E+04  0.30769788340E+04  0.25500000920E-02 0.  1.
       -2   -1    0    0    0  501  0.00000000000E+00  0.00000000000E+00 -0.12608966022E+04  0.12608966022E+04  0.25500000920E-02 0. -1.
    10030    2    1    2    0    0  0.00000000000E+00  0.00000000000E+00  0.18160822318E+04  0.43378754361E+04  0.39394172953E+04 0.  0.
        3    1    3    3  502    0  0.10501113156E+04 -0.10999508464E+04 -0.47042824606E+03  0.15918317702E+04  0.10100000352E+00 0. -1.
       -3    1    3    3    0  502 -0.10501113156E+04  0.10999508464E+04  0.22865104779E+04  0.27460436659E+04  0.10100000352E+00 0.  1.
</event>
<event>
 5   0  0.5161550E-07  0.3896311E+04  0.7818609E-02  0.8025797E-01
       -2   -1    0    0    0  501  0.00000000000E+00  0.00000000000E+00  0.16073532524E+04  0.16073532524E+04  0.25500000920E-02 0.  1.
        2   -1    0    0  501    0  0.00000000000E+00  0.00000000000E+00 -0.23612171223E+04  0.23612171223E+04  0.25500000920E-02 0. -1.
    10030    2    1    2    0    0  0.00000000000E+00  0.00000000000E+00 -0.75386386986E+03  0.39685703747E+04  0.38963110867E+04 0.  0.
        2    1    3    3  502    0 -0.11277272506E+02 -0.53802007164E+03 -0.22840119032E+04  0.23465513309E+04  0.25500000920E-02 0. -1.
       -2    1    3    3    0  502  0.11277272506E+02  0.53802007164E+03  0.15301480334E+04  0.16220190438E+04  0.25500000920E-02 0.  1.
</event>
<event>
 5   0  0.2687330E-07  0.2020772E+04  0.7818609E-02  0.8596970E-01
       -1   -1    0    0    0  501  0.00000000000E+00  0.00000000000E+00  0.80194209314E+03  0.80194209315E+03  0.50400001928E-02 0. -1.
        1   -1    0    0  501    0  0.00000000000E+00  0.00000000000E+00 -0.12730098748E+04  0.12730098748E+04  0.50400001928E-02 0.  1.
    10030    2    1    2    0    0  0.00000000000E+00  0.00000000000E+00 -0.47106778170E+03  0.20749519680E+04  0.20207723312E+04 0.  0.
        3    1    3    3  502    0 -0.68448870863E+03 -0.70074284769E+03 -0.48979125525E+03  0.10951989841E+04  0.10100000352E+00 0. -1.
       -3    1    3    3    0  502  0.68448870863E+03  0.70074284769E+03  0.18723473553E+02  0.97975298391E+03  0.10100000352E+00 0.  1.
</event>
<event>
 5   0  0.7256473E-07  0.2208317E+04  0.7818609E-02  0.8514974E-01
        2   -1    0    0  501    0  0.00000000000E+00  0.00000000000E+00  0.12051808519E+04  0.12051808519E+04  0.25500000920E-02 0. -1.
       -2   -1    0    0    0  501  0.00000000000E+00  0.00000000000E+00 -0.10116040978E+04  0.10116040978E+04  0.25500000920E-02 0.  1.
    10030    2    1    2    0    0  0.00000000000E+00  0.00000000000E+00  0.19357675408E+03  0.22167849497E+04  0.22083169052E+04 0.  0.
        4    1    3    3  502    0 -0.33522102323E+03  0.82255884526E+03  0.75519070384E+03  0.11658862725E+04  0.12699999809E+01 0. -1.
       -4    1    3    3    0  502  0.33522102323E+03 -0.82255884526E+03 -0.56161394976E+03  0.10508986772E+04  0.12699999809E+01 0.  1.
</event>
<event>
 5   0  0.5161550E-07  0.3969250E+04  0.7818609E-02  0.8010779E-01
       -2   -1    0    0    0  501  0.00000000000E+00  0.00000000000E+00  0.22433626962E+04  0.22433626962E+04  0.25500000920E-02 0. -1.
        2   -1    0    0  501    0  0.00000000000E+00  0.00000000000E+00 -0.17557289280E+04  0.17557289280E+04  0.25500000920E-02 0.  1.
    10030    2    1    2    0    0  0.00000000000E+00  0.00000000000E+00  0.48763376822E+03  0.39990916241E+04  0.39692501970E+04 0.  0.
        2    1    3    3  502    0 -0.15433960371E+04 -0.86228306423E+03 -0.66470160924E+03  0.18887645802E+04  0.25500000920E-02 0. -1.
       -2    1    3    3    0  502  0.15433960371E+04  0.86228306423E+03  0.11523353775E+04  0.21103270439E+04  0.25500000920E-02 0.  1.
</event>
<event>
 5   0  0.7256473E-07  0.3739274E+04  0.7818609E-02  0.8059314E-01
       -2   -1    0    0    0  501  0.00000000000E+00  0.00000000000E+00  0.14050226365E+04  0.14050226365E+04  0.25500000920E-02 0.  1.
        2   -1    0    0  501    0  0.00000000000E+00  0.00000000000E+00 -0.24878907247E+04  0.24878907247E+04  0.25500000920E-02 0. -1.
    10030    2    1    2    0    0  0.00000000000E+00  0.00000000000E+00 -0.10828680881E+04  0.38929133612E+04  0.37392741464E+04 0.  0.
        4    1    3    3  502    0 -0.46734179481E+03 -0.17044814806E+04 -0.11763062769E+04  0.21230552373E+04  0.12699999809E+01 0. -1.
       -4    1    3    3    0  502  0.46734179481E+03  0.17044814806E+04  0.93438188771E+02  0.17698581239E+04  0.12699999809E+01 0.  1.
</event>
<event>
 5   0  0.5161550E-07  0.2664731E+04  0.7818609E-02  0.8346540E-01
       -2   -1    0    0    0  501  0.00000000000E+00  0.00000000000E+00  0.10546283394E+04  0.10546283394E+04  0.25500000920E-02 0.  1.
        2   -1    0    0  501    0  0.00000000000E+00  0.00000000000E+00 -0.16832453524E+04  0.16832453524E+04  0.25500000920E-02 0. -1.
    10030    2    1    2    0    0  0.00000000000E+00  0.00000000000E+00 -0.62861701307E+03  0.27378736918E+04  0.26647313191E+04 0.  0.
        2    1    3    3  502    0  0.20384325769E+03 -0.96759893609E+03 -0.12317907819E+04  0.15795911830E+04  0.25500000920E-02 0. -1.
       -2    1    3    3    0  502 -0.20384325769E+03  0.96759893609E+03  0.60317376888E+03  0.11582825088E+04  0.25500000920E-02 0.  1.
</event>
<event>
 5   0  0.7570277E-07  0.3765400E+04  0.7818609E-02  0.8053621E-01
        2   -1    0    0  501    0  0.00000000000E+00  0.00000000000E+00  0.21219025263E+04  0.21219025263E+04  0.25500000920E-02 0. -1.
       -2   -1    0    0    0  501  0.00000000000E+00  0.00000000000E+00 -0.16704628916E+04  0.16704628916E+04  0.25500000920E-02 0.  1.
    10030    2    1    2    0    0  0.00000000000E+00  0.00000000000E+00  0.45143963467E+03  0.37923654179E+04  0.37654000743E+04 0.  0.
        5    1    3    3  502    0 -0.11062037373E+04 -0.10291990887E+03  0.17565580629E+04  0.20784122629E+04  0.46999998093E+01 0. -1.
       -5    1    3    3    0  502  0.11062037373E+04  0.10291990887E+03 -0.13051184282E+04  0.17139531551E+04  0.46999998093E+01 0.  1.
</event>
<event>
 5   0  0.7570277E-07  0.4081382E+04  0.7818609E-02  0.7988327E-01
        2   -1    0    0  501    0  0.00000000000E+00  0.00000000000E+00  0.25024751627E+04  0.25024751627E+04  0.25500000920E-02 0.  1.
       -2   -1    0    0    0  501  0.00000000000E+00  0.00000000000E+00 -0.16641203222E+04  0.16641203222E+04  0.25500000920E-02 0. -1.
    10030    2    1    2    0    0  0.00000000000E+00  0.00000000000E+00  0.83835484050E+03  0.41665954848E+04  0.40813820080E+04 0.  0.
        5    1    3    3  502    0 -0.13960015599E+04 -0.13303102811E+04  0.11008399103E+04  0.22204540971E+04  0.46999998093E+01 0.  1.
       -5    1    3    3    0  502  0.13960015599E+04  0.13303102811E+04 -0.26248506982E+03  0.19461413877E+04  0.46999998093E+01 0. -1.
</event>
<event>
 5   0  0.4449262E-07  0.2470396E+04  0.7818609E-02  0.8413609E-01
        2   -1    0    0  501    0  0.00000000000E+00  0.00000000000E+00  0.14162792792E+04  0.14162792792E+04  0.25500000920E-02 0. -1.
       -2   -1    0    0    0  501  0.00000000000E+00  0.00000000000E+00 -0.10772689010E+04  0.10772689010E+04  0.25500000920E-02 0.  1.
    10030    2    1    2    0    0  0.00000000000E+00  0.00000000000E+00  0.33901037812E+03  0.24935481802E+04  0.24703956142E+04 0.  0.
        1    1    3    3  502    0  0.65324721603E+03 -0.85710461489E+03 -0.43976882513E+03  0.11639402329E+04  0.50400001928E-02 0.  1.
       -1    1    3    3    0  502 -0.65324721603E+03  0.85710461489E+03  0.77877920326E+03  0.13296079473E+04  0.50400001928E-02 0. -1.
</event>
<event>
 5   0  0.2713405E-07  0.4065283E+04  0.7818609E-02  0.7991505E-01
        1   -1    0    0  501    0  0.00000000000E+00  0.00000000000E+00  0.15191717113E+04  0.15191717113E+04  0.50400001928E-02 0. -1.
       -1   -1    0    0    0  501  0.00000000000E+00  0.00000000000E+00 -0.27196609735E+04  0.27196609735E+04  0.50400001928E-02 0.  1.
    10030    2    1    2    0    0  0.00000000000E+00  0.00000000000E+00 -0.12004892623E+04  0.42388326848E+04  0.40652832695E+04 0.  0.
        1    1    3    3  502    0  0.57171453589E+01  0.33389326353E+03 -0.26908626032E+04  0.27115049228E+04  0.50400001928E-02 0.  1.
       -1    1    3    3    0  502 -0.57171453589E+01 -0.33389326353E+03  0.14903733409E+04  0.15273277620E+04  0.50400001928E-02 0. -1.
</event>
<event>
 5   0  0.2601252E-07  0.3960976E+04  0.7818609E-02  0.8012465E-01
       -1   -1    0    0    0  501  0.00000000000E+00  0.00000000000E+00  0.15287482511E+04  0.15287482512E+04  0.50400001928E-02 0. -1.
        1   -1    0    0  501    0  0.00000000000E+00  0.00000000000E+00 -0.25657156372E+04  0.25657156372E+04  0.50400001928E-02 0.  1.
    10030    2    1    2    0    0  0.00000000000E+00  0.00000000000E+00 -0.10369673860E+04  0.40944638883E+04  0.39609762904E+04 0.  0.
        3    1    3    3  502    0  0.14759661577E+04  0.89835531774E+03  0.48202691776E+03  0.17938417810E+04  0.10100000352E+00 0. -1.
       -3    1    3    3    0  502 -0.14759661577E+04 -0.89835531774E+03 -0.15189943038E+04  0.23006221073E+04  0.10100000352E+00 0.  1.
</event>
<event>
 5   0  0.4449262E-07  0.3973880E+04  0.7818609E-02  0.8009837E-01
        2   -1    0    0  501    0  0.00000000000E+00  0.00000000000E+00  0.20477606125E+04  0.20477606125E+04  0.25500000920E-02 0.  1.
       -2   -1    0    0    0  501  0.00000000000E+00  0.00000000000E+00 -0.19279259368E+04  0.19279259368E+04  0.25500000920E-02 0. -1.
    10030    2    1    2    0    0  0.00000000000E+00  0.00000000000E+00  0.11983467565E+03  0.39756865493E+04  0.39738801176E+04 0.  0.
        1    1    3    3  502    0  0.37005665992E+02  0.80240235094E+02 -0.19259592620E+04  0.19279852161E+04  0.50400001928E-02 0. -1.
       -1    1    3    3    0  502 -0.37005665992E+02 -0.80240235094E+02  0.20457939376E+04  0.20477013332E+04  0.50400001928E-02 0.  1.
</event>
<event>
 5   0  0.2647879E-07  0.3949869E+04  0.7818609E-02  0.8014737E-01
       -1   -1    0    0    0  501  0.00000000000E+00  0.00000000000E+00  0.27310095312E+04  0.27310095312E+04  0.50400001928E-02 0. -1.
        1   -1    0    0  501    0  0.00000000000E+00  0.00000000000E+00 -0.14281777923E+04  0.14281777923E+04  0.50400001928E-02 0.  1.
    10030    2    1    2    0    0  0.00000000000E+00  0.00000000000E+00  0.13028317389E+04  0.41591873235E+04  0.39498694475E+04 0.  0.
        2    1    3    3  502    0 -0.13441176235E+04 -0.47192944057E+03  0.20917470163E+04  0.25307657266E+04  0.25500000920E-02 0. -1.
       -2    1    3    3    0  502  0.13441176235E+04  0.47192944057E+03 -0.78891527736E+03  0.16284215970E+04  0.25500000920E-02 0.  1.
</event>
<event>
 5   0  0.5161550E-07  0.3957989E+04  0.7818609E-02  0.8013076E-01
       -2   -1    0    0    0  501  0.00000000000E+00  0.00000000000E+00  0.12668449701E+04  0.12668449701E+04  0.25500000920E-02 0. -1.
        2   -1    0    0  501    0  0.00000000000E+00  0.00000000000E+00 -0.30914741845E+04  0.30914741845E+04  0.25500000920E-02 0.  1.
    10030    2    1    2    0    0  0.00000000000E+00  0.00000000000E+00 -0.18246292144E+04  0.43583191546E+04  0.39579886411E+04 0.  0.
        2    1    3    3  502    0  0.16362632702E+04  0.44372565956E+03 -0.20364366715E+04  0.26497781544E+04  0.25500000920E-02 0.  1.
       -2    1    3    3    0  502 -0.16362632702E+04 -0.44372565956E+03  0.21180745711E+03  0.17085410002E+04  0.25500000920E-02 0. -1.
</event>
<event>
 5   0  0.2647879E-07  0.4081707E+04  0.7818609E-02  0.7988264E-01
       -1   -1    0    0    0  501  0.00000000000E+00  0.00000000000E+00  0.19650648635E+04  0.19650648635E+04  0.50400001928E-02 0.  1.
        1   -1    0    0  501    0  0.00000000000E+00  0.00000000000E+00 -0.21195649085E+04  0.21195649085E+04  0.50400001928E-02 0. -1.
    10030    2    1    2    0    0  0.00000000000E+00  0.00000000000E+00 -0.15450004497E+03  0.40846297721E+04  0.40817067644E+04 0.  0.
        2    1    3    3  502    0 -0.37735389317E+02 -0.17025925881E+04  0.10482051103E+04  0.19997448422E+04  0.25500000920E-02 0.  1.
       -2    1    3    3    0  502  0.37735389317E+02  0.17025925881E+04 -0.12027051552E+04  0.20848849299E+04  0.25500000920E-02 0. -1.
</event>
<event>
 5   0  0.3579559E-07  0.3652752E+04  0.7818609E-02  0.8078514E-01
       -1   -1    0    0    0  501  0.00000000000E+00  0.00000000000E+00  0.15523155460E+04  0.15523155460E+04  0.50400001928E-02 0.  1.
        1   -1    0    0  501    0  0.00000000000E+00  0.00000000000E+00 -0.21488213128E+04  0.21488213128E+04  0.50400001928E-02 0. -1.
    10030    2    1    2    0    0  0.00000000000E+00  0.00000000000E+00 -0.59650576686E+03  0.37011368588E+04  0.36527516912E+04 0.  0.
        4    1    3    3  502    0 -0.30443729161E+03 -0.36681079957E+03  0.14881708681E+04  0.15626536317E+04  0.12699999809E+01 0.  1.
       -4    1    3    3    0  502  0.30443729161E+03  0.36681079957E+03 -0.20846766350E+04  0.21384832271E+04  0.12699999809E+01 0. -1.
</event>
<event>
 5   0  0.6043512E-07  0.3964634E+04  0.7818609E-02  0.8011719E-01
        2   -1    0    0  501    0  0.00000000000E+00  0.00000000000E+00  0.21469383773E+04  0.21469383773E+04  0.25500000920E-02 0. -1.
       -2   -1    0    0    0  501  0.00000000000E+00  0.00000000000E+00 -0.18303182460E+04  0.18303182460E+04  0.25500000920E-02 0.  1.
    10030    2    1    2    0    0  0.00000000000E+00  0.00000000000E+00  0.31662013130E+03  0.39772566233E+04  0.39646338973E+04 0.  0.
        3    1    3    3  502    0 -0.13705517442E+04 -0.14206369540E+04 -0.23814184345E+02  0.19741298245E+04  0.10100000352E+00 0.  1.
       -3    1    3    3    0  502  0.13705517442E+04  0.14206369540E+04  0.34043431565E+03  0.20031267988E+04  0.10100000352E+00 0. -1.
</event>
<event>
 5   0  0.2986490E-07  0.2661508E+04  0.7818609E-02  0.8347603E-01
       -1   -1    0    0    0  501  0.00000000000E+00  0.00000000000E+00  0.12542279983E+04  0.12542279984E+04  0.50400001928E-02 0. -1.
        1   -1    0    0  501    0  0.00000000000E+00  0.00000000000E+00 -0.14119491716E+04  0.14119491716E+04  0.50400001928E-02 0.  1.
    10030    2    1    2    0    0  0.00000000000E+00  0.00000000000E+00 -0.15772117321E+03  0.26661771699E+04  0.26615079810E+04 0.  0.
        1    1    3    3  502    0 -0.15066339674E+03 -0.17846617208E+03 -0.13912568593E+04  0.14107250910E+04  0.50400001928E-02 0.  1.
       -1    1    3    3    0  502  0.15066339674E+03  0.17846617208E+03  0.12335356861E+04  0.12554520790E+04  0.50400001928E-02 0. -1.
</event>
<event>
 5   0  0.2401125E-07  0.3601207E+04  0.7818609E-02  0.8090215E-01
        1   -1    0    0  501    0  0.00000000000E+00  0.00000000000E+00  0.25437670060E+04  0.25437670060E+04  0.50400001928E-02 0.  1.
       -1   -1    0    0    0  501  0.00000000000E+00  0.00000000000E+00 -0.12745554850E+04  0.12745554850E+04  0.50400001928E-02 0. -1.
    10030    2    1    2    0    0  0.00000000000E+00  0.00000000000E+00  0.12692115210E+04  0.38183224910E+04  0.36012065700E+04 0.  0.
        5    1    3    3  502    0 -0.10373050988E+04 -0.61813007167E+03 -0.78161096583E+03  0.14384103884E+04  0.46999998093E+01 0. -1.
       -5    1    3    3    0  502  0.10373050988E+04  0.61813007167E+03  0.20508224868E+04  0.23799121026E+04  0.46999998093E+01 0.  1.
</event>
<event>
 5   0  0.2601252E-07  0.3956902E+04  0.7818609E-02  0.8013298E-01
        1   -1    0    0  501    0  0.00000000000E+00  0.00000000000E+00  0.15937015187E+04  0.15937015187E+04  0.50400001928E-02 0. -1.
       -1   -1    0    0    0  501  0.00000000000E+00  0.00000000000E+00 -0.24560856263E+04  0.24560856263E+04  0.50400001928E-02 0.  1.
    10030    2    1    2    0    0  0.00000000000E+00  0.00000000000E+00 -0.86238410767E+03  0.40497871450E+04  0.39569015114E+04 0.  0.
        3    1    3    3  502    0 -0.99078026640E+02 -0.11357800495E+04 -0.20860758734E+04  0.23772936999E+04  0.10100000352E+00 0.  1.
       -3    1    3    3    0  502  0.99078026640E+02  0.11357800495E+04  0.12236917657E+04  0.16724934451E+04  0.10100000352E+00 0. -1.
</event>
<event>
 5   0  0.5161550E-07  0.4115872E+04  0.7818609E-02  0.7981571E-01
       -2   -1    0    0    0  501  0.00000000000E+00  0.00000000000E+00  0.21215605297E+04  0.21215605297E+04  0.25500000920E-02 0.  1.
        2   -1    0    0  501    0  0.00000000000E+00  0.00000000000E+00 -0.19962197876E+04  0.19962197876E+04  0.25500000920E-02 0. -1.
    10030    2    1    2    0    0  0.00000000000E+00  0.00000000000E+00  0.12534074210E+03  0.41177803172E+04  0.41158722574E+04 0.  0.
        2    1    3    3  502    0  0.97745277706E+03 -0.16613662090E+04  0.78380234319E+03  0.20808406294E+04  0.25500000920E-02 0.  1.
       -2    1    3    3    0  502 -0.97745277706E+03  0.16613662090E+04 -0.65846160109E+03  0.20369396878E+04  0.25500000920E-02 0. -1.
</event>
<event>
 5   0  0.7256473E-07  0.4045552E+04  0.7818609E-02  0.7995420E-01
       -2   -1    0    0    0  501  0.00000000000E+00  0.00000000000E+00  0.20547840953E+04  0.20547840953E+04  0.25500000920E-02 0.  1.
        2   -1    0    0  501    0  0.00000000000E+00  0.00000000000E+00 -0.19912663363E+04  0.19912663363E+04  0.25500000920E-02 0. -1.
    10030    2    1    2    0    0  0.00000000000E+00  0.00000000000E+00  0.63517758982E+02  0.40460504316E+04  0.40455518276E+04 0.  0.
        4    1    3    3  502    0  0.13680390260E+04  0.14063567950E+04 -0.46049135165E+03  0.20152975238E+04  0.12699999809E+01 0.  1.
       -4    1    3    3    0  502 -0.13680390260E+04 -0.14063567950E+04  0.52400911063E+03  0.20307529078E+04  0.12699999809E+01 0. -1.
</event>
<event>
 5   0  0.2713405E-07  0.4008290E+04  0.7818609E-02  0.8002876E-01
        1   -1    0    0  501    0  0.00000000000E+00  0.00000000000E+00  0.15836773967E+04  0.15836773967E+04  0.50400001928E-02 0. -1.
       -1   -1    0    0    0  501  0.00000000000E+00  0.00000000000E+00 -0.25362471729E+04  0.25362471729E+04  0.50400001928E-02 0.  1.
    10030    2    1    2    0    0  0.00000000000E+00  0.00000000000E+00 -0.95256977614E+03  0.41199245696E+04  0.40082900695E+04 0.  0.
        1    1    3    3  502    0  0.89944597269E+03  0.51799156997E+03 -0.22384659419E+04  0.24673970287E+04  0.50400001928E-02 0.  1.
       -1    1    3    3    0  502 -0.89944597269E+03 -0.51799156997E+03  0.12858961657E+04  0.16525275409E+04  0.50400001928E-02 0. -1.
</event>
<event>
 5   0  0.5161550E-07  0.3905623E+04  0.7818609E-02  0.8023861E-01
       -2   -1    0    0    0  501  0.00000000000E+00  0.00000000000E+00  0.13844506287E+04  0.13844506287E+04  0.25500000920E-02 0.  1.
        2   -1    0    0  501    0  0.00000000000E+00  0.00000000000E+00 -0.27545027178E+04  0.27545027178E+04  0.25500000920E-02 0. -1.
    10030    2    1    2    0    0  0.00000000000E+00  0.00000000000E+00 -0.13700520891E+04  0.41389533465E+04  0.39056231356E+04 0.  0.
        2    1    3    3  502    0 -0.68601898919E+03 -0.63143038601E+03  0.11333341451E+04  0.14675737359E+04  0.25500000920E-02 0.  1.
       -2    1    3    3    0  502  0.68601898919E+03  0.63143038601E+03 -0.25033862342E+04  0.26713796105E+04  0.25500000920E-02 0. -1.
</event>
<event>
 5   0  0.7256473E-07  0.2330806E+04  0.7818609E-02  0.8465873E-01
       -2   -1    0    0    0  501  0.00000000000E+00  0.00000000000E+00  0.74876027666E+03  0.74876027666E+03  0.25500000920E-02 0.  1.
        2   -1    0    0  501    0  0.00000000000E+00  0.00000000000E+00 -0.18138842523E+04  0.18138842523E+04  0.25500000920E-02 0. -1.
    10030    2    1    2    0    0  0.00000000000E+00  0.00000000000E+00 -0.10651239756E+04  0.25626445289E+04  0.23308062764E+04 0.  0.
        4    1    3    3  502    0 -0.10452982904E+04  0.34195073326E+02 -0.10978473954E+04  0.15162744921E+04  0.12699999809E+01 0. -1.
       -4    1    3    3    0  502  0.10452982904E+04 -0.34195073326E+02  0.32723419788E+02  0.10463700368E+04  0.12699999809E+01 0.  1.
</event>
<event>
 5   0  0.4449262E-07  0.3860274E+04  0.7818609E-02  0.8033343E-01
        2   -1    0    0  501    0  0.00000000000E+00  0.00000000000E+00  0.12756595123E+04  0.12756595123E+04  0.25500000920E-02 0.  1.
       -2   -1    0    0    0  501  0.00000000000E+00  0.00000000000E+00 -0.29203937821E+04  0.29203937821E+04  0.25500000920E-02 0. -1.
    10030    2    1    2    0    0  0.00000000000E+00  0.00000000000E+00 -0.16447342698E+04  0.41960532945E+04  0.38602736213E+04 0.  0.
        1    1    3    3  502    0  0.12021128564E+04 -0.13522841421E+04 -0.15528979217E+04  0.23843740637E+04  0.50400001928E-02 0.  1.
       -1    1    3    3    0  502 -0.12021128564E+04  0.13522841421E+04 -0.91836348152E+02  0.18116792308E+04  0.50400001928E-02 0. -1.
</event>
<event>
 5   0  0.2601252E-07  0.2015554E+04  0.7818609E-02  0.8599383E-01
        1   -1    0    0  501    0  0.00000000000E+00  0.00000000000E+00  0.10841039367E+04  0.10841039367E+04  0.50400001928E-02 0.  1.
       -1   -1    0    0    0  501  0.00000000000E+00  0.00000000000E+00 -0.93682379794E+03  0.93682379795E+03  0.50400001928E-02 0. -1.
    10030    2    1    2    0    0  0.00000000000E+00  0.00000000000E+00  0.14728013876E+03  0.20209277347E+04  0.20155538865E+04 0.  0.
        3    1    3    3  502    0  0.32661014953E+03  0.91451417657E+02  0.10251575016E+04  0.10798080685E+04  0.10100000352E+00 0.  1.
       -3    1    3    3    0  502 -0.32661014953E+03 -0.91451417657E+02 -0.87787736285E+03  0.94111966612E+03  0.10100000352E+00 0. -1.
</event>
<event>
 5   0  0.5161550E-07  0.3972167E+04  0.7818609E-02  0.8010185E-01
        2   -1    0    0  501    0  0.00000000000E+00  0.00000000000E+00  0.23155916656E+04  0.23155916656E+04  0.25500000920E-02 0.  1.
       -2   -1    0    0    0  501  0.00000000000E+00  0.00000000000E+00 -0.17034645156E+04  0.17034645157E+04  0.25500000920E-02 0. -1.
    10030    2    1    2    0    0  0.00000000000E+00  0.00000000000E+00  0.61212714991E+03  0.40190561812E+04  0.39721672850E+04 0.  0.
        2    1    3    3  502    0 -0.10783331790E+04  0.65641461836E+03  0.18574093369E+04  0.22458076590E+04  0.25500000920E-02 0.  1.
       -2    1    3    3    0  502  0.10783331790E+04 -0.65641461836E+03 -0.12452821870E+04  0.17732485222E+04  0.25500000920E-02 0. -1.
</event>
<event>
 5   0  0.2401125E-07  0.3950570E+04  0.7818609E-02  0.8014593E-01
       -1   -1    0    0    0  501  0.00000000000E+00  0.00000000000E+00  0.15404128036E+04  0.15404128036E+04  0.50400001928E-02 0.  1.
        1   -1    0    0  501    0  0.00000000000E+00  0.00000000000E+00 -0.25329258664E+04  0.25329258664E+04  0.50400001928E-02 0. -1.
    10030    2    1    2    0    0  0.00000000000E+00  0.00000000000E+00 -0.99251306273E+03  0.40733386700E+04  0.39505703058E+04 0.  0.
        5    1    3    3  502    0  0.16607237299E+04 -0.10484066477E+04 -0.27858090777E+03  0.19836303129E+04  0.46999998093E+01 0.  1.
       -5    1    3    3    0  502 -0.16607237299E+04  0.10484066477E+04 -0.71393215496E+03  0.20897083571E+04  0.46999998093E+01 0. -1.
</event>
<event>
 5   0  0.2401125E-07  0.3652741E+04  0.7818609E-02  0.8078516E-01
       -4   -1    0    0    0  501  0.00000000000E+00  0.00000000000E+00  0.18834578381E+04  0.18834582663E+04  0.12699999809E+01 0.  1.
        4   -1    0    0  501    0  0.00000000000E+00  0.00000000000E+00 -0.17710129893E+04  0.17710134446E+04  0.12699999809E+01 0. -1.
    10030    2    1    2    0    0  0.00000000000E+00  0.00000000000E+00  0.11244484881E+03  0.36544717109E+04  0.36527413872E+04 0.  0.
        3    1    3    3  502    0 -0.24482171634E+03  0.56215031947E+03 -0.16649643588E+04  0.17742764668E+04  0.10100000352E+00 0. -1.
       -3    1    3    3    0  502  0.24482171634E+03 -0.56215031947E+03  0.17774092076E+04  0.18801952441E+04  0.10100000352E+00 0.  1.
</event>
<event>
 5   0  0.5161550E-07  0.3960251E+04  0.7818609E-02  0.8012613E-01
        2   -1    0    0  501    0  0.00000000000E+00  0.00000000000E+00  0.20415476581E+04  0.20415476581E+04  0.25500000920E-02 0.  1.
       -2   -1    0    0    0  501  0.00000000000E+00  0.00000000000E+00 -0.19205516505E+04  0.19205516505E+04  0.25500000920E-02 0. -1.
    10030    2    1    2    0    0  0.00000000000E+00  0.00000000000E+00  0.12099600754E+03  0.39620993086E+04  0.39602513680E+04 0.  0.
        2    1    3    3  502    0 -0.67763867171E+03 -0.79507330293E+03  0.17434131193E+04  0.20324431188E+04  0.25500000920E-02 0.  1.
       -2    1    3    3    0  502  0.67763867171E+03  0.79507330293E+03 -0.16224171118E+04  0.19296561899E+04  0.25500000920E-02 0. -1.
</event>
<event>
 5   0  0.2601252E-07  0.2549379E+04  0.7818609E-02  0.8385602E-01
       -1   -1    0    0    0  501  0.00000000000E+00  0.00000000000E+00  0.77716606850E+03  0.77716606851E+03  0.50400001928E-02 0.  1.
        1   -1    0    0  501    0  0.00000000000E+00  0.00000000000E+00 -0.20907154942E+04  0.20907154942E+04  0.50400001928E-02 0. -1.
    10030    2    1    2    0    0  0.00000000000E+00  0.00000000000E+00 -0.13135494257E+04  0.28678815627E+04  0.25493788585E+04 0.  0.
        3    1    3    3  502    0 -0.73425004090E+03 -0.77830738199E+03 -0.14361089513E+04  0.17908920776E+04  0.10100000352E+00 0. -1.
       -3    1    3    3    0  502  0.73425004090E+03  0.77830738199E+03  0.12255952564E+03  0.10769894851E+04  0.10100000352E+00 0.  1.
</event>
<event>
 5   0  0.2601252E-07  0.2751012E+04  0.7818609E-02  0.8318641E-01
        1   -1    0    0  501    0  0.00000000000E+00  0.00000000000E+00  0.13390279003E+04  0.13390279003E+04  0.50400001928E-02 0.  1.
       -1   -1    0    0    0  501  0.00000000000E+00  0.00000000000E+00 -0.14129776971E+04  0.14129776971E+04  0.50400001928E-02 0. -1.
    10030    2    1    2    0    0  0.00000000000E+00  0.00000000000E+00 -0.73949796826E+02  0.27520055974E+04  0.27510118567E+04 0.  0.
        3    1    3    3  502    0  0.26744524866E+03  0.56755999662E+03 -0.12614943692E+04  0.14089071526E+04  0.10100000352E+00 0. -1.
       -3    1    3    3    0  502 -0.26744524866E+03 -0.56755999662E+03  0.11875445724E+04  0.13430984448E+04  0.10100000352E+00 0.  1.
</event>
<event>
 5   0  0.2713405E-07  0.2319713E+04  0.7818609E-02  0.8470189E-01
        1   -1    0    0  501    0  0.00000000000E+00  0.00000000000E+00  0.24450077208E+04  0.24450077208E+04  0.50400001928E-02 0. -1.
       -1   -1    0    0    0  501  0.00000000000E+00  0.00000000000E+00 -0.55020984272E+03  0.55020984274E+03  0.50400001928E-02 0.  1.
    10030    2    1    2    0    0  0.00000000000E+00  0.00000000000E+00  0.18947978781E+04  0.29952175636E+04  0.23197131836E+04 0.  0.
        1    1    3    3  502    0 -0.86448899522E+03  0.64928575240E+02  0.19423034513E+04  0.21269930982E+04  0.50400001928E-02 0. -1.
       -1    1    3    3    0  502  0.86448899522E+03 -0.64928575240E+02 -0.47505573224E+02  0.86822446536E+03  0.50400001928E-02 0.  1.
</event>
<event>
 5   0  0.7570277E-07  0.2328077E+04  0.7818609E-02  0.8466932E-01
        2   -1    0    0  501    0  0.00000000000E+00  0.00000000000E+00  0.11645383860E+04  0.11645383860E+04  0.25500000920E-02 0.  1.
       -2   -1    0    0    0  501  0.00000000000E+00  0.00000000000E+00 -0.11635385885E+04  0.11635385885E+04  0.25500000920E-02 0. -1.
    10030    2    1    2    0    0  0.00000000000E+00  0.00000000000E+00  0.99979744797E+00  0.23280769745E+04  0.23280767598E+04 0.  0.
        5    1    3    3  502    0 -0.61616659862E+03  0.98708695257E+03 -0.30505437718E+02  0.11640251719E+04  0.46999998093E+01 0. -1.
       -5    1    3    3    0  502  0.61616659862E+03 -0.98708695257E+03  0.31505235166E+02  0.11640518026E+04  0.46999998093E+01 0.  1.
</event>
<event>
 5   0  0.6043512E-07  0.4010993E+04  0.7818609E-02  0.8002333E-01
        2   -1    0    0  501    0  0.00000000000E+00  0.00000000000E+00  0.26273036648E+04  0.26273036648E+04  0.25500000920E-02 0.  1.
       -2   -1    0    0    0  501  0.00000000000E+00  0.00000000000E+00 -0.15308528633E+04  0.15308528633E+04  0.25500000920E-02 0. -1.
    10030    2    1    2    0    0  0.00000000000E+00  0.00000000000E+00  0.10964508014E+04  0.41581565281E+04  0.40109925645E+04 0.  0.
        3    1    3    3  502    0 -0.15718805161E+04  0.11423360057E+03  0.18339542907E+04  0.24181079428E+04  0.10100000352E+00 0.  1.
       -3    1    3    3    0  502  0.15718805161E+04 -0.11423360057E+03 -0.73750348923E+03  0.17400485853E+04  0.10100000352E+00 0. -1.
</event>
<event>
 5   0  0.2647879E-07  0.2139410E+04  0.7818609E-02  0.8544079E-01
        1   -1    0    0  501    0  0.00000000000E+00  0.00000000000E+00  0.11745570745E+04  0.11745570746E+04  0.50400001928E-02 0. -1.
       -1   -1    0    0    0  501  0.00000000000E+00  0.00000000000E+00 -0.97421280180E+03  0.97421280182E+03  0.50400001928E-02 0.  1.
    10030    2    1    2    0    0  0.00000000000E+00  0.00000000000E+00  0.20034427274E+03  0.21487698764E+04  0.21394097677E+04 0.  0.
        2    1    3    3  502    0  0.32145055479E+03  0.98550780666E+03  0.36535843510E+03  0.10991100410E+04  0.25500000920E-02 0. -1.
       -2    1    3    3    0  502 -0.32145055479E+03 -0.98550780666E+03 -0.16501416237E+03  0.10496598353E+04  0.25500000920E-02 0.  1.
</event>
<event>
 5   0  0.2601252E-07  0.4111066E+04  0.7818609E-02  0.7982508E-01
        1   -1    0    0  501    0  0.00000000000E+00  0.00000000000E+00  0.17991714002E+04  0.17991714003E+04  0.50400001928E-02 0.  1.
       -1   -1    0    0    0  501  0.00000000000E+00  0.00000000000E+00 -0.23484237840E+04  0.23484237840E+04  0.50400001928E-02 0. -1.
    10030    2    1    2    0    0  0.00000000000E+00  0.00000000000E+00 -0.54925238373E+03  0.41475951842E+04  0.41110664834E+04 0.  0.
        3    1    3    3  502    0 -0.12752193869E+04  0.12357741308E+04  0.76989661059E+03  0.19354748741E+04  0.10100000352E+00 0.  1.
       -3    1    3    3    0  502  0.12752193869E+04 -0.12357741308E+04 -0.13191489943E+04  0.22121203101E+04  0.10100000352E+00 0. -1.
</event>
<event>
 5   0  0.2401125E-07  0.4055003E+04  0.7818609E-02  0.7993542E-01
        1   -1    0    0  501    0  0.00000000000E+00  0.00000000000E+00  0.28252204282E+04  0.28252204282E+04  0.50400001928E-02 0.  1.
       -1   -1    0    0    0  501  0.00000000000E+00  0.00000000000E+00 -0.14550239234E+04  0.14550239234E+04  0.50400001928E-02 0. -1.
    10030    2    1    2    0    0  0.00000000000E+00  0.00000000000E+00  0.13701965048E+04  0.42802443516E+04  0.40550034831E+04 0.  0.
        5    1    3    3  502    0  0.24156801034E+02 -0.55861371758E+02 -0.14540537642E+04  0.14553344918E+04  0.46999998093E+01 0. -1.
       -5    1    3    3    0  502 -0.24156801034E+02  0.55861371758E+02  0.28242502690E+04  0.28249098598E+04  0.46999998093E+01 0.  1.
</event>
<event>
 5   0  0.5161550E-07  0.3939595E+04  0.7818609E-02  0.8016844E-01
        2   -1    0    0  501    0  0.00000000000E+00  0.00000000000E+00  0.16056915046E+04  0.16056915046E+04  0.25500000920E-02 0. -1.
       -2   -1    0    0    0  501  0.00000000000E+00  0.00000000000E+00 -0.24164678355E+04  0.24164678355E+04  0.25500000920E-02 0.  1.
    10030    2    1    2    0    0  0.00000000000E+00  0.00000000000E+00 -0.81077633096E+03  0.40221593401E+04  0.39395948394E+04 0.  0.
        2    1    3    3  502    0 -0.80084735949E+02  0.15614201279E+04 -0.16286877553E+04  0.22576691931E+04  0.25500000920E-02 0.  1.
       -2    1    3    3    0  502  0.80084735949E+02 -0.15614201279E+04  0.81791142439E+03  0.17644901470E+04  0.25500000920E-02 0. -1.
</event>
<event>
 5   0  0.2401125E-07  0.3490844E+04  0.7818609E-02  0.8115963E-01
        3   -1    0    0  501    0  0.00000000000E+00  0.00000000000E+00  0.27225656065E+04  0.27225656084E+04  0.10100000352E+00 0.  1.
       -3   -1    0    0    0  501  0.00000000000E+00  0.00000000000E+00 -0.11189802989E+04  0.11189803035E+04  0.10100000352E+00 0. -1.
    10030    2    1    2    0    0  0.00000000000E+00  0.00000000000E+00  0.16035853076E+04  0.38415459118E+04  0.34908436164E+04 0.  0.
        1    1    3    3  502    0  0.11857796360E+04 -0.62482214147E+03  0.20321586775E+04  0.24343674629E+04  0.50400001928E-02 0.  1.
       -1    1    3    3    0  502 -0.11857796360E+04  0.62482214147E+03 -0.42857336997E+03  0.14071784489E+04  0.50400001928E-02 0. -1.
</event>
<event>
 5   0  0.6043512E-07  0.2157056E+04  0.7818609E-02  0.8536518E-01
       -2   -1    0    0    0  501  0.00000000000E+00  0.00000000000E+00  0.75421545195E+03  0.75421545195E+03  0.25500000920E-02 0. -1.
        2   -1    0    0  501    0  0.00000000000E+00  0.00000000000E+00 -0.15422944444E+04  0.15422944444E+04  0.25500000920E-02 0.  1.
    10030    2    1    2    0    0  0.00000000000E+00  0.00000000000E+00 -0.78807899247E+03  0.22965098964E+04  0.21570556798E+04 0.  0.
        3    1    3    3  502    0  0.68612067763E+03  0.82487802234E+03 -0.51084553297E+03  0.11883385480E+04  0.10100000352E+00 0. -1.
       -3    1    3    3    0  502 -0.68612067763E+03 -0.82487802234E+03 -0.27723345950E+03  0.11081713483E+04  0.10100000352E+00 0.  1.
</event>
<event>
 5   0  0.6043512E-07  0.4086425E+04  0.7818609E-02  0.7987335E-01
        2   -1    0    0  501    0  0.00000000000E+00  0.00000000000E+00  0.18668290172E+04  0.18668290172E+04  0.25500000920E-02 0. -1.
       -2   -1    0    0    0  501  0.00000000000E+00  0.00000000000E+00 -0.22362608437E+04  0.22362608437E+04  0.25500000920E-02 0.  1.
    10030    2    1    2    0    0  0.00000000000E+00  0.00000000000E+00 -0.36943182648E+03  0.41030898609E+04  0.40864246637E+04 0.  0.
        3    1    3    3  502    0  0.18583313265E+02  0.10740205261E+04  0.15604318216E+04  0.18944162452E+04  0.10100000352E+00 0. -1.
       -3    1    3    3    0  502 -0.18583313265E+02 -0.10740205261E+04 -0.19298636481E+04  0.22086736157E+04  0.10100000352E+00 0.  1.
</event>
<event>
 5   0  0.3579559E-07  0.2117265E+04  0.7818609E-02  0.8553676E-01
        1   -1    0    0  501    0  0.00000000000E+00  0.00000000000E+00  0.19214343201E+04  0.19214343201E+04  0.50400001928E-02 0.  1.
       -1   -1    0    0    0  501  0.00000000000E+00  0.00000000000E+00 -0.58326376411E+03  0.58326376413E+03  0.50400001928E-02 0. -1.
    10030    2    1    2    0    0  0.00000000000E+00  0.00000000000E+00  0.13381705560E+04  0.25046980842E+04  0.21172652305E+04 0.  0.
        4    1    3    3  502    0  0.34081750326E+03 -0.40690354386E+03 -0.41447844364E+03  0.67343972089E+03  0.12699999809E+01 0. -1.
       -4    1    3    3    0  502 -0.34081750326E+03  0.40690354386E+03  0.17526489996E+04  0.18312583633E+04  0.12699999809E+01 0.  1.
</event>
<event>
 5   0  0.4449262E-07  0.3973518E+04  0.7818609E-02  0.8009910E-01
       -2   -1    0    0    0  501  0.00000000000E+00  0.00000000000E+00  0.20423593146E+04  0.20423593146E+04  0.25500000920E-02 0.  1.
        2   -1    0    0  501    0  0.00000000000E+00  0.00000000000E+00 -0.19326719248E+04  0.19326719248E+04  0.25500000920E-02 0. -1.
    10030    2    1    2    0    0  0.00000000000E+00  0.00000000000E+00  0.10968738986E+03  0.39750312394E+04  0.39735175891E+04 0.  0.
        1    1    3    3  502    0 -0.31215279324E+03 -0.13812546175E+04  0.14488977053E+04  0.20259832786E+04  0.50400001928E-02 0.  1.
       -1    1    3    3    0  502  0.31215279324E+03  0.13812546175E+04 -0.13392103154E+04  0.19490479608E+04  0.50400001928E-02 0. -1.
</event>
<event>
 5   0  0.6043512E-07  0.4113712E+04  0.7818609E-02  0.7981992E-01
       -2   -1    0    0    0  501  0.00000000000E+00  0.00000000000E+00  0.16055455580E+04  0.16055455580E+04  0.25500000920E-02 0. -1.
        2   -1    0    0  501    0  0.00000000000E+00  0.00000000000E+00 -0.26350276897E+04  0.26350276897E+04  0.25500000920E-02 0.  1.
    10030    2    1    2    0    0  0.00000000000E+00  0.00000000000E+00 -0.10294821317E+04  0.42405732477E+04  0.41137121933E+04 0.  0.
        3    1    3    3  502    0  0.55661824031E+03 -0.16995726455E+04  0.53260612754E+03  0.18660225991E+04  0.10100000352E+00 0. -1.
       -3    1    3    3    0  502 -0.55661824031E+03  0.16995726455E+04 -0.15620882593E+04  0.23745506486E+04  0.10100000352E+00 0.  1.
</event>
<event>
 5   0  0.3579559E-07  0.3048183E+04  0.7818609E-02  0.8230104E-01
       -1   -1    0    0    0  501  0.00000000000E+00  0.00000000000E+00  0.10294052065E+04  0.10294052065E+04  0.50400001928E-02 0. -1.
        1   -1    0    0  501    0  0.00000000000E+00  0.00000000000E+00 -0.22565019818E+04  0.22565019818E+04  0.50400001928E-02 0.  1.
    10030    2    1    2    0    0  0.00000000000E+00  0.00000000000E+00 -0.12270967753E+04  0.32859071883E+04  0.30481829922E+04 0.  0.
        4    1    3    3  502    0  0.23472502426E+03  0.14956792336E+04 -0.42466619978E+03  0.15724169933E+04  0.12699999809E+01 0.  1.
       -4    1    3    3    0  502 -0.23472502426E+03 -0.14956792336E+04 -0.80243057549E+03  0.17134901950E+04  0.12699999809E+01 0. -1.
</event>
<event>
 5   0  0.5161550E-07  0.2911060E+04  0.7818609E-02  0.8269594E-01
        2   -1    0    0  501    0  0.00000000000E+00  0.00000000000E+00  0.12941426464E+04  0.12941426465E+04  0.25500000920E-02 0.  1.
       -2   -1    0    0    0  501  0.00000000000E+00  0.00000000000E+00 -0.16370433824E+04  0.16370433824E+04  0.25500000920E-02 0. -1.
    10030    2    1    2    0    0  0.00000000000E+00  0.00000000000E+00 -0.34290073596E+03  0.29311860289E+04  0.29110600511E+04 0.  0.
        2    1    3    3  502    0 -0.11389706356E+04  0.70370278048E+03  0.40356338650E+03  0.13983258271E+04  0.25500000920E-02 0. -1.
       -2    1    3    3    0  502  0.11389706356E+04 -0.70370278048E+03 -0.74646412247E+03  0.15328602017E+04  0.25500000920E-02 0.  1.
</event>
<event>
 5   0  0.6043512E-07  0.2308478E+04  0.7818609E-02  0.8474586E-01
       -2   -1    0    0    0  501  0.00000000000E+00  0.00000000000E+00  0.17707732407E+04  0.17707732407E+04  0.25500000920E-02 0. -1.
        2   -1    0    0  501    0  0.00000000000E+00  0.00000000000E+00 -0.75236513339E+03  0.75236513340E+03  0.25500000920E-02 0.  1.
    10030    2    1    2    0    0  0.00000000000E+00  0.00000000000E+00  0.10184081073E+04  0.25231383741E+04  0.23084783261E+04 0.  0.
        3    1    3    3  502    0  0.11366933780E+04  0.18005535566E+03  0.60558715480E+03  0.13004720600E+04  0.10100000352E+00 0.  1.
       -3    1    3    3    0  502 -0.11366933780E+04 -0.18005535566E+03  0.41282095253E+03  0.12226663141E+04  0.10100000352E+00 0. -1.
</event>
<event>
 5   0  0.7570277E-07  0.2797307E+04  0.7818609E-02  0.8304105E-01
       -2   -1    0    0    0  501  0.00000000000E+00  0.00000000000E+00  0.13129650873E+04  0.13129650873E+04  0.25500000920E-02 0. -1.
        2   -1    0    0  501    0  0.00000000000E+00  0.00000000000E+00 -0.14899339181E+04  0.14899339181E+04  0.25500000920E-02 0.  1.
    10030    2    1    2    0    0  0.00000000000E+00  0.00000000000E+00 -0.17696883079E+03  0.28028990054E+04  0.27973067167E+04 0.  0.
        5    1    3    3  502    0 -0.28724056860E+03  0.34301268577E+03  0.12393230091E+04  0.13176146849E+04  0.46999998093E+01 0. -1.
       -5    1    3    3    0  502  0.28724056860E+03 -0.34301268577E+03 -0.14162918399E+04  0.14852843205E+04  0.46999998093E+01 0.  1.
</event>
<event>
 5   0  0.6043512E-07  0.2152082E+04  0.7818609E-02  0.8538641E-01
       -2   -1    0    0    0  501  0.00000000000E+00  0.00000000000E+00  0.88228191433E+03  0.88228191433E+03  0.25500000920E-02 0.  1.
        2   -1    0    0  501    0  0.00000000000E+00  0.00000000000E+00 -0.13123523489E+04  0.13123523489E+04  0.25500000920E-02 0. -1.
    10030    2    1    2    0    0  0.00000000000E+00  0.00000000000E+00 -0.43007043456E+03  0.21946342632E+04  0.21520824730E+04 0.  0.
        3    1    3    3  502    0 -0.33489487322E+03 -0.30384787052E+03  0.78068602632E+03  0.90219110305E+03  0.10100000352E+00 0.  1.
       -3    1    3    3    0  502  0.33489487322E+03  0.30384787052E+03 -0.12107564609E+04  0.12924431602E+04  0.10100000352E+00 0. -1.
</event>
<event>
 5   0  0.2647879E-07  0.3917457E+04  0.7818609E-02  0.8021408E-01
        1   -1    0    0  501    0  0.00000000000E+00  0.00000000000E+00  0.30238423765E+04  0.30238423765E+04  0.50400001928E-02 0. -1.
       -1   -1    0    0    0  501  0.00000000000E+00  0.00000000000E+00 -0.12687889716E+04  0.12687889716E+04  0.50400001928E-02 0.  1.
    10030    2    1    2    0    0  0.00000000000E+00  0.00000000000E+00  0.17550534049E+04  0.42926313481E+04  0.39174572668E+04 0.  0.
        2    1    3    3  502    0  0.95528851271E+03  0.12229005260E+04 -0.43216164331E+03  0.16108462139E+04  0.25500000920E-02 0.  1.
       -2    1    3    3    0  502 -0.95528851271E+03 -0.12229005260E+04  0.21872150482E+04  0.26817851342E+04  0.25500000920E-02 0. -1.
</event>
<event>
 5   0  0.2601252E-07  0.2497389E+04  0.7818609E-02  0.8403916E-01
        1   -1    0    0  501    0  0.00000000000E+00  0.00000000000E+00  0.13703813155E+04  0.13703813155E+04  0.50400001928E-02 0.  1.
       -1   -1    0    0    0  501  0.00000000000E+00  0.00000000000E+00 -0.11378134186E+04  0.11378134186E+04  0.50400001928E-02 0. -1.
    10030    2    1    2    0    0  0.00000000000E+00  0.00000000000E+00  0.23256789690E+03  0.25081947341E+04  0.24973892363E+04 0.  0.
        3    1    3    3  502    0 -0.95113636921E+03  0.65580911778E+03 -0.35957220535E+03  0.12099744513E+04  0.10100000352E+00 0. -1.
       -3    1    3    3    0  502  0.95113636921E+03 -0.65580911778E+03  0.59214010225E+03  0.12982202828E+04  0.10100000352E+00 0.  1.
</event>
<event>
 5   0  0.2601252E-07  0.4021109E+04  0.7818609E-02  0.8000302E-01
        1   -1    0    0  501    0  0.00000000000E+00  0.00000000000E+00  0.18346233764E+04  0.18346233764E+04  0.50400001928E-02 0.  1.
       -1   -1    0    0    0  501  0.00000000000E+00  0.00000000000E+00 -0.22033570755E+04  0.22033570755E+04  0.50400001928E-02 0. -1.
    10030    2    1    2    0    0  0.00000000000E+00  0.00000000000E+00 -0.36873369904E+03  0.40379804519E+04  0.40211094973E+04 0.  0.
        3    1    3    3  502    0  0.36114536808E+03  0.50848102238E+03 -0.21037604387E+04  0.21942622726E+04  0.10100000352E+00 0. -1.
       -3    1    3    3    0  502 -0.36114536808E+03 -0.50848102238E+03  0.17350267397E+04  0.18437181793E+04  0.10100000352E+00 0.  1.
</event>
<event>
 5   0  0.2401125E-07  0.3878191E+04  0.7818609E-02  0.8029580E-01
       -1   -1    0    0    0  501  0.00000000000E+00  0.00000000000E+00  0.20927190760E+04  0.20927190760E+04  0.50400001928E-02 0.  1.
        1   -1    0    0  501    0  0.00000000000E+00  0.00000000000E+00 -0.17967488892E+04  0.17967488892E+04  0.50400001928E-02 0. -1.
    10030    2    1    2    0    0  0.00000000000E+00  0.00000000000E+00  0.29597018680E+03  0.38894679653E+04  0.38781906479E+04 0.  0.
        5    1    3    3  502    0 -0.18074738066E+04 -0.12286102678E+03  0.84137981445E+03  0.19974980539E+04  0.46999998093E+01 0.  1.
       -5    1    3    3    0  502  0.18074738066E+04  0.12286102678E+03 -0.54540962765E+03  0.18919699113E+04  0.46999998093E+01 0. -1.
</event>
<event>
 5   0  0.4449262E-07  0.2696844E+04  0.7818609E-02  0.8336030E-01
        2   -1    0    0  501    0  0.00000000000E+00  0.00000000000E+00  0.14033209702E+04  0.14033209702E+04  0.25500000920E-02 0.  1.
       -2   -1    0    0    0  501  0.00000000000E+00  0.00000000000E+00 -0.12956707517E+04  0.12956707517E+04  0.25500000920E-02 0. -1.
    10030    2    1    2    0    0  0.00000000000E+00  0.00000000000E+00  0.10765021857E+03  0.26989917219E+04  0.26968440343E+04 0.  0.
        1    1    3    3  502    0 -0.12793662009E+04 -0.40731814945E+03  0.17864807226E+03  0.13544744680E+04  0.50400001928E-02 0.  1.
       -1    1    3    3    0  502  0.12793662009E+04  0.40731814945E+03 -0.70997853693E+02  0.13445172539E+04  0.50400001928E-02 0. -1.
</event>
<event>
 5   0  0.2601252E-07  0.3915315E+04  0.7818609E-02  0.8021851E-01
       -1   -1    0    0    0  501  0.00000000000E+00  0.00000000000E+00  0.26539257151E+04  0.26539257152E+04  0.50400001928E-02 0.  1.
        1   -1    0    0  501    0  0.00000000000E+00  0.00000000000E+00 -0.14440582475E+04  0.14440582476E+04  0.50400001928E-02 0. -1.
    10030    2    1    2    0    0  0.00000000000E+00  0.00000000000E+00  0.12098674676E+04  0.40979839627E+04  0.39153152197E+04 0.  0.
        3    1    3    3  502    0  0.12192534232E+04  0.14961424414E+04  0.26192111680E+03  0.19477227206E+04  0.10100000352E+00 0. -1.
       -3    1    3    3    0  502 -0.12192534232E+04 -0.14961424414E+04  0.94794635081E+03  0.21502612421E+04  0.10100000352E+00 0.  1.
</event>
<event>
 5   0  0.2601252E-07  0.4022441E+04  0.7818609E-02  0.8000035E-01
       -1   -1    0    0    0  501  0.00000000000E+00  0.00000000000E+00  0.30706781173E+04  0.30706781173E+04  0.50400001928E-02 0. -1.
        1   -1    0    0  501    0  0.00000000000E+00  0.00000000000E+00 -0.13173010765E+04  0.13173010766E+04  0.50400001928E-02 0.  1.
    10030    2    1    2    0    0  0.00000000000E+00  0.00000000000E+00  0.17533770407E+04  0.43879791938E+04  0.40224408459E+04 0.  0.
        3    1    3    3  502    0  0.20018192564E+04 -0.19381635876E+03  0.89059292607E+03  0.21995456091E+04  0.10100000352E+00 0.  1.
       -3    1    3    3    0  502 -0.20018192564E+04  0.19381635876E+03  0.86278411464E+03  0.21884335848E+04  0.10100000352E+00 0. -1.
</event>
<event>
 5   0  0.4449262E-07  0.3606396E+04  0.7818609E-02  0.8089028E-01
        2   -1    0    0  501    0  0.00000000000E+00  0.00000000000E+00  0.19850245784E+04  0.19850245784E+04  0.25500000920E-02 0. -1.
       -2   -1    0    0    0  501  0.00000000000E+00  0.00000000000E+00 -0.16380269576E+04  0.16380269576E+04  0.25500000920E-02 0.  1.
    10030    2    1    2    0    0  0.00000000000E+00  0.00000000000E+00  0.34699762078E+03  0.36230515359E+04  0.36063964124E+04 0.  0.
        1    1    3    3  502    0 -0.14540736964E+04 -0.96932855064E+03 -0.27307135289E+03  0.17687555279E+04  0.50400001928E-02 0. -1.
       -1    1    3    3    0  502  0.14540736964E+04  0.96932855064E+03  0.62006897367E+03  0.18542960081E+04  0.50400001928E-02 0.  1.
</event>
<event>
 5   0  0.2401125E-07  0.3980789E+04  0.7818609E-02  0.8008433E-01
        3   -1    0    0  501    0  0.00000000000E+00  0.00000000000E+00  0.25508360538E+04  0.25508360558E+04  0.10100000352E+00 0. -1.
       -3   -1    0    0    0  501  0.00000000000E+00  0.00000000000E+00 -0.15530871573E+04  0.15530871606E+04  0.10100000352E+00 0.  1.
    10030    2    1    2    0    0  0.00000000000E+00  0.00000000000E+00  0.99774889649E+03  0.41039232163E+04  0.39807892314E+04 0.  0.
        2    1    3    3  502    0  0.66273550427E+02 -0.85566734898E+03 -0.13525348421E+04  0.16018455901E+04  0.25500000920E-02 0.  1.
       -2    1    3    3    0  502 -0.66273550427E+02  0.85566734898E+03  0.23502837386E+04  0.25020776262E+04  0.25500000920E-02 0. -1.
</event>
<event>
 5   0  0.7256473E-07  0.3983949E+04  0.7818609E-02  0.8007792E-01
       -2   -1    0    0    0  501  0.00000000000E+00  0.00000000000E+00  0.16601835738E+04  0.16601835738E+04  0.25500000920E-02 0.  1.
        2   -1    0    0  501    0  0.00000000000E+00  0.00000000000E+00 -0.23900745755E+04  0.23900745755E+04  0.25500000920E-02 0. -1.
    10030    2    1    2    0    0  0.00000000000E+00  0.00000000000E+00 -0.72989100166E+03  0.40502581493E+04  0.39839490712E+04 0.  0.
        4    1    3    3  502    0 -0.41641115413E+03 -0.19318739893E+04 -0.61895514802E+03  0.20709037757E+04  0.12699999809E+01 0.  1.
       -4    1    3    3    0  502  0.41641115413E+03  0.19318739893E+04 -0.11093585364E+03  0.19793543736E+04  0.12699999809E+01 0. -1.
</event>
<event>
 5   0  0.5161550E-07  0.4015181E+04  0.7818609E-02  0.8001491E-01
        2   -1    0    0  501    0  0.00000000000E+00  0.00000000000E+00  0.25436452623E+04  0.25436452623E+04  0.25500000920E-02 0. -1.
       -2   -1    0    0    0  501  0.00000000000E+00  0.00000000000E+00 -0.15845052261E+04  0.15845052261E+04  0.25500000920E-02 0.  1.
    10030    2    1    2    0    0  0.00000000000E+00  0.00000000000E+00  0.95914003620E+03  0.41281504883E+04  0.40151807986E+04 0.  0.
        2    1    3    3  502    0  0.46170894709E+03 -0.65204649486E+02  0.24871986721E+04  0.25305303856E+04  0.25500000920E-02 0. -1.
       -2    1    3    3    0  502 -0.46170894709E+03  0.65204649486E+02 -0.15280586358E+04  0.15976201028E+04  0.25500000920E-02 0.  1.
</event>
<event>
 5   0  0.2401125E-07  0.4153569E+04  0.7818609E-02  0.7974264E-01
        1   -1    0    0  501    0  0.00000000000E+00  0.00000000000E+00  0.24704149165E+04  0.24704149165E+04  0.50400001928E-02 0.  1.
       -1   -1    0    0    0  501  0.00000000000E+00  0.00000000000E+00 -0.17458746514E+04  0.17458746514E+04  0.50400001928E-02 0. -1.
    10030    2    1    2    0    0  0.00000000000E+00  0.00000000000E+00  0.72454026506E+03  0.42162895679E+04  0.41535694438E+04 0.  0.
        5    1    3    3  502    0  0.13982413330E+04 -0.79999070672E+03  0.16927676054E+04  0.23367815927E+04  0.46999998093E+01 0.  1.
       -5    1    3    3    0  502 -0.13982413330E+04  0.79999070672E+03 -0.96822734030E+03  0.18795079752E+04  0.46999998093E+01 0. -1.
</event>
<event>
 5   0  0.7570277E-07  0.3604160E+04  0.7818609E-02  0.8089539E-01
       -2   -1    0    0    0  501  0.00000000000E+00  0.00000000000E+00  0.10846259728E+04  0.10846259728E+04  0.25500000920E-02 0.  1.
        2   -1    0    0  501    0  0.00000000000E+00  0.00000000000E+00 -0.29941124764E+04  0.29941124764E+04  0.25500000920E-02 0. -1.
    10030    2    1    2    0    0  0.00000000000E+00  0.00000000000E+00 -0.19094865035E+04  0.40787384492E+04  0.36041599063E+04 0.  0.
        5    1    3    3  502    0 -0.35309640339E+03  0.12351490961E+04  0.47547203870E+03  0.13698051356E+04  0.46999998093E+01 0.  1.
       -5    1    3    3    0  502  0.35309640339E+03 -0.12351490961E+04 -0.23849585422E+04  0.27089333137E+04  0.46999998093E+01 0. -1.
</event>
<event>
 5   0  0.2401125E-07  0.2225391E+04  0.7818609E-02  0.8507934E-01
        3   -1    0    0  501    0  0.00000000000E+00  0.00000000000E+00  0.12761653026E+04  0.12761653066E+04  0.10100000352E+00 0. -1.
       -3   -1    0    0    0  501  0.00000000000E+00  0.00000000000E+00 -0.97016499707E+03  0.97016500233E+03  0.10100000352E+00 0.  1.
    10030    2    1    2    0    0  0.00000000000E+00  0.00000000000E+00  0.30600030554E+03  0.22463303089E+04  0.22253906780E+04 0.  0.
        3    1    3    3  502    0  0.20099549411E+03 -0.32268719115E+03 -0.90257605521E+03  0.97937212418E+03  0.10100000352E+00 0.  1.
       -3    1    3    3    0  502 -0.20099549411E+03  0.32268719115E+03  0.12085763607E+04  0.12669581848E+04  0.10100000352E+00 0. -1.
</event>
<event>
 5   0  0.6043512E-07  0.2805563E+04  0.7818609E-02  0.8301543E-01
       -2   -1    0    0    0  501  0.00000000000E+00  0.00000000000E+00  0.92032367558E+03  0.92032367559E+03  0.25500000920E-02 0. -1.
        2   -1    0    0  501    0  0.00000000000E+00  0.00000000000E+00 -0.21381571011E+04  0.21381571011E+04  0.25500000920E-02 0.  1.
    10030    2    1    2    0    0  0.00000000000E+00  0.00000000000E+00 -0.12178334255E+04  0.30584807767E+04  0.28055634744E+04 0.  0.
        3    1    3    3  502    0 -0.31336947551E+03 -0.11314401285E+03  0.87656595224E+03  0.93774723388E+03  0.10100000352E+00 0. -1.
       -3    1    3    3    0  502  0.31336947551E+03  0.11314401285E+03 -0.20943993777E+04  0.21207335428E+04  0.10100000352E+00 0.  1.
</event>
<event>
 5   0  0.2647879E-07  0.2531496E+04  0.7818609E-02  0.8391850E-01
       -1   -1    0    0    0  501  0.00000000000E+00  0.00000000000E+00  0.10714909883E+04  0.10714909883E+04  0.50400001928E-02 0. -1.
        1   -1    0    0  501    0  0.00000000000E+00  0.00000000000E+00 -0.14952225080E+04  0.14952225081E+04  0.50400001928E-02 0.  1.
    10030    2    1    2    0    0  0.00000000000E+00  0.00000000000E+00 -0.42373151979E+03  0.25667134963E+04  0.25314955602E+04 0.  0.
        2    1    3    3  502    0  0.18050982231E+03 -0.21210956310E+03 -0.14637670557E+04  0.14900296158E+04  0.25500000920E-02 0.  1.
       -2    1    3    3    0  502 -0.18050982231E+03  0.21210956310E+03  0.10400355359E+04  0.10766838805E+04  0.25500000920E-02 0. -1.
</event>
<event>
 5   0  0.7256473E-07  0.2096907E+04  0.7818609E-02  0.8562607E-01
       -2   -1    0    0    0  501  0.00000000000E+00  0.00000000000E+00  0.50919087418E+03  0.50919087419E+03  0.25500000920E-02 0.  1.
        2   -1    0    0  501    0  0.00000000000E+00  0.00000000000E+00 -0.21588264281E+04  0.21588264281E+04  0.25500000920E-02 0. -1.
    10030    2    1    2    0    0  0.00000000000E+00  0.00000000000E+00 -0.16496355539E+04  0.26680173023E+04  0.20969069757E+04 0.  0.
        4    1    3    3  502    0  0.29693574065E+03  0.99419613600E+03 -0.63330220632E+03  0.12155945411E+04  0.12699999809E+01 0.  1.
       -4    1    3    3    0  502 -0.29693574065E+03 -0.99419613600E+03 -0.10163333476E+04  0.14524227612E+04  0.12699999809E+01 0. -1.
</event>
<event>
 5   0  0.6043512E-07  0.4282449E+04  0.7818609E-02  0.7949871E-01
       -2   -1    0    0    0  501  0.00000000000E+00  0.00000000000E+00  0.16712887702E+04  0.16712887702E+04  0.25500000920E-02 0.  1.
        2   -1    0    0  501    0  0.00000000000E+00  0.00000000000E+00 -0.27432978422E+04  0.27432978422E+04  0.25500000920E-02 0. -1.
    10030    2    1    2    0    0  0.00000000000E+00  0.00000000000E+00 -0.10720090719E+04  0.44145866124E+04  0.42824492418E+04 0.  0.
        3    1    3    3  502    0 -0.83694291828E+02  0.18951208689E+04  0.48779386852E+03  0.19586808598E+04  0.10100000352E+00 0.  1.
       -3    1    3    3    0  502  0.83694291828E+02 -0.18951208689E+04 -0.15598029405E+04  0.24559057526E+04  0.10100000352E+00 0. -1.
</event>
<event>
 5   0  0.5161550E-07  0.3970019E+04  0.7818609E-02  0.8010622E-01
       -2   -1    0    0    0  501  0.00000000000E+00  0.00000000000E+00  0.15097641127E+04  0.15097641127E+04  0.25500000920E-02 0.  1.
        2   -1    0    0  501    0  0.00000000000E+00  0.00000000000E+00 -0.26098529615E+04  0.26098529615E+04  0.25500000920E-02 0. -1.
    10030    2    1    2    0    0  0.00000000000E+00  0.00000000000E+00 -0.11000888488E+04  0.41196170741E+04  0.39700188113E+04 0.  0.
        2    1    3    3  502    0 -0.85375119709E+03 -0.78973697861E+03  0.11192007712E+04  0.16140588490E+04  0.25500000920E-02 0.  1.
       -2    1    3    3    0  502  0.85375119709E+03  0.78973697861E+03 -0.22192896200E+04  0.25055582251E+04  0.25500000920E-02 0. -1.
</event>
<event>
 5   0  0.3579559E-07  0.3744827E+04  0.7818609E-02  0.8058100E-01
        1   -1    0    0  501    0  0.00000000000E+00  0.00000000000E+00  0.16711825040E+04  0.16711825041E+04  0.50400001928E-02 0. -1.
       -1   -1    0    0    0  501  0.00000000000E+00  0.00000000000E+00 -0.20978747422E+04  0.20978747422E+04  0.50400001928E-02 0.  1.
    10030    2    1    2    0    0  0.00000000000E+00  0.00000000000E+00 -0.42669223814E+03  0.37690572462E+04  0.37448265994E+04 0.  0.
        4    1    3    3  502    0  0.19827238114E+03 -0.17942506792E+04  0.28714655555E+03  0.18278682103E+04  0.12699999809E+01 0. -1.
       -4    1    3    3    0  502 -0.19827238114E+03  0.17942506792E+04 -0.71383879369E+03  0.19411890359E+04  0.12699999809E+01 0.  1.
</event>
<event>
 5   0  0.2647879E-07  0.2505614E+04  0.7818609E-02  0.8400988E-01
        1   -1    0    0  501    0  0.00000000000E+00  0.00000000000E+00  0.12483627944E+04  0.12483627944E+04  0.50400001928E-02 0. -1.
       -1   -1    0    0    0  501  0.00000000000E+00  0.00000000000E+00 -0.12572672892E+04  0.12572672892E+04  0.50400001928E-02 0.  1.
    10030    2    1    2    0    0  0.00000000000E+00  0.00000000000E+00 -0.89044948046E+01  0.25056300836E+04  0.25056142612E+04 0.  0.
        2    1    3    3  502    0 -0.97643433188E+03 -0.39978270150E+03  0.67103369334E+03  0.12504145035E+04  0.25500000920E-02 0. -1.
       -2    1    3    3    0  502  0.97643433188E+03  0.39978270150E+03 -0.67993818814E+03  0.12552155801E+04  0.25500000920E-02 0.  1.
</event>
<event>
 5   0  0.5161550E-07  0.3597882E+04  0.7818609E-02  0.8090977E-01
       -2   -1    0    0    0  501  0.00000000000E+00  0.00000000000E+00  0.12419730505E+04  0.12419730505E+04  0.25500000920E-02 0.  1.
        2   -1    0    0  501    0  0.00000000000E+00  0.00000000000E+00 -0.26056830135E+04  0.26056830135E+04  0.25500000920E-02 0. -1.
    10030    2    1    2    0    0  0.00000000000E+00  0.00000000000E+00 -0.13637099629E+04  0.38476560640E+04  0.35978816439E+04 0.  0.
        2    1    3    3  502    0  0.49214955474E+03 -0.13187357076E+04 -0.18798532376E+04  0.23484299533E+04  0.25500000920E-02 0. -1.
       -2    1    3    3    0  502 -0.49214955474E+03  0.13187357076E+04  0.51614327467E+03  0.14992261106E+04  0.25500000920E-02 0.  1.
</event>
<event>
 5   0  0.6043512E-07  0.3968049E+04  0.7818609E-02  0.8011023E-01
       -2   -1    0    0    0  501  0.00000000000E+00  0.00000000000E+00  0.18060571903E+04  0.18060571903E+04  0.25500000920E-02 0. -1.
        2   -1    0    0  501    0  0.00000000000E+00  0.00000000000E+00 -0.21795287569E+04  0.21795287569E+04  0.25500000920E-02 0.  1.
    10030    2    1    2    0    0  0.00000000000E+00  0.00000000000E+00 -0.37347156661E+03  0.39855859472E+04  0.39680491846E+04 0.  0.
        3    1    3    3  502    0 -0.14470203060E+04  0.12284080093E+04 -0.76678223035E+03  0.20471465513E+04  0.10100000352E+00 0.  1.
       -3    1    3    3    0  502  0.14470203060E+04 -0.12284080093E+04  0.39331066374E+03  0.19384393960E+04  0.10100000352E+00 0. -1.
</event>
<event>
 5   0  0.2647879E-07  0.3967038E+04  0.7818609E-02  0.8011229E-01
       -1   -1    0    0    0  501  0.00000000000E+00  0.00000000000E+00  0.16372464913E+04  0.16372464914E+04  0.50400001928E-02 0. -1.
        1   -1    0    0  501    0  0.00000000000E+00  0.00000000000E+00 -0.24030270722E+04  0.24030270722E+04  0.50400001928E-02 0.  1.
    10030    2    1    2    0    0  0.00000000000E+00  0.00000000000E+00 -0.76578058085E+03  0.40402735636E+04  0.39670380097E+04 0.  0.
        2    1    3    3  502    0  0.15380955571E+04 -0.87923494703E+02  0.88952550334E+03  0.17789671455E+04  0.25500000920E-02 0. -1.
       -2    1    3    3    0  502 -0.15380955571E+04  0.87923494703E+02 -0.16553060842E+04  0.22613064180E+04  0.25500000920E-02 0.  1.
</event>
<event>
 5   0  0.7570277E-07  0.3967596E+04  0.7818609E-02  0.8011116E-01
        2   -1    0    0  501    0  0.00000000000E+00  0.00000000000E+00  0.18038995622E+04  0.18038995622E+04  0.25500000920E-02 0.  1.
       -2   -1    0    0    0  501  0.00000000000E+00  0.00000000000E+00 -0.21816373534E+04  0.21816373534E+04  0.25500000920E-02 0. -1.
    10030    2    1    2    0    0  0.00000000000E+00  0.00000000000E+00 -0.37773779129E+03  0.39855369156E+04  0.39675960816E+04 0.  0.
        5    1    3    3  502    0 -0.13524112457E+04  0.98274149564E+03  0.88396586195E+03  0.18910882475E+04  0.46999998093E+01 0.  1.
       -5    1    3    3    0  502  0.13524112457E+04 -0.98274149564E+03 -0.12617036532E+04  0.20944486681E+04  0.46999998093E+01 0. -1.
</event>
<event>
 5   0  0.2401125E-07  0.2991028E+04  0.7818609E-02  0.8246298E-01
       -3   -1    0    0    0  501  0.00000000000E+00  0.00000000000E+00  0.20869826720E+04  0.20869826744E+04  0.10100000352E+00 0.  1.
        3   -1    0    0  501    0  0.00000000000E+00  0.00000000000E+00 -0.10716722516E+04  0.10716722564E+04  0.10100000352E+00 0. -1.
    10030    2    1    2    0    0  0.00000000000E+00  0.00000000000E+00  0.10153104203E+04  0.31586549308E+04  0.29910275362E+04 0.  0.
        3    1    3    3  502    0 -0.24727064142E+03  0.12697475704E+04 -0.28484170281E+03  0.13245891697E+04  0.10100000352E+00 0. -1.
       -3    1    3    3    0  502  0.24727064142E+03 -0.12697475704E+04  0.13001521231E+04  0.18340657611E+04  0.10100000352E+00 0.  1.
</event>
<event>
 5   0  0.2401125E-07  0.2812506E+04  0.7818609E-02  0.8299396E-01
       -1   -1    0    0    0  501  0.00000000000E+00  0.00000000000E+00  0.13306501480E+04  0.13306501480E+04  0.50400001928E-02 0. -1.
        1   -1    0    0  501    0  0.00000000000E+00  0.00000000000E+00 -0.14861515006E+04  0.14861515006E+04  0.50400001928E-02 0.  1.
    10030    2    1    2    0    0  0.00000000000E+00  0.00000000000E+00 -0.15550135259E+03  0.28168016486E+04  0.28125061523E+04 0.  0.
        5    1    3    3  502    0 -0.11314627814E+04 -0.78462156238E+03 -0.36399586886E+03  0.14242029716E+04  0.46999998093E+01 0.  1.
       -5    1    3    3    0  502  0.11314627814E+04  0.78462156238E+03  0.20849451627E+03  0.13925986770E+04  0.46999998093E+01 0. -1.
</event>
<event>
 5   0  0.7256473E-07  0.3706155E+04  0.7818609E-02  0.8066599E-01
        2   -1    0    0  501    0  0.00000000000E+00  0.00000000000E+00  0.24392158417E+04  0.24392158417E+04  0.25500000920E-02 0.  1.
       -2   -1    0    0    0  501  0.00000000000E+00  0.00000000000E+00 -0.14077873255E+04  0.14077873255E+04  0.25500000920E-02 0. -1.
    10030    2    1    2    0    0  0.00000000000E+00  0.00000000000E+00  0.10314285162E+04  0.38470031672E+04  0.37061554992E+04 0.  0.
        4    1    3    3  502    0 -0.15293476604E+04 -0.78638561238E+03 -0.20087597506E+03  0.17313749934E+04  0.12699999809E+01 0.  1.
       -4    1    3    3    0  502  0.15293476604E+04  0.78638561238E+03  0.12323044913E+04  0.21156281738E+04  0.12699999809E+01 0. -1.
</event>
<event>
 5   0  0.2401125E-07  0.3965293E+04  0.7818609E-02  0.8011585E-01
        1   -1    0    0  501    0  0.00000000000E+00  0.00000000000E+00  0.26091598143E+04  0.26091598143E+04  0.50400001928E-02 0.  1.
       -1   -1    0    0    0  501  0.00000000000E+00  0.00000000000E+00 -0.15065718624E+04  0.15065718624E+04  0.50400001928E-02 0. -1.
    10030    2    1    2    0    0  0.00000000000E+00  0.00000000000E+00  0.11025879519E+04  0.41157316767E+04  0.39652928067E+04 0.  0.
        5    1    3    3  502    0  0.79170181374E+03 -0.17068920373E+03 -0.13270422712E+04  0.15546671173E+04  0.46999998093E+01 0. -1.
       -5    1    3    3    0  502 -0.79170181374E+03  0.17068920373E+03  0.24296302231E+04  0.25610645594E+04  0.46999998093E+01 0.  1.
</event>
<event>
 5   0  0.7256473E-07  0.3597510E+04  0.7818609E-02  0.8091062E-01
        2   -1    0    0  501    0  0.00000000000E+00  0.00000000000E+00  0.18090874996E+04  0.18090874996E+04  0.25500000920E-02 0. -1.
       -2   -1    0    0    0  501  0.00000000000E+00  0.00000000000E+00 -0.17884814538E+04  0.17884814538E+04  0.25500000920E-02 0.  1.
    10030    2    1    2    0    0  0.00000000000E+00  0.00000000000E+00  0.20606045757E+02  0.35975689534E+04  0.35975099396E+04 0.  0.
        4    1    3    3  502    0 -0.60823326040E+03 -0.16895997280E+04  0.11433784296E+03  0.17993803642E+04  0.12699999809E+01 0.  1.
       -4    1    3    3    0  502  0.60823326040E+03  0.16895997280E+04 -0.93731797201E+02  0.17981885892E+04  0.12699999809E+01 0. -1.
</event>
<event>
 5   0  0.5161550E-07  0.3967466E+04  0.7818609E-02  0.8011142E-01
        2   -1    0    0  501    0  0.00000000000E+00  0.00000000000E+00  0.12234772252E+04  0.12234772252E+04  0.25500000920E-02 0. -1.
       -2   -1    0    0    0  501  0.00000000000E+00  0.00000000000E+00 -0.32164028536E+04  0.32164028536E+04  0.25500000920E-02 0.  1.
    10030    2    1    2    0    0  0.00000000000E+00  0.00000000000E+00 -0.19929256284E+04  0.44398800788E+04  0.39674655076E+04 0.  0.
        2    1    3    3  502    0  0.12990420393E+04 -0.14986498125E+04 -0.94986104450E+03  0.21990219381E+04  0.25500000920E-02 0. -1.
       -2    1    3    3    0  502 -0.12990420393E+04  0.14986498125E+04 -0.10430645839E+04  0.22408581407E+04  0.25500000920E-02 0.  1.
</event>
<event>
 5   0  0.4449262E-07  0.3081147E+04  0.7818609E-02  0.8220931E-01
       -2   -1    0    0    0  501  0.00000000000E+00  0.00000000000E+00  0.84722861188E+03  0.84722861188E+03  0.25500000920E-02 0. -1.
        2   -1    0    0  501    0  0.00000000000E+00  0.00000000000E+00 -0.28013290545E+04  0.28013290545E+04  0.25500000920E-02 0.  1.
    10030    2    1    2    0    0  0.00000000000E+00  0.00000000000E+00 -0.19541004426E+04  0.36485576664E+04  0.30811466218E+04 0.  0.
        1    1    3    3  502    0  0.51073553655E+03 -0.11263307063E+04  0.11075946553E+03  0.12416679538E+04  0.50400001928E-02 0. -1.
       -1    1    3    3    0  502 -0.51073553655E+03  0.11263307063E+04 -0.20648599082E+04  0.24068897126E+04  0.50400001928E-02 0.  1.
</event>
<event>
 5   0  0.7570277E-07  0.3866105E+04  0.7818609E-02  0.8032116E-01
        2   -1    0    0  501    0  0.00000000000E+00  0.00000000000E+00  0.16824584743E+04  0.16824584743E+04  0.25500000920E-02 0.  1.
       -2   -1    0    0    0  501  0.00000000000E+00  0.00000000000E+00 -0.22209717159E+04  0.22209717159E+04  0.25500000920E-02 0. -1.
    10030    2    1    2    0    0  0.00000000000E+00  0.00000000000E+00 -0.53851324164E+03  0.39034301902E+04  0.38661053708E+04 0.  0.
        5    1    3    3  502    0  0.27955972457E+03  0.18491513910E+04  0.22450058976E+03  0.18835968547E+04  0.46999998093E+01 0. -1.
       -5    1    3    3    0  502 -0.27955972457E+03 -0.18491513910E+04 -0.76301383140E+03  0.20198333355E+04  0.46999998093E+01 0.  1.
</event>
<event>
 5   0  0.2647879E-07  0.2133909E+04  0.7818609E-02  0.8546452E-01
       -1   -1    0    0    0  501  0.00000000000E+00  0.00000000000E+00  0.11847816277E+04  0.11847816277E+04  0.50400001928E-02 0.  1.
        1   -1    0    0  501    0  0.00000000000E+00  0.00000000000E+00 -0.96084489896E+03  0.96084489897E+03  0.50400001928E-02 0. -1.
    10030    2    1    2    0    0  0.00000000000E+00  0.00000000000E+00  0.22393672869E+03  0.21456265266E+04  0.21339085110E+04 0.  0.
        2    1    3    3  502    0 -0.90334988253E+03 -0.51559232137E+03 -0.12706577698E+03  0.10478655275E+04  0.25500000920E-02 0.  1.
       -2    1    3    3    0  502  0.90334988253E+03  0.51559232137E+03  0.35100250567E+03  0.10977609991E+04  0.25500000920E-02 0. -1.
</event>
<event>
 5   0  0.2401125E-07  0.3900619E+04  0.7818609E-02  0.8024900E-01
        1   -1    0    0  501    0  0.00000000000E+00  0.00000000000E+00  0.21515198664E+04  0.21515198664E+04  0.50400001928E-02 0. -1.
       -1   -1    0    0    0  501  0.00000000000E+00  0.00000000000E+00 -0.17679167267E+04  0.17679167267E+04  0.50400001928E-02 0.  1.
    10030    2    1    2    0    0  0.00000000000E+00  0.00000000000E+00  0.38360313969E+03  0.39194365931E+04  0.39006194173E+04 0.  0.
        5    1    3    3  502    0  0.28318512443E+03 -0.19244855443E+04  0.33336216050E+03  0.19735731162E+04  0.46999998093E+01 0.  1.
       -5    1    3    3    0  502 -0.28318512443E+03  0.19244855443E+04  0.50240979193E+02  0.19458634769E+04  0.46999998093E+01 0. -1.
</event>
<event>
 5   0  0.4575885E-07  0.2076834E+04  0.7818609E-02  0.8571518E-01
       -2   -1    0    0    0  501  0.00000000000E+00  0.00000000000E+00  0.68338366968E+03  0.68338366968E+03  0.25500000920E-02 0. -1.
        2   -1    0    0  501    0  0.00000000000E+00  0.00000000000E+00 -0.15778975312E+04  0.15778975312E+04  0.25500000920E-02 0.  1.
    10030    2    1    2    0    0  0.00000000000E+00  0.00000000000E+00 -0.89451386148E+03  0.22612812008E+04  0.20768335564E+04 0.  0.
        1    1    3    3  502    0 -0.77483368673E+03 -0.36988823552E+03  0.18867343466E+03  0.87908032274E+03  0.50400001928E-02 0. -1.
       -1    1    3    3    0  502  0.77483368673E+03  0.36988823552E+03 -0.10831872961E+04  0.13822008781E+04  0.50400001928E-02 0.  1.
</event>
<event>
 5   0  0.6043512E-07  0.2062875E+04  0.7818609E-02  0.8577776E-01
        2   -1    0    0  501    0  0.00000000000E+00  0.00000000000E+00  0.25140183020E+04  0.25140183020E+04  0.25500000920E-02 0. -1.
       -2   -1    0    0    0  501  0.00000000000E+00  0.00000000000E+00 -0.42317252464E+03  0.42317252465E+03  0.25500000920E-02 0.  1.
    10030    2    1    2    0    0  0.00000000000E+00  0.00000000000E+00  0.20908457773E+04  0.29371908266E+04  0.20628751507E+04 0.  0.
        3    1    3    3  502    0  0.10520751143E+03  0.58733138089E+03 -0.15249142394E+03  0.61585746404E+03  0.10100000352E+00 0.  1.
       -3    1    3    3    0  502 -0.10520751143E+03 -0.58733138089E+03  0.22433372013E+04  0.23213333626E+04  0.10100000352E+00 0. -1.
</event>
<event>
 5   0  0.7256473E-07  0.3906662E+04  0.7818609E-02  0.8023645E-01
       -2   -1    0    0    0  501  0.00000000000E+00  0.00000000000E+00  0.16388219226E+04  0.16388219226E+04  0.25500000920E-02 0. -1.
        2   -1    0    0  501    0  0.00000000000E+00  0.00000000000E+00 -0.23281984074E+04  0.23281984074E+04  0.25500000920E-02 0.  1.
    10030    2    1    2    0    0  0.00000000000E+00  0.00000000000E+00 -0.68937648485E+03  0.39670203300E+04  0.39066623044E+04 0.  0.
        4    1    3    3  502    0  0.53877892007E+03  0.78039661680E+03 -0.20787603801E+04  0.22848518409E+04  0.12699999809E+01 0.  1.
       -4    1    3    3    0  502 -0.53877892007E+03 -0.78039661680E+03  0.13893838953E+04  0.16821684890E+04  0.12699999809E+01 0. -1.
</event>
<event>
 5   0  0.2401125E-07  0.3640303E+04  0.7818609E-02  0.8081322E-01
        1   -1    0    0  501    0  0.00000000000E+00  0.00000000000E+00  0.15983864743E+04  0.15983864743E+04  0.50400001928E-02 0.  1.
       -1   -1    0    0    0  501  0.00000000000E+00  0.00000000000E+00 -0.20726846513E+04  0.20726846513E+04  0.50400001928E-02 0. -1.
    10030    2    1    2    0    0  0.00000000000E+00  0.00000000000E+00 -0.47429817708E+03  0.36710711256E+04  0.36403027963E+04 0.  0.
        5    1    3    3  502    0  0.92128960263E+03  0.92011294239E+03 -0.15197268301E+04  0.20012431353E+04  0.46999998093E+01 0.  1.
       -5    1    3    3    0  502 -0.92128960263E+03 -0.92011294239E+03  0.10454286530E+04  0.16698279903E+04  0.46999998093E+01 0. -1.
</event>
<event>
 5   0  0.2713405E-07  0.2990601E+04  0.7818609E-02  0.8246420E-01
        1   -1    0    0  501    0  0.00000000000E+00  0.00000000000E+00  0.24190534236E+04  0.24190534236E+04  0.50400001928E-02 0. -1.
       -1   -1    0    0    0  501  0.00000000000E+00  0.00000000000E+00 -0.92429670365E+03  0.92429670366E+03  0.50400001928E-02 0.  1.
    10030    2    1    2    0    0  0.00000000000E+00  0.00000000000E+00  0.14947567200E+04  0.33433501273E+04  0.29906006791E+04 0.  0.
        1    1    3    3  502    0 -0.95094344060E+02 -0.14011890979E+04  0.17345440550E+03  0.14150831259E+04  0.50400001928E-02 0. -1.
       -1    1    3    3    0  502  0.95094344060E+02  0.14011890979E+04  0.13213023145E+04  0.19282670014E+04  0.50400001928E-02 0.  1.
</event>
<event>
 5   0  0.6043512E-07  0.3056965E+04  0.7818609E-02  0.8227649E-01
       -2   -1    0    0    0  501  0.00000000000E+00  0.00000000000E+00  0.10637545287E+04  0.10637545287E+04  0.25500000920E-02 0. -1.
        2   -1    0    0  501    0  0.00000000000E+00  0.00000000000E+00 -0.21962392000E+04  0.21962392000E+04  0.25500000920E-02 0.  1.
    10030    2    1    2    0    0  0.00000000000E+00  0.00000000000E+00 -0.11324846713E+04  0.32599937287E+04  0.30569654203E+04 0.  0.
        3    1    3    3  502    0 -0.86096965828E+03  0.68670589384E+03  0.56406984002E+03  0.12373392953E+04  0.10100000352E+00 0. -1.
       -3    1    3    3    0  502  0.86096965828E+03 -0.68670589384E+03 -0.16965545113E+04  0.20226544334E+04  0.10100000352E+00 0.  1.
</event>
<event>
 5   0  0.2401125E-07  0.3908902E+04  0.7818609E-02  0.8023180E-01
       -3   -1    0    0    0  501  0.00000000000E+00  0.00000000000E+00  0.17433877281E+04  0.17433877311E+04  0.10100000352E+00 0. -1.
        3   -1    0    0  501    0  0.00000000000E+00  0.00000000000E+00 -0.21910672059E+04  0.21910672082E+04  0.10100000352E+00 0.  1.
    10030    2    1    2    0    0  0.00000000000E+00  0.00000000000E+00 -0.44767947776E+03  0.39344549393E+04  0.39089025000E+04 0.  0.
        1    1    3    3  502    0 -0.34637095061E+03  0.88269308829E+03 -0.19440346419E+04  0.21629587635E+04  0.50400001928E-02 0.  1.
       -1    1    3    3    0  502  0.34637095061E+03 -0.88269308829E+03  0.14963551642E+04  0.17714961758E+04  0.50400001928E-02 0. -1.
</event>
<event>
 5   0  0.7570277E-07  0.2377208E+04  0.7818609E-02  0.8448086E-01
        2   -1    0    0  501    0  0.00000000000E+00  0.00000000000E+00  0.11526109091E+04  0.11526109091E+04  0.25500000920E-02 0. -1.
       -2   -1    0    0    0  501  0.00000000000E+00  0.00000000000E+00 -0.12257207200E+04  0.12257207200E+04  0.25500000920E-02 0.  1.
    10030    2    1    2    0    0  0.00000000000E+00  0.00000000000E+00 -0.73109810921E+02  0.23783316291E+04  0.23772076673E+04 0.  0.
        5    1    3    3  502    0  0.82626252837E+03  0.48309003907E+02 -0.89001946670E+03  0.12154012781E+04  0.46999998093E+01 0.  1.
       -5    1    3    3    0  502 -0.82626252837E+03 -0.48309003907E+02  0.81690965578E+03  0.11629303510E+04  0.46999998093E+01 0. -1.
</event>
<event>
 5   0  0.2601252E-07  0.2173854E+04  0.7818609E-02  0.8529390E-01
        1   -1    0    0  501    0  0.00000000000E+00  0.00000000000E+00  0.49837627687E+03  0.49837627690E+03  0.50400001928E-02 0.  1.
       -1   -1    0    0    0  501  0.00000000000E+00  0.00000000000E+00 -0.23705183975E+04  0.23705183975E+04  0.50400001928E-02 0. -1.
    10030    2    1    2    0    0  0.00000000000E+00  0.00000000000E+00 -0.18721421206E+04  0.28688946744E+04  0.21738538435E+04 0.  0.
        3    1    3    3  502    0 -0.70484246530E+03 -0.25685069171E+03 -0.19740809394E+04  0.21118169296E+04  0.10100000352E+00 0. -1.
       -3    1    3    3    0  502  0.70484246530E+03  0.25685069171E+03  0.10193881874E+03  0.75707774481E+03  0.10100000352E+00 0.  1.
</event>
<event>
 5   0  0.4449262E-07  0.4013868E+04  0.7818609E-02  0.8001755E-01
       -2   -1    0    0    0  501  0.00000000000E+00  0.00000000000E+00  0.15475261592E+04  0.15475261592E+04  0.25500000920E-02 0.  1.
        2   -1    0    0  501    0  0.00000000000E+00  0.00000000000E+00 -0.26027240817E+04  0.26027240817E+04  0.25500000920E-02 0. -1.
    10030    2    1    2    0    0  0.00000000000E+00  0.00000000000E+00 -0.10551979225E+04  0.41502502409E+04  0.40138677615E+04 0.  0.
        1    1    3    3  502    0  0.14409256628E+03 -0.18539069079E+04  0.25307148801E+03  0.18766402609E+04  0.50400001928E-02 0.  1.
       -1    1    3    3    0  502 -0.14409256628E+03  0.18539069079E+04 -0.13082694105E+04  0.22736099800E+04  0.50400001928E-02 0. -1.
</event>
<event>
 5   0  0.7570277E-07  0.4040380E+04  0.7818609E-02  0.7996450E-01
       -2   -1    0    0    0  501  0.00000000000E+00  0.00000000000E+00  0.15914937965E+04  0.15914937965E+04  0.25500000920E-02 0.  1.
        2   -1    0    0  501    0  0.00000000000E+00  0.00000000000E+00 -0.25643624168E+04  0.25643624168E+04  0.25500000920E-02 0. -1.
    10030    2    1    2    0    0  0.00000000000E+00  0.00000000000E+00 -0.97286862034E+03  0.41558562133E+04  0.40403796249E+04 0.  0.
        5    1    3    3  502    0  0.48957958511E+03 -0.10262079528E+04  0.12311271413E+04  0.16758541286E+04  0.46999998093E+01 0.  1.
       -5    1    3    3    0  502 -0.48957958511E+03  0.10262079528E+04 -0.22039957616E+04  0.24800020846E+04  0.46999998093E+01 0. -1.
</event>
<event>
 5   0  0.2647879E-07  0.3970364E+04  0.7818609E-02  0.8010552E-01
        1   -1    0    0  501    0  0.00000000000E+00  0.00000000000E+00  0.16274443887E+04  0.16274443887E+04  0.50400001928E-02 0. -1.
       -1   -1    0    0    0  501  0.00000000000E+00  0.00000000000E+00 -0.24215563946E+04  0.24215563946E+04  0.50400001928E-02 0.  1.
    10030    2    1    2    0    0  0.00000000000E+00  0.00000000000E+00 -0.79411200585E+03  0.40490007833E+04  0.39703643996E+04 0.  0.
        2    1    3    3  502    0 -0.42890466293E+03 -0.18575712253E+03 -0.23646427124E+04  0.24103941744E+04  0.25500000920E-02 0.  1.
       -2    1    3    3    0  502  0.42890466293E+03  0.18575712253E+03  0.15705307066E+04  0.16386066089E+04  0.25500000920E-02 0. -1.
</event>
<event>
 5   0  0.7256473E-07  0.3920878E+04  0.7818609E-02  0.8020701E-01
       -2   -1    0    0    0  501  0.00000000000E+00  0.00000000000E+00  0.14361495862E+04  0.14361495862E+04  0.25500000920E-02 0. -1.
        2   -1    0    0  501    0  0.00000000000E+00  0.00000000000E+00 -0.26761284672E+04  0.26761284672E+04  0.25500000920E-02 0.  1.
    10030    2    1    2    0    0  0.00000000000E+00  0.00000000000E+00 -0.12399788809E+04  0.41122780534E+04  0.39208778562E+04 0.  0.
        4    1    3    3  502    0  0.11951977783E+04  0.13034290251E+04  0.26741906768E+03  0.17885579452E+04  0.12699999809E+01 0. -1.
       -4    1    3    3    0  502 -0.11951977783E+04 -0.13034290251E+04 -0.15073979486E+04  0.23237201082E+04  0.12699999809E+01 0.  1.
</event>
<event>
 5   0  0.2601252E-07  0.4129151E+04  0.7818609E-02  0.7978988E-01
       -1   -1    0    0    0  501  0.00000000000E+00  0.00000000000E+00  0.25929105721E+04  0.25929105721E+04  0.50400001928E-02 0.  1.
        1   -1    0    0  501    0  0.00000000000E+00  0.00000000000E+00 -0.16438944666E+04  0.16438944666E+04  0.50400001928E-02 0. -1.
    10030    2    1    2    0    0  0.00000000000E+00  0.00000000000E+00  0.94901610548E+03  0.42368050386E+04  0.41291506835E+04 0.  0.
        3    1    3    3  502    0  0.44777305730E+03  0.14889083690E+04  0.18682756040E+04  0.24305971663E+04  0.10100000352E+00 0.  1.
       -3    1    3    3    0  502 -0.44777305730E+03 -0.14889083690E+04 -0.91925949851E+03  0.18062078723E+04  0.10100000352E+00 0. -1.
</event>
<event>
 5   0  0.2401125E-07  0.3975027E+04  0.7818609E-02  0.8009603E-01
       -1   -1    0    0    0  501  0.00000000000E+00  0.00000000000E+00  0.19890361269E+04  0.19890361269E+04  0.50400001928E-02 0.  1.
        1   -1    0    0  501    0  0.00000000000E+00  0.00000000000E+00 -0.19859918615E+04  0.19859918615E+04  0.50400001928E-02 0. -1.
    10030    2    1    2    0    0  0.00000000000E+00  0.00000000000E+00  0.30442653930E+01  0.39750279884E+04  0.39750268226E+04 0.  0.
        5    1    3    3  502    0 -0.15000005723E+04  0.42348371630E+03  0.12347488707E+04  0.19884584578E+04  0.46999998093E+01 0.  1.
       -5    1    3    3    0  502  0.15000005723E+04 -0.42348371630E+03 -0.12317046053E+04  0.19865695305E+04  0.46999998093E+01 0. -1.
</event>
<event>
 5   0  0.2401125E-07  0.3971503E+04  0.7818609E-02  0.8010320E-01
        1   -1    0    0  501    0  0.00000000000E+00  0.00000000000E+00  0.25783527977E+04  0.25783527978E+04  0.50400001928E-02 0. -1.
       -1   -1    0    0    0  501  0.00000000000E+00  0.00000000000E+00 -0.15293521652E+04  0.15293521652E+04  0.50400001928E-02 0.  1.
    10030    2    1    2    0    0  0.00000000000E+00  0.00000000000E+00  0.10490006325E+04  0.41077049630E+04  0.39715032086E+04 0.  0.
        5    1    3    3  502    0  0.36171909041E+03  0.19358307112E+04  0.78800424020E+03  0.21211445060E+04  0.46999998093E+01 0. -1.
       -5    1    3    3    0  502 -0.36171909041E+03 -0.19358307112E+04  0.26099639231E+03  0.19865604570E+04  0.46999998093E+01 0.  1.
</event>
<event>
 5   0  0.7570277E-07  0.2627275E+04  0.7818609E-02  0.8358995E-01
        2   -1    0    0  501    0  0.00000000000E+00  0.00000000000E+00  0.17320626471E+04  0.17320626471E+04  0.25500000920E-02 0.  1.
       -2   -1    0    0    0  501  0.00000000000E+00  0.00000000000E+00 -0.99629395080E+03  0.99629395080E+03  0.25500000920E-02 0. -1.
    10030    2    1    2    0    0  0.00000000000E+00  0.00000000000E+00  0.73576869634E+03  0.27283565979E+04  0.26272750429E+04 0.  0.
        5    1    3    3  502    0 -0.24310569952E+03  0.21510275114E+03 -0.95397990422E+03  0.10077049778E+04  0.46999998093E+01 0. -1.
       -5    1    3    3    0  502  0.24310569952E+03 -0.21510275114E+03  0.16897486006E+04  0.17206516201E+04  0.46999998093E+01 0.  1.
</event>
<event>
 5   0  0.7256473E-07  0.2746705E+04  0.7818609E-02  0.8320008E-01
        2   -1    0    0  501    0  0.00000000000E+00  0.00000000000E+00  0.21557584679E+04  0.21557584679E+04  0.25500000920E-02 0. -1.
       -2   -1    0    0    0  501  0.00000000000E+00  0.00000000000E+00 -0.87491100562E+03  0.87491100562E+03  0.25500000920E-02 0.  1.
    10030    2    1    2    0    0  0.00000000000E+00  0.00000000000E+00  0.12808474623E+04  0.30306694736E+04  0.27467047960E+04 0.  0.
        4    1    3    3  502    0 -0.49859609532E+03  0.11624022426E+04  0.12308300993E+04  0.17648573274E+04  0.12699999809E+01 0.  1.
       -4    1    3    3    0  502  0.49859609532E+03 -0.11624022426E+04  0.50017362994E+02  0.12658121461E+04  0.12699999809E+01 0. -1.
</event>
<event>
 5   0  0.7570277E-07  0.2136675E+04  0.7818609E-02  0.8545258E-01
       -2   -1    0    0    0  501  0.00000000000E+00  0.00000000000E+00  0.11166244597E+04  0.11166244597E+04  0.25500000920E-02 0.  1.
        2   -1    0    0  501    0  0.00000000000E+00  0.00000000000E+00 -0.10221384432E+04  0.10221384432E+04  0.25500000920E-02 0. -1.
    10030    2    1    2    0    0  0.00000000000E+00  0.00000000000E+00  0.94486016431E+02  0.21387629029E+04  0.21366747875E+04 0.  0.
        5    1    3    3  502    0  0.32357086869E+03  0.69638691273E+03  0.79071368621E+03  0.11022264118E+04  0.46999998093E+01 0.  1.
       -5    1    3    3    0  502 -0.32357086869E+03 -0.69638691273E+03 -0.69622766978E+03  0.10365364911E+04  0.46999998093E+01 0. -1.
</event>
<event>
 5   0  0.5223002E-07  0.1966344E+04  0.7818609E-02  0.8622520E-01
        2   -1    0    0  501    0  0.00000000000E+00  0.00000000000E+00  0.25804540083E+04  0.25804540083E+04  0.25500000920E-02 0.  1.
       -2   -1    0    0    0  501  0.00000000000E+00  0.00000000000E+00 -0.37459580177E+03  0.37459580178E+03  0.25500000920E-02 0. -1.
    10030    2    1    2    0    0  0.00000000000E+00  0.00000000000E+00  0.22058582065E+04  0.29550498101E+04  0.19663440576E+04 0.  0.
        1    1    3    3  502    0 -0.37542008569E+03 -0.41836913452E+03  0.23151462869E+04  0.23824095583E+04  0.50400001928E-02 0.  1.
       -1    1    3    3    0  502  0.37542008569E+03  0.41836913452E+03 -0.10928808039E+03  0.57264025182E+03  0.50400001928E-02 0. -1.
</event>
<event>
 5   0  0.4449262E-07  0.3923492E+04  0.7818609E-02  0.8020161E-01
        2   -1    0    0  501    0  0.00000000000E+00  0.00000000000E+00  0.23075863859E+04  0.23075863859E+04  0.25500000920E-02 0. -1.
       -2   -1    0    0    0  501  0.00000000000E+00  0.00000000000E+00 -0.16677370332E+04  0.16677370332E+04  0.25500000920E-02 0.  1.
    10030    2    1    2    0    0  0.00000000000E+00  0.00000000000E+00  0.63984935270E+03  0.39753234191E+04  0.39234919514E+04 0.  0.
        1    1    3    3  502    0 -0.13724718918E+04 -0.35851295284E+03  0.16929040912E+04  0.22086500160E+04  0.50400001928E-02 0. -1.
       -1    1    3    3    0  502  0.13724718918E+04  0.35851295284E+03 -0.10530547385E+04  0.17666734031E+04  0.50400001928E-02 0.  1.
</event>
<event>
 5   0  0.4449262E-07  0.4039687E+04  0.7818609E-02  0.7996588E-01
        2   -1    0    0  501    0  0.00000000000E+00  0.00000000000E+00  0.26081054714E+04  0.26081054714E+04  0.25500000920E-02 0. -1.
       -2   -1    0    0    0  501  0.00000000000E+00  0.00000000000E+00 -0.15642650364E+04  0.15642650364E+04  0.25500000920E-02 0.  1.
    10030    2    1    2    0    0  0.00000000000E+00  0.00000000000E+00  0.10438404350E+04  0.41723705078E+04  0.40396872157E+04 0.  0.
        1    1    3    3  502    0  0.71558744744E+03 -0.10044619942E+03  0.24700348172E+04  0.25735630616E+04  0.50400001928E-02 0. -1.
       -1    1    3    3    0  502 -0.71558744744E+03  0.10044619942E+03 -0.14261943822E+04  0.15988074461E+04  0.50400001928E-02 0.  1.
</event>
<event>
 5   0  0.3579559E-07  0.4010389E+04  0.7818609E-02  0.8002454E-01
        1   -1    0    0  501    0  0.00000000000E+00  0.00000000000E+00  0.20562692858E+04  0.20562692858E+04  0.50400001928E-02 0. -1.
       -1   -1    0    0    0  501  0.00000000000E+00  0.00000000000E+00 -0.19553885455E+04  0.19553885455E+04  0.50400001928E-02 0.  1.
    10030    2    1    2    0    0  0.00000000000E+00  0.00000000000E+00  0.10088074032E+03  0.40116578312E+04  0.40103892119E+04 0.  0.
        4    1    3    3  502    0 -0.10495082978E+04  0.13645939050E+04 -0.97809673428E+03  0.19799644005E+04  0.12699999809E+01 0.  1.
       -4    1    3    3    0  502  0.10495082978E+04 -0.13645939050E+04  0.10789774746E+04  0.20316934307E+04  0.12699999809E+01 0. -1.
</event>
<event>
 5   0  0.2601252E-07  0.2065532E+04  0.7818609E-02  0.8576580E-01
       -1   -1    0    0    0  501  0.00000000000E+00  0.00000000000E+00  0.83867712643E+03  0.83867712645E+03  0.50400001928E-02 0.  1.
        1   -1    0    0  501    0  0.00000000000E+00  0.00000000000E+00 -0.12717719518E+04  0.12717719518E+04  0.50400001928E-02 0. -1.
    10030    2    1    2    0    0  0.00000000000E+00  0.00000000000E+00 -0.43309482535E+03  0.21104490782E+04  0.20655324215E+04 0.  0.
        3    1    3    3  502    0  0.10104329500E+04 -0.17726370763E+03 -0.33834048677E+03  0.10802182481E+04  0.10100000352E+00 0. -1.
       -3    1    3    3    0  502 -0.10104329500E+04  0.17726370763E+03 -0.94754338586E+02  0.10302308301E+04  0.10100000352E+00 0.  1.
</event>
<event>
 5   0  0.4449262E-07  0.3453784E+04  0.7818609E-02  0.8124831E-01
        2   -1    0    0  501    0  0.00000000000E+00  0.00000000000E+00  0.20785963006E+04  0.20785963006E+04  0.25500000920E-02 0. -1.
       -2   -1    0    0    0  501  0.00000000000E+00  0.00000000000E+00 -0.14346966358E+04  0.14346966358E+04  0.25500000920E-02 0.  1.
    10030    2    1    2    0    0  0.00000000000E+00  0.00000000000E+00  0.64389966479E+03  0.35132929364E+04  0.34537835020E+04 0.  0.
        1    1    3    3  502    0 -0.49045316898E+03 -0.16100739973E+04 -0.71065235660E+02  0.16846165307E+04  0.50400001928E-02 0.  1.
       -1    1    3    3    0  502  0.49045316898E+03  0.16100739973E+04  0.71496490045E+03  0.18286764057E+04  0.50400001928E-02 0. -1.
</event>
<event>
 5   0  0.2401125E-07  0.3980825E+04  0.7818609E-02  0.8008426E-01
       -1   -1    0    0    0  501  0.00000000000E+00  0.00000000000E+00  0.34071543540E+04  0.34071543540E+04  0.50400001928E-02 0.  1.
        1   -1    0    0  501    0  0.00000000000E+00  0.00000000000E+00 -0.11627717152E+04  0.11627717152E+04  0.50400001928E-02 0. -1.
    10030    2    1    2    0    0  0.00000000000E+00  0.00000000000E+00  0.22443826388E+04  0.45699260692E+04  0.39808253980E+04 0.  0.
        5    1    3    3  502    0  0.21672880805E+03  0.19051043638E+04  0.50898420858E+03  0.19838046849E+04  0.46999998093E+01 0. -1.
       -5    1    3    3    0  502 -0.21672880805E+03 -0.19051043638E+04  0.17353984302E+04  0.25861213843E+04  0.46999998093E+01 0.  1.
</event>
<event>
 5   0  0.2601252E-07  0.2297591E+04  0.7818609E-02  0.8478872E-01
        1   -1    0    0  501    0  0.00000000000E+00  0.00000000000E+00  0.12550332109E+04  0.12550332109E+04  0.50400001928E-02 0.  1.
       -1   -1    0    0    0  501  0.00000000000E+00  0.00000000000E+00 -0.10515504282E+04  0.10515504282E+04  0.50400001928E-02 0. -1.
    10030    2    1    2    0    0  0.00000000000E+00  0.00000000000E+00  0.20348278276E+03  0.23065836391E+04  0.22975906601E+04 0.  0.
        3    1    3    3  502    0  0.66884846963E+03  0.81429719904E+03 -0.35753421497E+03  0.11127753272E+04  0.10100000352E+00 0. -1.
       -3    1    3    3    0  502 -0.66884846963E+03 -0.81429719904E+03  0.56101699773E+03  0.11938083119E+04  0.10100000352E+00 0.  1.
</event>
<event>
 5   0  0.5161550E-07  0.4015568E+04  0.7818609E-02  0.8001413E-01
       -2   -1    0    0    0  501  0.00000000000E+00  0.00000000000E+00  0.19621705985E+04  0.19621705985E+04  0.25500000920E-02 0. -1.
        2   -1    0    0  501    0  0.00000000000E+00  0.00000000000E+00 -0.20544577344E+04  0.20544577344E+04  0.25500000920E-02 0.  1.
    10030    2    1    2    0    0  0.00000000000E+00  0.00000000000E+00 -0.92287135897E+02  0.40166283328E+04  0.40155679858E+04 0.  0.
        2    1    3    3  502    0  0.11450728515E+04  0.18591476563E+03  0.15930205007E+04  0.19706522907E+04  0.25500000920E-02 0. -1.
       -2    1    3    3    0  502 -0.11450728515E+04 -0.18591476563E+03 -0.16853076366E+04  0.20459760422E+04  0.25500000920E-02 0.  1.
</event>
<event>
 5   0  0.2713405E-07  0.2130762E+04  0.7818609E-02  0.8547812E-01
        1   -1    0    0  501    0  0.00000000000E+00  0.00000000000E+00  0.15485830178E+04  0.15485830179E+04  0.50400001928E-02 0. -1.
       -1   -1    0    0    0  501  0.00000000000E+00  0.00000000000E+00 -0.73295159371E+03  0.73295159372E+03  0.50400001928E-02 0.  1.
    10030    2    1    2    0    0  0.00000000000E+00  0.00000000000E+00  0.81563142414E+03  0.22815346116E+04  0.21307617332E+04 0.  0.
        1    1    3    3  502    0  0.92181749334E+03 -0.94508482927E+02  0.97071078114E+03  0.13419980496E+04  0.50400001928E-02 0. -1.
       -1    1    3    3    0  502 -0.92181749334E+03  0.94508482927E+02 -0.15507935701E+03  0.93953656202E+03  0.50400001928E-02 0.  1.
</event>
<event>
 5   0  0.2713405E-07  0.1998310E+04  0.7818609E-02  0.8607411E-01
        1   -1    0    0  501    0  0.00000000000E+00  0.00000000000E+00  0.16103346903E+04  0.16103346903E+04  0.50400001928E-02 0.  1.
       -1   -1    0    0    0  501  0.00000000000E+00  0.00000000000E+00 -0.61993979383E+03  0.61993979385E+03  0.50400001928E-02 0. -1.
    10030    2    1    2    0    0  0.00000000000E+00  0.00000000000E+00  0.99039489643E+03  0.22302744841E+04  0.19983098418E+04 0.  0.
        1    1    3    3  502    0  0.38660648954E+02 -0.72620074495E+03 -0.26949960145E+03  0.77555928397E+03  0.50400001928E-02 0. -1.
       -1    1    3    3    0  502 -0.38660648954E+02  0.72620074495E+03  0.12598944979E+04  0.14547152002E+04  0.50400001928E-02 0.  1.
</event>
<event>
 5   0  0.7570277E-07  0.4196458E+04  0.7818609E-02  0.7966046E-01
        2   -1    0    0  501    0  0.00000000000E+00  0.00000000000E+00  0.22894252415E+04  0.22894252415E+04  0.25500000920E-02 0. -1.
       -2   -1    0    0    0  501  0.00000000000E+00  0.00000000000E+00 -0.19230005423E+04  0.19230005423E+04  0.25500000920E-02 0.  1.
    10030    2    1    2    0    0  0.00000000000E+00  0.00000000000E+00  0.36642469922E+03  0.42124257838E+04  0.41964584978E+04 0.  0.
        5    1    3    3  502    0  0.16731809850E+04  0.11208440277E+04 -0.40785571043E+03  0.20547978766E+04  0.46999998093E+01 0.  1.
       -5    1    3    3    0  502 -0.16731809850E+04 -0.11208440277E+04  0.77428040965E+03  0.21576279072E+04  0.46999998093E+01 0. -1.
</event>
<event>
 5   0  0.5161550E-07  0.2211408E+04  0.7818609E-02  0.8513695E-01
       -2   -1    0    0    0  501  0.00000000000E+00  0.00000000000E+00  0.10287686477E+04  0.10287686478E+04  0.25500000920E-02 0.  1.
        2   -1    0    0  501    0  0.00000000000E+00  0.00000000000E+00 -0.11883929879E+04  0.11883929879E+04  0.25500000920E-02 0. -1.
    10030    2    1    2    0    0  0.00000000000E+00  0.00000000000E+00 -0.15962434018E+03  0.22171616357E+04  0.22114081009E+04 0.  0.
        2    1    3    3  502    0  0.20975680008E+03  0.93425965976E+03  0.47456623991E+03  0.10686683972E+04  0.25500000920E-02 0.  1.
       -2    1    3    3    0  502 -0.20975680008E+03 -0.93425965976E+03 -0.63419058010E+03  0.11484932385E+04  0.25500000920E-02 0. -1.
</event>
<event>
 5   0  0.2601252E-07  0.3954993E+04  0.7818609E-02  0.8013688E-01
       -1   -1    0    0    0  501  0.00000000000E+00  0.00000000000E+00  0.13132201096E+04  0.13132201096E+04  0.50400001928E-02 0.  1.
        1   -1    0    0  501    0  0.00000000000E+00  0.00000000000E+00 -0.29777896658E+04  0.29777896658E+04  0.50400001928E-02 0. -1.
    10030    2    1    2    0    0  0.00000000000E+00  0.00000000000E+00 -0.16645695561E+04  0.42910097754E+04  0.39549934368E+04 0.  0.
        3    1    3    3  502    0  0.97882870121E+03 -0.15512763454E+04 -0.16339295275E+04  0.24564791140E+04  0.10100000352E+00 0. -1.
       -3    1    3    3    0  502 -0.97882870121E+03  0.15512763454E+04 -0.30640028591E+02  0.18345306614E+04  0.10100000352E+00 0.  1.
</event>
<event>
 5   0  0.2601252E-07  0.2717139E+04  0.7818609E-02  0.8329465E-01
        1   -1    0    0  501    0  0.00000000000E+00  0.00000000000E+00  0.19670734606E+04  0.19670734606E+04  0.50400001928E-02 0.  1.
       -1   -1    0    0    0  501  0.00000000000E+00  0.00000000000E+00 -0.93830307125E+03  0.93830307126E+03  0.50400001928E-02 0. -1.
    10030    2    1    2    0    0  0.00000000000E+00  0.00000000000E+00  0.10287703894E+04  0.29053765319E+04  0.27171389876E+04 0.  0.
        3    1    3    3  502    0 -0.13484016285E+04 -0.74552197347E+01  0.33716702088E+03  0.13899367404E+04  0.10100000352E+00 0.  1.
       -3    1    3    3    0  502  0.13484016285E+04  0.74552197347E+01  0.69160336849E+03  0.15154397915E+04  0.10100000352E+00 0. -1.
</event>
<event>
 5   0  0.7570277E-07  0.3954612E+04  0.7818609E-02  0.8013766E-01
        2   -1    0    0  501    0  0.00000000000E+00  0.00000000000E+00  0.13028465886E+04  0.13028465886E+04  0.25500000920E-02 0. -1.
       -2   -1    0    0    0  501  0.00000000000E+00  0.00000000000E+00 -0.30009203920E+04  0.30009203920E+04  0.25500000920E-02 0.  1.
    10030    2    1    2    0    0  0.00000000000E+00  0.00000000000E+00 -0.16980738034E+04  0.43037669806E+04  0.39546119382E+04 0.  0.
        5    1    3    3  502    0  0.11353372354E+04 -0.23226224911E+02  0.91257808311E+03  0.14568290715E+04  0.46999998093E+01 0. -1.
       -5    1    3    3    0  502 -0.11353372354E+04  0.23226224911E+02 -0.26106518866E+04  0.28469379091E+04  0.46999998093E+01 0.  1.
</event>
<event>
 5   0  0.5161550E-07  0.3623010E+04  0.7818609E-02  0.8085241E-01
        2   -1    0    0  501    0  0.00000000000E+00  0.00000000000E+00  0.21323436164E+04  0.21323436164E+04  0.25500000920E-02 0.  1.
       -2   -1    0    0    0  501  0.00000000000E+00  0.00000000000E+00 -0.15389403039E+04  0.15389403039E+04  0.25500000920E-02 0. -1.
    10030    2    1    2    0    0  0.00000000000E+00  0.00000000000E+00  0.59340331252E+03  0.36712839203E+04  0.36230095407E+04 0.  0.
        2    1    3    3  502    0 -0.12786928036E+04 -0.46811959868E+03 -0.91393827684E+03  0.16399617125E+04  0.25500000920E-02 0. -1.
       -2    1    3    3    0  502  0.12786928036E+04  0.46811959868E+03  0.15073415894E+04  0.20313222077E+04  0.25500000920E-02 0.  1.
</event>
<event>
 5   0  0.2401125E-07  0.2695225E+04  0.7818609E-02  0.8336556E-01
        1   -1    0    0  501    0  0.00000000000E+00  0.00000000000E+00  0.70341042162E+03  0.70341042164E+03  0.50400001928E-02 0. -1.
       -1   -1    0    0    0  501  0.00000000000E+00  0.00000000000E+00 -0.25817923288E+04  0.25817923288E+04  0.50400001928E-02 0.  1.
    10030    2    1    2    0    0  0.00000000000E+00  0.00000000000E+00 -0.18783819072E+04  0.32852027505E+04  0.26952251339E+04 0.  0.
        5    1    3    3  502    0 -0.47544447706E+03  0.83775263115E+02  0.59437944906E+03  0.76575111161E+03  0.46999998093E+01 0. -1.
       -5    1    3    3    0  502  0.47544447706E+03 -0.83775263115E+02 -0.24727613563E+04  0.25194516388E+04  0.46999998093E+01 0.  1.
</event>
<event>
 5   0  0.5161550E-07  0.3979971E+04  0.7818609E-02  0.8008599E-01
        2   -1    0    0  501    0  0.00000000000E+00  0.00000000000E+00  0.13977885585E+04  0.13977885585E+04  0.25500000920E-02 0.  1.
       -2   -1    0    0    0  501  0.00000000000E+00  0.00000000000E+00 -0.28330764724E+04  0.28330764725E+04  0.25500000920E-02 0. -1.
    10030    2    1    2    0    0  0.00000000000E+00  0.00000000000E+00 -0.14352879139E+04  0.42308650310E+04  0.39799707931E+04 0.  0.
        2    1    3    3  502    0  0.36247682195E+03 -0.11694055296E+04 -0.23853431650E+04  0.26811864452E+04  0.25500000920E-02 0. -1.
       -2    1    3    3    0  502 -0.36247682195E+03  0.11694055296E+04  0.95005525103E+03  0.15496785858E+04  0.25500000920E-02 0.  1.
</event>
<event>
 5   0  0.7256473E-07  0.3987228E+04  0.7818609E-02  0.8007128E-01
        2   -1    0    0  501    0  0.00000000000E+00  0.00000000000E+00  0.12171471777E+04  0.12171471777E+04  0.25500000920E-02 0. -1.
       -2   -1    0    0    0  501  0.00000000000E+00  0.00000000000E+00 -0.32654205140E+04  0.32654205140E+04  0.25500000920E-02 0.  1.
    10030    2    1    2    0    0  0.00000000000E+00  0.00000000000E+00 -0.20482733362E+04  0.44825676917E+04  0.39872282918E+04 0.  0.
        4    1    3    3  502    0 -0.78856059953E+03 -0.57051009556E+03 -0.29801658020E+04  0.31350756624E+04  0.12699999809E+01 0.  1.
       -4    1    3    3    0  502  0.78856059953E+03  0.57051009556E+03  0.93189246582E+03  0.13474920293E+04  0.12699999809E+01 0. -1.
</event>
<event>
 5   0  0.2647879E-07  0.2156746E+04  0.7818609E-02  0.8536650E-01
        1   -1    0    0  501    0  0.00000000000E+00  0.00000000000E+00  0.13171116391E+04  0.13171116391E+04  0.50400001928E-02 0.  1.
       -1   -1    0    0    0  501  0.00000000000E+00  0.00000000000E+00 -0.88290772492E+03  0.88290772493E+03  0.50400001928E-02 0. -1.
    10030    2    1    2    0    0  0.00000000000E+00  0.00000000000E+00  0.43420391418E+03  0.22000193640E+04  0.21567457345E+04 0.  0.
        2    1    3    3  502    0 -0.75272088824E+03  0.55824361172E+03  0.76134558478E+03  0.12074236063E+04  0.25500000920E-02 0.  1.
       -2    1    3    3    0  502  0.75272088824E+03 -0.55824361172E+03 -0.32714167059E+03  0.99259575773E+03  0.25500000920E-02 0. -1.
</event>
<event>
 5   0  0.5161550E-07  0.4081945E+04  0.7818609E-02  0.7988217E-01
       -2   -1    0    0    0  501  0.00000000000E+00  0.00000000000E+00  0.16340824315E+04  0.16340824315E+04  0.25500000920E-02 0. -1.
        2   -1    0    0  501    0  0.00000000000E+00  0.00000000000E+00 -0.25491794999E+04  0.25491794999E+04  0.25500000920E-02 0.  1.
    10030    2    1    2    0    0  0.00000000000E+00  0.00000000000E+00 -0.91509706839E+03  0.41832619315E+04  0.40819453380E+04 0.  0.
        2    1    3    3  502    0  0.16237922534E+04  0.73512158744E+03  0.56134402614E+03  0.18687461428E+04  0.25500000920E-02 0. -1.
       -2    1    3    3    0  502 -0.16237922534E+04 -0.73512158744E+03 -0.14764410945E+04  0.23145157887E+04  0.25500000920E-02 0.  1.
</event>
<event>
 5   0  0.2401125E-07  0.2308617E+04  0.7818609E-02  0.8474531E-01
       -1   -1    0    0    0  501  0.00000000000E+00  0.00000000000E+00  0.71164016102E+03  0.71164016104E+03  0.50400001928E-02 0.  1.
        1   -1    0    0  501    0  0.00000000000E+00  0.00000000000E+00 -0.18723335627E+04  0.18723335627E+04  0.50400001928E-02 0. -1.
    10030    2    1    2    0    0  0.00000000000E+00  0.00000000000E+00 -0.11606934017E+04  0.25839737237E+04  0.23086166924E+04 0.  0.
        5    1    3    3  502    0  0.56363748907E+03  0.13714261999E+03 -0.16973292410E+04  0.17937234903E+04  0.46999998093E+01 0. -1.
       -5    1    3    3    0  502 -0.56363748907E+03 -0.13714261999E+03  0.53663583937E+03  0.79025023340E+03  0.46999998093E+01 0.  1.
</event>
<event>
 5   0  0.7256473E-07  0.3135247E+04  0.7818609E-02  0.8206131E-01
       -2   -1    0    0    0  501  0.00000000000E+00  0.00000000000E+00  0.11632877009E+04  0.11632877009E+04  0.25500000920E-02 0. -1.
        2   -1    0    0  501    0  0.00000000000E+00  0.00000000000E+00 -0.21124989672E+04  0.21124989672E+04  0.25500000920E-02 0.  1.
    10030    2    1    2    0    0  0.00000000000E+00  0.00000000000E+00 -0.94921126626E+03  0.32757866681E+04  0.31352474012E+04 0.  0.
        4    1    3    3  502    0 -0.68715967506E+02 -0.73427001461E+03  0.97072017462E+03  0.12190872031E+04  0.12699999809E+01 0. -1.
       -4    1    3    3    0  502  0.68715967506E+02  0.73427001461E+03 -0.19199314409E+04  0.20566994650E+04  0.12699999809E+01 0.  1.
</event>
<event>
 5   0  0.6043512E-07  0.4134767E+04  0.7818609E-02  0.7977898E-01
       -2   -1    0    0    0  501  0.00000000000E+00  0.00000000000E+00  0.15883537029E+04  0.15883537030E+04  0.25500000920E-02 0. -1.
        2   -1    0    0  501    0  0.00000000000E+00  0.00000000000E+00 -0.26908831935E+04  0.26908831935E+04  0.25500000920E-02 0.  1.
    10030    2    1    2    0    0  0.00000000000E+00  0.00000000000E+00 -0.11025294906E+04  0.42792368965E+04  0.41347668784E+04 0.  0.
        3    1    3    3  502    0 -0.84507526979E+03  0.44451308109E+03  0.13464698747E+04  0.16506741728E+04  0.10100000352E+00 0. -1.
       -3    1    3    3    0  502  0.84507526979E+03 -0.44451308109E+03 -0.24489993653E+04  0.26285627237E+04  0.10100000352E+00 0.  1.
</event>
<event>
 5   0  0.6043512E-07  0.2618594E+04  0.7818609E-02  0.8361913E-01
        2   -1    0    0  501    0  0.00000000000E+00  0.00000000000E+00  0.15315957379E+04  0.15315957379E+04  0.25500000920E-02 0. -1.
       -2   -1    0    0    0  501  0.00000000000E+00  0.00000000000E+00 -0.11192629044E+04  0.11192629044E+04  0.25500000920E-02 0.  1.
    10030    2    1    2    0    0  0.00000000000E+00  0.00000000000E+00  0.41233283352E+03  0.26508586423E+04  0.26185937402E+04 0.  0.
        3    1    3    3  502    0 -0.54726540031E+03  0.17201117046E+02  0.14101324592E+04  0.15127025019E+04  0.10100000352E+00 0. -1.
       -3    1    3    3    0  502  0.54726540031E+03 -0.17201117046E+02 -0.99779962563E+03  0.11381561404E+04  0.10100000352E+00 0.  1.
</event>
<event>
 5   0  0.4449262E-07  0.1999510E+04  0.7818609E-02  0.8606850E-01
       -2   -1    0    0    0  501  0.00000000000E+00  0.00000000000E+00  0.10241463223E+04  0.10241463223E+04  0.25500000920E-02 0. -1.
        2   -1    0    0  501    0  0.00000000000E+00  0.00000000000E+00 -0.97594460915E+03  0.97594460915E+03  0.25500000920E-02 0.  1.
    10030    2    1    2    0    0  0.00000000000E+00  0.00000000000E+00  0.48201713117E+02  0.20000909314E+04  0.19995100222E+04 0.  0.
        1    1    3    3  502    0 -0.68991338728E+03 -0.35532646866E+03 -0.60637798557E+03  0.98485107640E+03  0.50400001928E-02 0.  1.
       -1    1    3    3    0  502  0.68991338728E+03  0.35532646866E+03  0.65457969869E+03  0.10152398550E+04  0.50400001928E-02 0. -1.
</event>
<event>
 5   0  0.2401125E-07  0.3986062E+04  0.7818609E-02  0.8007364E-01
       -1   -1    0    0    0  501  0.00000000000E+00  0.00000000000E+00  0.12785947863E+04  0.12785947864E+04  0.50400001928E-02 0.  1.
        1   -1    0    0  501    0  0.00000000000E+00  0.00000000000E+00 -0.31066706220E+04  0.31066706220E+04  0.50400001928E-02 0. -1.
    10030    2    1    2    0    0  0.00000000000E+00  0.00000000000E+00 -0.18280758357E+04  0.43852654084E+04  0.39860621472E+04 0.  0.
        5    1    3    3  502    0 -0.67615864996E+03 -0.18726067989E+04 -0.81378519150E+03  0.21508405732E+04  0.46999998093E+01 0. -1.
       -5    1    3    3    0  502  0.67615864996E+03  0.18726067989E+04 -0.10142906442E+04  0.22344248352E+04  0.46999998093E+01 0.  1.
</event>
<event>
 5   0  0.7570277E-07  0.4035210E+04  0.7818609E-02  0.7997481E-01
       -2   -1    0    0    0  501  0.00000000000E+00  0.00000000000E+00  0.16865079623E+04  0.16865079623E+04  0.25500000920E-02 0. -1.
        2   -1    0    0  501    0  0.00000000000E+00  0.00000000000E+00 -0.24137037381E+04  0.24137037381E+04  0.25500000920E-02 0.  1.
    10030    2    1    2    0    0  0.00000000000E+00  0.00000000000E+00 -0.72719577578E+03  0.41002117003E+04  0.40352103156E+04 0.  0.
        5    1    3    3  502    0 -0.13825968084E+04  0.14333576981E+04 -0.34937019989E+02  0.19918159831E+04  0.46999998093E+01 0.  1.
       -5    1    3    3    0  502  0.13825968084E+04 -0.14333576981E+04 -0.69225875579E+03  0.21083957172E+04  0.46999998093E+01 0. -1.
</event>
<event>
 5   0  0.7256473E-07  0.4209842E+04  0.7818609E-02  0.7963503E-01
       -2   -1    0    0    0  501  0.00000000000E+00  0.00000000000E+00  0.14397745215E+04  0.14397745215E+04  0.25500000920E-02 0.  1.
        2   -1    0    0  501    0  0.00000000000E+00  0.00000000000E+00 -0.30773519007E+04  0.30773519007E+04  0.25500000920E-02 0. -1.
    10030    2    1    2    0    0  0.00000000000E+00  0.00000000000E+00 -0.16375773792E+04  0.45171264222E+04  0.42098422109E+04 0.  0.
        4    1    3    3  502    0 -0.41034407853E+03  0.13197968812E+00 -0.30340190299E+04  0.30616425930E+04  0.12699999809E+01 0. -1.
       -4    1    3    3    0  502  0.41034407853E+03 -0.13197968812E+00  0.13964416507E+04  0.14554838292E+04  0.12699999809E+01 0.  1.
</event>
<event>
 5   0  0.2647879E-07  0.3914820E+04  0.7818609E-02  0.8021954E-01
       -1   -1    0    0    0  501  0.00000000000E+00  0.00000000000E+00  0.25703873570E+04  0.25703873570E+04  0.50400001928E-02 0.  1.
        1   -1    0    0  501    0  0.00000000000E+00  0.00000000000E+00 -0.14906137109E+04  0.14906137109E+04  0.50400001928E-02 0. -1.
    10030    2    1    2    0    0  0.00000000000E+00  0.00000000000E+00  0.10797736461E+04  0.40610010680E+04  0.39148203723E+04 0.  0.
        2    1    3    3  502    0 -0.10054400893E+03 -0.73591734796E+03 -0.13387508958E+04  0.15309922932E+04  0.25500000920E-02 0. -1.
       -2    1    3    3    0  502  0.10054400893E+03  0.73591734796E+03  0.24185245419E+04  0.25300087748E+04  0.25500000920E-02 0.  1.
</event>
<event>
 5   0  0.4449262E-07  0.2790595E+04  0.7818609E-02  0.8306194E-01
       -2   -1    0    0    0  501  0.00000000000E+00  0.00000000000E+00  0.21030862384E+04  0.21030862384E+04  0.25500000920E-02 0.  1.
        2   -1    0    0  501    0  0.00000000000E+00  0.00000000000E+00 -0.92571368269E+03  0.92571368269E+03  0.25500000920E-02 0. -1.
    10030    2    1    2    0    0  0.00000000000E+00  0.00000000000E+00  0.11773725557E+04  0.30287999210E+04  0.27905954252E+04 0.  0.
        1    1    3    3  502    0  0.64925961265E+02 -0.13914314777E+04  0.67658546941E+03  0.15485686407E+04  0.50400001928E-02 0. -1.
       -1    1    3    3    0  502 -0.64925961265E+02  0.13914314777E+04  0.50078708625E+03  0.14802312803E+04  0.50400001928E-02 0.  1.
</event>
<event>
 5   0  0.2601252E-07  0.3939155E+04  0.7818609E-02  0.8016935E-01
       -1   -1    0    0    0  501  0.00000000000E+00  0.00000000000E+00  0.22657135030E+04  0.22657135030E+04  0.50400001928E-02 0. -1.
        1   -1    0    0  501    0  0.00000000000E+00  0.00000000000E+00 -0.17121470968E+04  0.17121470969E+04  0.50400001928E-02 0.  1.
    10030    2    1    2    0    0  0.00000000000E+00  0.00000000000E+00  0.55356640617E+03  0.39778605999E+04  0.39391546283E+04 0.  0.
        3    1    3    3  502    0 -0.12327443496E+04 -0.11406898065E+04 -0.76211272808E+03  0.18443556291E+04  0.10100000352E+00 0.  1.
       -3    1    3    3    0  502  0.12327443496E+04  0.11406898065E+04  0.13156791343E+04  0.21335049708E+04  0.10100000352E+00 0. -1.
</event>
<event>
 5   0  0.2713405E-07  0.3940729E+04  0.7818609E-02  0.8016611E-01
       -1   -1    0    0    0  501  0.00000000000E+00  0.00000000000E+00  0.20686402884E+04  0.20686402884E+04  0.50400001928E-02 0.  1.
        1   -1    0    0  501    0  0.00000000000E+00  0.00000000000E+00 -0.18767571815E+04  0.18767571815E+04  0.50400001928E-02 0. -1.
    10030    2    1    2    0    0  0.00000000000E+00  0.00000000000E+00  0.19188310686E+03  0.39453974699E+04  0.39407286215E+04 0.  0.
        1    1    3    3  502    0  0.19266001065E+04 -0.39935537126E+03 -0.93630684347E+01  0.19675772793E+04  0.50400001928E-02 0.  1.
       -1    1    3    3    0  502 -0.19266001065E+04  0.39935537126E+03  0.20124617529E+03  0.19778201905E+04  0.50400001928E-02 0. -1.
</event>
<event>
 5   0  0.2401125E-07  0.4021234E+04  0.7818609E-02  0.8000277E-01
       -3   -1    0    0    0  501  0.00000000000E+00  0.00000000000E+00  0.26038405410E+04  0.26038405429E+04  0.10100000352E+00 0. -1.
        3   -1    0    0  501    0  0.00000000000E+00  0.00000000000E+00 -0.15525455819E+04  0.15525455852E+04  0.10100000352E+00 0.  1.
    10030    2    1    2    0    0  0.00000000000E+00  0.00000000000E+00  0.10512949591E+04  0.41563861282E+04  0.40212342080E+04 0.  0.
        5    1    3    3  502    0  0.25845502191E+03  0.14952820667E+04  0.18890296585E+04  0.24230399498E+04  0.46999998093E+01 0. -1.
       -5    1    3    3    0  502 -0.25845502191E+03 -0.14952820667E+04 -0.83773469948E+03  0.17333461784E+04  0.46999998093E+01 0.  1.
</event>
<event>
 5   0  0.2401125E-07  0.2719041E+04  0.7818609E-02  0.8328853E-01
        1   -1    0    0  501    0  0.00000000000E+00  0.00000000000E+00  0.20660527012E+04  0.20660527012E+04  0.50400001928E-02 0. -1.
       -1   -1    0    0    0  501  0.00000000000E+00  0.00000000000E+00 -0.89460256049E+03  0.89460256050E+03  0.50400001928E-02 0.  1.
    10030    2    1    2    0    0  0.00000000000E+00  0.00000000000E+00  0.11714501407E+04  0.29606552617E+04  0.27190410343E+04 0.  0.
        5    1    3    3  502    0  0.12101199873E+03 -0.60114052759E+03  0.19069122532E+04  0.20030851877E+04  0.46999998093E+01 0. -1.
       -5    1    3    3    0  502 -0.12101199873E+03  0.60114052759E+03 -0.73546211249E+03  0.95757007402E+03  0.46999998093E+01 0.  1.
</event>
<event>
 5   0  0.5161550E-07  0.3973547E+04  0.7818609E-02  0.8009904E-01
       -2   -1    0    0    0  501  0.00000000000E+00  0.00000000000E+00  0.15558310075E+04  0.15558310075E+04  0.25500000920E-02 0. -1.
        2   -1    0    0  501    0  0.00000000000E+00  0.00000000000E+00 -0.25370805175E+04  0.25370805175E+04  0.25500000920E-02 0.  1.
    10030    2    1    2    0    0  0.00000000000E+00  0.00000000000E+00 -0.98124951005E+03  0.40929115250E+04  0.39735467973E+04 0.  0.
        2    1    3    3  502    0 -0.73683305530E+03  0.30029222891E+02  0.14096365217E+04  0.15908802057E+04  0.25500000920E-02 0. -1.
       -2    1    3    3    0  502  0.73683305530E+03 -0.30029222891E+02 -0.23908860318E+04  0.25020313193E+04  0.25500000920E-02 0.  1.
</event>
<event>
 5   0  0.6043512E-07  0.2374038E+04  0.7818609E-02  0.8449288E-01
       -2   -1    0    0    0  501  0.00000000000E+00  0.00000000000E+00  0.10002506383E+04  0.10002506383E+04  0.25500000920E-02 0. -1.
        2   -1    0    0  501    0  0.00000000000E+00  0.00000000000E+00 -0.14086607440E+04  0.14086607440E+04  0.25500000920E-02 0.  1.
    10030    2    1    2    0    0  0.00000000000E+00  0.00000000000E+00 -0.40841010573E+03  0.24089113823E+04  0.23740377490E+04 0.  0.
        3    1    3    3  502    0 -0.18966882416E+03 -0.10786226602E+03 -0.13881374824E+04  0.14051812024E+04  0.10100000352E+00 0.  1.
       -3    1    3    3    0  502  0.18966882416E+03  0.10786226602E+03  0.97972737668E+03  0.10037301799E+04  0.10100000352E+00 0. -1.
</event>
<event>
 5   0  0.2647879E-07  0.3977343E+04  0.7818609E-02  0.8009133E-01
       -1   -1    0    0    0  501  0.00000000000E+00  0.00000000000E+00  0.24706178237E+04  0.24706178237E+04  0.50400001928E-02 0.  1.
        1   -1    0    0  501    0  0.00000000000E+00  0.00000000000E+00 -0.16007392499E+04  0.16007392499E+04  0.50400001928E-02 0. -1.
    10030    2    1    2    0    0  0.00000000000E+00  0.00000000000E+00  0.86987857377E+03  0.40713570736E+04  0.39773432952E+04 0.  0.
        2    1    3    3  502    0  0.18176012660E+04 -0.54365149650E+02  0.12590690535E+04  0.22117605687E+04  0.25500000920E-02 0.  1.
       -2    1    3    3    0  502 -0.18176012660E+04  0.54365149650E+02 -0.38919047969E+03  0.18595965050E+04  0.25500000920E-02 0. -1.
</event>
<event>
 5   0  0.5161550E-07  0.4006931E+04  0.7818609E-02  0.8003150E-01
       -2   -1    0    0    0  501  0.00000000000E+00  0.00000000000E+00  0.14151834703E+04  0.14151834703E+04  0.25500000920E-02 0. -1.
        2   -1    0    0  501    0  0.00000000000E+00  0.00000000000E+00 -0.28362923525E+04  0.28362923525E+04  0.25500000920E-02 0.  1.
    10030    2    1    2    0    0  0.00000000000E+00  0.00000000000E+00 -0.14211088821E+04  0.42514758228E+04  0.40069310222E+04 0.  0.
        2    1    3    3  502    0  0.58301834656E+03  0.97375824071E+03 -0.24623020725E+04  0.27112814313E+04  0.25500000920E-02 0.  1.
       -2    1    3    3    0  502 -0.58301834656E+03 -0.97375824071E+03  0.10411931903E+04  0.15401943914E+04  0.25500000920E-02 0. -1.
</event>
<event>
 5   0  0.2601252E-07  0.2790096E+04  0.7818609E-02  0.8306350E-01
       -1   -1    0    0    0  501  0.00000000000E+00  0.00000000000E+00  0.88799095986E+03  0.88799095988E+03  0.50400001928E-02 0. -1.
        1   -1    0    0  501    0  0.00000000000E+00  0.00000000000E+00 -0.21916428104E+04  0.21916428104E+04  0.50400001928E-02 0.  1.
    10030    2    1    2    0    0  0.00000000000E+00  0.00000000000E+00 -0.13036518505E+04  0.30796337703E+04  0.27900960578E+04 0.  0.
        3    1    3    3  502    0 -0.13854750376E+04  0.80838714616E+02 -0.49540517077E+03  0.14736018020E+04  0.10100000352E+00 0. -1.
       -3    1    3    3    0  502  0.13854750376E+04 -0.80838714616E+02 -0.80824667974E+03  0.16060319682E+04  0.10100000352E+00 0.  1.
</event>
<event>
 5   0  0.5161550E-07  0.4084635E+04  0.7818609E-02  0.7987687E-01
        2   -1    0    0  501    0  0.00000000000E+00  0.00000000000E+00  0.20479549303E+04  0.20479549303E+04  0.25500000920E-02 0. -1.
       -2   -1    0    0    0  501  0.00000000000E+00  0.00000000000E+00 -0.20366958503E+04  0.20366958503E+04  0.25500000920E-02 0.  1.
    10030    2    1    2    0    0  0.00000000000E+00  0.00000000000E+00  0.11259080011E+02  0.40846507806E+04  0.40846352631E+04 0.  0.
        2    1    3    3  502    0  0.87266825067E+03  0.93875359216E+03  0.15956837326E+04  0.20467082735E+04  0.25500000920E-02 0. -1.
       -2    1    3    3    0  502 -0.87266825067E+03 -0.93875359216E+03 -0.15844246525E+04  0.20379425071E+04  0.25500000920E-02 0.  1.
</event>
<event>
 5   0  0.4449262E-07  0.3281421E+04  0.7818609E-02  0.8167639E-01
       -2   -1    0    0    0  501  0.00000000000E+00  0.00000000000E+00  0.12501129805E+04  0.12501129805E+04  0.25500000920E-02 0. -1.
        2   -1    0    0  501    0  0.00000000000E+00  0.00000000000E+00 -0.21533499970E+04  0.21533499970E+04  0.25500000920E-02 0.  1.
    10030    2    1    2    0    0  0.00000000000E+00  0.00000000000E+00 -0.90323701653E+03  0.34034629775E+04  0.32814209013E+04 0.  0.
        1    1    3    3  502    0 -0.76886851942E+03 -0.86101353142E+03  0.75769010246E+03  0.13807959273E+04  0.50400001928E-02 0. -1.
       -1    1    3    3    0  502  0.76886851942E+03  0.86101353142E+03 -0.16609271190E+04  0.20226670502E+04  0.50400001928E-02 0.  1.
</event>
<event>
 5   0  0.7570277E-07  0.2155532E+04  0.7818609E-02  0.8537168E-01
        2   -1    0    0  501    0  0.00000000000E+00  0.00000000000E+00  0.10980892211E+04  0.10980892211E+04  0.25500000920E-02 0.  1.
       -2   -1    0    0    0  501  0.00000000000E+00  0.00000000000E+00 -0.10578192808E+04  0.10578192808E+04  0.25500000920E-02 0. -1.
    10030    2    1    2    0    0  0.00000000000E+00  0.00000000000E+00  0.40269940316E+02  0.21559085019E+04  0.21555323706E+04 0.  0.
        5    1    3    3  502    0 -0.10130267396E+04  0.14916489317E+03 -0.31620412746E+03  0.10716718158E+04  0.46999998093E+01 0. -1.
       -5    1    3    3    0  502  0.10130267396E+04 -0.14916489317E+03  0.35647406778E+03  0.10842366861E+04  0.46999998093E+01 0.  1.
</event>
<event>
 5   0  0.2601252E-07  0.3961727E+04  0.7818609E-02  0.8012312E-01
        1   -1    0    0  501    0  0.00000000000E+00  0.00000000000E+00  0.18337268589E+04  0.18337268590E+04  0.50400001928E-02 0. -1.
       -1   -1    0    0    0  501  0.00000000000E+00  0.00000000000E+00 -0.21398066701E+04  0.21398066702E+04  0.50400001928E-02 0.  1.
    10030    2    1    2    0    0  0.00000000000E+00  0.00000000000E+00 -0.30607981120E+03  0.39735335291E+04  0.39617273829E+04 0.  0.
        3    1    3    3  502    0 -0.14261775658E+04 -0.13457818827E+04  0.12834851833E+03  0.19650915188E+04  0.10100000352E+00 0.  1.
       -3    1    3    3    0  502  0.14261775658E+04  0.13457818827E+04 -0.43442832953E+03  0.20084420103E+04  0.10100000352E+00 0. -1.
</event>
<event>
 5   0  0.4449262E-07  0.3884154E+04  0.7818609E-02  0.8028333E-01
        2   -1    0    0  501    0  0.00000000000E+00  0.00000000000E+00  0.21296336695E+04  0.21296336695E+04  0.25500000920E-02 0.  1.
       -2   -1    0    0    0  501  0.00000000000E+00  0.00000000000E+00 -0.17710387939E+04  0.17710387939E+04  0.25500000920E-02 0. -1.
    10030    2    1    2    0    0  0.00000000000E+00  0.00000000000E+00  0.35859487558E+03  0.39006724635E+04  0.38841543973E+04 0.  0.
        1    1    3    3  502    0 -0.13627328505E+04 -0.84990001264E+03  0.12758627284E+04  0.20511451814E+04  0.50400001928E-02 0.  1.
       -1    1    3    3    0  502  0.13627328505E+04  0.84990001264E+03 -0.91726785285E+03  0.18495272821E+04  0.50400001928E-02 0. -1.
</event>
<event>
 5   0  0.4449262E-07  0.3830802E+04  0.7818609E-02  0.8039577E-01
       -2   -1    0    0    0  501  0.00000000000E+00  0.00000000000E+00  0.20449020589E+04  0.20449020589E+04  0.25500000920E-02 0.  1.
        2   -1    0    0  501    0  0.00000000000E+00  0.00000000000E+00 -0.17941008943E+04  0.17941008943E+04  0.25500000920E-02 0. -1.
    10030    2    1    2    0    0  0.00000000000E+00  0.00000000000E+00  0.25080116459E+03  0.38390029532E+04  0.38308018025E+04 0.  0.
        1    1    3    3  502    0  0.71106877610E+03  0.17442865011E+04 -0.22262723558E+03  0.18967649007E+04  0.50400001928E-02 0. -1.
       -1    1    3    3    0  502 -0.71106877610E+03 -0.17442865011E+04  0.47342840016E+03  0.19422380525E+04  0.50400001928E-02 0.  1.
</event>
<event>
 5   0  0.5161550E-07  0.2863330E+04  0.7818609E-02  0.8283872E-01
       -2   -1    0    0    0  501  0.00000000000E+00  0.00000000000E+00  0.10602850815E+04  0.10602850815E+04  0.25500000920E-02 0.  1.
        2   -1    0    0  501    0  0.00000000000E+00  0.00000000000E+00 -0.19331262914E+04  0.19331262914E+04  0.25500000920E-02 0. -1.
    10030    2    1    2    0    0  0.00000000000E+00  0.00000000000E+00 -0.87284120987E+03  0.29934113729E+04  0.28633302062E+04 0.  0.
        2    1    3    3  502    0  0.33914728596E+03  0.87773105373E+03  0.69159417064E+03  0.11677907266E+04  0.25500000920E-02 0.  1.
       -2    1    3    3    0  502 -0.33914728596E+03 -0.87773105373E+03 -0.15644353805E+04  0.18256206463E+04  0.25500000920E-02 0. -1.
</event>
<event>
 5   0  0.3579559E-07  0.2618529E+04  0.7818609E-02  0.8361935E-01
       -1   -1    0    0    0  501  0.00000000000E+00  0.00000000000E+00  0.14005332543E+04  0.14005332543E+04  0.50400001928E-02 0. -1.
        1   -1    0    0  501    0  0.00000000000E+00  0.00000000000E+00 -0.12239431339E+04  0.12239431339E+04  0.50400001928E-02 0.  1.
    10030    2    1    2    0    0  0.00000000000E+00  0.00000000000E+00  0.17659012042E+03  0.26244763881E+04  0.26185286405E+04 0.  0.
        4    1    3    3  502    0  0.12734790502E+04 -0.43196934544E+02  0.38990479155E+03  0.13325322607E+04  0.12699999809E+01 0. -1.
       -4    1    3    3    0  502 -0.12734790502E+04  0.43196934544E+02 -0.21331467114E+03  0.12919441274E+04  0.12699999809E+01 0.  1.
</event>
<event>
 5   0  0.7256473E-07  0.3821646E+04  0.7818609E-02  0.8041526E-01
        2   -1    0    0  501    0  0.00000000000E+00  0.00000000000E+00  0.15679235301E+04  0.15679235301E+04  0.25500000920E-02 0. -1.
       -2   -1    0    0    0  501  0.00000000000E+00  0.00000000000E+00 -0.23287136155E+04  0.23287136155E+04  0.25500000920E-02 0.  1.
    10030    2    1    2    0    0  0.00000000000E+00  0.00000000000E+00 -0.76079008537E+03  0.38966371455E+04  0.38216461754E+04 0.  0.
        4    1    3    3  502    0  0.18402045704E+04 -0.45984865044E+03 -0.14471081317E+03  0.19023029397E+04  0.12699999809E+01 0.  1.
       -4    1    3    3    0  502 -0.18402045704E+04  0.45984865044E+03 -0.61607927219E+03  0.19943342058E+04  0.12699999809E+01 0. -1.
</event>
<event>
 5   0  0.4449262E-07  0.3515466E+04  0.7818609E-02  0.8110134E-01
        2   -1    0    0  501    0  0.00000000000E+00  0.00000000000E+00  0.17270073711E+04  0.17270073711E+04  0.25500000920E-02 0.  1.
       -2   -1    0    0    0  501  0.00000000000E+00  0.00000000000E+00 -0.17890054461E+04  0.17890054461E+04  0.25500000920E-02 0. -1.
    10030    2    1    2    0    0  0.00000000000E+00  0.00000000000E+00 -0.61998075054E+02  0.35160128172E+04  0.35154661667E+04 0.  0.
        1    1    3    3  502    0 -0.99501734937E+03  0.13652028765E+04 -0.51665375821E+03  0.17665699888E+04  0.50400001928E-02 0. -1.
       -1    1    3    3    0  502  0.99501734937E+03 -0.13652028765E+04  0.45465568316E+03  0.17494428284E+04  0.50400001928E-02 0.  1.
</event>
<event>
 5   0  0.6043512E-07  0.3797650E+04  0.7818609E-02  0.8046659E-01
        2   -1    0    0  501    0  0.00000000000E+00  0.00000000000E+00  0.20339798869E+04  0.20339798869E+04  0.25500000920E-02 0. -1.
       -2   -1    0    0    0  501  0.00000000000E+00  0.00000000000E+00 -0.17726511344E+04  0.17726511344E+04  0.25500000920E-02 0.  1.
    10030    2    1    2    0    0  0.00000000000E+00  0.00000000000E+00  0.26132875243E+03  0.38066310213E+04  0.37976501966E+04 0.  0.
        3    1    3    3  502    0  0.69871070372E+03 -0.12124782352E+04  0.14171466849E+04  0.19916337151E+04  0.10100000352E+00 0. -1.
       -3    1    3    3    0  502 -0.69871070372E+03  0.12124782352E+04 -0.11558179325E+04  0.18149973062E+04  0.10100000352E+00 0.  1.
</event>
<event>
 5   0  0.3579559E-07  0.2399230E+04  0.7818609E-02  0.8439792E-01
        1   -1    0    0  501    0  0.00000000000E+00  0.00000000000E+00  0.12698959322E+04  0.12698959322E+04  0.50400001928E-02 0.  1.
       -1   -1    0    0    0  501  0.00000000000E+00  0.00000000000E+00 -0.11332239095E+04  0.11332239095E+04  0.50400001928E-02 0. -1.
    10030    2    1    2    0    0  0.00000000000E+00  0.00000000000E+00  0.13667202270E+03  0.24031198417E+04  0.23992302374E+04 0.  0.
        4    1    3    3  502    0  0.91234636573E+02  0.33197590069E+03 -0.10826758181E+04  0.11360987182E+04  0.12699999809E+01 0. -1.
       -4    1    3    3    0  502 -0.91234636573E+02 -0.33197590069E+03  0.12193478408E+04  0.12670211235E+04  0.12699999809E+01 0.  1.
</event>
<event>
 5   0  0.7256473E-07  0.3880769E+04  0.7818609E-02  0.8029041E-01
       -2   -1    0    0    0  501  0.00000000000E+00  0.00000000000E+00  0.18470085962E+04  0.18470085962E+04  0.25500000920E-02 0. -1.
        2   -1    0    0  501    0  0.00000000000E+00  0.00000000000E+00 -0.20384808516E+04  0.20384808516E+04  0.25500000920E-02 0.  1.
    10030    2    1    2    0    0  0.00000000000E+00  0.00000000000E+00 -0.19147225539E+03  0.38854894477E+04  0.38807688187E+04 0.  0.
        4    1    3    3  502    0 -0.17449055006E+04 -0.16732362486E+03  0.73738040266E+03  0.19016897414E+04  0.12699999809E+01 0. -1.
       -4    1    3    3    0  502  0.17449055006E+04  0.16732362486E+03 -0.92885265805E+03  0.19837997063E+04  0.12699999809E+01 0.  1.
</event>
<event>
 5   0  0.2601252E-07  0.4042050E+04  0.7818609E-02  0.7996117E-01
       -1   -1    0    0    0  501  0.00000000000E+00  0.00000000000E+00  0.13858862380E+04  0.13858862380E+04  0.50400001928E-02 0.  1.
        1   -1    0    0  501    0  0.00000000000E+00  0.00000000000E+00 -0.29472421844E+04  0.29472421844E+04  0.50400001928E-02 0. -1.
    10030    2    1    2    0    0  0.00000000000E+00  0.00000000000E+00 -0.15613559464E+04  0.43331284224E+04  0.40420501647E+04 0.  0.
        3    1    3    3  502    0  0.11335531920E+04 -0.51617014426E+03  0.92552954339E+03  0.15517665426E+04  0.10100000352E+00 0.  1.
       -3    1    3    3    0  502 -0.11335531920E+04  0.51617014426E+03 -0.24868854897E+04  0.27813618798E+04  0.10100000352E+00 0. -1.
</event>
<event>
 5   0  0.2647879E-07  0.2464544E+04  0.7818609E-02  0.8415727E-01
        1   -1    0    0  501    0  0.00000000000E+00  0.00000000000E+00  0.16253180917E+04  0.16253180917E+04  0.50400001928E-02 0. -1.
       -1   -1    0    0    0  501  0.00000000000E+00  0.00000000000E+00 -0.93427502340E+03  0.93427502342E+03  0.50400001928E-02 0.  1.
    10030    2    1    2    0    0  0.00000000000E+00  0.00000000000E+00  0.69104306826E+03  0.25595931151E+04  0.24645438508E+04 0.  0.
        2    1    3    3  502    0  0.97256436231E+03 -0.26990696847E+03 -0.38868185459E+03  0.10815751451E+04  0.25500000920E-02 0.  1.
       -2    1    3    3    0  502 -0.97256436231E+03  0.26990696847E+03  0.10797249228E+04  0.14780179700E+04  0.25500000920E-02 0. -1.
</event>
<event>
 5   0  0.4449262E-07  0.2405899E+04  0.7818609E-02  0.8437299E-01
        2   -1    0    0  501    0  0.00000000000E+00  0.00000000000E+00  0.17952423327E+04  0.17952423327E+04  0.25500000920E-02 0.  1.
       -2   -1    0    0    0  501  0.00000000000E+00  0.00000000000E+00 -0.80606774129E+03  0.80606774129E+03  0.25500000920E-02 0. -1.
    10030    2    1    2    0    0  0.00000000000E+00  0.00000000000E+00  0.98917459141E+03  0.26013100740E+04  0.24058985284E+04 0.  0.
        1    1    3    3  502    0 -0.38978822177E+03 -0.10389702349E+04  0.99673648591E+03  0.14916023697E+04  0.50400001928E-02 0.  1.
       -1    1    3    3    0  502  0.38978822177E+03  0.10389702349E+04 -0.75618945066E+01  0.11097077043E+04  0.50400001928E-02 0. -1.
</event>
<event>
 5   0  0.2647879E-07  0.3400279E+04  0.7818609E-02  0.8137838E-01
       -1   -1    0    0    0  501  0.00000000000E+00  0.00000000000E+00  0.11490449157E+04  0.11490449157E+04  0.50400001928E-02 0. -1.
        1   -1    0    0  501    0  0.00000000000E+00  0.00000000000E+00 -0.25155447489E+04  0.25155447490E+04  0.50400001928E-02 0.  1.
    10030    2    1    2    0    0  0.00000000000E+00  0.00000000000E+00 -0.13664998332E+04  0.36645896647E+04  0.34002787557E+04 0.  0.
        2    1    3    3  502    0  0.31400726814E+03  0.11267007110E+03  0.11134232186E+04  0.11623279972E+04  0.25500000920E-02 0. -1.
       -2    1    3    3    0  502 -0.31400726814E+03 -0.11267007110E+03 -0.24799230518E+04  0.25022616675E+04  0.25500000920E-02 0.  1.
</event>
<event>
 5   0  0.3579559E-07  0.2268385E+04  0.7818609E-02  0.8490492E-01
        1   -1    0    0  501    0  0.00000000000E+00  0.00000000000E+00  0.18004415950E+04  0.18004415950E+04  0.50400001928E-02 0. -1.
       -1   -1    0    0    0  501  0.00000000000E+00  0.00000000000E+00 -0.71448709613E+03  0.71448709615E+03  0.50400001928E-02 0.  1.
    10030    2    1    2    0    0  0.00000000000E+00  0.00000000000E+00  0.10859544989E+04  0.25149286912E+04  0.22683847002E+04 0.  0.
        4    1    3    3  502    0 -0.65821956588E+03 -0.92126782771E+02  0.15619145126E+04  0.16974448146E+04  0.12699999809E+01 0. -1.
       -4    1    3    3    0  502  0.65821956588E+03  0.92126782771E+02 -0.47596001368E+03  0.81748387662E+03  0.12699999809E+01 0.  1.
</event>
<event>
 5   0  0.7570277E-07  0.3988980E+04  0.7818609E-02  0.8006773E-01
        2   -1    0    0  501    0  0.00000000000E+00  0.00000000000E+00  0.24598671380E+04  0.24598671380E+04  0.25500000920E-02 0. -1.
       -2   -1    0    0    0  501  0.00000000000E+00  0.00000000000E+00 -0.16171563774E+04  0.16171563774E+04  0.25500000920E-02 0.  1.
    10030    2    1    2    0    0  0.00000000000E+00  0.00000000000E+00  0.84271076052E+03  0.40770235154E+04  0.39889797341E+04 0.  0.
        5    1    3    3  502    0  0.17421279878E+04  0.45941945528E+03 -0.45303377244E+03  0.18577776645E+04  0.46999998093E+01 0.  1.
       -5    1    3    3    0  502 -0.17421279878E+04 -0.45941945528E+03  0.12957445330E+04  0.22192458509E+04  0.46999998093E+01 0. -1.
</event>
<event>
 5   0  0.4449262E-07  0.3865350E+04  0.7818609E-02  0.8032275E-01
        2   -1    0    0  501    0  0.00000000000E+00  0.00000000000E+00  0.19250461962E+04  0.19250461962E+04  0.25500000920E-02 0. -1.
       -2   -1    0    0    0  501  0.00000000000E+00  0.00000000000E+00 -0.19403340078E+04  0.19403340078E+04  0.25500000920E-02 0.  1.
    10030    2    1    2    0    0  0.00000000000E+00  0.00000000000E+00 -0.15287811594E+02  0.38653802041E+04  0.38653499719E+04 0.  0.
        1    1    3    3  502    0  0.31250383132E+03 -0.86991674232E+03  0.16896668736E+04  0.19259771356E+04  0.50400001928E-02 0. -1.
       -1    1    3    3    0  502 -0.31250383132E+03  0.86991674232E+03 -0.17049546852E+04  0.19394030684E+04  0.50400001928E-02 0.  1.
</event>
<event>
 5   0  0.2401125E-07  0.4077846E+04  0.7818609E-02  0.7989024E-01
        1   -1    0    0  501    0  0.00000000000E+00  0.00000000000E+00  0.13370690191E+04  0.13370690191E+04  0.50400001928E-02 0. -1.
       -1   -1    0    0    0  501  0.00000000000E+00  0.00000000000E+00 -0.31091947009E+04  0.31091947009E+04  0.50400001928E-02 0.  1.
    10030    2    1    2    0    0  0.00000000000E+00  0.00000000000E+00 -0.17721256818E+04  0.44462637200E+04  0.40778464458E+04 0.  0.
        5    1    3    3  502    0  0.25205530452E+03 -0.16900602692E+04 -0.20989228365E+04  0.27065355630E+04  0.46999998093E+01 0.  1.
       -5    1    3    3    0  502 -0.25205530452E+03  0.16900602692E+04  0.32679715471E+03  0.17397281570E+04  0.46999998093E+01 0. -1.
</event>
<event>
 5   0  0.4449262E-07  0.3991917E+04  0.7818609E-02  0.8006179E-01
        2   -1    0    0  501    0  0.00000000000E+00  0.00000000000E+00  0.13737644038E+04  0.13737644038E+04  0.25500000920E-02 0.  1.
       -2   -1    0    0    0  501  0.00000000000E+00  0.00000000000E+00 -0.28999514514E+04  0.28999514514E+04  0.25500000920E-02 0. -1.
    10030    2    1    2    0    0  0.00000000000E+00  0.00000000000E+00 -0.15261870476E+04  0.42737158551E+04  0.39919168712E+04 0.  0.
        1    1    3    3  502    0 -0.85038437624E+03 -0.11945960585E+04  0.68661538257E+03  0.16191522516E+04  0.50400001928E-02 0.  1.
       -1    1    3    3    0  502  0.85038437624E+03  0.11945960585E+04 -0.22128024302E+04  0.26545636035E+04  0.50400001928E-02 0. -1.
</event>
<event>
 5   0  0.5161550E-07  0.4044993E+04  0.7818609E-02  0.7995531E-01
       -2   -1    0    0    0  501  0.00000000000E+00  0.00000000000E+00  0.18647391871E+04  0.18647391871E+04  0.25500000920E-02 0. -1.
        2   -1    0    0  501    0  0.00000000000E+00  0.00000000000E+00 -0.21936005798E+04  0.21936005798E+04  0.25500000920E-02 0.  1.
    10030    2    1    2    0    0  0.00000000000E+00  0.00000000000E+00 -0.32886139266E+03  0.40583397669E+04  0.40449934299E+04 0.  0.
        2    1    3    3  502    0 -0.41192238263E+03 -0.13035356148E+04 -0.16598544686E+04  0.21503492752E+04  0.25500000920E-02 0. -1.
       -2    1    3    3    0  502  0.41192238263E+03  0.13035356148E+04  0.13309930759E+04  0.19079904917E+04  0.25500000920E-02 0.  1.
</event>
<event>
 5   0  0.1303381E-06  0.2011914E+04  0.7818609E-02  0.8601070E-01
        2   -1    0    0  501    0  0.00000000000E+00  0.00000000000E+00  0.16464701263E+04  0.16464701263E+04  0.25500000920E-02 0.  1.
       -2   -1    0    0    0  501  0.00000000000E+00  0.00000000000E+00 -0.61461784659E+03  0.61461784660E+03  0.25500000920E-02 0. -1.
    10030    2    1    2    0    0  0.00000000000E+00  0.00000000000E+00  0.10318522797E+04  0.22610879729E+04  0.20119144350E+04 0.  0.
        4    1    3    3  502    0  0.94159862224E+03  0.22703604737E+03  0.21062996831E+03  0.99122143271E+03  0.12699999809E+01 0. -1.
       -4    1    3    3    0  502 -0.94159862224E+03 -0.22703604737E+03  0.82122231135E+03  0.12698665401E+04  0.12699999809E+01 0.  1.
</event>
<event>
 5   0  0.4449262E-07  0.3586987E+04  0.7818609E-02  0.8093479E-01
       -2   -1    0    0    0  501  0.00000000000E+00  0.00000000000E+00  0.21007931395E+04  0.21007931395E+04  0.25500000920E-02 0.  1.
        2   -1    0    0  501    0  0.00000000000E+00  0.00000000000E+00 -0.15311452418E+04  0.15311452418E+04  0.25500000920E-02 0. -1.
    10030    2    1    2    0    0  0.00000000000E+00  0.00000000000E+00  0.56964789762E+03  0.36319383813E+04  0.35869872704E+04 0.  0.
        1    1    3    3  502    0 -0.32328266381E+03  0.89160243203E+02  0.20687652443E+04  0.20957697549E+04  0.50400001928E-02 0.  1.
       -1    1    3    3    0  502  0.32328266381E+03 -0.89160243203E+02 -0.14991173466E+04  0.15361686264E+04  0.50400001928E-02 0. -1.
</event>
<event>
 5   0  0.2713405E-07  0.2213065E+04  0.7818609E-02  0.8513010E-01
        1   -1    0    0  501    0  0.00000000000E+00  0.00000000000E+00  0.14777246685E+04  0.14777246685E+04  0.50400001928E-02 0.  1.
       -1   -1    0    0    0  501  0.00000000000E+00  0.00000000000E+00 -0.82858076891E+03  0.82858076893E+03  0.50400001928E-02 0. -1.
    10030    2    1    2    0    0  0.00000000000E+00  0.00000000000E+00  0.64914389956E+03  0.23063054374E+04  0.22130650619E+04 0.  0.
        1    1    3    3  502    0  0.13410399702E+03  0.28326245631E+03 -0.78136152287E+03  0.84187132664E+03  0.50400001928E-02 0. -1.
       -1    1    3    3    0  502 -0.13410399702E+03 -0.28326245631E+03  0.14305054224E+04  0.14644341108E+04  0.50400001928E-02 0.  1.
</event>
<event>
 5   0  0.2401125E-07  0.2754187E+04  0.7818609E-02  0.8317634E-01
       -1   -1    0    0    0  501  0.00000000000E+00  0.00000000000E+00  0.14228634190E+04  0.14228634191E+04  0.50400001928E-02 0.  1.
        1   -1    0    0  501    0  0.00000000000E+00  0.00000000000E+00 -0.13327956924E+04  0.13327956924E+04  0.50400001928E-02 0. -1.
    10030    2    1    2    0    0  0.00000000000E+00  0.00000000000E+00  0.90067726690E+02  0.27556591114E+04  0.27541868025E+04 0.  0.
        5    1    3    3  502    0 -0.83204413034E+03  0.36306838919E+03 -0.99101379383E+03  0.13439667108E+04  0.46999998093E+01 0. -1.
       -5    1    3    3    0  502  0.83204413034E+03 -0.36306838919E+03  0.10810815205E+04  0.14116924007E+04  0.46999998093E+01 0.  1.
</event>
<event>
 5   0  0.2401125E-07  0.2838071E+04  0.7818609E-02  0.8291545E-01
       -1   -1    0    0    0  501  0.00000000000E+00  0.00000000000E+00  0.67000140092E+03  0.67000140094E+03  0.50400001928E-02 0. -1.
        1   -1    0    0  501    0  0.00000000000E+00  0.00000000000E+00 -0.30054580861E+04  0.30054580862E+04  0.50400001928E-02 0.  1.
    10030    2    1    2    0    0  0.00000000000E+00  0.00000000000E+00 -0.23354566852E+04  0.36754594871E+04  0.28380705616E+04 0.  0.
        5    1    3    3  502    0 -0.11749959220E+04  0.43737219850E+03 -0.20284574631E+04  0.23846533556E+04  0.46999998093E+01 0.  1.
       -5    1    3    3    0  502  0.11749959220E+04 -0.43737219850E+03 -0.30699922212E+03  0.12908061315E+04  0.46999998093E+01 0. -1.
</event>
<event>
 5   0  0.2401125E-07  0.3836580E+04  0.7818609E-02  0.8038350E-01
        3   -1    0    0  501    0  0.00000000000E+00  0.00000000000E+00  0.34194352736E+04  0.34194352751E+04  0.10100000352E+00 0.  1.
       -3   -1    0    0    0  501  0.00000000000E+00  0.00000000000E+00 -0.10761533954E+04  0.10761534002E+04  0.10100000352E+00 0. -1.
    10030    2    1    2    0    0  0.00000000000E+00  0.00000000000E+00  0.23432818781E+04  0.44955886752E+04  0.38365801929E+04 0.  0.
        4    1    3    3  502    0  0.12015327772E+04 -0.13637907034E+04  0.18903754994E+04  0.26224277376E+04  0.12699999809E+01 0.  1.
       -4    1    3    3    0  502 -0.12015327772E+04  0.13637907034E+04  0.45290637871E+03  0.18731609376E+04  0.12699999809E+01 0. -1.
</event>
<event>
 5   0  0.5161550E-07  0.4217896E+04  0.7818609E-02  0.7961977E-01
        2   -1    0    0  501    0  0.00000000000E+00  0.00000000000E+00  0.22755175722E+04  0.22755175722E+04  0.25500000920E-02 0. -1.
       -2   -1    0    0    0  501  0.00000000000E+00  0.00000000000E+00 -0.19545715236E+04  0.19545715237E+04  0.25500000920E-02 0.  1.
    10030    2    1    2    0    0  0.00000000000E+00  0.00000000000E+00  0.32094604857E+03  0.42300890959E+04  0.42178960861E+04 0.  0.
        2    1    3    3  502    0  0.12152008416E+04  0.48514284414E+03 -0.14982686656E+04  0.19891922127E+04  0.25500000920E-02 0.  1.
       -2    1    3    3    0  502 -0.12152008416E+04 -0.48514284414E+03  0.18192147142E+04  0.22408968832E+04  0.25500000920E-02 0. -1.
</event>
<event>
 5   0  0.5161550E-07  0.4000311E+04  0.7818609E-02  0.8004484E-01
       -2   -1    0    0    0  501  0.00000000000E+00  0.00000000000E+00  0.18130394561E+04  0.18130394561E+04  0.25500000920E-02 0. -1.
        2   -1    0    0  501    0  0.00000000000E+00  0.00000000000E+00 -0.22065825455E+04  0.22065825455E+04  0.25500000920E-02 0.  1.
    10030    2    1    2    0    0  0.00000000000E+00  0.00000000000E+00 -0.39354308941E+03  0.40196220017E+04  0.40003105971E+04 0.  0.
        2    1    3    3  502    0  0.11766543750E+04  0.55464941485E+03 -0.17234711518E+04  0.21592832845E+04  0.25500000920E-02 0.  1.
       -2    1    3    3    0  502 -0.11766543750E+04 -0.55464941485E+03  0.13299280624E+04  0.18603387172E+04  0.25500000920E-02 0. -1.
</event>
<event>
 5   0  0.7570277E-07  0.3935420E+04  0.7818609E-02  0.8017703E-01
       -2   -1    0    0    0  501  0.00000000000E+00  0.00000000000E+00  0.20163851284E+04  0.20163851284E+04  0.25500000920E-02 0. -1.
        2   -1    0    0  501    0  0.00000000000E+00  0.00000000000E+00 -0.19202097313E+04  0.19202097313E+04  0.25500000920E-02 0.  1.
    10030    2    1    2    0    0  0.00000000000E+00  0.00000000000E+00  0.96175397182E+02  0.39365948597E+04  0.39354198483E+04 0.  0.
        5    1    3    3  502    0  0.13671440230E+04  0.11086889682E+04  0.92788782431E+03  0.19897919269E+04  0.46999998093E+01 0. -1.
       -5    1    3    3    0  502 -0.13671440230E+04 -0.11086889682E+04 -0.83171242713E+03  0.19468029328E+04  0.46999998093E+01 0.  1.
</event>
<event>
 5   0  0.2401125E-07  0.3750388E+04  0.7818609E-02  0.8056886E-01
        3   -1    0    0  501    0  0.00000000000E+00  0.00000000000E+00  0.20928709465E+04  0.20928709490E+04  0.10100000352E+00 0.  1.
       -3   -1    0    0    0  501  0.00000000000E+00  0.00000000000E+00 -0.16801577445E+04  0.16801577476E+04  0.10100000352E+00 0. -1.
    10030    2    1    2    0    0  0.00000000000E+00  0.00000000000E+00  0.41271320199E+03  0.37730286965E+04  0.37503884276E+04 0.  0.
        2    1    3    3  502    0 -0.15353649634E+04  0.10749152137E+04  0.14628810042E+03  0.18799437480E+04  0.25500000920E-02 0.  1.
       -2    1    3    3    0  502  0.15353649634E+04 -0.10749152137E+04  0.26642510157E+03  0.18930849485E+04  0.25500000920E-02 0. -1.
</event>
<event>
 5   0  0.6043512E-07  0.4033935E+04  0.7818609E-02  0.7997736E-01
        2   -1    0    0  501    0  0.00000000000E+00  0.00000000000E+00  0.30387008946E+04  0.30387008946E+04  0.25500000920E-02 0. -1.
       -2   -1    0    0    0  501  0.00000000000E+00  0.00000000000E+00 -0.13387820546E+04  0.13387820546E+04  0.25500000920E-02 0.  1.
    10030    2    1    2    0    0  0.00000000000E+00  0.00000000000E+00  0.16999188400E+04  0.43774829492E+04  0.40339351641E+04 0.  0.
        3    1    3    3  502    0  0.47546213372E+03  0.12267738133E+04  0.25089199531E+04  0.28329697441E+04  0.10100000352E+00 0. -1.
       -3    1    3    3    0  502 -0.47546213372E+03 -0.12267738133E+04 -0.80900111312E+03  0.15445132051E+04  0.10100000352E+00 0.  1.
</event>
<event>
 5   0  0.7256473E-07  0.4009654E+04  0.7818609E-02  0.8002602E-01
        2   -1    0    0  501    0  0.00000000000E+00  0.00000000000E+00  0.25887441390E+04  0.25887441390E+04  0.25500000920E-02 0.  1.
       -2   -1    0    0    0  501  0.00000000000E+00  0.00000000000E+00 -0.15526184386E+04  0.15526184386E+04  0.25500000920E-02 0. -1.
    10030    2    1    2    0    0  0.00000000000E+00  0.00000000000E+00  0.10361257004E+04  0.41413625776E+04  0.40096542908E+04 0.  0.
        4    1    3    3  502    0  0.36390604922E+03 -0.19159726914E+04  0.38092688082E+02  0.19505977629E+04  0.12699999809E+01 0.  1.
       -4    1    3    3    0  502 -0.36390604922E+03  0.19159726914E+04  0.99803301234E+03  0.21907648147E+04  0.12699999809E+01 0. -1.
</event>
<event>
 5   0  0.2647879E-07  0.2076122E+04  0.7818609E-02  0.8571835E-01
        1   -1    0    0  501    0  0.00000000000E+00  0.00000000000E+00  0.92486943614E+03  0.92486943616E+03  0.50400001928E-02 0.  1.
       -1   -1    0    0    0  501  0.00000000000E+00  0.00000000000E+00 -0.11651058060E+04  0.11651058061E+04  0.50400001928E-02 0. -1.
    10030    2    1    2    0    0  0.00000000000E+00  0.00000000000E+00 -0.24023636990E+03  0.20899752422E+04  0.20761221061E+04 0.  0.
        2    1    3    3  502    0  0.67878451162E+03 -0.78537353088E+03 -0.12341934593E+03  0.10453670796E+04  0.25500000920E-02 0. -1.
       -2    1    3    3    0  502 -0.67878451162E+03  0.78537353088E+03 -0.11681702398E+03  0.10446081626E+04  0.25500000920E-02 0.  1.
</event>
<event>
 5   0  0.2601252E-07  0.3593866E+04  0.7818609E-02  0.8091898E-01
        1   -1    0    0  501    0  0.00000000000E+00  0.00000000000E+00  0.14935114895E+04  0.14935114895E+04  0.50400001928E-02 0. -1.
       -1   -1    0    0    0  501  0.00000000000E+00  0.00000000000E+00 -0.21619978909E+04  0.21619978909E+04  0.50400001928E-02 0.  1.
    10030    2    1    2    0    0  0.00000000000E+00  0.00000000000E+00 -0.66848640142E+03  0.36555093803E+04  0.35938662692E+04 0.  0.
        3    1    3    3  502    0  0.11441505617E+02  0.16731571752E+04 -0.10007557513E+04  0.19496404604E+04  0.10100000352E+00 0.  1.
       -3    1    3    3    0  502 -0.11441505617E+02 -0.16731571752E+04  0.33226934990E+03  0.17058689199E+04  0.10100000352E+00 0. -1.
</event>
<event>
 5   0  0.3579559E-07  0.4354180E+04  0.7818609E-02  0.7936675E-01
        1   -1    0    0  501    0  0.00000000000E+00  0.00000000000E+00  0.21086910770E+04  0.21086910770E+04  0.50400001928E-02 0.  1.
       -1   -1    0    0    0  501  0.00000000000E+00  0.00000000000E+00 -0.22477080195E+04  0.22477080195E+04  0.50400001928E-02 0. -1.
    10030    2    1    2    0    0  0.00000000000E+00  0.00000000000E+00 -0.13901694248E+03  0.43563990965E+04  0.43541804484E+04 0.  0.
        4    1    3    3  502    0  0.12952372266E+04 -0.13763897244E+04  0.10116123862E+04  0.21436999276E+04  0.12699999809E+01 0.  1.
       -4    1    3    3    0  502 -0.12952372266E+04  0.13763897244E+04 -0.11506293287E+04  0.22126991688E+04  0.12699999809E+01 0. -1.
</event>
<event>
 5   0  0.2713405E-07  0.3980501E+04  0.7818609E-02  0.8008492E-01
        1   -1    0    0  501    0  0.00000000000E+00  0.00000000000E+00  0.24672460468E+04  0.24672460468E+04  0.50400001928E-02 0.  1.
       -1   -1    0    0    0  501  0.00000000000E+00  0.00000000000E+00 -0.16054728325E+04  0.16054728325E+04  0.50400001928E-02 0. -1.
    10030    2    1    2    0    0  0.00000000000E+00  0.00000000000E+00  0.86177321430E+03  0.40727188793E+04  0.39805007218E+04 0.  0.
        1    1    3    3  502    0 -0.11662054059E+04 -0.37329323847E+03  0.20362209256E+04  0.23760426234E+04  0.50400001928E-02 0.  1.
       -1    1    3    3    0  502  0.11662054059E+04  0.37329323847E+03 -0.11744477113E+04  0.16966762558E+04  0.50400001928E-02 0. -1.
</event>
<event>
 5   0  0.2401125E-07  0.3660886E+04  0.7818609E-02  0.8076686E-01
        3   -1    0    0  501    0  0.00000000000E+00  0.00000000000E+00  0.23237741901E+04  0.23237741923E+04  0.10100000352E+00 0.  1.
       -3   -1    0    0    0  501  0.00000000000E+00  0.00000000000E+00 -0.14418444616E+04  0.14418444651E+04  0.10100000352E+00 0. -1.
    10030    2    1    2    0    0  0.00000000000E+00  0.00000000000E+00  0.88192972850E+03  0.37656186574E+04  0.36608856616E+04 0.  0.
        2    1    3    3  502    0  0.12045188042E+04 -0.45643503847E+03  0.17786791977E+04  0.21961097838E+04  0.25500000920E-02 0.  1.
       -2    1    3    3    0  502 -0.12045188042E+04  0.45643503847E+03 -0.89674946919E+03  0.15695088737E+04  0.25500000920E-02 0. -1.
</event>
<event>
 5   0  0.4449262E-07  0.3951571E+04  0.7818609E-02  0.8014388E-01
       -2   -1    0    0    0  501  0.00000000000E+00  0.00000000000E+00  0.15419982218E+04  0.15419982218E+04  0.25500000920E-02 0. -1.
        2   -1    0    0  501    0  0.00000000000E+00  0.00000000000E+00 -0.25316031513E+04  0.25316031513E+04  0.25500000920E-02 0.  1.
    10030    2    1    2    0    0  0.00000000000E+00  0.00000000000E+00 -0.98960492955E+03  0.40736013731E+04  0.39515706030E+04 0.  0.
        1    1    3    3  502    0 -0.60476490840E+03 -0.11358130201E+04 -0.20404084727E+04  0.24122766314E+04  0.50400001928E-02 0.  1.
       -1    1    3    3    0  502  0.60476490840E+03  0.11358130201E+04  0.10508035431E+04  0.16613247417E+04  0.50400001928E-02 0. -1.
</event>
<event>
 5   0  0.7256473E-07  0.2371933E+04  0.7818609E-02  0.8450087E-01
        2   -1    0    0  501    0  0.00000000000E+00  0.00000000000E+00  0.15855034427E+04  0.15855034427E+04  0.25500000920E-02 0.  1.
       -2   -1    0    0    0  501  0.00000000000E+00  0.00000000000E+00 -0.88711071108E+03  0.88711071108E+03  0.25500000920E-02 0. -1.
    10030    2    1    2    0    0  0.00000000000E+00  0.00000000000E+00  0.69839273161E+03  0.24726141538E+04  0.23719334615E+04 0.  0.
        4    1    3    3  502    0  0.84064289496E+03 -0.83472435141E+03  0.29143452913E+03  0.12199921792E+04  0.12699999809E+01 0. -1.
       -4    1    3    3    0  502 -0.84064289496E+03  0.83472435141E+03  0.40695820248E+03  0.12526219746E+04  0.12699999809E+01 0.  1.
</event>
<event>
 5   0  0.2401125E-07  0.2046359E+04  0.7818609E-02  0.8585248E-01
        1   -1    0    0  501    0  0.00000000000E+00  0.00000000000E+00  0.16764208267E+04  0.16764208267E+04  0.50400001928E-02 0.  1.
       -1   -1    0    0    0  501  0.00000000000E+00  0.00000000000E+00 -0.62448318815E+03  0.62448318817E+03  0.50400001928E-02 0. -1.
    10030    2    1    2    0    0  0.00000000000E+00  0.00000000000E+00  0.10519376386E+04  0.23009040149E+04  0.20463593258E+04 0.  0.
        5    1    3    3  502    0 -0.44593416406E+03 -0.81090693992E+03  0.10166550711E+04  0.13747861534E+04  0.46999998093E+01 0. -1.
       -5    1    3    3    0  502  0.44593416406E+03  0.81090693992E+03  0.35282567460E+02  0.92611786153E+03  0.46999998093E+01 0.  1.
</event>
<event>
 5   0  0.5161550E-07  0.2023810E+04  0.7818609E-02  0.8595569E-01
        2   -1    0    0  501    0  0.00000000000E+00  0.00000000000E+00  0.98211501559E+03  0.98211501559E+03  0.25500000920E-02 0.  1.
       -2   -1    0    0    0  501  0.00000000000E+00  0.00000000000E+00 -0.10425988185E+04  0.10425988185E+04  0.25500000920E-02 0. -1.
    10030    2    1    2    0    0  0.00000000000E+00  0.00000000000E+00 -0.60483802949E+02  0.20247138341E+04  0.20238102232E+04 0.  0.
        2    1    3    3  502    0  0.83785350932E+03  0.50426121338E+03  0.23001667303E+03  0.10045822735E+04  0.25500000920E-02 0.  1.
       -2    1    3    3    0  502 -0.83785350932E+03 -0.50426121338E+03 -0.29050047597E+03  0.10201315606E+04  0.25500000920E-02 0. -1.
</event>
<event>
 5   0  0.7570277E-07  0.2700221E+04  0.7818609E-02  0.8334933E-01
        2   -1    0    0  501    0  0.00000000000E+00  0.00000000000E+00  0.24827399770E+04  0.24827399770E+04  0.25500000920E-02 0. -1.
       -2   -1    0    0    0  501  0.00000000000E+00  0.00000000000E+00 -0.73418831958E+03  0.73418831959E+03  0.25500000920E-02 0.  1.
    10030    2    1    2    0    0  0.00000000000E+00  0.00000000000E+00  0.17485516574E+04  0.32169282966E+04  0.27002212440E+04 0.  0.
        5    1    3    3  502    0  0.52193733318E+03  0.27392261000E+03 -0.57278170105E+03  0.82192039949E+03  0.46999998093E+01 0.  1.
       -5    1    3    3    0  502 -0.52193733318E+03 -0.27392261000E+03  0.23213333585E+04  0.23950078971E+04  0.46999998093E+01 0. -1.
</event>
<event>
 5   0  0.6043512E-07  0.3962735E+04  0.7818609E-02  0.8012107E-01
       -2   -1    0    0    0  501  0.00000000000E+00  0.00000000000E+00  0.18672408882E+04  0.18672408882E+04  0.25500000920E-02 0. -1.
        2   -1    0    0  501    0  0.00000000000E+00  0.00000000000E+00 -0.21024692410E+04  0.21024692410E+04  0.25500000920E-02 0.  1.
    10030    2    1    2    0    0  0.00000000000E+00  0.00000000000E+00 -0.23522835275E+03  0.39697101292E+04  0.39627346784E+04 0.  0.
        3    1    3    3  502    0 -0.16232669376E+04  0.58440803861E+03  0.85841510066E+03  0.19270196681E+04  0.10100000352E+00 0. -1.
       -3    1    3    3    0  502  0.16232669376E+04 -0.58440803861E+03 -0.10936434534E+04  0.20426904610E+04  0.10100000352E+00 0.  1.
</event>
<event>
 5   0  0.6043512E-07  0.4084697E+04  0.7818609E-02  0.7987675E-01
        2   -1    0    0  501    0  0.00000000000E+00  0.00000000000E+00  0.16664531181E+04  0.16664531181E+04  0.25500000920E-02 0. -1.
       -2   -1    0    0    0  501  0.00000000000E+00  0.00000000000E+00 -0.25030333112E+04  0.25030333112E+04  0.25500000920E-02 0.  1.
    10030    2    1    2    0    0  0.00000000000E+00  0.00000000000E+00 -0.83658019310E+03  0.41694864293E+04  0.40846971325E+04 0.  0.
        3    1    3    3  502    0 -0.34846346701E+03  0.11475509625E+04 -0.21057505112E+04  0.24233211147E+04  0.10100000352E+00 0.  1.
       -3    1    3    3    0  502  0.34846346701E+03 -0.11475509625E+04  0.12691703181E+04  0.17461653146E+04  0.10100000352E+00 0. -1.
</event>
<event>
 5   0  0.4449262E-07  0.3993643E+04  0.7818609E-02  0.8005830E-01
       -2   -1    0    0    0  501  0.00000000000E+00  0.00000000000E+00  0.17391215867E+04  0.17391215867E+04  0.25500000920E-02 0.  1.
        2   -1    0    0  501    0  0.00000000000E+00  0.00000000000E+00 -0.22927074394E+04  0.22927074394E+04  0.25500000920E-02 0. -1.
    10030    2    1    2    0    0  0.00000000000E+00  0.00000000000E+00 -0.55358585264E+03  0.40318290261E+04  0.39936434492E+04 0.  0.
        1    1    3    3  502    0 -0.14410128828E+04 -0.80002272202E+03  0.86125774360E+03  0.18596557168E+04  0.50400001928E-02 0.  1.
       -1    1    3    3    0  502  0.14410128828E+04  0.80002272202E+03 -0.14148435962E+04  0.21721733094E+04  0.50400001928E-02 0. -1.
</event>
<event>
 5   0  0.6043512E-07  0.3960106E+04  0.7818609E-02  0.8012643E-01
        2   -1    0    0  501    0  0.00000000000E+00  0.00000000000E+00  0.32188199471E+04  0.32188199471E+04  0.25500000920E-02 0.  1.
       -2   -1    0    0    0  501  0.00000000000E+00  0.00000000000E+00 -0.12180270526E+04  0.12180270526E+04  0.25500000920E-02 0. -1.
    10030    2    1    2    0    0  0.00000000000E+00  0.00000000000E+00  0.20007928945E+04  0.44368469997E+04  0.39601059446E+04 0.  0.
        3    1    3    3  502    0 -0.45102512017E+02  0.86375995162E+03  0.29959715243E+04  0.31183266146E+04  0.10100000352E+00 0.  1.
       -3    1    3    3    0  502  0.45102512017E+02 -0.86375995162E+03 -0.99517862981E+03  0.13185203851E+04  0.10100000352E+00 0. -1.
</event>
<event>
 5   0  0.5161550E-07  0.2251649E+04  0.7818609E-02  0.8497233E-01
       -2   -1    0    0    0  501  0.00000000000E+00  0.00000000000E+00  0.10562793250E+04  0.10562793250E+04  0.25500000920E-02 0.  1.
        2   -1    0    0  501    0  0.00000000000E+00  0.00000000000E+00 -0.11999482795E+04  0.11999482795E+04  0.25500000920E-02 0. -1.
    10030    2    1    2    0    0  0.00000000000E+00  0.00000000000E+00 -0.14366895451E+03  0.22562276046E+04  0.22516487815E+04 0.  0.
        2    1    3    3  502    0  0.17710493845E+03 -0.66173631503E+03 -0.96708258581E+03  0.11851201786E+04  0.25500000920E-02 0. -1.
       -2    1    3    3    0  502 -0.17710493845E+03  0.66173631503E+03  0.82341363129E+03  0.10711074260E+04  0.25500000920E-02 0.  1.
</event>
<event>
 5   0  0.6043512E-07  0.3769798E+04  0.7818609E-02  0.8052667E-01
        2   -1    0    0  501    0  0.00000000000E+00  0.00000000000E+00  0.25759507475E+04  0.25759507475E+04  0.25500000920E-02 0.  1.
       -2   -1    0    0    0  501  0.00000000000E+00  0.00000000000E+00 -0.13792358023E+04  0.13792358023E+04  0.25500000920E-02 0. -1.
    10030    2    1    2    0    0  0.00000000000E+00  0.00000000000E+00  0.11967149452E+04  0.39551865498E+04  0.37697976052E+04 0.  0.
        3    1    3    3  502    0 -0.56490266738E+03  0.96927060771E+03  0.21875211900E+04  0.24584241907E+04  0.10100000352E+00 0.  1.
       -3    1    3    3    0  502  0.56490266738E+03 -0.96927060771E+03 -0.99080624486E+03  0.14967623591E+04  0.10100000352E+00 0. -1.
</event>
<event>
 5   0  0.5161550E-07  0.2808000E+04  0.7818609E-02  0.8300789E-01
       -2   -1    0    0    0  501  0.00000000000E+00  0.00000000000E+00  0.11129167839E+04  0.11129167839E+04  0.25500000920E-02 0. -1.
        2   -1    0    0  501    0  0.00000000000E+00  0.00000000000E+00 -0.17712156060E+04  0.17712156060E+04  0.25500000920E-02 0.  1.
    10030    2    1    2    0    0  0.00000000000E+00  0.00000000000E+00 -0.65829882205E+03  0.28841323899E+04  0.28079996979E+04 0.  0.
        2    1    3    3  502    0 -0.12809969126E+03 -0.10311027723E+04  0.64071546318E+03  0.12206960157E+04  0.25500000920E-02 0. -1.
       -2    1    3    3    0  502  0.12809969126E+03  0.10311027723E+04 -0.12990142852E+04  0.16634363742E+04  0.25500000920E-02 0.  1.
</event>
<event>
 5   0  0.7256473E-07  0.2831525E+04  0.7818609E-02  0.8293548E-01
       -2   -1    0    0    0  501  0.00000000000E+00  0.00000000000E+00  0.61524555192E+03  0.61524555192E+03  0.25500000920E-02 0. -1.
        2   -1    0    0  501    0  0.00000000000E+00  0.00000000000E+00 -0.32578585952E+04  0.32578585952E+04  0.25500000920E-02 0.  1.
    10030    2    1    2    0    0  0.00000000000E+00  0.00000000000E+00 -0.26426130433E+04  0.38731041471E+04  0.28315246843E+04 0.  0.
        4    1    3    3  502    0 -0.10868707743E+04  0.70696582179E+03 -0.54356240530E+03  0.14058984510E+04  0.12699999809E+01 0. -1.
       -4    1    3    3    0  502  0.10868707743E+04 -0.70696582179E+03 -0.20990506380E+04  0.24672056961E+04  0.12699999809E+01 0.  1.
</event>
<event>
 5   0  0.7256473E-07  0.3932010E+04  0.7818609E-02  0.8018405E-01
       -2   -1    0    0    0  501  0.00000000000E+00  0.00000000000E+00  0.21581929031E+04  0.21581929031E+04  0.25500000920E-02 0.  1.
        2   -1    0    0  501    0  0.00000000000E+00  0.00000000000E+00 -0.17909311094E+04  0.17909311094E+04  0.25500000920E-02 0. -1.
    10030    2    1    2    0    0  0.00000000000E+00  0.00000000000E+00  0.36726179370E+03  0.39491240126E+04  0.39320095678E+04 0.  0.
        4    1    3    3  502    0 -0.51979597200E+03  0.10284112721E+03 -0.17178632303E+04  0.17977262975E+04  0.12699999809E+01 0. -1.
       -4    1    3    3    0  502  0.51979597200E+03 -0.10284112721E+03  0.20851250240E+04  0.21513977151E+04  0.12699999809E+01 0.  1.
</event>
<event>
 5   0  0.3579559E-07  0.4048379E+04  0.7818609E-02  0.7994857E-01
       -1   -1    0    0    0  501  0.00000000000E+00  0.00000000000E+00  0.12635922532E+04  0.12635922532E+04  0.50400001928E-02 0.  1.
        1   -1    0    0  501    0  0.00000000000E+00  0.00000000000E+00 -0.32426150835E+04  0.32426150835E+04  0.50400001928E-02 0. -1.
    10030    2    1    2    0    0  0.00000000000E+00  0.00000000000E+00 -0.19790228303E+04  0.45062073367E+04  0.40483790829E+04 0.  0.
        4    1    3    3  502    0 -0.25879869458E+03  0.19705952869E+04 -0.56257363907E+03  0.20656023967E+04  0.12699999809E+01 0.  1.
       -4    1    3    3    0  502  0.25879869458E+03 -0.19705952869E+04 -0.14164491912E+04  0.24406049400E+04  0.12699999809E+01 0. -1.
</event>
<event>
 5   0  0.2601252E-07  0.2563519E+04  0.7818609E-02  0.8380700E-01
        1   -1    0    0  501    0  0.00000000000E+00  0.00000000000E+00  0.12955411108E+04  0.12955411108E+04  0.50400001928E-02 0.  1.
       -1   -1    0    0    0  501  0.00000000000E+00  0.00000000000E+00 -0.12681243787E+04  0.12681243787E+04  0.50400001928E-02 0. -1.
    10030    2    1    2    0    0  0.00000000000E+00  0.00000000000E+00  0.27416732037E+02  0.25636654895E+04  0.25635188833E+04 0.  0.
        3    1    3    3  502    0 -0.56176708041E+03  0.89001654097E+03 -0.71790408398E+03  0.12740086263E+04  0.10100000352E+00 0. -1.
       -3    1    3    3    0  502  0.56176708041E+03 -0.89001654097E+03  0.74532081602E+03  0.12896568632E+04  0.10100000352E+00 0.  1.
</event>
<event>
 5   0  0.7570277E-07  0.3983690E+04  0.7818609E-02  0.8007845E-01
        2   -1    0    0  501    0  0.00000000000E+00  0.00000000000E+00  0.28379253933E+04  0.28379253933E+04  0.25500000920E-02 0. -1.
       -2   -1    0    0    0  501  0.00000000000E+00  0.00000000000E+00 -0.13980094299E+04  0.13980094299E+04  0.25500000920E-02 0.  1.
    10030    2    1    2    0    0  0.00000000000E+00  0.00000000000E+00  0.14399159634E+04  0.42359348232E+04  0.39836899785E+04 0.  0.
        5    1    3    3  502    0  0.19256864151E+04 -0.47267022315E+03  0.92097614966E+03  0.21862992630E+04  0.46999998093E+01 0. -1.
       -5    1    3    3    0  502 -0.19256864151E+04  0.47267022315E+03  0.51893981370E+03  0.20496355602E+04  0.46999998093E+01 0.  1.
</event>
<event>
 5   0  0.2401125E-07  0.3797853E+04  0.7818609E-02  0.8046616E-01
       -1   -1    0    0    0  501  0.00000000000E+00  0.00000000000E+00  0.15900202733E+04  0.15900202733E+04  0.50400001928E-02 0.  1.
        1   -1    0    0  501    0  0.00000000000E+00  0.00000000000E+00 -0.22678460438E+04  0.22678460438E+04  0.50400001928E-02 0. -1.
    10030    2    1    2    0    0  0.00000000000E+00  0.00000000000E+00 -0.67782577046E+03  0.38578663171E+04  0.37978526493E+04 0.  0.
        5    1    3    3  502    0  0.14679031562E+04  0.58721177582E+03 -0.14073616827E+04  0.21166592408E+04  0.46999998093E+01 0. -1.
       -5    1    3    3    0  502 -0.14679031562E+04 -0.58721177582E+03  0.72953591220E+03  0.17412070764E+04  0.46999998093E+01 0.  1.
</event>
<event>
 5   0  0.4449262E-07  0.2308382E+04  0.7818609E-02  0.8474623E-01
        2   -1    0    0  501    0  0.00000000000E+00  0.00000000000E+00  0.20683203188E+04  0.20683203188E+04  0.25500000920E-02 0.  1.
       -2   -1    0    0    0  501  0.00000000000E+00  0.00000000000E+00 -0.64407694599E+03  0.64407694599E+03  0.25500000920E-02 0. -1.
    10030    2    1    2    0    0  0.00000000000E+00  0.00000000000E+00  0.14242433728E+04  0.27123972648E+04  0.23083824936E+04 0.  0.
        1    1    3    3  502    0  0.86101088016E+03 -0.71328763563E+03  0.10486752875E+04  0.15329184080E+04  0.50400001928E-02 0.  1.
       -1    1    3    3    0  502 -0.86101088016E+03  0.71328763563E+03  0.37556808530E+03  0.11794788568E+04  0.50400001928E-02 0. -1.
</event>
<event>
 5   0  0.5161550E-07  0.2381884E+04  0.7818609E-02  0.8446317E-01
        2   -1    0    0  501    0  0.00000000000E+00  0.00000000000E+00  0.15380903103E+04  0.15380903103E+04  0.25500000920E-02 0.  1.
       -2   -1    0    0    0  501  0.00000000000E+00  0.00000000000E+00 -0.92214540266E+03  0.92214540266E+03  0.25500000920E-02 0. -1.
    10030    2    1    2    0    0  0.00000000000E+00  0.00000000000E+00  0.61594490759E+03  0.24602357129E+04  0.23818840513E+04 0.  0.
        2    1    3    3  502    0  0.82246083420E+02 -0.62804485663E+03  0.13496806315E+04  0.14909200405E+04  0.25500000920E-02 0.  1.
       -2    1    3    3    0  502 -0.82246083420E+02  0.62804485663E+03 -0.73373572392E+03  0.96931567239E+03  0.25500000920E-02 0. -1.
</event>
<event>
 5   0  0.2647879E-07  0.2643624E+04  0.7818609E-02  0.8353532E-01
        1   -1    0    0  501    0  0.00000000000E+00  0.00000000000E+00  0.19281696282E+04  0.19281696282E+04  0.50400001928E-02 0.  1.
       -1   -1    0    0    0  501  0.00000000000E+00  0.00000000000E+00 -0.90613785425E+03  0.90613785426E+03  0.50400001928E-02 0. -1.
    10030    2    1    2    0    0  0.00000000000E+00  0.00000000000E+00  0.10220317740E+04  0.28343074825E+04  0.26436243981E+04 0.  0.
        2    1    3    3  502    0 -0.19319404229E+03 -0.13073315464E+04  0.48169791537E+03  0.14065818824E+04  0.25500000920E-02 0. -1.
       -2    1    3    3    0  502  0.19319404229E+03  0.13073315464E+04  0.54033385862E+03  0.14277256001E+04  0.25500000920E-02 0.  1.
</event>
<event>
 5   0  0.7570277E-07  0.2052042E+04  0.7818609E-02  0.8582668E-01
        2   -1    0    0  501    0  0.00000000000E+00  0.00000000000E+00  0.82734074698E+03  0.82734074698E+03  0.25500000920E-02 0. -1.
       -2   -1    0    0    0  501  0.00000000000E+00  0.00000000000E+00 -0.12724134327E+04  0.12724134327E+04  0.25500000920E-02 0.  1.
    10030    2    1    2    0    0  0.00000000000E+00  0.00000000000E+00 -0.44507268568E+03  0.20997541796E+04  0.20520423776E+04 0.  0.
        5    1    3    3  502    0 -0.63647698133E+03  0.49299662508E+03  0.42829366909E+03  0.91192443606E+03  0.46999998093E+01 0. -1.
       -5    1    3    3    0  502  0.63647698133E+03 -0.49299662508E+03 -0.87336635476E+03  0.11878297436E+04  0.46999998093E+01 0.  1.
</event>
<event>
 5   0  0.7570277E-07  0.2296197E+04  0.7818609E-02  0.8479422E-01
       -2   -1    0    0    0  501  0.00000000000E+00  0.00000000000E+00  0.81060241584E+03  0.81060241584E+03  0.25500000920E-02 0. -1.
        2   -1    0    0  501    0  0.00000000000E+00  0.00000000000E+00 -0.16261120207E+04  0.16261120207E+04  0.25500000920E-02 0.  1.
    10030    2    1    2    0    0  0.00000000000E+00  0.00000000000E+00 -0.81550960488E+03  0.24367144366E+04  0.22961971452E+04 0.  0.
        5    1    3    3  502    0  0.73158561027E+03  0.84141975436E+03 -0.11732136258E+03  0.11211561445E+04  0.46999998093E+01 0. -1.
       -5    1    3    3    0  502 -0.73158561027E+03 -0.84141975436E+03 -0.69818824231E+03  0.13155582921E+04  0.46999998093E+01 0.  1.
</event>
<event>
 5   0  0.5161550E-07  0.3775326E+04  0.7818609E-02  0.8051471E-01
        2   -1    0    0  501    0  0.00000000000E+00  0.00000000000E+00  0.16175908183E+04  0.16175908183E+04  0.25500000920E-02 0. -1.
       -2   -1    0    0    0  501  0.00000000000E+00  0.00000000000E+00 -0.22028258882E+04  0.22028258882E+04  0.25500000920E-02 0.  1.
    10030    2    1    2    0    0  0.00000000000E+00  0.00000000000E+00 -0.58523506991E+03  0.38204167065E+04  0.37753256448E+04 0.  0.
        2    1    3    3  502    0 -0.40339213493E+03 -0.81703784949E+03  0.13803045927E+04  0.16539397905E+04  0.25500000920E-02 0. -1.
       -2    1    3    3    0  502  0.40339213493E+03  0.81703784949E+03 -0.19655396626E+04  0.21664769159E+04  0.25500000920E-02 0.  1.
</event>
<event>
 5   0  0.2647879E-07  0.4043417E+04  0.7818609E-02  0.7995845E-01
        1   -1    0    0  501    0  0.00000000000E+00  0.00000000000E+00  0.25647384883E+04  0.25647384883E+04  0.50400001928E-02 0. -1.
       -1   -1    0    0    0  501  0.00000000000E+00  0.00000000000E+00 -0.15936537838E+04  0.15936537838E+04  0.50400001928E-02 0.  1.
    10030    2    1    2    0    0  0.00000000000E+00  0.00000000000E+00  0.97108470443E+03  0.41583922721E+04  0.40434169691E+04 0.  0.
        2    1    3    3  502    0 -0.10791374077E+04  0.15004249944E+04 -0.35720521000E+03  0.18823942920E+04  0.25500000920E-02 0.  1.
       -2    1    3    3    0  502  0.10791374077E+04 -0.15004249944E+04  0.13282899144E+04  0.22759979801E+04  0.25500000920E-02 0. -1.
</event>
<event>
 5   0  0.7570277E-07  0.4036974E+04  0.7818609E-02  0.7997129E-01
        2   -1    0    0  501    0  0.00000000000E+00  0.00000000000E+00  0.24108808471E+04  0.24108808471E+04  0.25500000920E-02 0.  1.
       -2   -1    0    0    0  501  0.00000000000E+00  0.00000000000E+00 -0.16899593209E+04  0.16899593209E+04  0.25500000920E-02 0. -1.
    10030    2    1    2    0    0  0.00000000000E+00  0.00000000000E+00  0.72092152628E+03  0.41008401680E+04  0.40369743913E+04 0.  0.
        5    1    3    3  502    0 -0.34810285052E+03 -0.69810117768E+01  0.23801412995E+04  0.24054768810E+04  0.46999998093E+01 0.  1.
       -5    1    3    3    0  502  0.34810285052E+03  0.69810117768E+01 -0.16592197733E+04  0.16953632870E+04  0.46999998093E+01 0. -1.
</event>
<event>
 5   0  0.2713405E-07  0.2698034E+04  0.7818609E-02  0.8335643E-01
       -1   -1    0    0    0  501  0.00000000000E+00  0.00000000000E+00  0.14214265320E+04  0.14214265320E+04  0.50400001928E-02 0. -1.
        1   -1    0    0  501    0  0.00000000000E+00  0.00000000000E+00 -0.12802963188E+04  0.12802963188E+04  0.50400001928E-02 0.  1.
    10030    2    1    2    0    0  0.00000000000E+00  0.00000000000E+00  0.14113021327E+03  0.27017228508E+04  0.26980342150E+04 0.  0.
        1    1    3    3  502    0  0.11104242869E+04 -0.60611621302E+03 -0.39850694690E+03  0.13263584536E+04  0.50400001928E-02 0.  1.
       -1    1    3    3    0  502 -0.11104242869E+04  0.60611621302E+03  0.53963716016E+03  0.13753643972E+04  0.50400001928E-02 0. -1.
</event>
<event>
 5   0  0.2647879E-07  0.4030935E+04  0.7818609E-02  0.7998335E-01
       -1   -1    0    0    0  501  0.00000000000E+00  0.00000000000E+00  0.17588157749E+04  0.17588157749E+04  0.50400001928E-02 0. -1.
        1   -1    0    0  501    0  0.00000000000E+00  0.00000000000E+00 -0.23095703309E+04  0.23095703309E+04  0.50400001928E-02 0.  1.
    10030    2    1    2    0    0  0.00000000000E+00  0.00000000000E+00 -0.55075455597E+03  0.40683861058E+04  0.40309347458E+04 0.  0.
        2    1    3    3  502    0  0.13595469037E+04  0.24998150083E+03  0.12049640242E+04  0.18337930182E+04  0.25500000920E-02 0. -1.
       -2    1    3    3    0  502 -0.13595469037E+04 -0.24998150083E+03 -0.17557185801E+04  0.22345930875E+04  0.25500000920E-02 0.  1.
</event>
<event>
 5   0  0.7256473E-07  0.3911984E+04  0.7818609E-02  0.8022541E-01
        2   -1    0    0  501    0  0.00000000000E+00  0.00000000000E+00  0.26175906749E+04  0.26175906749E+04  0.25500000920E-02 0. -1.
       -2   -1    0    0    0  501  0.00000000000E+00  0.00000000000E+00 -0.14616128272E+04  0.14616128272E+04  0.25500000920E-02 0.  1.
    10030    2    1    2    0    0  0.00000000000E+00  0.00000000000E+00  0.11559778477E+04  0.40792035021E+04  0.39119836947E+04 0.  0.
        4    1    3    3  502    0  0.13317384514E+04  0.14325318851E+04  0.56225800815E+03  0.20351438734E+04  0.12699999809E+01 0. -1.
       -4    1    3    3    0  502 -0.13317384514E+04 -0.14325318851E+04  0.59371983955E+03  0.20440596287E+04  0.12699999809E+01 0.  1.
</event>
<event>
 5   0  0.5161550E-07  0.2001353E+04  0.7818609E-02  0.8605989E-01
        2   -1    0    0  501    0  0.00000000000E+00  0.00000000000E+00  0.11597193424E+04  0.11597193424E+04  0.25500000920E-02 0.  1.
       -2   -1    0    0    0  501  0.00000000000E+00  0.00000000000E+00 -0.86344427380E+03  0.86344427380E+03  0.25500000920E-02 0. -1.
    10030    2    1    2    0    0  0.00000000000E+00  0.00000000000E+00  0.29627506865E+03  0.20231636162E+04  0.20013525681E+04 0.  0.
        2    1    3    3  502    0 -0.54135302074E+03  0.14054564818E+03  0.98696182559E+03  0.11344204765E+04  0.25500000920E-02 0.  1.
       -2    1    3    3    0  502  0.54135302074E+03 -0.14054564818E+03 -0.69068675694E+03  0.88874313977E+03  0.25500000920E-02 0. -1.
</event>
<event>
 5   0  0.6043512E-07  0.3999662E+04  0.7818609E-02  0.8004615E-01
        2   -1    0    0  501    0  0.00000000000E+00  0.00000000000E+00  0.22492238806E+04  0.22492238806E+04  0.25500000920E-02 0. -1.
       -2   -1    0    0    0  501  0.00000000000E+00  0.00000000000E+00 -0.17780910486E+04  0.17780910486E+04  0.25500000920E-02 0.  1.
    10030    2    1    2    0    0  0.00000000000E+00  0.00000000000E+00  0.47113283206E+03  0.40273149292E+04  0.39996624099E+04 0.  0.
        3    1    3    3  502    0  0.11192687518E+04  0.16565414006E+04  0.28523174055E+03  0.20194675304E+04  0.10100000352E+00 0. -1.
       -3    1    3    3    0  502 -0.11192687518E+04 -0.16565414006E+04  0.18590109151E+03  0.20078473987E+04  0.10100000352E+00 0.  1.
</event>
<event>
 5   0  0.4449262E-07  0.2664570E+04  0.7818609E-02  0.8346593E-01
       -2   -1    0    0    0  501  0.00000000000E+00  0.00000000000E+00  0.78129882767E+03  0.78129882768E+03  0.25500000920E-02 0. -1.
        2   -1    0    0  501    0  0.00000000000E+00  0.00000000000E+00 -0.22718363730E+04  0.22718363730E+04  0.25500000920E-02 0.  1.
    10030    2    1    2    0    0  0.00000000000E+00  0.00000000000E+00 -0.14905375453E+04  0.30531352007E+04  0.26645698301E+04 0.  0.
        1    1    3    3  502    0  0.52565680083E+03 -0.18989858297E+01 -0.21479892211E+04  0.22113743175E+04  0.50400001928E-02 0.  1.
       -1    1    3    3    0  502 -0.52565680083E+03  0.18989858297E+01  0.65745167575E+03  0.84176088313E+03  0.50400001928E-02 0. -1.
</event>
<event>
 5   0  0.7256473E-07  0.3747696E+04  0.7818609E-02  0.8057473E-01
        2   -1    0    0  501    0  0.00000000000E+00  0.00000000000E+00  0.14587084578E+04  0.14587084578E+04  0.25500000920E-02 0. -1.
       -2   -1    0    0    0  501  0.00000000000E+00  0.00000000000E+00 -0.24071340482E+04  0.24071340482E+04  0.25500000920E-02 0.  1.
    10030    2    1    2    0    0  0.00000000000E+00  0.00000000000E+00 -0.94842559042E+03  0.38658425060E+04  0.37476962498E+04 0.  0.
        4    1    3    3  502    0 -0.93392824578E+03 -0.59504296309E+03 -0.20334907844E+04  0.23154663632E+04  0.12699999809E+01 0.  1.
       -4    1    3    3    0  502  0.93392824578E+03  0.59504296309E+03  0.10850651939E+04  0.15503761428E+04  0.12699999809E+01 0. -1.
</event>
<event>
 5   0  0.2713405E-07  0.2170265E+04  0.7818609E-02  0.8530907E-01
       -1   -1    0    0    0  501  0.00000000000E+00  0.00000000000E+00  0.60583576572E+03  0.60583576574E+03  0.50400001928E-02 0.  1.
        1   -1    0    0  501    0  0.00000000000E+00  0.00000000000E+00 -0.19436163665E+04  0.19436163665E+04  0.50400001928E-02 0. -1.
    10030    2    1    2    0    0  0.00000000000E+00  0.00000000000E+00 -0.13377806008E+04  0.25494521323E+04  0.21702647854E+04 0.  0.
        1    1    3    3  502    0  0.10544839334E+04 -0.25585802061E+03 -0.65642403393E+03  0.12681846099E+04  0.50400001928E-02 0.  1.
       -1    1    3    3    0  502 -0.10544839334E+04  0.25585802061E+03 -0.68135656687E+03  0.12812675223E+04  0.50400001928E-02 0. -1.
</event>
<event>
 5   0  0.2713405E-07  0.4010535E+04  0.7818609E-02  0.8002425E-01
       -1   -1    0    0    0  501  0.00000000000E+00  0.00000000000E+00  0.14274100595E+04  0.14274100596E+04  0.50400001928E-02 0. -1.
        1   -1    0    0  501    0  0.00000000000E+00  0.00000000000E+00 -0.28170582167E+04  0.28170582167E+04  0.50400001928E-02 0.  1.
    10030    2    1    2    0    0  0.00000000000E+00  0.00000000000E+00 -0.13896481572E+04  0.42444682763E+04  0.40105347459E+04 0.  0.
        1    1    3    3  502    0  0.15187243882E+04  0.72422887558E+03 -0.18493575641E+04  0.25002309156E+04  0.50400001928E-02 0.  1.
       -1    1    3    3    0  502 -0.15187243882E+04 -0.72422887558E+03  0.45970940692E+03  0.17442373607E+04  0.50400001928E-02 0. -1.
</event>
<event>
 5   0  0.4449262E-07  0.2410129E+04  0.7818609E-02  0.8435721E-01
       -2   -1    0    0    0  501  0.00000000000E+00  0.00000000000E+00  0.56964265166E+03  0.56964265167E+03  0.25500000920E-02 0. -1.
        2   -1    0    0  501    0  0.00000000000E+00  0.00000000000E+00 -0.25492841399E+04  0.25492841399E+04  0.25500000920E-02 0.  1.
    10030    2    1    2    0    0  0.00000000000E+00  0.00000000000E+00 -0.19796414883E+04  0.31189267916E+04  0.24101294383E+04 0.  0.
        1    1    3    3  502    0  0.78148448230E+03  0.62968310770E+03 -0.18530504080E+04  0.21073714971E+04  0.50400001928E-02 0. -1.
       -1    1    3    3    0  502 -0.78148448230E+03 -0.62968310770E+03 -0.12659108028E+03  0.10115552945E+04  0.50400001928E-02 0.  1.
</event>
<event>
 5   0  0.7570277E-07  0.4054642E+04  0.7818609E-02  0.7993613E-01
        2   -1    0    0  501    0  0.00000000000E+00  0.00000000000E+00  0.21821689739E+04  0.21821689739E+04  0.25500000920E-02 0. -1.
       -2   -1    0    0    0  501  0.00000000000E+00  0.00000000000E+00 -0.18834612601E+04  0.18834612601E+04  0.25500000920E-02 0.  1.
    10030    2    1    2    0    0  0.00000000000E+00  0.00000000000E+00  0.29870771384E+03  0.40656302340E+04  0.40546421422E+04 0.  0.
        5    1    3    3  502    0 -0.15807260764E+04  0.12568013639E+04 -0.29353817860E+02  0.20196852065E+04  0.46999998093E+01 0. -1.
       -5    1    3    3    0  502  0.15807260764E+04 -0.12568013639E+04  0.32806153170E+03  0.20459450275E+04  0.46999998093E+01 0.  1.
</event>
<event>
 5   0  0.4449262E-07  0.4111945E+04  0.7818609E-02  0.7982337E-01
        2   -1    0    0  501    0  0.00000000000E+00  0.00000000000E+00  0.17998155591E+04  0.17998155591E+04  0.25500000920E-02 0. -1.
       -2   -1    0    0    0  501  0.00000000000E+00  0.00000000000E+00 -0.23485872201E+04  0.23485872201E+04  0.25500000920E-02 0.  1.
    10030    2    1    2    0    0  0.00000000000E+00  0.00000000000E+00 -0.54877166102E+03  0.41484027793E+04  0.41119454378E+04 0.  0.
        1    1    3    3  502    0  0.61989483353E+03  0.16702703734E+04 -0.13096177966E+04  0.22111471000E+04  0.50400001928E-02 0.  1.
       -1    1    3    3    0  502 -0.61989483353E+03 -0.16702703734E+04  0.76084613557E+03  0.19372556792E+04  0.50400001928E-02 0. -1.
</event>
<event>
 5   0  0.2401125E-07  0.4021602E+04  0.7818609E-02  0.8000203E-01
       -1   -1    0    0    0  501  0.00000000000E+00  0.00000000000E+00  0.26552887432E+04  0.26552887432E+04  0.50400001928E-02 0.  1.
        1   -1    0    0  501    0  0.00000000000E+00  0.00000000000E+00 -0.15227419999E+04  0.15227419999E+04  0.50400001928E-02 0. -1.
    10030    2    1    2    0    0  0.00000000000E+00  0.00000000000E+00  0.11325467434E+04  0.41780307431E+04  0.40216015174E+04 0.  0.
        5    1    3    3  502    0 -0.11341466055E+04  0.15343558220E+04 -0.93046942259E+02  0.19102921595E+04  0.46999998093E+01 0.  1.
       -5    1    3    3    0  502  0.11341466055E+04 -0.15343558220E+04  0.12255936856E+04  0.22677385836E+04  0.46999998093E+01 0. -1.
</event>
<event>
 5   0  0.4449262E-07  0.2483086E+04  0.7818609E-02  0.8409036E-01
        2   -1    0    0  501    0  0.00000000000E+00  0.00000000000E+00  0.13334579294E+04  0.13334579294E+04  0.25500000920E-02 0.  1.
       -2   -1    0    0    0  501  0.00000000000E+00  0.00000000000E+00 -0.11559635192E+04  0.11559635192E+04  0.25500000920E-02 0. -1.
    10030    2    1    2    0    0  0.00000000000E+00  0.00000000000E+00  0.17749441017E+03  0.24894214487E+04  0.24830857584E+04 0.  0.
        1    1    3    3  502    0  0.47425082629E+03  0.11406577183E+04  0.21322052645E+03  0.12535856052E+04  0.50400001928E-02 0.  1.
       -1    1    3    3    0  502 -0.47425082629E+03 -0.11406577183E+04 -0.35726116283E+02  0.12358358435E+04  0.50400001928E-02 0. -1.
</event>
<event>
 5   0  0.2401125E-07  0.3934346E+04  0.7818609E-02  0.8017924E-01
       -1   -1    0    0    0  501  0.00000000000E+00  0.00000000000E+00  0.33742660234E+04  0.33742660234E+04  0.50400001928E-02 0. -1.
        1   -1    0    0  501    0  0.00000000000E+00  0.00000000000E+00 -0.11468477740E+04  0.11468477741E+04  0.50400001928E-02 0.  1.
    10030    2    1    2    0    0  0.00000000000E+00  0.00000000000E+00  0.22274182493E+04  0.45211137974E+04  0.39343459319E+04 0.  0.
        5    1    3    3  502    0 -0.87564032760E+02  0.60011751999E+03 -0.10367301192E+04  0.12010994662E+04  0.46999998093E+01 0.  1.
       -5    1    3    3    0  502  0.87564032760E+02 -0.60011751999E+03  0.32641483685E+04  0.33200143312E+04  0.46999998093E+01 0. -1.
</event>
<event>
 5   0  0.2713405E-07  0.3953841E+04  0.7818609E-02  0.8013924E-01
        1   -1    0    0  501    0  0.00000000000E+00  0.00000000000E+00  0.18358510786E+04  0.18358510786E+04  0.50400001928E-02 0.  1.
       -1   -1    0    0    0  501  0.00000000000E+00  0.00000000000E+00 -0.21288296833E+04  0.21288296833E+04  0.50400001928E-02 0. -1.
    10030    2    1    2    0    0  0.00000000000E+00  0.00000000000E+00 -0.29297860467E+03  0.39646807619E+04  0.39538408011E+04 0.  0.
        1    1    3    3  502    0  0.46192778623E+03  0.19098850027E+04  0.71307164808E+02  0.19662458430E+04  0.50400001928E-02 0.  1.
       -1    1    3    3    0  502 -0.46192778623E+03 -0.19098850027E+04 -0.36428576948E+03  0.19984349189E+04  0.50400001928E-02 0. -1.
</event>
<event>
 5   0  0.4449262E-07  0.3984073E+04  0.7818609E-02  0.8007767E-01
       -2   -1    0    0    0  501  0.00000000000E+00  0.00000000000E+00  0.12344420376E+04  0.12344420376E+04  0.25500000920E-02 0. -1.
        2   -1    0    0  501    0  0.00000000000E+00  0.00000000000E+00 -0.32145769231E+04  0.32145769231E+04  0.25500000920E-02 0.  1.
    10030    2    1    2    0    0  0.00000000000E+00  0.00000000000E+00 -0.19801348854E+04  0.44490189607E+04  0.39840727338E+04 0.  0.
        1    1    3    3  502    0  0.10479046965E+04  0.19684487346E+03 -0.28690999506E+04  0.30608147091E+04  0.50400001928E-02 0.  1.
       -1    1    3    3    0  502 -0.10479046965E+04 -0.19684487346E+03  0.88896506513E+03  0.13882042516E+04  0.50400001928E-02 0. -1.
</event>
<event>
 5   0  0.4449262E-07  0.1969493E+04  0.7818609E-02  0.8621018E-01
        2   -1    0    0  501    0  0.00000000000E+00  0.00000000000E+00  0.27590055134E+04  0.27590055134E+04  0.25500000920E-02 0. -1.
       -2   -1    0    0    0  501  0.00000000000E+00  0.00000000000E+00 -0.35147635375E+03  0.35147635376E+03  0.25500000920E-02 0.  1.
    10030    2    1    2    0    0  0.00000000000E+00  0.00000000000E+00  0.24075291597E+04  0.31104818672E+04  0.19694925213E+04 0.  0.
        1    1    3    3  502    0  0.87886146470E+03 -0.13670705680E+03  0.53624906995E+03  0.10385804536E+04  0.50400001928E-02 0.  1.
       -1    1    3    3    0  502 -0.87886146470E+03  0.13670705680E+03  0.18712800897E+04  0.20719014136E+04  0.50400001928E-02 0. -1.
</event>
<event>
 5   0  0.7570277E-07  0.3959947E+04  0.7818609E-02  0.8012676E-01
        2   -1    0    0  501    0  0.00000000000E+00  0.00000000000E+00  0.27571607819E+04  0.27571607819E+04  0.25500000920E-02 0.  1.
       -2   -1    0    0    0  501  0.00000000000E+00  0.00000000000E+00 -0.14218596450E+04  0.14218596450E+04  0.25500000920E-02 0. -1.
    10030    2    1    2    0    0  0.00000000000E+00  0.00000000000E+00  0.13353011369E+04  0.41790204270E+04  0.39599472980E+04 0.  0.
        5    1    3    3  502    0 -0.50303951170E+03  0.90762190436E+03  0.24471902589E+04  0.26581174776E+04  0.46999998093E+01 0.  1.
       -5    1    3    3    0  502  0.50303951170E+03 -0.90762190436E+03 -0.11118891220E+04  0.15209029493E+04  0.46999998093E+01 0. -1.
</event>
<event>
 5   0  0.5161550E-07  0.4025681E+04  0.7818609E-02  0.7999386E-01
        2   -1    0    0  501    0  0.00000000000E+00  0.00000000000E+00  0.15047389273E+04  0.15047389273E+04  0.25500000920E-02 0.  1.
       -2   -1    0    0    0  501  0.00000000000E+00  0.00000000000E+00 -0.26925113095E+04  0.26925113095E+04  0.25500000920E-02 0. -1.
    10030    2    1    2    0    0  0.00000000000E+00  0.00000000000E+00 -0.11877723822E+04  0.41972502368E+04  0.40256808516E+04 0.  0.
        2    1    3    3  502    0  0.10449666754E+02 -0.19866220667E+04 -0.93133107138E+03  0.21941180451E+04  0.25500000920E-02 0. -1.
       -2    1    3    3    0  502 -0.10449666754E+02  0.19866220667E+04 -0.25644131082E+03  0.20031321917E+04  0.25500000920E-02 0.  1.
</event>
<event>
 5   0  0.5161550E-07  0.3940056E+04  0.7818609E-02  0.8016750E-01
       -2   -1    0    0    0  501  0.00000000000E+00  0.00000000000E+00  0.21125704071E+04  0.21125704071E+04  0.25500000920E-02 0.  1.
        2   -1    0    0  501    0  0.00000000000E+00  0.00000000000E+00 -0.18371032389E+04  0.18371032389E+04  0.25500000920E-02 0. -1.
    10030    2    1    2    0    0  0.00000000000E+00  0.00000000000E+00  0.27546716823E+03  0.39496736460E+04  0.39400558054E+04 0.  0.
        2    1    3    3  502    0 -0.19053818182E+03  0.14076216043E+04  0.15060955533E+04  0.20702722515E+04  0.25500000920E-02 0.  1.
       -2    1    3    3    0  502  0.19053818182E+03 -0.14076216043E+04 -0.12306283851E+04  0.18794013945E+04  0.25500000920E-02 0. -1.
</event>
<event>
 5   0  0.2713405E-07  0.4026129E+04  0.7818609E-02  0.7999296E-01
       -1   -1    0    0    0  501  0.00000000000E+00  0.00000000000E+00  0.26773911446E+04  0.26773911446E+04  0.50400001928E-02 0.  1.
        1   -1    0    0  501    0  0.00000000000E+00  0.00000000000E+00 -0.15135737719E+04  0.15135737719E+04  0.50400001928E-02 0. -1.
    10030    2    1    2    0    0  0.00000000000E+00  0.00000000000E+00  0.11638173727E+04  0.41909649165E+04  0.40261291651E+04 0.  0.
        1    1    3    3  502    0  0.47618035440E+02  0.11512940224E+04  0.23001508078E+04  0.25726327258E+04  0.50400001928E-02 0.  1.
       -1    1    3    3    0  502 -0.47618035440E+02 -0.11512940224E+04 -0.11363334351E+04  0.16183321906E+04  0.50400001928E-02 0. -1.
</event>
<event>
 5   0  0.2647879E-07  0.3978269E+04  0.7818609E-02  0.8008945E-01
       -1   -1    0    0    0  501  0.00000000000E+00  0.00000000000E+00  0.14317569000E+04  0.14317569000E+04  0.50400001928E-02 0. -1.
        1   -1    0    0  501    0  0.00000000000E+00  0.00000000000E+00 -0.27634969306E+04  0.27634969306E+04  0.50400001928E-02 0.  1.
    10030    2    1    2    0    0  0.00000000000E+00  0.00000000000E+00 -0.13317400307E+04  0.41952538306E+04  0.39782688690E+04 0.  0.
        2    1    3    3  502    0  0.64398307705E+03  0.14435977433E+04  0.60745121667E+03  0.16934242317E+04  0.25500000920E-02 0. -1.
       -2    1    3    3    0  502 -0.64398307705E+03 -0.14435977433E+04 -0.19391912473E+04  0.25018295989E+04  0.25500000920E-02 0.  1.
</event>
<event>
 5   0  0.2601252E-07  0.4063165E+04  0.7818609E-02  0.7991924E-01
        1   -1    0    0  501    0  0.00000000000E+00  0.00000000000E+00  0.30572683544E+04  0.30572683544E+04  0.50400001928E-02 0. -1.
       -1   -1    0    0    0  501  0.00000000000E+00  0.00000000000E+00 -0.13500052051E+04  0.13500052051E+04  0.50400001928E-02 0.  1.
    10030    2    1    2    0    0  0.00000000000E+00  0.00000000000E+00  0.17072631493E+04  0.44072735595E+04  0.40631653631E+04 0.  0.
        3    1    3    3  502    0  0.96380797241E+03  0.15457130088E+04  0.18293542127E+04  0.25816063524E+04  0.10100000352E+00 0. -1.
       -3    1    3    3    0  502 -0.96380797241E+03 -0.15457130088E+04 -0.12209106335E+03  0.18256672071E+04  0.10100000352E+00 0.  1.
</event>
<event>
 5   0  0.2647879E-07  0.3952563E+04  0.7818609E-02  0.8014185E-01
       -1   -1    0    0    0  501  0.00000000000E+00  0.00000000000E+00  0.24352960733E+04  0.24352960733E+04  0.50400001928E-02 0. -1.
        1   -1    0    0  501    0  0.00000000000E+00  0.00000000000E+00 -0.16037837556E+04  0.16037837556E+04  0.50400001928E-02 0.  1.
    10030    2    1    2    0    0  0.00000000000E+00  0.00000000000E+00  0.83151231779E+03  0.40390798289E+04  0.39525628559E+04 0.  0.
        2    1    3    3  502    0  0.13920292111E+04 -0.93155656725E+03  0.14875929974E+04  0.22401955023E+04  0.25500000920E-02 0. -1.
       -2    1    3    3    0  502 -0.13920292111E+04  0.93155656725E+03 -0.65608067958E+03  0.17988843266E+04  0.25500000920E-02 0.  1.
</event>
<event>
 5   0  0.3586109E-07  0.2096954E+04  0.7818609E-02  0.8562586E-01
       -1   -1    0    0    0  501  0.00000000000E+00  0.00000000000E+00  0.59567763887E+03  0.59567763889E+03  0.50400001928E-02 0. -1.
        1   -1    0    0  501    0  0.00000000000E+00  0.00000000000E+00 -0.18454687051E+04  0.18454687051E+04  0.50400001928E-02 0.  1.
    10030    2    1    2    0    0  0.00000000000E+00  0.00000000000E+00 -0.12497910662E+04  0.24411463440E+04  0.20969544019E+04 0.  0.
        4    1    3    3  502    0 -0.50675792136E+03 -0.85920791125E+03 -0.10007898647E+04  0.14130193883E+04  0.12699999809E+01 0.  1.
       -4    1    3    3    0  502  0.50675792136E+03  0.85920791125E+03 -0.24900120147E+03  0.10281269556E+04  0.12699999809E+01 0. -1.
</event>
<event>
 5   0  0.6043512E-07  0.3481689E+04  0.7818609E-02  0.8118143E-01
        2   -1    0    0  501    0  0.00000000000E+00  0.00000000000E+00  0.18864634370E+04  0.18864634370E+04  0.25500000920E-02 0.  1.
       -2   -1    0    0    0  501  0.00000000000E+00  0.00000000000E+00 -0.16064663680E+04  0.16064663680E+04  0.25500000920E-02 0. -1.
    10030    2    1    2    0    0  0.00000000000E+00  0.00000000000E+00  0.27999706901E+03  0.34929298050E+04  0.34816892831E+04 0.  0.
        3    1    3    3  502    0 -0.16353428660E+04  0.53908780693E+03  0.39690750679E+03  0.17670590064E+04  0.10100000352E+00 0.  1.
       -3    1    3    3    0  502  0.16353428660E+04 -0.53908780693E+03 -0.11691043778E+03  0.17258707986E+04  0.10100000352E+00 0. -1.
</event>
<event>
 5   0  0.2647879E-07  0.2226288E+04  0.7818609E-02  0.8507565E-01
        1   -1    0    0  501    0  0.00000000000E+00  0.00000000000E+00  0.14322394879E+04  0.14322394879E+04  0.50400001928E-02 0. -1.
       -1   -1    0    0    0  501  0.00000000000E+00  0.00000000000E+00 -0.86514135974E+03  0.86514135975E+03  0.50400001928E-02 0.  1.
    10030    2    1    2    0    0  0.00000000000E+00  0.00000000000E+00  0.56709812819E+03  0.22973808477E+04  0.22262880479E+04 0.  0.
        2    1    3    3  502    0 -0.43006630280E+03  0.31303857477E+03 -0.72549994161E+03  0.89961121568E+03  0.25500000920E-02 0.  1.
       -2    1    3    3    0  502  0.43006630280E+03 -0.31303857477E+03  0.12925980698E+04  0.13977696320E+04  0.25500000920E-02 0. -1.
</event>
<event>
 5   0  0.6043512E-07  0.4325036E+04  0.7818609E-02  0.7942005E-01
        2   -1    0    0  501    0  0.00000000000E+00  0.00000000000E+00  0.20147690456E+04  0.20147690456E+04  0.25500000920E-02 0. -1.
       -2   -1    0    0    0  501  0.00000000000E+00  0.00000000000E+00 -0.23211016262E+04  0.23211016262E+04  0.25500000920E-02 0.  1.
    10030    2    1    2    0    0  0.00000000000E+00  0.00000000000E+00 -0.30633258057E+03  0.43358706717E+04  0.43250358186E+04 0.  0.
        3    1    3    3  502    0  0.73871718162E+03  0.11072430165E+04 -0.18617814104E+04  0.22886503015E+04  0.10100000352E+00 0.  1.
       -3    1    3    3    0  502 -0.73871718162E+03 -0.11072430165E+04  0.15554488298E+04  0.20472203703E+04  0.10100000352E+00 0. -1.
</event>
<event>
 5   0  0.4449262E-07  0.4380268E+04  0.7818609E-02  0.7931940E-01
       -2   -1    0    0    0  501  0.00000000000E+00  0.00000000000E+00  0.18062741066E+04  0.18062741066E+04  0.25500000920E-02 0. -1.
        2   -1    0    0  501    0  0.00000000000E+00  0.00000000000E+00 -0.26555703407E+04  0.26555703407E+04  0.25500000920E-02 0.  1.
    10030    2    1    2    0    0  0.00000000000E+00  0.00000000000E+00 -0.84929623401E+03  0.44618444473E+04  0.43802684597E+04 0.  0.
        1    1    3    3  502    0  0.86801556894E+03  0.10818686895E+03 -0.24699093214E+04  0.26202304254E+04  0.50400001928E-02 0.  1.
       -1    1    3    3    0  502 -0.86801556894E+03 -0.10818686895E+03  0.16206130874E+04  0.18416140219E+04  0.50400001928E-02 0. -1.
</event>
<event>
 5   0  0.4449262E-07  0.3342273E+04  0.7818609E-02  0.8152221E-01
       -2   -1    0    0    0  501  0.00000000000E+00  0.00000000000E+00  0.10855511857E+04  0.10855511857E+04  0.25500000920E-02 0.  1.
        2   -1    0    0  501    0  0.00000000000E+00  0.00000000000E+00 -0.25726082731E+04  0.25726082731E+04  0.25500000920E-02 0. -1.
    10030    2    1    2    0    0  0.00000000000E+00  0.00000000000E+00 -0.14870570874E+04  0.36581594588E+04  0.33422734546E+04 0.  0.
        1    1    3    3  502    0  0.10392698129E+04  0.10071983282E+04 -0.16580639906E+04  0.22008422054E+04  0.50400001928E-02 0. -1.
       -1    1    3    3    0  502 -0.10392698129E+04 -0.10071983282E+04  0.17100690323E+03  0.14573172534E+04  0.50400001928E-02 0.  1.
</event>
<event>
 5   0  0.2601252E-07  0.2521529E+04  0.7818609E-02  0.8395356E-01
       -1   -1    0    0    0  501  0.00000000000E+00  0.00000000000E+00  0.92682279931E+03  0.92682279932E+03  0.50400001928E-02 0. -1.
        1   -1    0    0  501    0  0.00000000000E+00  0.00000000000E+00 -0.17150282537E+04  0.17150282537E+04  0.50400001928E-02 0.  1.
    10030    2    1    2    0    0  0.00000000000E+00  0.00000000000E+00 -0.78820545439E+03  0.26418510530E+04  0.25215291289E+04 0.  0.
        3    1    3    3  502    0  0.66046653406E+03  0.90874813572E+03  0.20547028224E+03  0.11420408328E+04  0.10100000352E+00 0. -1.
       -3    1    3    3    0  502 -0.66046653406E+03 -0.90874813572E+03 -0.99367573663E+03  0.14998102202E+04  0.10100000352E+00 0.  1.
</event>
<event>
 5   0  0.6043512E-07  0.3892849E+04  0.7818609E-02  0.8026518E-01
       -2   -1    0    0    0  501  0.00000000000E+00  0.00000000000E+00  0.19748472052E+04  0.19748472052E+04  0.25500000920E-02 0. -1.
        2   -1    0    0  501    0  0.00000000000E+00  0.00000000000E+00 -0.19184112166E+04  0.19184112166E+04  0.25500000920E-02 0.  1.
    10030    2    1    2    0    0  0.00000000000E+00  0.00000000000E+00  0.56435988612E+02  0.38932584218E+04  0.38928493572E+04 0.  0.
        3    1    3    3  502    0  0.62400959767E+03 -0.16644641096E+04  0.82123275677E+03  0.19581246133E+04  0.10100000352E+00 0. -1.
       -3    1    3    3    0  502 -0.62400959767E+03  0.16644641096E+04 -0.76479676815E+03  0.19351338085E+04  0.10100000352E+00 0.  1.
</event>
<event>
 5   0  0.4449262E-07  0.3740343E+04  0.7818609E-02  0.8059080E-01
        2   -1    0    0  501    0  0.00000000000E+00  0.00000000000E+00  0.22207590785E+04  0.22207590785E+04  0.25500000920E-02 0.  1.
       -2   -1    0    0    0  501  0.00000000000E+00  0.00000000000E+00 -0.15749310060E+04  0.15749310060E+04  0.25500000920E-02 0. -1.
    10030    2    1    2    0    0  0.00000000000E+00  0.00000000000E+00  0.64582807242E+03  0.37956900845E+04  0.37403434760E+04 0.  0.
        1    1    3    3  502    0 -0.18430752059E+04  0.15941934086E+03  0.44627133265E+02  0.18504951559E+04  0.50400001928E-02 0. -1.
       -1    1    3    3    0  502  0.18430752059E+04 -0.15941934086E+03  0.60120093916E+03  0.19451949286E+04  0.50400001928E-02 0.  1.
</event>
<event>
 5   0  0.2713405E-07  0.2048651E+04  0.7818609E-02  0.8584206E-01
        1   -1    0    0  501    0  0.00000000000E+00  0.00000000000E+00  0.10251391919E+04  0.10251391919E+04  0.50400001928E-02 0. -1.
       -1   -1    0    0    0  501  0.00000000000E+00  0.00000000000E+00 -0.10235127618E+04  0.10235127618E+04  0.50400001928E-02 0.  1.
    10030    2    1    2    0    0  0.00000000000E+00  0.00000000000E+00  0.16264301152E+01  0.20486519537E+04  0.20486513081E+04 0.  0.
        1    1    3    3  502    0  0.35829395780E+03  0.91276045286E+02 -0.95445519961E+03  0.10235675868E+04  0.50400001928E-02 0.  1.
       -1    1    3    3    0  502 -0.35829395780E+03 -0.91276045286E+02  0.95608162973E+03  0.10250843670E+04  0.50400001928E-02 0. -1.
</event>
<event>
 5   0  0.2877264E-07  0.2175735E+04  0.7818609E-02  0.8528596E-01
       -1   -1    0    0    0  501  0.00000000000E+00  0.00000000000E+00  0.73940612717E+03  0.73940612718E+03  0.50400001928E-02 0. -1.
        1   -1    0    0  501    0  0.00000000000E+00  0.00000000000E+00 -0.16005483544E+04  0.16005483544E+04  0.50400001928E-02 0.  1.
    10030    2    1    2    0    0  0.00000000000E+00  0.00000000000E+00 -0.86114222723E+03  0.23399544816E+04  0.21757345979E+04 0.  0.
        1    1    3    3  502    0 -0.85039778445E+03  0.44456617344E+03  0.12059403602E+03  0.96713928464E+03  0.50400001928E-02 0.  1.
       -1    1    3    3    0  502  0.85039778445E+03 -0.44456617344E+03 -0.98173626325E+03  0.13728151969E+04  0.50400001928E-02 0. -1.
</event>
<event>
 5   0  0.2401125E-07  0.1999247E+04  0.7818609E-02  0.8606973E-01
        4   -1    0    0  501    0  0.00000000000E+00  0.00000000000E+00  0.84068414657E+03  0.84068510585E+03  0.12699999809E+01 0. -1.
       -4   -1    0    0    0  501  0.00000000000E+00  0.00000000000E+00 -0.11886098663E+04  0.11886105448E+04  0.12699999809E+01 0.  1.
    10030    2    1    2    0    0  0.00000000000E+00  0.00000000000E+00 -0.34792571973E+03  0.20292956506E+04  0.19992469910E+04 0.  0.
        5    1    3    3  502    0 -0.86767547512E+03  0.22324008825E+03 -0.62394086377E+03  0.10917972150E+04  0.46999998093E+01 0.  1.
       -5    1    3    3    0  502  0.86767547512E+03 -0.22324008825E+03  0.27601514404E+03  0.93749843566E+03  0.46999998093E+01 0. -1.
</event>
<event>
 5   0  0.2401125E-07  0.4047602E+04  0.7818609E-02  0.7995012E-01
       -1   -1    0    0    0  501  0.00000000000E+00  0.00000000000E+00  0.18849563924E+04  0.18849563924E+04  0.50400001928E-02 0. -1.
        1   -1    0    0  501    0  0.00000000000E+00  0.00000000000E+00 -0.21728731068E+04  0.21728731068E+04  0.50400001928E-02 0.  1.
    10030    2    1    2    0    0  0.00000000000E+00  0.00000000000E+00 -0.28791671444E+03  0.40578294992E+04  0.40476022791E+04 0.  0.
        5    1    3    3  502    0 -0.49559068893E+03 -0.75657811352E+02 -0.21096304838E+04  0.21683858290E+04  0.46999998093E+01 0.  1.
       -5    1    3    3    0  502  0.49559068893E+03  0.75657811352E+02  0.18217137693E+04  0.18894436702E+04  0.46999998093E+01 0. -1.
</event>
<event>
 5   0  0.4449262E-07  0.4038744E+04  0.7818609E-02  0.7996776E-01
        2   -1    0    0  501    0  0.00000000000E+00  0.00000000000E+00  0.23794589535E+04  0.23794589535E+04  0.25500000920E-02 0.  1.
       -2   -1    0    0    0  501  0.00000000000E+00  0.00000000000E+00 -0.17137772747E+04  0.17137772748E+04  0.25500000920E-02 0. -1.
    10030    2    1    2    0    0  0.00000000000E+00  0.00000000000E+00  0.66568167878E+03  0.40932362283E+04  0.40387437060E+04 0.  0.
        1    1    3    3  502    0  0.12699885284E+04 -0.15671749250E+04  0.42874621585E+03  0.20622151744E+04  0.50400001928E-02 0.  1.
       -1    1    3    3    0  502 -0.12699885284E+04  0.15671749250E+04  0.23693546293E+03  0.20310210539E+04  0.50400001928E-02 0. -1.
</event>
<event>
 5   0  0.6043512E-07  0.4105018E+04  0.7818609E-02  0.7983690E-01
       -2   -1    0    0    0  501  0.00000000000E+00  0.00000000000E+00  0.13962532754E+04  0.13962532754E+04  0.25500000920E-02 0.  1.
        2   -1    0    0  501    0  0.00000000000E+00  0.00000000000E+00 -0.30172125183E+04  0.30172125183E+04  0.25500000920E-02 0. -1.
    10030    2    1    2    0    0  0.00000000000E+00  0.00000000000E+00 -0.16209592429E+04  0.44134657938E+04  0.41050178375E+04 0.  0.
        3    1    3    3  502    0  0.11379374358E+04 -0.49553367442E+03  0.94708126572E+03  0.15612232910E+04  0.10100000352E+00 0.  1.
       -3    1    3    3    0  502 -0.11379374358E+04  0.49553367442E+03 -0.25680405086E+04  0.28522425028E+04  0.10100000352E+00 0. -1.
</event>
<event>
 5   0  0.5161550E-07  0.2921826E+04  0.7818609E-02  0.8266413E-01
        2   -1    0    0  501    0  0.00000000000E+00  0.00000000000E+00  0.17027129839E+04  0.17027129839E+04  0.25500000920E-02 0. -1.
       -2   -1    0    0    0  501  0.00000000000E+00  0.00000000000E+00 -0.12534509079E+04  0.12534509079E+04  0.25500000920E-02 0.  1.
    10030    2    1    2    0    0  0.00000000000E+00  0.00000000000E+00  0.44926207600E+03  0.29561638919E+04  0.29218262342E+04 0.  0.
        2    1    3    3  502    0  0.85662449032E+03  0.54690838628E+03 -0.83715585729E+03  0.13167172171E+04  0.25500000920E-02 0.  1.
       -2    1    3    3    0  502 -0.85662449032E+03 -0.54690838628E+03  0.12864179333E+04  0.16394466748E+04  0.25500000920E-02 0. -1.
</event>
<event>
 5   0  0.4449262E-07  0.3996064E+04  0.7818609E-02  0.8005341E-01
        2   -1    0    0  501    0  0.00000000000E+00  0.00000000000E+00  0.20959142333E+04  0.20959142333E+04  0.25500000920E-02 0. -1.
       -2   -1    0    0    0  501  0.00000000000E+00  0.00000000000E+00 -0.19047211246E+04  0.19047211246E+04  0.25500000920E-02 0.  1.
    10030    2    1    2    0    0  0.00000000000E+00  0.00000000000E+00  0.19119310871E+03  0.40006353579E+04  0.39960641214E+04 0.  0.
        1    1    3    3  502    0  0.16903857670E+04  0.96577009772E+03  0.54557282457E+03  0.20218223537E+04  0.50400001928E-02 0. -1.
       -1    1    3    3    0  502 -0.16903857670E+04 -0.96577009772E+03 -0.35437971586E+03  0.19788130043E+04  0.50400001928E-02 0.  1.
</event>
<event>
 5   0  0.7570277E-07  0.2264890E+04  0.7818609E-02  0.8491894E-01
       -2   -1    0    0    0  501  0.00000000000E+00  0.00000000000E+00  0.82266403418E+03  0.82266403419E+03  0.25500000920E-02 0.  1.
        2   -1    0    0  501    0  0.00000000000E+00  0.00000000000E+00 -0.15588768039E+04  0.15588768039E+04  0.25500000920E-02 0. -1.
    10030    2    1    2    0    0  0.00000000000E+00  0.00000000000E+00 -0.73621276976E+03  0.23815408381E+04  0.22648901786E+04 0.  0.
        5    1    3    3  502    0  0.25318952208E+03 -0.56581527653E+03 -0.13646291828E+04  0.14988284618E+04  0.46999998093E+01 0. -1.
       -5    1    3    3    0  502 -0.25318952208E+03  0.56581527653E+03  0.62841641303E+03  0.88271237638E+03  0.46999998093E+01 0.  1.
</event>
<event>
 5   0  0.3579559E-07  0.2379902E+04  0.7818609E-02  0.8447066E-01
       -1   -1    0    0    0  501  0.00000000000E+00  0.00000000000E+00  0.14324545282E+04  0.14324545282E+04  0.50400001928E-02 0. -1.
        1   -1    0    0  501    0  0.00000000000E+00  0.00000000000E+00 -0.98850140329E+03  0.98850140330E+03  0.50400001928E-02 0.  1.
    10030    2    1    2    0    0  0.00000000000E+00  0.00000000000E+00  0.44395312494E+03  0.24209559315E+04  0.23799019403E+04 0.  0.
        4    1    3    3  502    0 -0.13356570926E+03  0.38765141171E+03  0.13583267663E+04  0.14188610336E+04  0.12699999809E+01 0. -1.
       -4    1    3    3    0  502  0.13356570926E+03 -0.38765141171E+03 -0.91437364133E+03  0.10020948980E+04  0.12699999809E+01 0.  1.
</event>
<event>
 5   0  0.4449262E-07  0.2570870E+04  0.7818609E-02  0.8378164E-01
        2   -1    0    0  501    0  0.00000000000E+00  0.00000000000E+00  0.12636824148E+04  0.12636824148E+04  0.25500000920E-02 0. -1.
       -2   -1    0    0    0  501  0.00000000000E+00  0.00000000000E+00 -0.13075619506E+04  0.13075619506E+04  0.25500000920E-02 0.  1.
    10030    2    1    2    0    0  0.00000000000E+00  0.00000000000E+00 -0.43879535845E+02  0.25712443654E+04  0.25708699253E+04 0.  0.
        1    1    3    3  502    0  0.32780139968E+03  0.78952607237E+03 -0.98204722286E+03  0.13020068834E+04  0.50400001928E-02 0.  1.
       -1    1    3    3    0  502 -0.32780139968E+03 -0.78952607237E+03  0.93816768702E+03  0.12692374819E+04  0.50400001928E-02 0. -1.
</event>
<event>
 5   0  0.6043512E-07  0.2409278E+04  0.7818609E-02  0.8436038E-01
        2   -1    0    0  501    0  0.00000000000E+00  0.00000000000E+00  0.16349028036E+04  0.16349028036E+04  0.25500000920E-02 0.  1.
       -2   -1    0    0    0  501  0.00000000000E+00  0.00000000000E+00 -0.88760930656E+03  0.88760930656E+03  0.25500000920E-02 0. -1.
    10030    2    1    2    0    0  0.00000000000E+00  0.00000000000E+00  0.74729349707E+03  0.25225121102E+04  0.24092778535E+04 0.  0.
        3    1    3    3  502    0  0.70306426505E+03  0.42824464814E+03 -0.54715447710E+03  0.98846895321E+03  0.10100000352E+00 0. -1.
       -3    1    3    3    0  502 -0.70306426505E+03 -0.42824464814E+03  0.12944479742E+04  0.15340431570E+04  0.10100000352E+00 0.  1.
</event>
<event>
 5   0  0.2713405E-07  0.2342548E+04  0.7818609E-02  0.8461332E-01
       -1   -1    0    0    0  501  0.00000000000E+00  0.00000000000E+00  0.53045234391E+03  0.53045234394E+03  0.50400001928E-02 0.  1.
        1   -1    0    0  501    0  0.00000000000E+00  0.00000000000E+00 -0.25862500721E+04  0.25862500721E+04  0.50400001928E-02 0. -1.
    10030    2    1    2    0    0  0.00000000000E+00  0.00000000000E+00 -0.20557977281E+04  0.31167024160E+04  0.23425476838E+04 0.  0.
        1    1    3    3  502    0  0.69450891489E+03  0.57628968222E+03 -0.20212483233E+04  0.22135711453E+04  0.50400001928E-02 0. -1.
       -1    1    3    3    0  502 -0.69450891489E+03 -0.57628968222E+03 -0.34549404800E+02  0.90313127069E+03  0.50400001928E-02 0.  1.
</event>
<event>
 5   0  0.7570277E-07  0.2318481E+04  0.7818609E-02  0.8470670E-01
       -2   -1    0    0    0  501  0.00000000000E+00  0.00000000000E+00  0.93376323899E+03  0.93376323899E+03  0.25500000920E-02 0. -1.
        2   -1    0    0  501    0  0.00000000000E+00  0.00000000000E+00 -0.14391636911E+04  0.14391636911E+04  0.25500000920E-02 0.  1.
    10030    2    1    2    0    0  0.00000000000E+00  0.00000000000E+00 -0.50540045215E+03  0.23729269301E+04  0.23184806660E+04 0.  0.
        5    1    3    3  502    0 -0.59367975032E+03 -0.70731645882E+03  0.46451560086E+03  0.10337064633E+04  0.46999998093E+01 0. -1.
       -5    1    3    3    0  502  0.59367975032E+03  0.70731645882E+03 -0.96991605301E+03  0.13392204668E+04  0.46999998093E+01 0.  1.
</event>
<event>
 5   0  0.8811212E-07  0.2376160E+04  0.7818609E-02  0.8448483E-01
       -2   -1    0    0    0  501  0.00000000000E+00  0.00000000000E+00  0.80786083168E+03  0.80786083169E+03  0.25500000920E-02 0. -1.
        2   -1    0    0  501    0  0.00000000000E+00  0.00000000000E+00 -0.17472485200E+04  0.17472485200E+04  0.25500000920E-02 0.  1.
    10030    2    1    2    0    0  0.00000000000E+00  0.00000000000E+00 -0.93938768835E+03  0.25551093517E+04  0.23761596264E+04 0.  0.
        5    1    3    3  502    0  0.22244919404E+03 -0.12936857278E+02 -0.17245680668E+04  0.17389100360E+04  0.46999998093E+01 0.  1.
       -5    1    3    3    0  502 -0.22244919404E+03  0.12936857278E+02  0.78518037849E+03  0.81619931571E+03  0.46999998093E+01 0. -1.
</event>
<event>
 5   0  0.2401125E-07  0.2072551E+04  0.7818609E-02  0.8573432E-01
        3   -1    0    0  501    0  0.00000000000E+00  0.00000000000E+00  0.92061328261E+03  0.92061328815E+03  0.10100000352E+00 0. -1.
       -3   -1    0    0    0  501  0.00000000000E+00  0.00000000000E+00 -0.11664692878E+04  0.11664692921E+04  0.10100000352E+00 0.  1.
    10030    2    1    2    0    0  0.00000000000E+00  0.00000000000E+00 -0.24585600515E+03  0.20870825803E+04  0.20725512109E+04 0.  0.
        2    1    3    3  502    0  0.55001973672E+03 -0.80465345719E+03 -0.47735913690E+03  0.10852928833E+04  0.25500000920E-02 0.  1.
       -2    1    3    3    0  502 -0.55001973672E+03  0.80465345719E+03  0.23150313175E+03  0.10017896970E+04  0.25500000920E-02 0. -1.
</event>
<event>
 5   0  0.7256473E-07  0.2338671E+04  0.7818609E-02  0.8462828E-01
       -2   -1    0    0    0  501  0.00000000000E+00  0.00000000000E+00  0.83289748510E+03  0.83289748510E+03  0.25500000920E-02 0.  1.
        2   -1    0    0  501    0  0.00000000000E+00  0.00000000000E+00 -0.16416732844E+04  0.16416732844E+04  0.25500000920E-02 0. -1.
    10030    2    1    2    0    0  0.00000000000E+00  0.00000000000E+00 -0.80877579934E+03  0.24745707695E+04  0.23386710328E+04 0.  0.
        4    1    3    3  502    0  0.71394708957E+03  0.87581235966E+03 -0.72283536234E+03  0.13413650920E+04  0.12699999809E+01 0. -1.
       -4    1    3    3    0  502 -0.71394708957E+03 -0.87581235966E+03 -0.85940436998E+02  0.11332056776E+04  0.12699999809E+01 0.  1.
</event>
<event>
 5   0  0.2401125E-07  0.3942712E+04  0.7818609E-02  0.8016204E-01
        1   -1    0    0  501    0  0.00000000000E+00  0.00000000000E+00  0.19843239863E+04  0.19843239863E+04  0.50400001928E-02 0. -1.
       -1   -1    0    0    0  501  0.00000000000E+00  0.00000000000E+00 -0.19584732047E+04  0.19584732047E+04  0.50400001928E-02 0.  1.
    10030    2    1    2    0    0  0.00000000000E+00  0.00000000000E+00  0.25850781584E+02  0.39427971910E+04  0.39427124453E+04 0.  0.
        5    1    3    3  502    0 -0.14521641085E+04 -0.70163833431E+03  0.11465926981E+04  0.19788314369E+04  0.46999998093E+01 0. -1.
       -5    1    3    3    0  502  0.14521641085E+04  0.70163833431E+03 -0.11207419165E+04  0.19639657542E+04  0.46999998093E+01 0.  1.
</event>
<event>
 5   0  0.2601252E-07  0.2817949E+04  0.7818609E-02  0.8297717E-01
       -1   -1    0    0    0  501  0.00000000000E+00  0.00000000000E+00  0.17107011017E+04  0.17107011017E+04  0.50400001928E-02 0. -1.
        1   -1    0    0  501    0  0.00000000000E+00  0.00000000000E+00 -0.11604653947E+04  0.11604653947E+04  0.50400001928E-02 0.  1.
    10030    2    1    2    0    0  0.00000000000E+00  0.00000000000E+00  0.55023570700E+03  0.28711664964E+04  0.28179492041E+04 0.  0.
        3    1    3    3  502    0 -0.81478638740E+03 -0.10647121675E+04 -0.16633175950E+03  0.13509830203E+04  0.10100000352E+00 0.  1.
       -3    1    3    3    0  502  0.81478638740E+03  0.10647121675E+04  0.71656746650E+03  0.15201834761E+04  0.10100000352E+00 0. -1.
</event>
<event>
 5   0  0.6043512E-07  0.2409624E+04  0.7818609E-02  0.8435909E-01
       -2   -1    0    0    0  501  0.00000000000E+00  0.00000000000E+00  0.97383212852E+03  0.97383212852E+03  0.25500000920E-02 0. -1.
        2   -1    0    0  501    0  0.00000000000E+00  0.00000000000E+00 -0.14905766307E+04  0.14905766307E+04  0.25500000920E-02 0.  1.
    10030    2    1    2    0    0  0.00000000000E+00  0.00000000000E+00 -0.51674450222E+03  0.24644087593E+04  0.24096235499E+04 0.  0.
        3    1    3    3  502    0  0.79639928681E+03 -0.25180983057E+03  0.62964969016E+03  0.10460013180E+04  0.10100000352E+00 0.  1.
       -3    1    3    3    0  502 -0.79639928681E+03  0.25180983057E+03 -0.11463941924E+04  0.14184074412E+04  0.10100000352E+00 0. -1.
</event>
<event>
 5   0  0.7570277E-07  0.2520680E+04  0.7818609E-02  0.8395655E-01
        2   -1    0    0  501    0  0.00000000000E+00  0.00000000000E+00  0.19013676943E+04  0.19013676943E+04  0.25500000920E-02 0. -1.
       -2   -1    0    0    0  501  0.00000000000E+00  0.00000000000E+00 -0.83542833694E+03  0.83542833695E+03  0.25500000920E-02 0.  1.
    10030    2    1    2    0    0  0.00000000000E+00  0.00000000000E+00  0.10659393574E+04  0.27367960313E+04  0.25206796312E+04 0.  0.
        5    1    3    3  502    0  0.38237944390E+03  0.51340392313E+03 -0.64576148438E+03  0.90930061702E+03  0.46999998093E+01 0.  1.
       -5    1    3    3    0  502 -0.38237944390E+03 -0.51340392313E+03  0.17117008418E+04  0.18274954143E+04  0.46999998093E+01 0. -1.
</event>
<event>
 5   0  0.2401125E-07  0.4013192E+04  0.7818609E-02  0.8001890E-01
       -1   -1    0    0    0  501  0.00000000000E+00  0.00000000000E+00  0.25550327453E+04  0.25550327453E+04  0.50400001928E-02 0.  1.
        1   -1    0    0  501    0  0.00000000000E+00  0.00000000000E+00 -0.15758813354E+04  0.15758813354E+04  0.50400001928E-02 0. -1.
    10030    2    1    2    0    0  0.00000000000E+00  0.00000000000E+00  0.97915140987E+03  0.41309140807E+04  0.40131924523E+04 0.  0.
        5    1    3    3  502    0 -0.28710343352E+03 -0.12573126376E+04 -0.10927692445E+04  0.16903934932E+04  0.46999998093E+01 0. -1.
       -5    1    3    3    0  502  0.28710343352E+03  0.12573126376E+04  0.20719206544E+04  0.24405205875E+04  0.46999998093E+01 0.  1.
</event>
<event>
 5   0  0.2401125E-07  0.2150333E+04  0.7818609E-02  0.8539390E-01
        1   -1    0    0  501    0  0.00000000000E+00  0.00000000000E+00  0.12608969021E+04  0.12608969021E+04  0.50400001928E-02 0. -1.
       -1   -1    0    0    0  501  0.00000000000E+00  0.00000000000E+00 -0.91679415439E+03  0.91679415441E+03  0.50400001928E-02 0.  1.
    10030    2    1    2    0    0  0.00000000000E+00  0.00000000000E+00  0.34410274767E+03  0.21776910565E+04  0.21503329129E+04 0.  0.
        5    1    3    3  502    0 -0.22229755509E+03  0.10495857039E+04  0.10105621298E+03  0.10776273943E+04  0.46999998093E+01 0.  1.
       -5    1    3    3    0  502  0.22229755509E+03 -0.10495857039E+04  0.24304653468E+03  0.11000636622E+04  0.46999998093E+01 0. -1.
</event>
<event>
 5   0  0.7256473E-07  0.4128513E+04  0.7818609E-02  0.7979112E-01
        2   -1    0    0  501    0  0.00000000000E+00  0.00000000000E+00  0.25393082053E+04  0.25393082054E+04  0.25500000920E-02 0.  1.
       -2   -1    0    0    0  501  0.00000000000E+00  0.00000000000E+00 -0.16780769742E+04  0.16780769742E+04  0.25500000920E-02 0. -1.
    10030    2    1    2    0    0  0.00000000000E+00  0.00000000000E+00  0.86123123117E+03  0.42173851795E+04  0.41285128701E+04 0.  0.
        4    1    3    3  502    0 -0.20002834360E+04  0.21132524684E+03  0.90467525890E+03  0.22055001975E+04  0.12699999809E+01 0.  1.
       -4    1    3    3    0  502  0.20002834360E+04 -0.21132524684E+03 -0.43444027724E+02  0.20118849820E+04  0.12699999809E+01 0. -1.
</event>
<event>
 5   0  0.2601252E-07  0.2408276E+04  0.7818609E-02  0.8436412E-01
        1   -1    0    0  501    0  0.00000000000E+00  0.00000000000E+00  0.17343709989E+04  0.17343709989E+04  0.50400001928E-02 0. -1.
       -1   -1    0    0    0  501  0.00000000000E+00  0.00000000000E+00 -0.83600828536E+03  0.83600828538E+03  0.50400001928E-02 0.  1.
    10030    2    1    2    0    0  0.00000000000E+00  0.00000000000E+00  0.89836271356E+03  0.25703792843E+04  0.24082761677E+04 0.  0.
        3    1    3    3  502    0 -0.11443813179E+04 -0.28907883784E+03  0.70349118565E+03  0.13740724266E+04  0.10100000352E+00 0. -1.
       -3    1    3    3    0  502  0.11443813179E+04  0.28907883784E+03  0.19487152791E+03  0.11963068577E+04  0.10100000352E+00 0.  1.
</event>
<event>
 5   0  0.6043512E-07  0.2341766E+04  0.7818609E-02  0.8461633E-01
        2   -1    0    0  501    0  0.00000000000E+00  0.00000000000E+00  0.15552101287E+04  0.15552101287E+04  0.25500000920E-02 0.  1.
       -2   -1    0    0    0  501  0.00000000000E+00  0.00000000000E+00 -0.88153135150E+03  0.88153135150E+03  0.25500000920E-02 0. -1.
    10030    2    1    2    0    0  0.00000000000E+00  0.00000000000E+00  0.67367877723E+03  0.24367414802E+04  0.23417655618E+04 0.  0.
        3    1    3    3  502    0 -0.54197981864E+03  0.34643655463E+03  0.13548885781E+04  0.14998278166E+04  0.10100000352E+00 0.  1.
       -3    1    3    3    0  502  0.54197981864E+03 -0.34643655463E+03 -0.68120980083E+03  0.93691366366E+03  0.10100000352E+00 0. -1.
</event>
<event>
 5   0  0.5161550E-07  0.4010461E+04  0.7818609E-02  0.8002440E-01
       -2   -1    0    0    0  501  0.00000000000E+00  0.00000000000E+00  0.15105114683E+04  0.15105114683E+04  0.25500000920E-02 0.  1.
        2   -1    0    0  501    0  0.00000000000E+00  0.00000000000E+00 -0.26619781619E+04  0.26619781620E+04  0.25500000920E-02 0. -1.
    10030    2    1    2    0    0  0.00000000000E+00  0.00000000000E+00 -0.11514666936E+04  0.41724896303E+04  0.40104605931E+04 0.  0.
        2    1    3    3  502    0 -0.14106744534E+04 -0.45328986876E+01  0.90694866182E+03  0.16770744873E+04  0.25500000920E-02 0.  1.
       -2    1    3    3    0  502  0.14106744534E+04  0.45328986876E+01 -0.20584153554E+04  0.24954151430E+04  0.25500000920E-02 0. -1.
</event>
<event>
 5   0  0.5161550E-07  0.2158493E+04  0.7818609E-02  0.8535906E-01
       -2   -1    0    0    0  501  0.00000000000E+00  0.00000000000E+00  0.10894428733E+04  0.10894428733E+04  0.25500000920E-02 0.  1.
        2   -1    0    0  501    0  0.00000000000E+00  0.00000000000E+00 -0.10691454413E+04  0.10691454413E+04  0.25500000920E-02 0. -1.
    10030    2    1    2    0    0  0.00000000000E+00  0.00000000000E+00  0.20297432031E+02  0.21585883146E+04  0.21584928830E+04 0.  0.
        2    1    3    3  502    0  0.41197132314E+03  0.53370545973E+03  0.85292614449E+03  0.10872188817E+04  0.25500000920E-02 0.  1.
       -2    1    3    3    0  502 -0.41197132314E+03 -0.53370545973E+03 -0.83262871246E+03  0.10713694329E+04  0.25500000920E-02 0. -1.
</event>
<event>
 5   0  0.5161550E-07  0.4131852E+04  0.7818609E-02  0.7978463E-01
       -2   -1    0    0    0  501  0.00000000000E+00  0.00000000000E+00  0.29006584466E+04  0.29006584466E+04  0.25500000920E-02 0.  1.
        2   -1    0    0  501    0  0.00000000000E+00  0.00000000000E+00 -0.14714077151E+04  0.14714077151E+04  0.25500000920E-02 0. -1.
    10030    2    1    2    0    0  0.00000000000E+00  0.00000000000E+00  0.14292507315E+04  0.43720661618E+04  0.41318524743E+04 0.  0.
        2    1    3    3  502    0  0.12629704530E+03  0.19689659770E+04  0.13628353642E+04  0.23979362361E+04  0.25500000920E-02 0.  1.
       -2    1    3    3    0  502 -0.12629704530E+03 -0.19689659770E+04  0.66415367274E+02  0.19741299257E+04  0.25500000920E-02 0. -1.
</event>
<event>
 5   0  0.5161550E-07  0.2775222E+04  0.7818609E-02  0.8311002E-01
       -2   -1    0    0    0  501  0.00000000000E+00  0.00000000000E+00  0.15157553937E+04  0.15157553937E+04  0.25500000920E-02 0.  1.
        2   -1    0    0  501    0  0.00000000000E+00  0.00000000000E+00 -0.12703004878E+04  0.12703004878E+04  0.25500000920E-02 0. -1.
    10030    2    1    2    0    0  0.00000000000E+00  0.00000000000E+00  0.24545490597E+03  0.27860558815E+04  0.27752223810E+04 0.  0.
        2    1    3    3  502    0 -0.23692020423E+02  0.11248712453E+04 -0.69258088442E+03  0.13211982863E+04  0.25500000920E-02 0. -1.
       -2    1    3    3    0  502  0.23692020423E+02 -0.11248712453E+04  0.93803579039E+03  0.14648575952E+04  0.25500000920E-02 0.  1.
</event>
<event>
 5   0  0.5161550E-07  0.3926231E+04  0.7818609E-02  0.8019596E-01
       -2   -1    0    0    0  501  0.00000000000E+00  0.00000000000E+00  0.12758306754E+04  0.12758306754E+04  0.25500000920E-02 0. -1.
        2   -1    0    0  501    0  0.00000000000E+00  0.00000000000E+00 -0.30206376103E+04  0.30206376103E+04  0.25500000920E-02 0.  1.
    10030    2    1    2    0    0  0.00000000000E+00  0.00000000000E+00 -0.17448069349E+04  0.42964682856E+04  0.39262308248E+04 0.  0.
        2    1    3    3  502    0 -0.53694723554E+03  0.33541191297E+03 -0.29058586940E+04  0.29740255941E+04  0.25500000920E-02 0.  1.
       -2    1    3    3    0  502  0.53694723554E+03 -0.33541191297E+03  0.11610517591E+04  0.13224426915E+04  0.25500000920E-02 0. -1.
</event>
<event>
 5   0  0.4449262E-07  0.4144970E+04  0.7818609E-02  0.7975923E-01
        2   -1    0    0  501    0  0.00000000000E+00  0.00000000000E+00  0.26083336372E+04  0.26083336372E+04  0.25500000920E-02 0.  1.
       -2   -1    0    0    0  501  0.00000000000E+00  0.00000000000E+00 -0.16467198038E+04  0.16467198038E+04  0.25500000920E-02 0. -1.
    10030    2    1    2    0    0  0.00000000000E+00  0.00000000000E+00  0.96161383342E+03  0.42550534410E+04  0.41449702799E+04 0.  0.
        1    1    3    3  502    0 -0.55349192251E+03  0.19686285141E+04  0.82641284251E+03  0.22056313657E+04  0.50400001928E-02 0.  1.
       -1    1    3    3    0  502  0.55349192251E+03 -0.19686285141E+04  0.13520099091E+03  0.20494220753E+04  0.50400001928E-02 0. -1.
</event>
<event>
 5   0  0.7570277E-07  0.3736059E+04  0.7818609E-02  0.8060017E-01
        2   -1    0    0  501    0  0.00000000000E+00  0.00000000000E+00  0.15775959684E+04  0.15775959684E+04  0.25500000920E-02 0.  1.
       -2   -1    0    0    0  501  0.00000000000E+00  0.00000000000E+00 -0.22119318708E+04  0.22119318708E+04  0.25500000920E-02 0. -1.
    10030    2    1    2    0    0  0.00000000000E+00  0.00000000000E+00 -0.63433590237E+03  0.37895278393E+04  0.37360593153E+04 0.  0.
        5    1    3    3  502    0 -0.15467739293E+04 -0.10292561320E+04 -0.12039430089E+03  0.18618256233E+04  0.46999998093E+01 0.  1.
       -5    1    3    3    0  502  0.15467739293E+04  0.10292561320E+04 -0.51394160149E+03  0.19277022160E+04  0.46999998093E+01 0. -1.
</event>
<event>
 5   0  0.3579559E-07  0.4035510E+04  0.7818609E-02  0.7997421E-01
       -1   -1    0    0    0  501  0.00000000000E+00  0.00000000000E+00  0.21663099524E+04  0.21663099524E+04  0.50400001928E-02 0. -1.
        1   -1    0    0  501    0  0.00000000000E+00  0.00000000000E+00 -0.18793875964E+04  0.18793875964E+04  0.50400001928E-02 0.  1.
    10030    2    1    2    0    0  0.00000000000E+00  0.00000000000E+00  0.28692235605E+03  0.40456975488E+04  0.40355104037E+04 0.  0.
        4    1    3    3  502    0  0.11643677739E+04  0.43885451435E+03 -0.14489404252E+04  0.19099150679E+04  0.12699999809E+01 0.  1.
       -4    1    3    3    0  502 -0.11643677739E+04 -0.43885451435E+03  0.17358627813E+04  0.21357824810E+04  0.12699999809E+01 0. -1.
</event>
<event>
 5   0  0.2713405E-07  0.2242318E+04  0.7818609E-02  0.8501018E-01
       -1   -1    0    0    0  501  0.00000000000E+00  0.00000000000E+00  0.13272512844E+04  0.13272512844E+04  0.50400001928E-02 0.  1.
        1   -1    0    0  501    0  0.00000000000E+00  0.00000000000E+00 -0.94706819721E+03  0.94706819722E+03  0.50400001928E-02 0. -1.
    10030    2    1    2    0    0  0.00000000000E+00  0.00000000000E+00  0.38018308716E+03  0.22743194816E+04  0.22423179803E+04 0.  0.
        1    1    3    3  502    0  0.82062668744E+03  0.30918377263E+02 -0.58409300153E+03  0.10077443826E+04  0.50400001928E-02 0. -1.
       -1    1    3    3    0  502 -0.82062668744E+03 -0.30918377263E+02  0.96427608869E+03  0.12665750990E+04  0.50400001928E-02 0.  1.
</event>
<event>
 5   0  0.2401125E-07  0.2082866E+04  0.7818609E-02  0.8568829E-01
       -1   -1    0    0    0  501  0.00000000000E+00  0.00000000000E+00  0.10792514865E+04  0.10792514865E+04  0.50400001928E-02 0.  1.
        1   -1    0    0  501    0  0.00000000000E+00  0.00000000000E+00 -0.10049398682E+04  0.10049398683E+04  0.50400001928E-02 0. -1.
    10030    2    1    2    0    0  0.00000000000E+00  0.00000000000E+00  0.74311618276E+02  0.20841913548E+04  0.20828661471E+04 0.  0.
        5    1    3    3  502    0  0.33889603945E+03 -0.88453399125E+03 -0.39591263143E+03  0.10266546688E+04  0.46999998093E+01 0. -1.
       -5    1    3    3    0  502 -0.33889603945E+03  0.88453399125E+03  0.47022424971E+03  0.10575366860E+04  0.46999998093E+01 0.  1.
</event>
<event>
 5   0  0.7570277E-07  0.2120743E+04  0.7818609E-02  0.8552161E-01
       -2   -1    0    0    0  501  0.00000000000E+00  0.00000000000E+00  0.68587059022E+03  0.68587059023E+03  0.25500000920E-02 0. -1.
        2   -1    0    0  501    0  0.00000000000E+00  0.00000000000E+00 -0.16393578232E+04  0.16393578232E+04  0.25500000920E-02 0.  1.
    10030    2    1    2    0    0  0.00000000000E+00  0.00000000000E+00 -0.95348723294E+03  0.23252284134E+04  0.21207426225E+04 0.  0.
        5    1    3    3  502    0  0.36073976383E+03  0.76805181146E+03 -0.11739234481E+04  0.14485009887E+04  0.46999998093E+01 0.  1.
       -5    1    3    3    0  502 -0.36073976383E+03 -0.76805181146E+03  0.22043621512E+03  0.87672742471E+03  0.46999998093E+01 0. -1.
</event>
<event>
 5   0  0.2713405E-07  0.3855662E+04  0.7818609E-02  0.8034314E-01
       -1   -1    0    0    0  501  0.00000000000E+00  0.00000000000E+00  0.13404890736E+04  0.13404890736E+04  0.50400001928E-02 0.  1.
        1   -1    0    0  501    0  0.00000000000E+00  0.00000000000E+00 -0.27725192618E+04  0.27725192618E+04  0.50400001928E-02 0. -1.
    10030    2    1    2    0    0  0.00000000000E+00  0.00000000000E+00 -0.14320301882E+04  0.41130083354E+04  0.38556616952E+04 0.  0.
        1    1    3    3  502    0  0.16240222098E+04  0.96481403249E+03 -0.30532857984E+03  0.19135150371E+04  0.50400001928E-02 0.  1.
       -1    1    3    3    0  502 -0.16240222098E+04 -0.96481403249E+03 -0.11267016083E+04  0.21994932984E+04  0.50400001928E-02 0. -1.
</event>
<event>
 5   0  0.5161550E-07  0.3958134E+04  0.7818609E-02  0.8013046E-01
        2   -1    0    0  501    0  0.00000000000E+00  0.00000000000E+00  0.22955572102E+04  0.22955572102E+04  0.25500000920E-02 0. -1.
       -2   -1    0    0    0  501  0.00000000000E+00  0.00000000000E+00 -0.17062117338E+04  0.17062117339E+04  0.25500000920E-02 0.  1.
    10030    2    1    2    0    0  0.00000000000E+00  0.00000000000E+00  0.58934547634E+03  0.40017689440E+04  0.39581342310E+04 0.  0.
        2    1    3    3  502    0 -0.92734515855E+03 -0.15201276722E+04  0.11678776996E+04  0.21294824498E+04  0.25500000920E-02 0. -1.
       -2    1    3    3    0  502  0.92734515855E+03  0.15201276722E+04 -0.57853222326E+03  0.18722864942E+04  0.25500000920E-02 0.  1.
</event>
<event>
 5   0  0.5161550E-07  0.3978904E+04  0.7818609E-02  0.8008816E-01
       -2   -1    0    0    0  501  0.00000000000E+00  0.00000000000E+00  0.14460218325E+04  0.14460218325E+04  0.25500000920E-02 0.  1.
        2   -1    0    0  501    0  0.00000000000E+00  0.00000000000E+00 -0.27371091534E+04  0.27371091534E+04  0.25500000920E-02 0. -1.
    10030    2    1    2    0    0  0.00000000000E+00  0.00000000000E+00 -0.12910873209E+04  0.41831309859E+04  0.39789041676E+04 0.  0.
        2    1    3    3  502    0 -0.51539369037E+03  0.90009146920E+03 -0.24303633035E+04  0.26424346909E+04  0.25500000920E-02 0. -1.
       -2    1    3    3    0  502  0.51539369037E+03 -0.90009146920E+03  0.11392759826E+04  0.15406962950E+04  0.25500000920E-02 0.  1.
</event>
<event>
 5   0  0.5161550E-07  0.2311965E+04  0.7818609E-02  0.8473218E-01
        2   -1    0    0  501    0  0.00000000000E+00  0.00000000000E+00  0.89025620295E+03  0.89025620295E+03  0.25500000920E-02 0. -1.
       -2   -1    0    0    0  501  0.00000000000E+00  0.00000000000E+00 -0.15010238275E+04  0.15010238275E+04  0.25500000920E-02 0.  1.
    10030    2    1    2    0    0  0.00000000000E+00  0.00000000000E+00 -0.61076762452E+03  0.23912800304E+04  0.23119652014E+04 0.  0.
        2    1    3    3  502    0 -0.26589457850E+03  0.50532626757E+03  0.73420520838E+03  0.93011389174E+03  0.25500000920E-02 0. -1.
       -2    1    3    3    0  502  0.26589457850E+03 -0.50532626757E+03 -0.13449728329E+04  0.14611661387E+04  0.25500000920E-02 0.  1.
</event>
<event>
 5   0  0.2401125E-07  0.2709609E+04  0.7818609E-02  0.8331894E-01
       -1   -1    0    0    0  501  0.00000000000E+00  0.00000000000E+00  0.11446707851E+04  0.11446707852E+04  0.50400001928E-02 0. -1.
        1   -1    0    0  501    0  0.00000000000E+00  0.00000000000E+00 -0.16035137188E+04  0.16035137188E+04  0.50400001928E-02 0.  1.
    10030    2    1    2    0    0  0.00000000000E+00  0.00000000000E+00 -0.45884293366E+03  0.27481845040E+04  0.27096090548E+04 0.  0.
        5    1    3    3  502    0  0.13289438840E+03 -0.80804731895E+03  0.86523619922E+03  0.11913257987E+04  0.46999998093E+01 0. -1.
       -5    1    3    3    0  502 -0.13289438840E+03  0.80804731895E+03 -0.13240791329E+04  0.15568587053E+04  0.46999998093E+01 0.  1.
</event>
<event>
 5   0  0.2647879E-07  0.2086558E+04  0.7818609E-02  0.8567188E-01
       -1   -1    0    0    0  501  0.00000000000E+00  0.00000000000E+00  0.51682602875E+03  0.51682602877E+03  0.50400001928E-02 0. -1.
        1   -1    0    0  501    0  0.00000000000E+00  0.00000000000E+00 -0.21059904011E+04  0.21059904011E+04  0.50400001928E-02 0.  1.
    10030    2    1    2    0    0  0.00000000000E+00  0.00000000000E+00 -0.15891643723E+04  0.26228164298E+04  0.20865576010E+04 0.  0.
        2    1    3    3  502    0 -0.18915376964E+03  0.86743372182E+03 -0.14833142023E+04  0.17287109166E+04  0.25500000920E-02 0.  1.
       -2    1    3    3    0  502  0.18915376964E+03 -0.86743372182E+03 -0.10585016998E+03  0.89410551324E+03  0.25500000920E-02 0. -1.
</event>
<event>
 5   0  0.2713405E-07  0.3474793E+04  0.7818609E-02  0.8119790E-01
        1   -1    0    0  501    0  0.00000000000E+00  0.00000000000E+00  0.19268208468E+04  0.19268208468E+04  0.50400001928E-02 0.  1.
       -1   -1    0    0    0  501  0.00000000000E+00  0.00000000000E+00 -0.15665940996E+04  0.15665940997E+04  0.50400001928E-02 0. -1.
    10030    2    1    2    0    0  0.00000000000E+00  0.00000000000E+00  0.36022674713E+03  0.34934149464E+04  0.34747927533E+04 0.  0.
        1    1    3    3  502    0 -0.70890684263E+03 -0.98170482012E+03  0.14326848204E+04  0.18758675486E+04  0.50400001928E-02 0.  1.
       -1    1    3    3    0  502  0.70890684263E+03  0.98170482012E+03 -0.10724580732E+04  0.16175473978E+04  0.50400001928E-02 0. -1.
</event>
<event>
 5   0  0.2401125E-07  0.2180154E+04  0.7818609E-02  0.8526734E-01
        1   -1    0    0  501    0  0.00000000000E+00  0.00000000000E+00  0.19290381133E+04  0.19290381133E+04  0.50400001928E-02 0.  1.
       -1   -1    0    0    0  501  0.00000000000E+00  0.00000000000E+00 -0.61598975060E+03  0.61598975062E+03  0.50400001928E-02 0. -1.
    10030    2    1    2    0    0  0.00000000000E+00  0.00000000000E+00  0.13130483627E+04  0.25450278639E+04  0.21801538536E+04 0.  0.
        5    1    3    3  502    0 -0.61216279198E+03 -0.77364377850E+03  0.11977793299E+04  0.15517620285E+04  0.46999998093E+01 0.  1.
       -5    1    3    3    0  502  0.61216279198E+03  0.77364377850E+03  0.11526903277E+03  0.99326583542E+03  0.46999998093E+01 0. -1.
</event>
<event>
 5   0  0.2647879E-07  0.4056407E+04  0.7818609E-02  0.7993263E-01
        1   -1    0    0  501    0  0.00000000000E+00  0.00000000000E+00  0.16529112034E+04  0.16529112034E+04  0.50400001928E-02 0.  1.
       -1   -1    0    0    0  501  0.00000000000E+00  0.00000000000E+00 -0.24887060493E+04  0.24887060493E+04  0.50400001928E-02 0. -1.
    10030    2    1    2    0    0  0.00000000000E+00  0.00000000000E+00 -0.83579484587E+03  0.41416172527E+04  0.40564073321E+04 0.  0.
        2    1    3    3  502    0 -0.13117213214E+04  0.44352746561E+03 -0.19310137657E+04  0.23761615268E+04  0.25500000920E-02 0. -1.
       -2    1    3    3    0  502  0.13117213214E+04 -0.44352746561E+03  0.10952189199E+04  0.17654557260E+04  0.25500000920E-02 0.  1.
</event>
<event>
 5   0  0.7570277E-07  0.2795882E+04  0.7818609E-02  0.8304548E-01
       -2   -1    0    0    0  501  0.00000000000E+00  0.00000000000E+00  0.12566039833E+04  0.12566039833E+04  0.25500000920E-02 0.  1.
        2   -1    0    0  501    0  0.00000000000E+00  0.00000000000E+00 -0.15551749859E+04  0.15551749859E+04  0.25500000920E-02 0. -1.
    10030    2    1    2    0    0  0.00000000000E+00  0.00000000000E+00 -0.29857100259E+03  0.28117789692E+04  0.27958820305E+04 0.  0.
        5    1    3    3  502    0  0.74568945194E+03 -0.37168654261E+02  0.10392899687E+04  0.12796796461E+04  0.46999998093E+01 0.  1.
       -5    1    3    3    0  502 -0.74568945194E+03  0.37168654261E+02 -0.13378609713E+04  0.15320993232E+04  0.46999998093E+01 0. -1.
</event>
<event>
 5   0  0.4449262E-07  0.2994503E+04  0.7818609E-02  0.8245302E-01
        2   -1    0    0  501    0  0.00000000000E+00  0.00000000000E+00  0.16650525481E+04  0.16650525481E+04  0.25500000920E-02 0.  1.
       -2   -1    0    0    0  501  0.00000000000E+00  0.00000000000E+00 -0.13463609856E+04  0.13463609856E+04  0.25500000920E-02 0. -1.
    10030    2    1    2    0    0  0.00000000000E+00  0.00000000000E+00  0.31869156249E+03  0.30114135337E+04  0.29945028233E+04 0.  0.
        1    1    3    3  502    0 -0.49958816970E+03 -0.13740499782E+04  0.48390681725E+03  0.15400543788E+04  0.50400001928E-02 0. -1.
       -1    1    3    3    0  502  0.49958816970E+03  0.13740499782E+04 -0.16521525477E+03  0.14713591548E+04  0.50400001928E-02 0.  1.
</event>
<event>
 5   0  0.5161550E-07  0.3312004E+04  0.7818609E-02  0.8159848E-01
       -2   -1    0    0    0  501  0.00000000000E+00  0.00000000000E+00  0.15771326260E+04  0.15771326260E+04  0.25500000920E-02 0.  1.
        2   -1    0    0  501    0  0.00000000000E+00  0.00000000000E+00 -0.17388154542E+04  0.17388154542E+04  0.25500000920E-02 0. -1.
    10030    2    1    2    0    0  0.00000000000E+00  0.00000000000E+00 -0.16168282821E+03  0.33159480803E+04  0.33120039756E+04 0.  0.
        2    1    3    3  502    0 -0.14973165561E+03 -0.15183403651E+04 -0.72547581468E+03  0.16894058691E+04  0.25500000920E-02 0. -1.
       -2    1    3    3    0  502  0.14973165561E+03  0.15183403651E+04  0.56379298647E+03  0.16265422111E+04  0.25500000920E-02 0.  1.
</event>
<event>
 5   0  0.4449262E-07  0.2724142E+04  0.7818609E-02  0.8327214E-01
       -2   -1    0    0    0  501  0.00000000000E+00  0.00000000000E+00  0.94679568980E+03  0.94679568980E+03  0.25500000920E-02 0. -1.
        2   -1    0    0  501    0  0.00000000000E+00  0.00000000000E+00 -0.19594903869E+04  0.19594903869E+04  0.25500000920E-02 0.  1.
    10030    2    1    2    0    0  0.00000000000E+00  0.00000000000E+00 -0.10126946971E+04  0.29062860767E+04  0.27241417382E+04 0.  0.
        1    1    3    3  502    0 -0.11243767405E+04 -0.31853572162E+03 -0.12528076937E+04  0.17132469693E+04  0.50400001928E-02 0.  1.
       -1    1    3    3    0  502  0.11243767405E+04  0.31853572162E+03  0.24011299665E+03  0.11930391073E+04  0.50400001928E-02 0. -1.
</event>
<event>
 5   0  0.6043512E-07  0.3773440E+04  0.7818609E-02  0.8051879E-01
       -2   -1    0    0    0  501  0.00000000000E+00  0.00000000000E+00  0.12451616547E+04  0.12451616547E+04  0.25500000920E-02 0. -1.
        2   -1    0    0  501    0  0.00000000000E+00  0.00000000000E+00 -0.28588359370E+04  0.28588359370E+04  0.25500000920E-02 0.  1.
    10030    2    1    2    0    0  0.00000000000E+00  0.00000000000E+00 -0.16136742823E+04  0.41039975917E+04  0.37734402795E+04 0.  0.
        3    1    3    3  502    0 -0.13109440018E+04 -0.13059829694E+04 -0.40641796729E+03  0.18945556910E+04  0.10100000352E+00 0. -1.
       -3    1    3    3    0  502  0.13109440018E+04  0.13059829694E+04 -0.12072563150E+04  0.22094419007E+04  0.10100000352E+00 0.  1.
</event>
<event>
 5   0  0.2401125E-07  0.4034879E+04  0.7818609E-02  0.7997547E-01
       -1   -1    0    0    0  501  0.00000000000E+00  0.00000000000E+00  0.28139327671E+04  0.28139327671E+04  0.50400001928E-02 0.  1.
        1   -1    0    0  501    0  0.00000000000E+00  0.00000000000E+00 -0.14463962155E+04  0.14463962155E+04  0.50400001928E-02 0. -1.
    10030    2    1    2    0    0  0.00000000000E+00  0.00000000000E+00  0.13675365516E+04  0.42603289825E+04  0.40348787862E+04 0.  0.
        5    1    3    3  502    0  0.48528043673E+02 -0.15929345984E+04 -0.62238152386E+03  0.17108993124E+04  0.46999998093E+01 0. -1.
       -5    1    3    3    0  502 -0.48528043673E+02  0.15929345984E+04  0.19899180755E+04  0.25494296701E+04  0.46999998093E+01 0.  1.
</event>
<event>
 5   0  0.2601252E-07  0.3981731E+04  0.7818609E-02  0.8008242E-01
        1   -1    0    0  501    0  0.00000000000E+00  0.00000000000E+00  0.26865456196E+04  0.26865456196E+04  0.50400001928E-02 0. -1.
       -1   -1    0    0    0  501  0.00000000000E+00  0.00000000000E+00 -0.14753317417E+04  0.14753317417E+04  0.50400001928E-02 0.  1.
    10030    2    1    2    0    0  0.00000000000E+00  0.00000000000E+00  0.12112138779E+04  0.41618773614E+04  0.39817312960E+04 0.  0.
        3    1    3    3  502    0  0.16645122312E+03 -0.41379589383E+03 -0.14224376390E+04  0.14907252927E+04  0.10100000352E+00 0.  1.
       -3    1    3    3    0  502 -0.16645122312E+03  0.41379589383E+03  0.26336515169E+04  0.26711520687E+04  0.10100000352E+00 0. -1.
</event>
<event>
 5   0  0.2401125E-07  0.4043716E+04  0.7818609E-02  0.7995785E-01
        1   -1    0    0  501    0  0.00000000000E+00  0.00000000000E+00  0.15813477125E+04  0.15813477125E+04  0.50400001928E-02 0. -1.
       -1   -1    0    0    0  501  0.00000000000E+00  0.00000000000E+00 -0.25850797018E+04  0.25850797018E+04  0.50400001928E-02 0.  1.
    10030    2    1    2    0    0  0.00000000000E+00  0.00000000000E+00 -0.10037319893E+04  0.41664274143E+04  0.40437160499E+04 0.  0.
        5    1    3    3  502    0 -0.10477572802E+04 -0.27350983025E+03  0.12573682298E+04  0.16593974511E+04  0.46999998093E+01 0. -1.
       -5    1    3    3    0  502  0.10477572802E+04  0.27350983025E+03 -0.22611002191E+04  0.25070299632E+04  0.46999998093E+01 0.  1.
</event>
<event>
 5   0  0.7570277E-07  0.4013989E+04  0.7818609E-02  0.8001730E-01
       -2   -1    0    0    0  501  0.00000000000E+00  0.00000000000E+00  0.18582740368E+04  0.18582740368E+04  0.25500000920E-02 0.  1.
        2   -1    0    0  501    0  0.00000000000E+00  0.00000000000E+00 -0.21676174542E+04  0.21676174542E+04  0.25500000920E-02 0. -1.
    10030    2    1    2    0    0  0.00000000000E+00  0.00000000000E+00 -0.30934341737E+03  0.40258914910E+04  0.40139891564E+04 0.  0.
        5    1    3    3  502    0 -0.39262391916E+03 -0.90294647904E+03  0.15993820524E+04  0.18781669056E+04  0.46999998093E+01 0.  1.
       -5    1    3    3    0  502  0.39262391916E+03  0.90294647904E+03 -0.19087254697E+04  0.21477245854E+04  0.46999998093E+01 0. -1.
</event>
<event>
 5   0  0.2601252E-07  0.4021735E+04  0.7818609E-02  0.8000176E-01
        1   -1    0    0  501    0  0.00000000000E+00  0.00000000000E+00  0.30440318570E+04  0.30440318570E+04  0.50400001928E-02 0. -1.
       -1   -1    0    0    0  501  0.00000000000E+00  0.00000000000E+00 -0.13283658040E+04  0.13283658040E+04  0.50400001928E-02 0.  1.
    10030    2    1    2    0    0  0.00000000000E+00  0.00000000000E+00  0.17156660531E+04  0.43723976610E+04  0.40217348620E+04 0.  0.
        3    1    3    3  502    0  0.19001535048E+03 -0.22642617522E+03 -0.13046168992E+04  0.13376845331E+04  0.10100000352E+00 0.  1.
       -3    1    3    3    0  502 -0.19001535048E+03  0.22642617522E+03  0.30202829523E+04  0.30347131279E+04  0.10100000352E+00 0. -1.
</event>
<event>
 5   0  0.5161550E-07  0.3982921E+04  0.7818609E-02  0.8008001E-01
       -2   -1    0    0    0  501  0.00000000000E+00  0.00000000000E+00  0.22736443732E+04  0.22736443732E+04  0.25500000920E-02 0.  1.
        2   -1    0    0  501    0  0.00000000000E+00  0.00000000000E+00 -0.17442985887E+04  0.17442985887E+04  0.25500000920E-02 0. -1.
    10030    2    1    2    0    0  0.00000000000E+00  0.00000000000E+00  0.52934578446E+03  0.40179429619E+04  0.39829208736E+04 0.  0.
        2    1    3    3  502    0  0.33822269684E+03  0.12662113983E+03 -0.17109877835E+04  0.17486871364E+04  0.25500000920E-02 0. -1.
       -2    1    3    3    0  502 -0.33822269684E+03 -0.12662113983E+03  0.22403335680E+04  0.22692558255E+04  0.25500000920E-02 0.  1.
</event>
<event>
 5   0  0.7256473E-07  0.3466584E+04  0.7818609E-02  0.8121755E-01
       -2   -1    0    0    0  501  0.00000000000E+00  0.00000000000E+00  0.13898621213E+04  0.13898621213E+04  0.25500000920E-02 0. -1.
        2   -1    0    0  501    0  0.00000000000E+00  0.00000000000E+00 -0.21615818407E+04  0.21615818407E+04  0.25500000920E-02 0.  1.
    10030    2    1    2    0    0  0.00000000000E+00  0.00000000000E+00 -0.77171971942E+03  0.35514439619E+04  0.34665837491E+04 0.  0.
        4    1    3    3  502    0  0.69247007155E+03  0.33658721597E+02  0.12416287273E+04  0.14220728599E+04  0.12699999809E+01 0. -1.
       -4    1    3    3    0  502 -0.69247007155E+03 -0.33658721597E+02 -0.20133484467E+04  0.21293711020E+04  0.12699999809E+01 0.  1.
</event>
<event>
 5   0  0.7256473E-07  0.3952498E+04  0.7818609E-02  0.8014198E-01
       -2   -1    0    0    0  501  0.00000000000E+00  0.00000000000E+00  0.13085540259E+04  0.13085540259E+04  0.25500000920E-02 0. -1.
        2   -1    0    0  501    0  0.00000000000E+00  0.00000000000E+00 -0.29846384668E+04  0.29846384668E+04  0.25500000920E-02 0.  1.
    10030    2    1    2    0    0  0.00000000000E+00  0.00000000000E+00 -0.16760844408E+04  0.42931924927E+04  0.39524982893E+04 0.  0.
        4    1    3    3  502    0  0.10227484571E+03 -0.18782205728E+04 -0.14964124903E+04  0.24036273875E+04  0.12699999809E+01 0.  1.
       -4    1    3    3    0  502 -0.10227484571E+03  0.18782205728E+04 -0.17967195053E+03  0.18895651052E+04  0.12699999809E+01 0. -1.
</event>
<event>
 5   0  0.4449262E-07  0.4078317E+04  0.7818609E-02  0.7988931E-01
       -2   -1    0    0    0  501  0.00000000000E+00  0.00000000000E+00  0.19175723324E+04  0.19175723324E+04  0.25500000920E-02 0. -1.
        2   -1    0    0  501    0  0.00000000000E+00  0.00000000000E+00 -0.21684539173E+04  0.21684539173E+04  0.25500000920E-02 0.  1.
    10030    2    1    2    0    0  0.00000000000E+00  0.00000000000E+00 -0.25088158488E+03  0.40860262497E+04  0.40783169253E+04 0.  0.
        1    1    3    3  502    0 -0.22582141668E+03  0.14688969871E+04  0.12734483884E+04  0.19571214753E+04  0.50400001928E-02 0. -1.
       -1    1    3    3    0  502  0.22582141668E+03 -0.14688969871E+04 -0.15243299733E+04  0.21289047744E+04  0.50400001928E-02 0.  1.
</event>
<event>
 5   0  0.3092241E-07  0.2093905E+04  0.7818609E-02  0.8563933E-01
       -1   -1    0    0    0  501  0.00000000000E+00  0.00000000000E+00  0.11128462527E+04  0.11128462528E+04  0.50400001928E-02 0. -1.
        1   -1    0    0  501    0  0.00000000000E+00  0.00000000000E+00 -0.98496068692E+03  0.98496068694E+03  0.50400001928E-02 0.  1.
    10030    2    1    2    0    0  0.00000000000E+00  0.00000000000E+00  0.12788556582E+03  0.20978069397E+04  0.20939052601E+04 0.  0.
        2    1    3    3  502    0  0.38759372559E+03  0.67556215872E+03  0.76488685385E+03  0.10916341079E+04  0.25500000920E-02 0. -1.
       -2    1    3    3    0  502 -0.38759372559E+03 -0.67556215872E+03 -0.63700128803E+03  0.10061728318E+04  0.25500000920E-02 0.  1.
</event>
<event>
 5   0  0.4449262E-07  0.2944391E+04  0.7818609E-02  0.8259791E-01
       -2   -1    0    0    0  501  0.00000000000E+00  0.00000000000E+00  0.11300677523E+04  0.11300677523E+04  0.25500000920E-02 0. -1.
        2   -1    0    0  501    0  0.00000000000E+00  0.00000000000E+00 -0.19179021522E+04  0.19179021522E+04  0.25500000920E-02 0.  1.
    10030    2    1    2    0    0  0.00000000000E+00  0.00000000000E+00 -0.78783439988E+03  0.30479699045E+04  0.29443908533E+04 0.  0.
        1    1    3    3  502    0 -0.12363542403E+04 -0.39408884583E+03 -0.11137061358E+04  0.17100348484E+04  0.50400001928E-02 0.  1.
       -1    1    3    3    0  502  0.12363542403E+04  0.39408884583E+03  0.32587173593E+03  0.13379350561E+04  0.50400001928E-02 0. -1.
</event>
<event>
 5   0  0.7570277E-07  0.4130267E+04  0.7818609E-02  0.7978771E-01
        2   -1    0    0  501    0  0.00000000000E+00  0.00000000000E+00  0.12174545413E+04  0.12174545413E+04  0.25500000920E-02 0. -1.
       -2   -1    0    0    0  501  0.00000000000E+00  0.00000000000E+00 -0.35030266008E+04  0.35030266008E+04  0.25500000920E-02 0.  1.
    10030    2    1    2    0    0  0.00000000000E+00  0.00000000000E+00 -0.22855720595E+04  0.47204811421E+04  0.41302666468E+04 0.  0.
        5    1    3    3  502    0  0.17003616573E+04  0.10598646624E+04 -0.17144766974E+04  0.26370429090E+04  0.46999998093E+01 0.  1.
       -5    1    3    3    0  502 -0.17003616573E+04 -0.10598646624E+04 -0.57109536208E+03  0.20834382330E+04  0.46999998093E+01 0. -1.
</event>
<event>
 5   0  0.6043512E-07  0.3821511E+04  0.7818609E-02  0.8041554E-01
       -2   -1    0    0    0  501  0.00000000000E+00  0.00000000000E+00  0.12607521659E+04  0.12607521659E+04  0.25500000920E-02 0. -1.
        2   -1    0    0  501    0  0.00000000000E+00  0.00000000000E+00 -0.28958789411E+04  0.28958789411E+04  0.25500000920E-02 0.  1.
    10030    2    1    2    0    0  0.00000000000E+00  0.00000000000E+00 -0.16351267752E+04  0.41566311070E+04  0.38215105114E+04 0.  0.
        3    1    3    3  502    0  0.43463100315E+03 -0.84944707345E+03 -0.26181872770E+04  0.27866411801E+04  0.10100000352E+00 0.  1.
       -3    1    3    3    0  502 -0.43463100315E+03  0.84944707345E+03  0.98306050175E+03  0.13699899269E+04  0.10100000352E+00 0. -1.
</event>
<event>
 5   0  0.4449262E-07  0.3203270E+04  0.7818609E-02  0.8187954E-01
       -2   -1    0    0    0  501  0.00000000000E+00  0.00000000000E+00  0.17644291588E+04  0.17644291588E+04  0.25500000920E-02 0. -1.
        2   -1    0    0  501    0  0.00000000000E+00  0.00000000000E+00 -0.14538609871E+04  0.14538609871E+04  0.25500000920E-02 0.  1.
    10030    2    1    2    0    0  0.00000000000E+00  0.00000000000E+00  0.31056817165E+03  0.32182901459E+04  0.32032700283E+04 0.  0.
        1    1    3    3  502    0  0.94018526872E+03  0.52782867499E+03 -0.10346186242E+04  0.14943182884E+04  0.50400001928E-02 0.  1.
       -1    1    3    3    0  502 -0.94018526872E+03 -0.52782867499E+03  0.13451867958E+04  0.17239718575E+04  0.50400001928E-02 0. -1.
</event>
<event>
 5   0  0.7570277E-07  0.4058559E+04  0.7818609E-02  0.7992836E-01
        2   -1    0    0  501    0  0.00000000000E+00  0.00000000000E+00  0.23007344882E+04  0.23007344882E+04  0.25500000920E-02 0. -1.
       -2   -1    0    0    0  501  0.00000000000E+00  0.00000000000E+00 -0.17898525925E+04  0.17898525925E+04  0.25500000920E-02 0.  1.
    10030    2    1    2    0    0  0.00000000000E+00  0.00000000000E+00  0.51088189572E+03  0.40905870806E+04  0.40585591474E+04 0.  0.
        5    1    3    3  502    0 -0.18568684164E+04 -0.21790708479E+03 -0.53977818224E+03  0.19459769756E+04  0.46999998093E+01 0.  1.
       -5    1    3    3    0  502  0.18568684164E+04  0.21790708479E+03  0.10506600780E+04  0.21446101051E+04  0.46999998093E+01 0. -1.
</event>
<event>
 5   0  0.7570277E-07  0.2915397E+04  0.7818609E-02  0.8268311E-01
       -2   -1    0    0    0  501  0.00000000000E+00  0.00000000000E+00  0.13254835754E+04  0.13254835754E+04  0.25500000920E-02 0.  1.
        2   -1    0    0  501    0  0.00000000000E+00  0.00000000000E+00 -0.16031016838E+04  0.16031016838E+04  0.25500000920E-02 0. -1.
    10030    2    1    2    0    0  0.00000000000E+00  0.00000000000E+00 -0.27761810835E+03  0.29285852592E+04  0.29153970238E+04 0.  0.
        5    1    3    3  502    0 -0.11469598921E+04 -0.59129738470E+03  0.54227966363E+03  0.13997281574E+04  0.46999998093E+01 0.  1.
       -5    1    3    3    0  502  0.11469598921E+04  0.59129738470E+03 -0.81989777198E+03  0.15288571018E+04  0.46999998093E+01 0. -1.
</event>
<event>
 5   0  0.2401125E-07  0.3339914E+04  0.7818609E-02  0.8152813E-01
       -1   -1    0    0    0  501  0.00000000000E+00  0.00000000000E+00  0.15214645718E+04  0.15214645718E+04  0.50400001928E-02 0.  1.
        1   -1    0    0  501    0  0.00000000000E+00  0.00000000000E+00 -0.18329424036E+04  0.18329424036E+04  0.50400001928E-02 0. -1.
    10030    2    1    2    0    0  0.00000000000E+00  0.00000000000E+00 -0.31147783178E+03  0.33544069754E+04  0.33399143277E+04 0.  0.
        5    1    3    3  502    0  0.31649717759E+02 -0.37079083216E+03 -0.17907610092E+04  0.18290255952E+04  0.46999998093E+01 0. -1.
       -5    1    3    3    0  502 -0.31649717759E+02  0.37079083216E+03  0.14792831774E+04  0.15253813801E+04  0.46999998093E+01 0.  1.
</event>
<event>
 5   0  0.2401125E-07  0.3201616E+04  0.7818609E-02  0.8188391E-01
       -1   -1    0    0    0  501  0.00000000000E+00  0.00000000000E+00  0.22754965336E+04  0.22754965336E+04  0.50400001928E-02 0. -1.
        1   -1    0    0  501    0  0.00000000000E+00  0.00000000000E+00 -0.11261654730E+04  0.11261654730E+04  0.50400001928E-02 0.  1.
    10030    2    1    2    0    0  0.00000000000E+00  0.00000000000E+00  0.11493310606E+04  0.34016620067E+04  0.32016156110E+04 0.  0.
        5    1    3    3  502    0  0.31300606899E+02  0.55784621119E+03  0.21685285774E+04  0.22393549080E+04  0.46999998093E+01 0. -1.
       -5    1    3    3    0  502 -0.31300606899E+02 -0.55784621119E+03 -0.10191975168E+04  0.11623070986E+04  0.46999998093E+01 0.  1.
</event>
<event>
 5   0  0.5237435E-07  0.2122675E+04  0.7818609E-02  0.8551320E-01
        2   -1    0    0  501    0  0.00000000000E+00  0.00000000000E+00  0.14749812225E+04  0.14749812225E+04  0.25500000920E-02 0. -1.
       -2   -1    0    0    0  501  0.00000000000E+00  0.00000000000E+00 -0.76369605926E+03  0.76369605927E+03  0.25500000920E-02 0.  1.
    10030    2    1    2    0    0  0.00000000000E+00  0.00000000000E+00  0.71128516321E+03  0.22386772817E+04  0.21226750548E+04 0.  0.
        2    1    3    3  502    0  0.35997958073E+03 -0.40184245338E+03 -0.60829437836E+03  0.81307115717E+03  0.25500000920E-02 0.  1.
       -2    1    3    3    0  502 -0.35997958073E+03  0.40184245338E+03  0.13195795416E+04  0.14256061246E+04  0.25500000920E-02 0. -1.
</event>
<event>
 5   0  0.5161550E-07  0.3172961E+04  0.7818609E-02  0.8195995E-01
       -2   -1    0    0    0  501  0.00000000000E+00  0.00000000000E+00  0.85736512475E+03  0.85736512476E+03  0.25500000920E-02 0.  1.
        2   -1    0    0  501    0  0.00000000000E+00  0.00000000000E+00 -0.29356459486E+04  0.29356459486E+04  0.25500000920E-02 0. -1.
    10030    2    1    2    0    0  0.00000000000E+00  0.00000000000E+00 -0.20782808238E+04  0.37930110733E+04  0.31729610492E+04 0.  0.
        2    1    3    3  502    0 -0.64077495639E+03  0.17129284556E+03  0.68366498886E+03  0.95253955334E+03  0.25500000920E-02 0.  1.
       -2    1    3    3    0  502  0.64077495639E+03 -0.17129284556E+03 -0.27619458127E+04  0.28404715200E+04  0.25500000920E-02 0. -1.
</event>
<event>
 5   0  0.2713405E-07  0.3890611E+04  0.7818609E-02  0.8026985E-01
       -1   -1    0    0    0  501  0.00000000000E+00  0.00000000000E+00  0.35599747230E+04  0.35599747231E+04  0.50400001928E-02 0. -1.
        1   -1    0    0  501    0  0.00000000000E+00  0.00000000000E+00 -0.10629889278E+04  0.10629889278E+04  0.50400001928E-02 0.  1.
    10030    2    1    2    0    0  0.00000000000E+00  0.00000000000E+00  0.24969857953E+04  0.46229636508E+04  0.38906111159E+04 0.  0.
        1    1    3    3  502    0 -0.13791418226E+04  0.17098601270E+03  0.28659544213E+04  0.31851158736E+04  0.50400001928E-02 0. -1.
       -1    1    3    3    0  502  0.13791418226E+04 -0.17098601270E+03 -0.36896862606E+03  0.14378477772E+04  0.50400001928E-02 0.  1.
</event>
<event>
 5   0  0.7256473E-07  0.3385081E+04  0.7818609E-02  0.8141578E-01
        2   -1    0    0  501    0  0.00000000000E+00  0.00000000000E+00  0.20841618627E+04  0.20841618627E+04  0.25500000920E-02 0.  1.
       -2   -1    0    0    0  501  0.00000000000E+00  0.00000000000E+00 -0.13745063011E+04  0.13745063011E+04  0.25500000920E-02 0. -1.
    10030    2    1    2    0    0  0.00000000000E+00  0.00000000000E+00  0.70965556158E+03  0.34586681638E+04  0.33850811587E+04 0.  0.
        4    1    3    3  502    0  0.10195123398E+04  0.62815206092E+03 -0.86729786180E+03  0.14785762126E+04  0.12699999809E+01 0. -1.
       -4    1    3    3    0  502 -0.10195123398E+04 -0.62815206092E+03  0.15769534234E+04  0.19800919512E+04  0.12699999809E+01 0.  1.
</event>
<event>
 5   0  0.3579559E-07  0.3926579E+04  0.7818609E-02  0.8019524E-01
        1   -1    0    0  501    0  0.00000000000E+00  0.00000000000E+00  0.15837818838E+04  0.15837818838E+04  0.50400001928E-02 0.  1.
       -1   -1    0    0    0  501  0.00000000000E+00  0.00000000000E+00 -0.24337347905E+04  0.24337347905E+04  0.50400001928E-02 0. -1.
    10030    2    1    2    0    0  0.00000000000E+00  0.00000000000E+00 -0.84995290670E+03  0.40175166743E+04  0.39265786997E+04 0.  0.
        4    1    3    3  502    0  0.12208023412E+04  0.13892893658E+04  0.24908320040E+03  0.18661530891E+04  0.12699999809E+01 0. -1.
       -4    1    3    3    0  502 -0.12208023412E+04 -0.13892893658E+04 -0.10990361071E+04  0.21513635852E+04  0.12699999809E+01 0.  1.
</event>
<event>
 5   0  0.5161550E-07  0.2516332E+04  0.7818609E-02  0.8397190E-01
       -2   -1    0    0    0  501  0.00000000000E+00  0.00000000000E+00  0.15698964906E+04  0.15698964906E+04  0.25500000920E-02 0.  1.
        2   -1    0    0  501    0  0.00000000000E+00  0.00000000000E+00 -0.10083353766E+04  0.10083353766E+04  0.25500000920E-02 0. -1.
    10030    2    1    2    0    0  0.00000000000E+00  0.00000000000E+00  0.56156111402E+03  0.25782318672E+04  0.25163323859E+04 0.  0.
        2    1    3    3  502    0 -0.15493625438E+02 -0.10470625917E+04  0.99536188069E+03  0.14447579026E+04  0.25500000920E-02 0.  1.
       -2    1    3    3    0  502  0.15493625438E+02  0.10470625917E+04 -0.43380076667E+03  0.11334739647E+04  0.25500000920E-02 0. -1.
</event>
<event>
 5   0  0.2601252E-07  0.3831568E+04  0.7818609E-02  0.8039414E-01
       -1   -1    0    0    0  501  0.00000000000E+00  0.00000000000E+00  0.22355450391E+04  0.22355450391E+04  0.50400001928E-02 0. -1.
        1   -1    0    0  501    0  0.00000000000E+00  0.00000000000E+00 -0.16417599281E+04  0.16417599281E+04  0.50400001928E-02 0.  1.
    10030    2    1    2    0    0  0.00000000000E+00  0.00000000000E+00  0.59378511099E+03  0.38773049672E+04  0.38315679625E+04 0.  0.
        3    1    3    3  502    0 -0.13792008386E+04 -0.13232944140E+04  0.42854236845E+03  0.19588138327E+04  0.10100000352E+00 0.  1.
       -3    1    3    3    0  502  0.13792008386E+04  0.13232944140E+04  0.16524274253E+03  0.19184911346E+04  0.10100000352E+00 0. -1.
</event>
<event>
 5   0  0.2401125E-07  0.3982654E+04  0.7818609E-02  0.8008055E-01
        1   -1    0    0  501    0  0.00000000000E+00  0.00000000000E+00  0.26668548218E+04  0.26668548218E+04  0.50400001928E-02 0. -1.
       -1   -1    0    0    0  501  0.00000000000E+00  0.00000000000E+00 -0.14869134740E+04  0.14869134740E+04  0.50400001928E-02 0.  1.
    10030    2    1    2    0    0  0.00000000000E+00  0.00000000000E+00  0.11799413478E+04  0.41537682959E+04  0.39826535716E+04 0.  0.
        5    1    3    3  502    0 -0.65554698293E+03 -0.12189056618E+04  0.20832282985E+04  0.25010667909E+04  0.46999998093E+01 0. -1.
       -5    1    3    3    0  502  0.65554698293E+03  0.12189056618E+04 -0.90328695066E+03  0.16527015049E+04  0.46999998093E+01 0.  1.
</event>
<event>
 5   0  0.4449262E-07  0.3885383E+04  0.7818609E-02  0.8028076E-01
       -2   -1    0    0    0  501  0.00000000000E+00  0.00000000000E+00  0.16795985939E+04  0.16795985939E+04  0.25500000920E-02 0.  1.
        2   -1    0    0  501    0  0.00000000000E+00  0.00000000000E+00 -0.22469952697E+04  0.22469952697E+04  0.25500000920E-02 0. -1.
    10030    2    1    2    0    0  0.00000000000E+00  0.00000000000E+00 -0.56739667580E+03  0.39265938635E+04  0.38853829131E+04 0.  0.
        1    1    3    3  502    0  0.16458147177E+03  0.29358876221E+03  0.16499090679E+04  0.16838887596E+04  0.50400001928E-02 0.  1.
       -1    1    3    3    0  502 -0.16458147177E+03 -0.29358876221E+03 -0.22173057437E+04  0.22427051040E+04  0.50400001928E-02 0. -1.
</event>
<event>
 5   0  0.6043512E-07  0.3651653E+04  0.7818609E-02  0.8078761E-01
       -2   -1    0    0    0  501  0.00000000000E+00  0.00000000000E+00  0.12467070919E+04  0.12467070919E+04  0.25500000920E-02 0.  1.
        2   -1    0    0  501    0  0.00000000000E+00  0.00000000000E+00 -0.26739585903E+04  0.26739585903E+04  0.25500000920E-02 0. -1.
    10030    2    1    2    0    0  0.00000000000E+00  0.00000000000E+00 -0.14272514983E+04  0.39206656822E+04  0.36516533998E+04 0.  0.
        3    1    3    3  502    0  0.12952189630E+04  0.10584358177E+04 -0.14995076076E+04  0.22464197332E+04  0.10100000352E+00 0.  1.
       -3    1    3    3    0  502 -0.12952189630E+04 -0.10584358177E+04  0.72256109297E+02  0.16742459490E+04  0.10100000352E+00 0. -1.
</event>
<event>
 5   0  0.3579559E-07  0.2875788E+04  0.7818609E-02  0.8280118E-01
        1   -1    0    0  501    0  0.00000000000E+00  0.00000000000E+00  0.15100339882E+04  0.15100339882E+04  0.50400001928E-02 0.  1.
       -1   -1    0    0    0  501  0.00000000000E+00  0.00000000000E+00 -0.13692000727E+04  0.13692000727E+04  0.50400001928E-02 0. -1.
    10030    2    1    2    0    0  0.00000000000E+00  0.00000000000E+00  0.14083391555E+03  0.28792340609E+04  0.28757876462E+04 0.  0.
        4    1    3    3  502    0  0.11505937510E+04  0.15337059283E+03 -0.77921569029E+03  0.13980583763E+04  0.12699999809E+01 0. -1.
       -4    1    3    3    0  502 -0.11505937510E+04 -0.15337059283E+03  0.92004960584E+03  0.14811756846E+04  0.12699999809E+01 0.  1.
</event>
<event>
 5   0  0.7570277E-07  0.2982692E+04  0.7818609E-02  0.8248691E-01
        2   -1    0    0  501    0  0.00000000000E+00  0.00000000000E+00  0.18406813937E+04  0.18406813937E+04  0.25500000920E-02 0. -1.
       -2   -1    0    0    0  501  0.00000000000E+00  0.00000000000E+00 -0.12083095077E+04  0.12083095077E+04  0.25500000920E-02 0.  1.
    10030    2    1    2    0    0  0.00000000000E+00  0.00000000000E+00  0.63237188601E+03  0.30489909013E+04  0.29826919576E+04 0.  0.
        5    1    3    3  502    0 -0.71227921581E+03  0.99536840450E+03  0.11871761715E+04  0.17051420158E+04  0.46999998093E+01 0. -1.
       -5    1    3    3    0  502  0.71227921581E+03 -0.99536840450E+03 -0.55480428547E+03  0.13438488855E+04  0.46999998093E+01 0.  1.
</event>
<event>
 5   0  0.2647879E-07  0.2809196E+04  0.7818609E-02  0.8300419E-01
        1   -1    0    0  501    0  0.00000000000E+00  0.00000000000E+00  0.12495971417E+04  0.12495971417E+04  0.50400001928E-02 0. -1.
       -1   -1    0    0    0  501  0.00000000000E+00  0.00000000000E+00 -0.15788255866E+04  0.15788255866E+04  0.50400001928E-02 0.  1.
    10030    2    1    2    0    0  0.00000000000E+00  0.00000000000E+00 -0.32922844491E+03  0.28284227283E+04  0.28091962838E+04 0.  0.
        2    1    3    3  502    0 -0.10397038146E+04  0.70926453612E+02 -0.11128034041E+04  0.15245805981E+04  0.25500000920E-02 0. -1.
       -2    1    3    3    0  502  0.10397038146E+04 -0.70926453612E+02  0.78357495918E+03  0.13038421302E+04  0.25500000920E-02 0.  1.
</event>
<event>
 5   0  0.5161550E-07  0.2699059E+04  0.7818609E-02  0.8335310E-01
       -2   -1    0    0    0  501  0.00000000000E+00  0.00000000000E+00  0.10476534437E+04  0.10476534437E+04  0.25500000920E-02 0.  1.
        2   -1    0    0  501    0  0.00000000000E+00  0.00000000000E+00 -0.17383898361E+04  0.17383898361E+04  0.25500000920E-02 0. -1.
    10030    2    1    2    0    0  0.00000000000E+00  0.00000000000E+00 -0.69073639232E+03  0.27860432798E+04  0.26990591682E+04 0.  0.
        2    1    3    3  502    0 -0.12421668791E+04 -0.11604090184E+03  0.18578892161E+03  0.12613332509E+04  0.25500000920E-02 0.  1.
       -2    1    3    3    0  502  0.12421668791E+04  0.11604090184E+03 -0.87652531393E+03  0.15247100289E+04  0.25500000920E-02 0. -1.
</event>
<event>
 5   0  0.5161550E-07  0.4095597E+04  0.7818609E-02  0.7985534E-01
       -2   -1    0    0    0  501  0.00000000000E+00  0.00000000000E+00  0.25247382325E+04  0.25247382325E+04  0.25500000920E-02 0.  1.
        2   -1    0    0  501    0  0.00000000000E+00  0.00000000000E+00 -0.16609557862E+04  0.16609557862E+04  0.25500000920E-02 0. -1.
    10030    2    1    2    0    0  0.00000000000E+00  0.00000000000E+00  0.86378244632E+03  0.41856940187E+04  0.40955969411E+04 0.  0.
        2    1    3    3  502    0  0.38528270877E+03 -0.15020221090E+04  0.17988368419E+04  0.23749372972E+04  0.25500000920E-02 0.  1.
       -2    1    3    3    0  502 -0.38528270877E+03  0.15020221090E+04 -0.93505439560E+03  0.18107567215E+04  0.25500000920E-02 0. -1.
</event>
<event>
 5   0  0.7256473E-07  0.2782812E+04  0.7818609E-02  0.8308624E-01
       -2   -1    0    0    0  501  0.00000000000E+00  0.00000000000E+00  0.13049053049E+04  0.13049053049E+04  0.25500000920E-02 0.  1.
        2   -1    0    0  501    0  0.00000000000E+00  0.00000000000E+00 -0.14836408344E+04  0.14836408344E+04  0.25500000920E-02 0. -1.
    10030    2    1    2    0    0  0.00000000000E+00  0.00000000000E+00 -0.17873552943E+03  0.27885461393E+04  0.27828120996E+04 0.  0.
        4    1    3    3  502    0  0.35022896936E+03 -0.13213035258E+04  0.17098646557E+03  0.13775853231E+04  0.12699999809E+01 0.  1.
       -4    1    3    3    0  502 -0.35022896936E+03  0.13213035258E+04 -0.34972199500E+03  0.14109608162E+04  0.12699999809E+01 0. -1.
</event>
<event>
 5   0  0.2401125E-07  0.3388880E+04  0.7818609E-02  0.8140641E-01
       -1   -1    0    0    0  501  0.00000000000E+00  0.00000000000E+00  0.12241329302E+04  0.12241329302E+04  0.50400001928E-02 0.  1.
        1   -1    0    0  501    0  0.00000000000E+00  0.00000000000E+00 -0.23454367186E+04  0.23454367186E+04  0.50400001928E-02 0. -1.
    10030    2    1    2    0    0  0.00000000000E+00  0.00000000000E+00 -0.11213037883E+04  0.35695696488E+04  0.33888796514E+04 0.  0.
        5    1    3    3  502    0 -0.13656576798E+04 -0.61428041399E+03  0.27455921780E+03  0.15224211570E+04  0.46999998093E+01 0.  1.
       -5    1    3    3    0  502  0.13656576798E+04  0.61428041399E+03 -0.13958630061E+04  0.20471484917E+04  0.46999998093E+01 0. -1.
</event>
<event>
 5   0  0.6043512E-07  0.3697265E+04  0.7818609E-02  0.8068568E-01
        2   -1    0    0  501    0  0.00000000000E+00  0.00000000000E+00  0.14009452861E+04  0.14009452861E+04  0.25500000920E-02 0.  1.
       -2   -1    0    0    0  501  0.00000000000E+00  0.00000000000E+00 -0.24393834089E+04  0.24393834089E+04  0.25500000920E-02 0. -1.
    10030    2    1    2    0    0  0.00000000000E+00  0.00000000000E+00 -0.10384381228E+04  0.38403286949E+04  0.36972653070E+04 0.  0.
        3    1    3    3  502    0 -0.29399756124E+02  0.83341325262E+03  0.11944694948E+04  0.14567770521E+04  0.10100000352E+00 0.  1.
       -3    1    3    3    0  502  0.29399756124E+02 -0.83341325262E+03 -0.22329076176E+04  0.23835516429E+04  0.10100000352E+00 0. -1.
</event>
<event>
 5   0  0.5161550E-07  0.3936826E+04  0.7818609E-02  0.8017413E-01
        2   -1    0    0  501    0  0.00000000000E+00  0.00000000000E+00  0.26286606479E+04  0.26286606479E+04  0.25500000920E-02 0. -1.
       -2   -1    0    0    0  501  0.00000000000E+00  0.00000000000E+00 -0.14740012826E+04  0.14740012826E+04  0.25500000920E-02 0.  1.
    10030    2    1    2    0    0  0.00000000000E+00  0.00000000000E+00  0.11546593653E+04  0.41026619306E+04  0.39368257094E+04 0.  0.
        2    1    3    3  502    0  0.12635844071E+03 -0.18224403033E+04  0.13412815045E+04  0.22663387190E+04  0.25500000920E-02 0. -1.
       -2    1    3    3    0  502 -0.12635844071E+03  0.18224403033E+04 -0.18662213923E+03  0.18363232116E+04  0.25500000920E-02 0.  1.
</event>
<event>
 5   0  0.7256473E-07  0.4110994E+04  0.7818609E-02  0.7982522E-01
       -2   -1    0    0    0  501  0.00000000000E+00  0.00000000000E+00  0.19389349203E+04  0.19389349203E+04  0.25500000920E-02 0. -1.
        2   -1    0    0  501    0  0.00000000000E+00  0.00000000000E+00 -0.21790667447E+04  0.21790667447E+04  0.25500000920E-02 0.  1.
    10030    2    1    2    0    0  0.00000000000E+00  0.00000000000E+00 -0.24013182435E+03  0.41180016650E+04  0.41109943347E+04 0.  0.
        4    1    3    3  502    0 -0.42154242564E+03  0.46743988973E+03  0.18400190159E+04  0.19447029745E+04  0.12699999809E+01 0. -1.
       -4    1    3    3    0  502  0.42154242564E+03 -0.46743988973E+03 -0.20801508403E+04  0.21732986905E+04  0.12699999809E+01 0.  1.
</event>
<event>
 5   0  0.5161550E-07  0.3848551E+04  0.7818609E-02  0.8035815E-01
        2   -1    0    0  501    0  0.00000000000E+00  0.00000000000E+00  0.26894638090E+04  0.26894638090E+04  0.25500000920E-02 0.  1.
       -2   -1    0    0    0  501  0.00000000000E+00  0.00000000000E+00 -0.13767938209E+04  0.13767938209E+04  0.25500000920E-02 0. -1.
    10030    2    1    2    0    0  0.00000000000E+00  0.00000000000E+00  0.13126699881E+04  0.40662576299E+04  0.38485514957E+04 0.  0.
        2    1    3    3  502    0  0.86747178123E+03 -0.14074478405E+03  0.24650493721E+04  0.26170183019E+04  0.25500000920E-02 0.  1.
       -2    1    3    3    0  502 -0.86747178123E+03  0.14074478405E+03 -0.11523793840E+04  0.14492393281E+04  0.25500000920E-02 0. -1.
</event>
<event>
 5   0  0.7256473E-07  0.2580642E+04  0.7818609E-02  0.8374806E-01
        2   -1    0    0  501    0  0.00000000000E+00  0.00000000000E+00  0.12020295366E+04  0.12020295366E+04  0.25500000920E-02 0.  1.
       -2   -1    0    0    0  501  0.00000000000E+00  0.00000000000E+00 -0.13850978416E+04  0.13850978416E+04  0.25500000920E-02 0. -1.
    10030    2    1    2    0    0  0.00000000000E+00  0.00000000000E+00 -0.18306830495E+03  0.25871273782E+04  0.25806421811E+04 0.  0.
        4    1    3    3  502    0  0.61031474495E+03 -0.52929037587E+03 -0.11001910481E+04  0.13649374876E+04  0.12699999809E+01 0. -1.
       -4    1    3    3    0  502 -0.61031474495E+03  0.52929037587E+03  0.91712274312E+03  0.12221898906E+04  0.12699999809E+01 0.  1.
</event>
<event>
 5   0  0.6043512E-07  0.4125165E+04  0.7818609E-02  0.7979762E-01
        2   -1    0    0  501    0  0.00000000000E+00  0.00000000000E+00  0.24814947205E+04  0.24814947205E+04  0.25500000920E-02 0. -1.
       -2   -1    0    0    0  501  0.00000000000E+00  0.00000000000E+00 -0.17143883700E+04  0.17143883700E+04  0.25500000920E-02 0.  1.
    10030    2    1    2    0    0  0.00000000000E+00  0.00000000000E+00  0.76710635043E+03  0.41958830905E+04  0.41251645732E+04 0.  0.
        3    1    3    3  502    0 -0.63084273657E+03  0.14772880834E+04  0.16995269923E+04  0.23385325842E+04  0.10100000352E+00 0. -1.
       -3    1    3    3    0  502  0.63084273657E+03 -0.14772880834E+04 -0.93242064189E+03  0.18573505063E+04  0.10100000352E+00 0.  1.
</event>
<event>
 5   0  0.7570277E-07  0.4013196E+04  0.7818609E-02  0.8001890E-01
        2   -1    0    0  501    0  0.00000000000E+00  0.00000000000E+00  0.22543023045E+04  0.22543023045E+04  0.25500000920E-02 0. -1.
       -2   -1    0    0    0  501  0.00000000000E+00  0.00000000000E+00 -0.17861117428E+04  0.17861117428E+04  0.25500000920E-02 0.  1.
    10030    2    1    2    0    0  0.00000000000E+00  0.00000000000E+00  0.46819056168E+03  0.40404140472E+04  0.40131961416E+04 0.  0.
        5    1    3    3  502    0  0.74674153518E+02 -0.79616751258E+03  0.20869449579E+04  0.22349094578E+04  0.46999998093E+01 0. -1.
       -5    1    3    3    0  502 -0.74674153518E+02  0.79616751258E+03 -0.16187543962E+04  0.18055045894E+04  0.46999998093E+01 0.  1.
</event>
<event>
 5   0  0.6043512E-07  0.2105996E+04  0.7818609E-02  0.8558607E-01
       -2   -1    0    0    0  501  0.00000000000E+00  0.00000000000E+00  0.16456737924E+04  0.16456737924E+04  0.25500000920E-02 0. -1.
        2   -1    0    0  501    0  0.00000000000E+00  0.00000000000E+00 -0.67376918673E+03  0.67376918674E+03  0.25500000920E-02 0.  1.
    10030    2    1    2    0    0  0.00000000000E+00  0.00000000000E+00  0.97190460567E+03  0.23194429791E+04  0.21059955297E+04 0.  0.
        3    1    3    3  502    0 -0.93969809331E+03  0.37780617714E+03  0.16859029335E+03  0.10267388720E+04  0.10100000352E+00 0.  1.
       -3    1    3    3    0  502  0.93969809331E+03 -0.37780617714E+03  0.80331431232E+03  0.12927041071E+04  0.10100000352E+00 0. -1.
</event>
<event>
 5   0  0.4449262E-07  0.3862363E+04  0.7818609E-02  0.8032903E-01
       -2   -1    0    0    0  501  0.00000000000E+00  0.00000000000E+00  0.18357117759E+04  0.18357117759E+04  0.25500000920E-02 0. -1.
        2   -1    0    0  501    0  0.00000000000E+00  0.00000000000E+00 -0.20316163484E+04  0.20316163484E+04  0.25500000920E-02 0.  1.
    10030    2    1    2    0    0  0.00000000000E+00  0.00000000000E+00 -0.19590457249E+03  0.38673281244E+04  0.38623630357E+04 0.  0.
        1    1    3    3  502    0 -0.10890306477E+04  0.15589388009E+04 -0.43481324137E+03  0.19507281952E+04  0.50400001928E-02 0.  1.
       -1    1    3    3    0  502  0.10890306477E+04 -0.15589388009E+04  0.23890866888E+03  0.19165999292E+04  0.50400001928E-02 0. -1.
</event>
<event>
 5   0  0.6043512E-07  0.2070427E+04  0.7818609E-02  0.8574383E-01
        2   -1    0    0  501    0  0.00000000000E+00  0.00000000000E+00  0.77864949514E+03  0.77864949514E+03  0.25500000920E-02 0. -1.
       -2   -1    0    0    0  501  0.00000000000E+00  0.00000000000E+00 -0.13763153419E+04  0.13763153419E+04  0.25500000920E-02 0.  1.
    10030    2    1    2    0    0  0.00000000000E+00  0.00000000000E+00 -0.59766584672E+03  0.21549648370E+04  0.20704272468E+04 0.  0.
        3    1    3    3  502    0  0.52467752309E+03  0.77383595345E+03 -0.76145700760E+03  0.12057882777E+04  0.10100000352E+00 0.  1.
       -3    1    3    3    0  502 -0.52467752309E+03 -0.77383595345E+03  0.16379116088E+03  0.94917655927E+03  0.10100000352E+00 0. -1.
</event>
<event>
 5   0  0.2647879E-07  0.2507559E+04  0.7818609E-02  0.8400298E-01
       -1   -1    0    0    0  501  0.00000000000E+00  0.00000000000E+00  0.14636643327E+04  0.14636643327E+04  0.50400001928E-02 0. -1.
        1   -1    0    0  501    0  0.00000000000E+00  0.00000000000E+00 -0.10739915738E+04  0.10739915738E+04  0.50400001928E-02 0.  1.
    10030    2    1    2    0    0  0.00000000000E+00  0.00000000000E+00  0.38967275886E+03  0.25376559066E+04  0.25075591002E+04 0.  0.
        2    1    3    3  502    0  0.12243638879E+04 -0.11551325531E+03 -0.52127295798E+02  0.12309051536E+04  0.25500000920E-02 0.  1.
       -2    1    3    3    0  502 -0.12243638879E+04  0.11551325531E+03  0.44180005466E+03  0.13067507530E+04  0.25500000920E-02 0. -1.
</event>
<event>
 5   0  0.2601252E-07  0.3915968E+04  0.7818609E-02  0.8021716E-01
       -1   -1    0    0    0  501  0.00000000000E+00  0.00000000000E+00  0.21231960603E+04  0.21231960603E+04  0.50400001928E-02 0. -1.
        1   -1    0    0  501    0  0.00000000000E+00  0.00000000000E+00 -0.18056272670E+04  0.18056272670E+04  0.50400001928E-02 0.  1.
    10030    2    1    2    0    0  0.00000000000E+00  0.00000000000E+00  0.31756879332E+03  0.39288233273E+04  0.39159676708E+04 0.  0.
        3    1    3    3  502    0 -0.15328216103E+04 -0.52777743364E+03 -0.94282275664E+03  0.18753681956E+04  0.10100000352E+00 0.  1.
       -3    1    3    3    0  502  0.15328216103E+04  0.52777743364E+03  0.12603915500E+04  0.20534551317E+04  0.10100000352E+00 0. -1.
</event>
<event>
 5   0  0.2601252E-07  0.4006685E+04  0.7818609E-02  0.8003199E-01
       -1   -1    0    0    0  501  0.00000000000E+00  0.00000000000E+00  0.12863401023E+04  0.12863401023E+04  0.50400001928E-02 0. -1.
        1   -1    0    0  501    0  0.00000000000E+00  0.00000000000E+00 -0.31200006265E+04  0.31200006265E+04  0.50400001928E-02 0.  1.
    10030    2    1    2    0    0  0.00000000000E+00  0.00000000000E+00 -0.18336605242E+04  0.44063407288E+04  0.40066853757E+04 0.  0.
        3    1    3    3  502    0 -0.26894791218E+03  0.13467645264E+04 -0.25208310491E+04  0.28706613972E+04  0.10100000352E+00 0.  1.
       -3    1    3    3    0  502  0.26894791218E+03 -0.13467645264E+04  0.68717052491E+03  0.15356793316E+04  0.10100000352E+00 0. -1.
</event>
<event>
 5   0  0.2401125E-07  0.3739610E+04  0.7818609E-02  0.8059240E-01
       -1   -1    0    0    0  501  0.00000000000E+00  0.00000000000E+00  0.13392351522E+04  0.13392351522E+04  0.50400001928E-02 0. -1.
        1   -1    0    0  501    0  0.00000000000E+00  0.00000000000E+00 -0.26105721984E+04  0.26105721984E+04  0.50400001928E-02 0.  1.
    10030    2    1    2    0    0  0.00000000000E+00  0.00000000000E+00 -0.12713370462E+04  0.39498073506E+04  0.37396096349E+04 0.  0.
        5    1    3    3  502    0  0.14415876170E+04 -0.11839691372E+04 -0.77006120410E+03  0.20181610747E+04  0.46999998093E+01 0. -1.
       -5    1    3    3    0  502 -0.14415876170E+04  0.11839691372E+04 -0.50127584212E+03  0.19316462759E+04  0.46999998093E+01 0.  1.
</event>
<event>
 5   0  0.2401125E-07  0.2206864E+04  0.7818609E-02  0.8515577E-01
        1   -1    0    0  501    0  0.00000000000E+00  0.00000000000E+00  0.26309121251E+04  0.26309121251E+04  0.50400001928E-02 0.  1.
       -1   -1    0    0    0  501  0.00000000000E+00  0.00000000000E+00 -0.46279082940E+03  0.46279082943E+03  0.50400001928E-02 0. -1.
    10030    2    1    2    0    0  0.00000000000E+00  0.00000000000E+00  0.21681212957E+04  0.30937029546E+04  0.22068638422E+04 0.  0.
        5    1    3    3  502    0 -0.89250952250E+01  0.32176396989E+03 -0.39549625729E+03  0.50995204595E+03  0.46999998093E+01 0. -1.
       -5    1    3    3    0  502  0.89250952250E+01 -0.32176396989E+03  0.25636175530E+04  0.25837509086E+04  0.46999998093E+01 0.  1.
</event>
<event>
 5   0  0.4449262E-07  0.2566167E+04  0.7818609E-02  0.8379785E-01
        2   -1    0    0  501    0  0.00000000000E+00  0.00000000000E+00  0.18686242234E+04  0.18686242234E+04  0.25500000920E-02 0.  1.
       -2   -1    0    0    0  501  0.00000000000E+00  0.00000000000E+00 -0.88102440675E+03  0.88102440676E+03  0.25500000920E-02 0. -1.
    10030    2    1    2    0    0  0.00000000000E+00  0.00000000000E+00  0.98759981667E+03  0.27496486302E+04  0.25661672182E+04 0.  0.
        1    1    3    3  502    0 -0.16094419331E+03 -0.12131242388E+04  0.80570067217E+02  0.12264032729E+04  0.50400001928E-02 0. -1.
       -1    1    3    3    0  502  0.16094419331E+03  0.12131242388E+04  0.90702974945E+03  0.15232453573E+04  0.50400001928E-02 0.  1.
</event>
<event>
 5   0  0.4449262E-07  0.3879297E+04  0.7818609E-02  0.8029349E-01
        2   -1    0    0  501    0  0.00000000000E+00  0.00000000000E+00  0.20072198514E+04  0.20072198514E+04  0.25500000920E-02 0. -1.
       -2   -1    0    0    0  501  0.00000000000E+00  0.00000000000E+00 -0.18743516533E+04  0.18743516533E+04  0.25500000920E-02 0.  1.
    10030    2    1    2    0    0  0.00000000000E+00  0.00000000000E+00  0.13286819811E+03  0.38815715047E+04  0.38792967646E+04 0.  0.
        1    1    3    3  502    0 -0.69366515799E+03 -0.15280400655E+04  0.10397110352E+04  0.19741015247E+04  0.50400001928E-02 0. -1.
       -1    1    3    3    0  502  0.69366515799E+03  0.15280400655E+04 -0.90684283711E+03  0.19074699800E+04  0.50400001928E-02 0.  1.
</event>
<event>
 5   0  0.2647879E-07  0.2176655E+04  0.7818609E-02  0.8528208E-01
        1   -1    0    0  501    0  0.00000000000E+00  0.00000000000E+00  0.78903038654E+03  0.78903038656E+03  0.50400001928E-02 0.  1.
       -1   -1    0    0    0  501  0.00000000000E+00  0.00000000000E+00 -0.15011545153E+04  0.15011545153E+04  0.50400001928E-02 0. -1.
    10030    2    1    2    0    0  0.00000000000E+00  0.00000000000E+00 -0.71212412879E+03  0.22901849019E+04  0.21766547981E+04 0.  0.
        2    1    3    3  502    0 -0.78057432205E+03 -0.68361689537E+03 -0.70156135319E+03  0.12525241172E+04  0.25500000920E-02 0.  1.
       -2    1    3    3    0  502  0.78057432205E+03  0.68361689537E+03 -0.10562775599E+02  0.10376607847E+04  0.25500000920E-02 0. -1.
</event>
<event>
 5   0  0.5161550E-07  0.4095024E+04  0.7818609E-02  0.7985647E-01
       -2   -1    0    0    0  501  0.00000000000E+00  0.00000000000E+00  0.19481268682E+04  0.19481268682E+04  0.25500000920E-02 0. -1.
        2   -1    0    0  501    0  0.00000000000E+00  0.00000000000E+00 -0.21519668811E+04  0.21519668811E+04  0.25500000920E-02 0.  1.
    10030    2    1    2    0    0  0.00000000000E+00  0.00000000000E+00 -0.20384001293E+03  0.41000937493E+04  0.40950235655E+04 0.  0.
        2    1    3    3  502    0 -0.12085092246E+04 -0.16270751555E+04 -0.39285919152E+03  0.20645111896E+04  0.25500000920E-02 0. -1.
       -2    1    3    3    0  502  0.12085092246E+04  0.16270751555E+04  0.18901917859E+03  0.20355825597E+04  0.25500000920E-02 0.  1.
</event>
<event>
 5   0  0.2401125E-07  0.2035579E+04  0.7818609E-02  0.8590165E-01
        1   -1    0    0  501    0  0.00000000000E+00  0.00000000000E+00  0.76102088938E+03  0.76102088939E+03  0.50400001928E-02 0.  1.
       -1   -1    0    0    0  501  0.00000000000E+00  0.00000000000E+00 -0.13611912659E+04  0.13611912659E+04  0.50400001928E-02 0. -1.
    10030    2    1    2    0    0  0.00000000000E+00  0.00000000000E+00 -0.60017037649E+03  0.21222121553E+04  0.20355785298E+04 0.  0.
        5    1    3    3  502    0 -0.42669616500E+03  0.43993276321E+03 -0.11472330790E+04  0.13006830055E+04  0.46999998093E+01 0. -1.
       -5    1    3    3    0  502  0.42669616500E+03 -0.43993276321E+03  0.54706270251E+03  0.82152914972E+03  0.46999998093E+01 0.  1.
</event>
<event>
 5   0  0.6043512E-07  0.4000310E+04  0.7818609E-02  0.8004484E-01
        2   -1    0    0  501    0  0.00000000000E+00  0.00000000000E+00  0.14058038765E+04  0.14058038765E+04  0.25500000920E-02 0.  1.
       -2   -1    0    0    0  501  0.00000000000E+00  0.00000000000E+00 -0.28457882858E+04  0.28457882858E+04  0.25500000920E-02 0. -1.
    10030    2    1    2    0    0  0.00000000000E+00  0.00000000000E+00 -0.14399844093E+04  0.42515921622E+04  0.40003100898E+04 0.  0.
        3    1    3    3  502    0  0.58945439743E+03 -0.71040062387E+03 -0.26058520818E+04  0.27645235784E+04  0.10100000352E+00 0. -1.
       -3    1    3    3    0  502 -0.58945439743E+03  0.71040062387E+03  0.11658676725E+04  0.14870685838E+04  0.10100000352E+00 0.  1.
</event>
<event>
 5   0  0.6043512E-07  0.3838216E+04  0.7818609E-02  0.8038003E-01
       -2   -1    0    0    0  501  0.00000000000E+00  0.00000000000E+00  0.16394518995E+04  0.16394518995E+04  0.25500000920E-02 0. -1.
        2   -1    0    0  501    0  0.00000000000E+00  0.00000000000E+00 -0.22464675848E+04  0.22464675848E+04  0.25500000920E-02 0.  1.
    10030    2    1    2    0    0  0.00000000000E+00  0.00000000000E+00 -0.60701568537E+03  0.38859194843E+04  0.38382160174E+04 0.  0.
        3    1    3    3  502    0  0.12739305128E+04  0.11951870669E+04  0.50110503535E+03  0.18172719507E+04  0.10100000352E+00 0. -1.
       -3    1    3    3    0  502 -0.12739305128E+04 -0.11951870669E+04 -0.11081207207E+04  0.20686475336E+04  0.10100000352E+00 0.  1.
</event>
<event>
 5   0  0.3579559E-07  0.2474523E+04  0.7818609E-02  0.8412118E-01
        1   -1    0    0  501    0  0.00000000000E+00  0.00000000000E+00  0.14375738822E+04  0.14375738822E+04  0.50400001928E-02 0. -1.
       -1   -1    0    0    0  501  0.00000000000E+00  0.00000000000E+00 -0.10648611037E+04  0.10648611037E+04  0.50400001928E-02 0.  1.
    10030    2    1    2    0    0  0.00000000000E+00  0.00000000000E+00  0.37271277853E+03  0.25024349859E+04  0.24745233972E+04 0.  0.
        4    1    3    3  502    0 -0.81123609698E+03  0.28255385861E+03 -0.71412218640E+03  0.11171001737E+04  0.12699999809E+01 0.  1.
       -4    1    3    3    0  502  0.81123609698E+03 -0.28255385861E+03  0.10868349649E+04  0.13853348122E+04  0.12699999809E+01 0. -1.
</event>
<event>
 5   0  0.2647879E-07  0.4021381E+04  0.7818609E-02  0.8000247E-01
       -1   -1    0    0    0  501  0.00000000000E+00  0.00000000000E+00  0.15908772471E+04  0.15908772471E+04  0.50400001928E-02 0. -1.
        1   -1    0    0  501    0  0.00000000000E+00  0.00000000000E+00 -0.25412870618E+04  0.25412870618E+04  0.50400001928E-02 0.  1.
    10030    2    1    2    0    0  0.00000000000E+00  0.00000000000E+00 -0.95040981464E+03  0.41321643089E+04  0.40213807405E+04 0.  0.
        2    1    3    3  502    0 -0.11820826696E+04 -0.14366966892E+04 -0.12587462538E+04  0.22462989441E+04  0.25500000920E-02 0.  1.
       -2    1    3    3    0  502  0.11820826696E+04  0.14366966892E+04  0.30833643919E+03  0.18858653648E+04  0.25500000920E-02 0. -1.
</event>
<event>
 5   0  0.4449262E-07  0.4003147E+04  0.7818609E-02  0.8003912E-01
        2   -1    0    0  501    0  0.00000000000E+00  0.00000000000E+00  0.21094817227E+04  0.21094817227E+04  0.25500000920E-02 0. -1.
       -2   -1    0    0    0  501  0.00000000000E+00  0.00000000000E+00 -0.18991855337E+04  0.18991855337E+04  0.25500000920E-02 0.  1.
    10030    2    1    2    0    0  0.00000000000E+00  0.00000000000E+00  0.21029618895E+03  0.40086672564E+04  0.40031473474E+04 0.  0.
        1    1    3    3  502    0 -0.92113141767E+03  0.64372170143E+03 -0.15534680385E+04  0.19173220033E+04  0.50400001928E-02 0.  1.
       -1    1    3    3    0  502  0.92113141767E+03 -0.64372170143E+03  0.17637642275E+04  0.20913452531E+04  0.50400001928E-02 0. -1.
</event>
<event>
 5   0  0.7256473E-07  0.3948820E+04  0.7818609E-02  0.8014951E-01
        2   -1    0    0  501    0  0.00000000000E+00  0.00000000000E+00  0.26893186038E+04  0.26893186038E+04  0.25500000920E-02 0.  1.
       -2   -1    0    0    0  501  0.00000000000E+00  0.00000000000E+00 -0.14495476156E+04  0.14495476156E+04  0.25500000920E-02 0. -1.
    10030    2    1    2    0    0  0.00000000000E+00  0.00000000000E+00  0.12397709881E+04  0.41388662194E+04  0.39488202642E+04 0.  0.
        4    1    3    3  502    0 -0.99059914990E+03  0.67678509331E+02  0.24086020395E+04  0.26052317467E+04  0.12699999809E+01 0.  1.
       -4    1    3    3    0  502  0.99059914990E+03 -0.67678509331E+02 -0.11688310514E+04  0.15336344727E+04  0.12699999809E+01 0. -1.
</event>
<event>
 5   0  0.6043512E-07  0.3042452E+04  0.7818609E-02  0.8231711E-01
        2   -1    0    0  501    0  0.00000000000E+00  0.00000000000E+00  0.26950820836E+04  0.26950820836E+04  0.25500000920E-02 0. -1.
       -2   -1    0    0    0  501  0.00000000000E+00  0.00000000000E+00 -0.85864854267E+03  0.85864854268E+03  0.25500000920E-02 0.  1.
    10030    2    1    2    0    0  0.00000000000E+00  0.00000000000E+00  0.18364335409E+04  0.35537306262E+04  0.30424518425E+04 0.  0.
        3    1    3    3  502    0 -0.43164126939E+03  0.18603785705E+03  0.26081384319E+04  0.26501528937E+04  0.10100000352E+00 0. -1.
       -3    1    3    3    0  502  0.43164126939E+03 -0.18603785705E+03 -0.77170489104E+03  0.90357773254E+03  0.10100000352E+00 0.  1.
</event>
<event>
 5   0  0.6043512E-07  0.4095721E+04  0.7818609E-02  0.7985510E-01
        2   -1    0    0  501    0  0.00000000000E+00  0.00000000000E+00  0.18498839148E+04  0.18498839148E+04  0.25500000920E-02 0. -1.
       -2   -1    0    0    0  501  0.00000000000E+00  0.00000000000E+00 -0.22670248370E+04  0.22670248370E+04  0.25500000920E-02 0.  1.
    10030    2    1    2    0    0  0.00000000000E+00  0.00000000000E+00 -0.41714092218E+03  0.41169087518E+04  0.40957210747E+04 0.  0.
        3    1    3    3  502    0 -0.23457656740E+03  0.16269129605E+04  0.10191656313E+04  0.19340554648E+04  0.10100000352E+00 0. -1.
       -3    1    3    3    0  502  0.23457656740E+03 -0.16269129605E+04 -0.14363065534E+04  0.21828532870E+04  0.10100000352E+00 0.  1.
</event>
<event>
 5   0  0.4449262E-07  0.4059991E+04  0.7818609E-02  0.7992553E-01
        2   -1    0    0  501    0  0.00000000000E+00  0.00000000000E+00  0.23400114976E+04  0.23400114976E+04  0.25500000920E-02 0. -1.
       -2   -1    0    0    0  501  0.00000000000E+00  0.00000000000E+00 -0.17610519133E+04  0.17610519133E+04  0.25500000920E-02 0.  1.
    10030    2    1    2    0    0  0.00000000000E+00  0.00000000000E+00  0.57895958430E+03  0.41010634109E+04  0.40599909975E+04 0.  0.
        1    1    3    3  502    0 -0.79964216043E+03  0.21660434909E+01 -0.15952602637E+04  0.17844572243E+04  0.50400001928E-02 0.  1.
       -1    1    3    3    0  502  0.79964216043E+03 -0.21660434909E+01  0.21742198480E+04  0.23166061866E+04  0.50400001928E-02 0. -1.
</event>
<event>
 5   0  0.5161550E-07  0.3838708E+04  0.7818609E-02  0.8037899E-01
        2   -1    0    0  501    0  0.00000000000E+00  0.00000000000E+00  0.18780915913E+04  0.18780915913E+04  0.25500000920E-02 0.  1.
       -2   -1    0    0    0  501  0.00000000000E+00  0.00000000000E+00 -0.19615227829E+04  0.19615227829E+04  0.25500000920E-02 0. -1.
    10030    2    1    2    0    0  0.00000000000E+00  0.00000000000E+00 -0.83431191608E+02  0.38396143742E+04  0.38387078267E+04 0.  0.
        2    1    3    3  502    0  0.54812395511E+03  0.11020280527E+04  0.14313894015E+04  0.18877980077E+04  0.25500000920E-02 0.  1.
       -2    1    3    3    0  502 -0.54812395511E+03 -0.11020280527E+04 -0.15148205931E+04  0.19518163665E+04  0.25500000920E-02 0. -1.
</event>
<event>
 5   0  0.2401125E-07  0.3983313E+04  0.7818609E-02  0.8007921E-01
       -1   -1    0    0    0  501  0.00000000000E+00  0.00000000000E+00  0.29035676967E+04  0.29035676967E+04  0.50400001928E-02 0.  1.
        1   -1    0    0  501    0  0.00000000000E+00  0.00000000000E+00 -0.13661456926E+04  0.13661456926E+04  0.50400001928E-02 0. -1.
    10030    2    1    2    0    0  0.00000000000E+00  0.00000000000E+00  0.15374220042E+04  0.42697133893E+04  0.39833134459E+04 0.  0.
        5    1    3    3  502    0 -0.87188604519E+03 -0.16851705261E+04  0.14177987915E+04  0.23685777338E+04  0.46999998093E+01 0.  1.
       -5    1    3    3    0  502  0.87188604519E+03  0.16851705261E+04  0.11962321263E+03  0.19011356555E+04  0.46999998093E+01 0. -1.
</event>
<event>
 5   0  0.4449262E-07  0.4085601E+04  0.7818609E-02  0.7987497E-01
       -2   -1    0    0    0  501  0.00000000000E+00  0.00000000000E+00  0.24985261094E+04  0.24985261094E+04  0.25500000920E-02 0.  1.
        2   -1    0    0  501    0  0.00000000000E+00  0.00000000000E+00 -0.16701981630E+04  0.16701981630E+04  0.25500000920E-02 0. -1.
    10030    2    1    2    0    0  0.00000000000E+00  0.00000000000E+00  0.82832794640E+03  0.41687242725E+04  0.40856009194E+04 0.  0.
        1    1    3    3  502    0 -0.96561415616E+03  0.12352691353E+04  0.17502840953E+04  0.23498499844E+04  0.50400001928E-02 0.  1.
       -1    1    3    3    0  502  0.96561415616E+03 -0.12352691353E+04 -0.92195614889E+03  0.18188742880E+04  0.50400001928E-02 0. -1.
</event>
<event>
 5   0  0.5161550E-07  0.2527985E+04  0.7818609E-02  0.8393083E-01
       -2   -1    0    0    0  501  0.00000000000E+00  0.00000000000E+00  0.17907721945E+04  0.17907721945E+04  0.25500000920E-02 0. -1.
        2   -1    0    0  501    0  0.00000000000E+00  0.00000000000E+00 -0.89217193933E+03  0.89217193933E+03  0.25500000920E-02 0.  1.
    10030    2    1    2    0    0  0.00000000000E+00  0.00000000000E+00  0.89860025513E+03  0.26829441338E+04  0.25279847323E+04 0.  0.
        2    1    3    3  502    0  0.12390200344E+04 -0.23462030492E+03  0.54096189191E+03  0.13721724023E+04  0.25500000920E-02 0. -1.
       -2    1    3    3    0  502 -0.12390200344E+04  0.23462030492E+03  0.35763836322E+03  0.13107717315E+04  0.25500000920E-02 0.  1.
</event>
<event>
 5   0  0.7256473E-07  0.3994688E+04  0.7818609E-02  0.8005619E-01
       -2   -1    0    0    0  501  0.00000000000E+00  0.00000000000E+00  0.13821417731E+04  0.13821417731E+04  0.25500000920E-02 0.  1.
        2   -1    0    0  501    0  0.00000000000E+00  0.00000000000E+00 -0.28863773994E+04  0.28863773994E+04  0.25500000920E-02 0. -1.
    10030    2    1    2    0    0  0.00000000000E+00  0.00000000000E+00 -0.15042356263E+04  0.42685191725E+04  0.39946878609E+04 0.  0.
        4    1    3    3  502    0  0.51986893680E+03 -0.26131695497E+03 -0.27938098998E+04  0.28537564071E+04  0.12699999809E+01 0. -1.
       -4    1    3    3    0  502 -0.51986893680E+03  0.26131695497E+03  0.12895742735E+04  0.14147627653E+04  0.12699999809E+01 0.  1.
</event>
<event>
 5   0  0.2647879E-07  0.4036215E+04  0.7818609E-02  0.7997280E-01
        1   -1    0    0  501    0  0.00000000000E+00  0.00000000000E+00  0.13327424983E+04  0.13327424983E+04  0.50400001928E-02 0.  1.
       -1   -1    0    0    0  501  0.00000000000E+00  0.00000000000E+00 -0.30559227512E+04  0.30559227512E+04  0.50400001928E-02 0. -1.
    10030    2    1    2    0    0  0.00000000000E+00  0.00000000000E+00 -0.17231802529E+04  0.43886652495E+04  0.40362151192E+04 0.  0.
        2    1    3    3  502    0  0.13249307800E+04  0.10078501449E+04 -0.21020689438E+04  0.26813983909E+04  0.25500000920E-02 0. -1.
       -2    1    3    3    0  502 -0.13249307800E+04 -0.10078501449E+04  0.37888869095E+03  0.17072668586E+04  0.25500000920E-02 0.  1.
</event>
<event>
 5   0  0.4449262E-07  0.3159507E+04  0.7818609E-02  0.8199594E-01
        2   -1    0    0  501    0  0.00000000000E+00  0.00000000000E+00  0.22170897455E+04  0.22170897455E+04  0.25500000920E-02 0.  1.
       -2   -1    0    0    0  501  0.00000000000E+00  0.00000000000E+00 -0.11256294533E+04  0.11256294533E+04  0.25500000920E-02 0. -1.
    10030    2    1    2    0    0  0.00000000000E+00  0.00000000000E+00  0.10914602921E+04  0.33427191988E+04  0.31595072516E+04 0.  0.
        1    1    3    3  502    0  0.38408133542E+03  0.66502354304E+03 -0.91484708210E+03  0.11944538370E+04  0.50400001928E-02 0. -1.
       -1    1    3    3    0  502 -0.38408133542E+03 -0.66502354304E+03  0.20063073742E+04  0.21482653619E+04  0.50400001928E-02 0.  1.
</event>
<event>
 5   0  0.6043512E-07  0.4000533E+04  0.7818609E-02  0.8004439E-01
       -2   -1    0    0    0  501  0.00000000000E+00  0.00000000000E+00  0.15679558273E+04  0.15679558274E+04  0.25500000920E-02 0. -1.
        2   -1    0    0  501    0  0.00000000000E+00  0.00000000000E+00 -0.25517726097E+04  0.25517726097E+04  0.25500000920E-02 0.  1.
    10030    2    1    2    0    0  0.00000000000E+00  0.00000000000E+00 -0.98381678234E+03  0.41197284370E+04  0.40005333312E+04 0.  0.
        3    1    3    3  502    0  0.19963802498E+04  0.11250059713E+03 -0.43667991728E+03  0.20466753153E+04  0.10100000352E+00 0.  1.
       -3    1    3    3    0  502 -0.19963802498E+04 -0.11250059713E+03 -0.54713686506E+03  0.20730531217E+04  0.10100000352E+00 0. -1.
</event>
<event>
 5   0  0.2713405E-07  0.2945842E+04  0.7818609E-02  0.8259367E-01
       -1   -1    0    0    0  501  0.00000000000E+00  0.00000000000E+00  0.10765723296E+04  0.10765723296E+04  0.50400001928E-02 0. -1.
        1   -1    0    0  501    0  0.00000000000E+00  0.00000000000E+00 -0.20151882031E+04  0.20151882031E+04  0.50400001928E-02 0.  1.
    10030    2    1    2    0    0  0.00000000000E+00  0.00000000000E+00 -0.93861587350E+03  0.30917605326E+04  0.29458417190E+04 0.  0.
        1    1    3    3  502    0  0.74056330294E+03 -0.25734506947E+03 -0.17780035483E+04  0.19431822118E+04  0.50400001928E-02 0.  1.
       -1    1    3    3    0  502 -0.74056330294E+03  0.25734506947E+03  0.83938767480E+03  0.11485783208E+04  0.50400001928E-02 0. -1.
</event>
<event>
 5   0  0.2401125E-07  0.2076092E+04  0.7818609E-02  0.8571849E-01
        1   -1    0    0  501    0  0.00000000000E+00  0.00000000000E+00  0.23124699409E+04  0.23124699409E+04  0.50400001928E-02 0.  1.
       -1   -1    0    0    0  501  0.00000000000E+00  0.00000000000E+00 -0.46596891578E+03  0.46596891581E+03  0.50400001928E-02 0. -1.
    10030    2    1    2    0    0  0.00000000000E+00  0.00000000000E+00  0.18465010252E+04  0.27784388568E+04  0.20760916273E+04 0.  0.
        5    1    3    3  502    0  0.73844531005E+03 -0.65303563276E+03  0.13584767450E+04  0.16784630381E+04  0.46999998093E+01 0.  1.
       -5    1    3    3    0  502 -0.73844531005E+03  0.65303563276E+03  0.48802428019E+03  0.10999758187E+04  0.46999998093E+01 0. -1.
</event>
<event>
 5   0  0.2647879E-07  0.3832626E+04  0.7818609E-02  0.8039189E-01
        1   -1    0    0  501    0  0.00000000000E+00  0.00000000000E+00  0.29043297067E+04  0.29043297067E+04  0.50400001928E-02 0. -1.
       -1   -1    0    0    0  501  0.00000000000E+00  0.00000000000E+00 -0.12644075002E+04  0.12644075002E+04  0.50400001928E-02 0.  1.
    10030    2    1    2    0    0  0.00000000000E+00  0.00000000000E+00  0.16399222066E+04  0.41687372069E+04  0.38326263915E+04 0.  0.
        2    1    3    3  502    0 -0.11579611027E+04  0.15280495143E+03  0.24724138117E+04  0.27344201076E+04  0.25500000920E-02 0. -1.
       -2    1    3    3    0  502  0.11579611027E+04 -0.15280495143E+03 -0.83249160513E+03  0.14343170993E+04  0.25500000920E-02 0.  1.
</event>
<event>
 5   0  0.7256473E-07  0.3893797E+04  0.7818609E-02  0.8026321E-01
       -2   -1    0    0    0  501  0.00000000000E+00  0.00000000000E+00  0.18474318760E+04  0.18474318760E+04  0.25500000920E-02 0.  1.
        2   -1    0    0  501    0  0.00000000000E+00  0.00000000000E+00 -0.20517206670E+04  0.20517206670E+04  0.25500000920E-02 0. -1.
    10030    2    1    2    0    0  0.00000000000E+00  0.00000000000E+00 -0.20428879102E+03  0.38991525430E+04  0.38937972012E+04 0.  0.
        4    1    3    3  502    0 -0.11497360184E+03  0.13676885902E+04 -0.14848481589E+04  0.20220204442E+04  0.12699999809E+01 0. -1.
       -4    1    3    3    0  502  0.11497360184E+03 -0.13676885902E+04  0.12805593679E+04  0.18771320988E+04  0.12699999809E+01 0.  1.
</event>
<event>
 5   0  0.2713405E-07  0.4159250E+04  0.7818609E-02  0.7973169E-01
        1   -1    0    0  501    0  0.00000000000E+00  0.00000000000E+00  0.28064509488E+04  0.28064509488E+04  0.50400001928E-02 0.  1.
       -1   -1    0    0    0  501  0.00000000000E+00  0.00000000000E+00 -0.15410349970E+04  0.15410349970E+04  0.50400001928E-02 0. -1.
    10030    2    1    2    0    0  0.00000000000E+00  0.00000000000E+00  0.12654159518E+04  0.43474859458E+04  0.41592495138E+04 0.  0.
        1    1    3    3  502    0 -0.20315613818E+04 -0.12059513502E+02  0.16824186143E+03  0.20385515456E+04  0.50400001928E-02 0. -1.
       -1    1    3    3    0  502  0.20315613818E+04  0.12059513502E+02  0.10971740904E+04  0.23089344003E+04  0.50400001928E-02 0.  1.
</event>
<event>
 5   0  0.6043512E-07  0.3953936E+04  0.7818609E-02  0.8013904E-01
       -2   -1    0    0    0  501  0.00000000000E+00  0.00000000000E+00  0.29155142803E+04  0.29155142803E+04  0.25500000920E-02 0. -1.
        2   -1    0    0  501    0  0.00000000000E+00  0.00000000000E+00 -0.13405532776E+04  0.13405532776E+04  0.25500000920E-02 0.  1.
    10030    2    1    2    0    0  0.00000000000E+00  0.00000000000E+00  0.15749610027E+04  0.42560675579E+04  0.39539358743E+04 0.  0.
        3    1    3    3  502    0 -0.12602670935E+04  0.36683658645E+03 -0.80384952315E+03  0.15391609059E+04  0.10100000352E+00 0.  1.
       -3    1    3    3    0  502  0.12602670935E+04 -0.36683658645E+03  0.23788105258E+04  0.27169066521E+04  0.10100000352E+00 0. -1.
</event>
<event>
 5   0  0.5161550E-07  0.3299487E+04  0.7818609E-02  0.8163026E-01
       -2   -1    0    0    0  501  0.00000000000E+00  0.00000000000E+00  0.15306713852E+04  0.15306713852E+04  0.25500000920E-02 0.  1.
        2   -1    0    0  501    0  0.00000000000E+00  0.00000000000E+00 -0.17780778272E+04  0.17780778272E+04  0.25500000920E-02 0. -1.
    10030    2    1    2    0    0  0.00000000000E+00  0.00000000000E+00 -0.24740644205E+03  0.33087492124E+04  0.32994865363E+04 0.  0.
        2    1    3    3  502    0 -0.66681952745E+03  0.44488316126E+03 -0.15696538370E+04  0.17624932560E+04  0.25500000920E-02 0. -1.
       -2    1    3    3    0  502  0.66681952745E+03 -0.44488316126E+03  0.13222473949E+04  0.15462559564E+04  0.25500000920E-02 0.  1.
</event>
<event>
 5   0  0.6043512E-07  0.3985561E+04  0.7818609E-02  0.8007466E-01
       -2   -1    0    0    0  501  0.00000000000E+00  0.00000000000E+00  0.17444892829E+04  0.17444892829E+04  0.25500000920E-02 0.  1.
        2   -1    0    0  501    0  0.00000000000E+00  0.00000000000E+00 -0.22764107036E+04  0.22764107036E+04  0.25500000920E-02 0. -1.
    10030    2    1    2    0    0  0.00000000000E+00  0.00000000000E+00 -0.53192142077E+03  0.40208999865E+04  0.39855609773E+04 0.  0.
        3    1    3    3  502    0 -0.41480541888E+03 -0.33376137696E+03 -0.22033300455E+04  0.22667429259E+04  0.10100000352E+00 0. -1.
       -3    1    3    3    0  502  0.41480541888E+03  0.33376137696E+03  0.16714086248E+04  0.17541570606E+04  0.10100000352E+00 0.  1.
</event>
<event>
 5   0  0.2601252E-07  0.4009998E+04  0.7818609E-02  0.8002533E-01
        1   -1    0    0  501    0  0.00000000000E+00  0.00000000000E+00  0.22405977794E+04  0.22405977794E+04  0.50400001928E-02 0. -1.
       -1   -1    0    0    0  501  0.00000000000E+00  0.00000000000E+00 -0.17941737659E+04  0.17941737659E+04  0.50400001928E-02 0.  1.
    10030    2    1    2    0    0  0.00000000000E+00  0.00000000000E+00  0.44642401348E+03  0.40347715453E+04  0.40099983819E+04 0.  0.
        3    1    3    3  502    0 -0.17487715744E+04  0.80360752962E+03  0.78885461021E+03  0.20799708381E+04  0.10100000352E+00 0. -1.
       -3    1    3    3    0  502  0.17487715744E+04 -0.80360752962E+03 -0.34243059673E+03  0.19548007072E+04  0.10100000352E+00 0.  1.
</event>
<event>
 5   0  0.7570277E-07  0.3182766E+04  0.7818609E-02  0.8193383E-01
        2   -1    0    0  501    0  0.00000000000E+00  0.00000000000E+00  0.12035427683E+04  0.12035427683E+04  0.25500000920E-02 0. -1.
       -2   -1    0    0    0  501  0.00000000000E+00  0.00000000000E+00 -0.21042043752E+04  0.21042043752E+04  0.25500000920E-02 0.  1.
    10030    2    1    2    0    0  0.00000000000E+00  0.00000000000E+00 -0.90066160686E+03  0.33077471435E+04  0.31827660667E+04 0.  0.
        5    1    3    3  502    0 -0.32890528781E+03  0.15056862147E+04 -0.86239528928E+03  0.17660740048E+04  0.46999998093E+01 0. -1.
       -5    1    3    3    0  502  0.32890528781E+03 -0.15056862147E+04 -0.38266317581E+02  0.15416731387E+04  0.46999998093E+01 0.  1.
</event>
<event>
 5   0  0.4449262E-07  0.2962149E+04  0.7818609E-02  0.8254623E-01
        2   -1    0    0  501    0  0.00000000000E+00  0.00000000000E+00  0.13710611134E+04  0.13710611134E+04  0.25500000920E-02 0. -1.
       -2   -1    0    0    0  501  0.00000000000E+00  0.00000000000E+00 -0.15999155476E+04  0.15999155476E+04  0.25500000920E-02 0.  1.
    10030    2    1    2    0    0  0.00000000000E+00  0.00000000000E+00 -0.22885443414E+03  0.29709766610E+04  0.29621492144E+04 0.  0.
        1    1    3    3  502    0  0.51070562012E+03  0.13839774294E+04 -0.24660856304E+03  0.14956702641E+04  0.50400001928E-02 0.  1.
       -1    1    3    3    0  502 -0.51070562012E+03 -0.13839774294E+04  0.17754128907E+02  0.14753063969E+04  0.50400001928E-02 0. -1.
</event>
<event>
 5   0  0.7570277E-07  0.3855360E+04  0.7818609E-02  0.8034378E-01
        2   -1    0    0  501    0  0.00000000000E+00  0.00000000000E+00  0.23551157957E+04  0.23551157957E+04  0.25500000920E-02 0. -1.
       -2   -1    0    0    0  501  0.00000000000E+00  0.00000000000E+00 -0.15778201927E+04  0.15778201927E+04  0.25500000920E-02 0.  1.
    10030    2    1    2    0    0  0.00000000000E+00  0.00000000000E+00  0.77729560293E+03  0.39329359884E+04  0.38553595208E+04 0.  0.
        5    1    3    3  502    0  0.11793913517E+04  0.14740078775E+04  0.78670968253E+03  0.20451399458E+04  0.46999998093E+01 0. -1.
       -5    1    3    3    0  502 -0.11793913517E+04 -0.14740078775E+04 -0.94140795997E+01  0.18877960426E+04  0.46999998093E+01 0.  1.
</event>
<event>
 5   0  0.7256473E-07  0.3942130E+04  0.7818609E-02  0.8016324E-01
        2   -1    0    0  501    0  0.00000000000E+00  0.00000000000E+00  0.28551419470E+04  0.28551419470E+04  0.25500000920E-02 0.  1.
       -2   -1    0    0    0  501  0.00000000000E+00  0.00000000000E+00 -0.13607370336E+04  0.13607370336E+04  0.25500000920E-02 0. -1.
    10030    2    1    2    0    0  0.00000000000E+00  0.00000000000E+00  0.14944049135E+04  0.42158789806E+04  0.39421300757E+04 0.  0.
        4    1    3    3  502    0 -0.14100332919E+04 -0.13754510608E+04  0.67130774648E+03  0.20810370511E+04  0.12699999809E+01 0. -1.
       -4    1    3    3    0  502  0.14100332919E+04  0.13754510608E+04  0.82309716697E+03  0.21348419295E+04  0.12699999809E+01 0.  1.
</event>
<event>
 5   0  0.2401125E-07  0.3983387E+04  0.7818609E-02  0.8007906E-01
        1   -1    0    0  501    0  0.00000000000E+00  0.00000000000E+00  0.25352843019E+04  0.25352843019E+04  0.50400001928E-02 0. -1.
       -1   -1    0    0    0  501  0.00000000000E+00  0.00000000000E+00 -0.15646541652E+04  0.15646541652E+04  0.50400001928E-02 0.  1.
    10030    2    1    2    0    0  0.00000000000E+00  0.00000000000E+00  0.97063013671E+03  0.40999384670E+04  0.39833870727E+04 0.  0.
        5    1    3    3  502    0  0.15651681459E+04  0.58561509676E+03 -0.62995985887E+03  0.17859361355E+04  0.46999998093E+01 0.  1.
       -5    1    3    3    0  502 -0.15651681459E+04 -0.58561509676E+03  0.16005899956E+04  0.23140023315E+04  0.46999998093E+01 0. -1.
</event>
<event>
 5   0  0.2647879E-07  0.2741795E+04  0.7818609E-02  0.8321570E-01
       -1   -1    0    0    0  501  0.00000000000E+00  0.00000000000E+00  0.11132576461E+04  0.11132576461E+04  0.50400001928E-02 0.  1.
        1   -1    0    0  501    0  0.00000000000E+00  0.00000000000E+00 -0.16881623525E+04  0.16881623525E+04  0.50400001928E-02 0. -1.
    10030    2    1    2    0    0  0.00000000000E+00  0.00000000000E+00 -0.57490470642E+03  0.28014199985E+04  0.27417947747E+04 0.  0.
        2    1    3    3  502    0 -0.77156750596E+03  0.11115352406E+04 -0.62360262582E+02  0.13545168178E+04  0.25500000920E-02 0. -1.
       -2    1    3    3    0  502  0.77156750596E+03 -0.11115352406E+04 -0.51254444384E+03  0.14469031807E+04  0.25500000920E-02 0.  1.
</event>
<event>
 5   0  0.3579559E-07  0.4070720E+04  0.7818609E-02  0.7990430E-01
        1   -1    0    0  501    0  0.00000000000E+00  0.00000000000E+00  0.26556173659E+04  0.26556173659E+04  0.50400001928E-02 0. -1.
       -1   -1    0    0    0  501  0.00000000000E+00  0.00000000000E+00 -0.15599722724E+04  0.15599722724E+04  0.50400001928E-02 0.  1.
    10030    2    1    2    0    0  0.00000000000E+00  0.00000000000E+00  0.10956450935E+04  0.42155896384E+04  0.40707195713E+04 0.  0.
        4    1    3    3  502    0  0.59476314093E+03  0.19452314900E+04  0.47445565973E+03  0.20887265330E+04  0.12699999809E+01 0. -1.
       -4    1    3    3    0  502 -0.59476314093E+03 -0.19452314900E+04  0.62118943378E+03  0.21268631054E+04  0.12699999809E+01 0.  1.
</event>
<event>
 5   0  0.2601252E-07  0.2078783E+04  0.7818609E-02  0.8570648E-01
        1   -1    0    0  501    0  0.00000000000E+00  0.00000000000E+00  0.99194111815E+03  0.99194111816E+03  0.50400001928E-02 0. -1.
       -1   -1    0    0    0  501  0.00000000000E+00  0.00000000000E+00 -0.10891115110E+04  0.10891115110E+04  0.50400001928E-02 0.  1.
    10030    2    1    2    0    0  0.00000000000E+00  0.00000000000E+00 -0.97170392873E+02  0.20810526292E+04  0.20787828074E+04 0.  0.
        3    1    3    3  502    0 -0.37502379225E+03  0.33688053189E+03  0.86136446640E+03  0.99803812137E+03  0.10100000352E+00 0. -1.
       -3    1    3    3    0  502  0.37502379225E+03 -0.33688053189E+03 -0.95853485927E+03  0.10830145078E+04  0.10100000352E+00 0.  1.
</event>
<event>
 5   0  0.2713405E-07  0.3644549E+04  0.7818609E-02  0.8080363E-01
        1   -1    0    0  501    0  0.00000000000E+00  0.00000000000E+00  0.12583840442E+04  0.12583840442E+04  0.50400001928E-02 0.  1.
       -1   -1    0    0    0  501  0.00000000000E+00  0.00000000000E+00 -0.26388486423E+04  0.26388486423E+04  0.50400001928E-02 0. -1.
    10030    2    1    2    0    0  0.00000000000E+00  0.00000000000E+00 -0.13804645982E+04  0.38972326865E+04  0.36445493694E+04 0.  0.
        1    1    3    3  502    0 -0.77868359242E+03 -0.71279591280E+03 -0.22785622805E+04  0.25112292242E+04  0.50400001928E-02 0. -1.
       -1    1    3    3    0  502  0.77868359242E+03  0.71279591280E+03  0.89809768234E+03  0.13860034623E+04  0.50400001928E-02 0.  1.
</event>
<event>
 5   0  0.5161550E-07  0.2543676E+04  0.7818609E-02  0.8387589E-01
       -2   -1    0    0    0  501  0.00000000000E+00  0.00000000000E+00  0.28564417702E+04  0.28564417702E+04  0.25500000920E-02 0.  1.
        2   -1    0    0  501    0  0.00000000000E+00  0.00000000000E+00 -0.56628930559E+03  0.56628930560E+03  0.25500000920E-02 0. -1.
    10030    2    1    2    0    0  0.00000000000E+00  0.00000000000E+00  0.22901524646E+04  0.34227310758E+04  0.25436764154E+04 0.  0.
        2    1    3    3  502    0  0.71560066253E+03 -0.36843773463E+03 -0.17999419730E+03  0.82475971263E+03  0.25500000920E-02 0. -1.
       -2    1    3    3    0  502 -0.71560066253E+03  0.36843773463E+03  0.24701466619E+04  0.25979713632E+04  0.25500000920E-02 0.  1.
</event>
<event>
 5   0  0.2647879E-07  0.2101403E+04  0.7818609E-02  0.8560626E-01
        1   -1    0    0  501    0  0.00000000000E+00  0.00000000000E+00  0.15650664125E+04  0.15650664125E+04  0.50400001928E-02 0.  1.
       -1   -1    0    0    0  501  0.00000000000E+00  0.00000000000E+00 -0.70538446651E+03  0.70538446653E+03  0.50400001928E-02 0. -1.
    10030    2    1    2    0    0  0.00000000000E+00  0.00000000000E+00  0.85968194594E+03  0.22704508790E+04  0.21014028994E+04 0.  0.
        2    1    3    3  502    0  0.87067867244E+03 -0.43481844570E+03  0.19722145796E+01  0.97321750961E+03  0.25500000920E-02 0. -1.
       -2    1    3    3    0  502 -0.87067867244E+03  0.43481844570E+03  0.85770973136E+03  0.12972333694E+04  0.25500000920E-02 0.  1.
</event>
<event>
 5   0  0.4449262E-07  0.2984728E+04  0.7818609E-02  0.8248105E-01
       -2   -1    0    0    0  501  0.00000000000E+00  0.00000000000E+00  0.14370850270E+04  0.14370850270E+04  0.25500000920E-02 0. -1.
        2   -1    0    0  501    0  0.00000000000E+00  0.00000000000E+00 -0.15497698550E+04  0.15497698550E+04  0.25500000920E-02 0.  1.
    10030    2    1    2    0    0  0.00000000000E+00  0.00000000000E+00 -0.11268482800E+03  0.29868548820E+04  0.29847284995E+04 0.  0.
        1    1    3    3  502    0 -0.66710634809E+03 -0.12260260571E+04  0.47221971659E+03  0.14734864211E+04  0.50400001928E-02 0. -1.
       -1    1    3    3    0  502  0.66710634809E+03  0.12260260571E+04 -0.58490454460E+03  0.15133684610E+04  0.50400001928E-02 0.  1.
</event>
<event>
 5   0  0.2401125E-07  0.2167560E+04  0.7818609E-02  0.8532053E-01
       -1   -1    0    0    0  501  0.00000000000E+00  0.00000000000E+00  0.63728797826E+03  0.63728797828E+03  0.50400001928E-02 0.  1.
        1   -1    0    0  501    0  0.00000000000E+00  0.00000000000E+00 -0.18430896621E+04  0.18430896621E+04  0.50400001928E-02 0. -1.
    10030    2    1    2    0    0  0.00000000000E+00  0.00000000000E+00 -0.12058016839E+04  0.24803776404E+04  0.21675598119E+04 0.  0.
        5    1    3    3  502    0  0.35892466867E+03 -0.12266555098E+03  0.55884006570E+03  0.67542435861E+03  0.46999998093E+01 0.  1.
       -5    1    3    3    0  502 -0.35892466867E+03  0.12266555098E+03 -0.17646417496E+04  0.18049532818E+04  0.46999998093E+01 0. -1.
</event>
<event>
 5   0  0.5161550E-07  0.2890849E+04  0.7818609E-02  0.8275606E-01
        2   -1    0    0  501    0  0.00000000000E+00  0.00000000000E+00  0.13140083508E+04  0.13140083508E+04  0.25500000920E-02 0. -1.
       -2   -1    0    0    0  501  0.00000000000E+00  0.00000000000E+00 -0.15899833047E+04  0.15899833047E+04  0.25500000920E-02 0.  1.
    10030    2    1    2    0    0  0.00000000000E+00  0.00000000000E+00 -0.27597495389E+03  0.29039916554E+04  0.28908485536E+04 0.  0.
        2    1    3    3  502    0  0.68348415558E+03  0.73720780228E+03  0.90530324774E+03  0.13528488109E+04  0.25500000920E-02 0. -1.
       -2    1    3    3    0  502 -0.68348415558E+03 -0.73720780228E+03 -0.11812782016E+04  0.15511428446E+04  0.25500000920E-02 0.  1.
</event>
<event>
 5   0  0.3579559E-07  0.2196513E+04  0.7818609E-02  0.8519881E-01
       -1   -1    0    0    0  501  0.00000000000E+00  0.00000000000E+00  0.28095901837E+04  0.28095901837E+04  0.50400001928E-02 0. -1.
        1   -1    0    0  501    0  0.00000000000E+00  0.00000000000E+00 -0.42930367822E+03  0.42930367825E+03  0.50400001928E-02 0.  1.
    10030    2    1    2    0    0  0.00000000000E+00  0.00000000000E+00  0.23802865055E+04  0.32388938620E+04  0.21965130550E+04 0.  0.
        4    1    3    3  502    0  0.44497348003E+03 -0.55091699060E+03  0.24279451758E+04  0.25291165094E+04  0.12699999809E+01 0. -1.
       -4    1    3    3    0  502 -0.44497348003E+03  0.55091699060E+03 -0.47658670317E+02  0.70977735257E+03  0.12699999809E+01 0.  1.
</event>
<event>
 5   0  0.6043512E-07  0.3997897E+04  0.7818609E-02  0.8004971E-01
        2   -1    0    0  501    0  0.00000000000E+00  0.00000000000E+00  0.14657173188E+04  0.14657173188E+04  0.25500000920E-02 0. -1.
       -2   -1    0    0    0  501  0.00000000000E+00  0.00000000000E+00 -0.27261698854E+04  0.27261698854E+04  0.25500000920E-02 0.  1.
    10030    2    1    2    0    0  0.00000000000E+00  0.00000000000E+00 -0.12604525666E+04  0.41918872042E+04  0.39978966545E+04 0.  0.
        3    1    3    3  502    0 -0.98003192678E+03  0.25109947836E+03  0.11774595250E+04  0.15523931424E+04  0.10100000352E+00 0. -1.
       -3    1    3    3    0  502  0.98003192678E+03 -0.25109947836E+03 -0.24379120916E+04  0.26394940618E+04  0.10100000352E+00 0.  1.
</event>
<event>
 5   0  0.2401125E-07  0.2623034E+04  0.7818609E-02  0.8360419E-01
       -1   -1    0    0    0  501  0.00000000000E+00  0.00000000000E+00  0.17955299948E+04  0.17955299948E+04  0.50400001928E-02 0.  1.
        1   -1    0    0  501    0  0.00000000000E+00  0.00000000000E+00 -0.95797745444E+03  0.95797745445E+03  0.50400001928E-02 0. -1.
    10030    2    1    2    0    0  0.00000000000E+00  0.00000000000E+00  0.83755254039E+03  0.27535074493E+04  0.26230343146E+04 0.  0.
        5    1    3    3  502    0 -0.93550718704E+02  0.11398742548E+04 -0.25501546420E+03  0.11718020442E+04  0.46999998093E+01 0.  1.
       -5    1    3    3    0  502  0.93550718704E+02 -0.11398742548E+04  0.10925680046E+04  0.15817054051E+04  0.46999998093E+01 0. -1.
</event>
<event>
 5   0  0.4449262E-07  0.4065578E+04  0.7818609E-02  0.7991446E-01
        2   -1    0    0  501    0  0.00000000000E+00  0.00000000000E+00  0.16810099868E+04  0.16810099868E+04  0.25500000920E-02 0. -1.
       -2   -1    0    0    0  501  0.00000000000E+00  0.00000000000E+00 -0.24581837910E+04  0.24581837910E+04  0.25500000920E-02 0.  1.
    10030    2    1    2    0    0  0.00000000000E+00  0.00000000000E+00 -0.77717380423E+03  0.41391937778E+04  0.40655781887E+04 0.  0.
        1    1    3    3  502    0 -0.13220428055E+04  0.12246134383E+04  0.56905967378E+03  0.18897894500E+04  0.50400001928E-02 0. -1.
       -1    1    3    3    0  502  0.13220428055E+04 -0.12246134383E+04 -0.13462334780E+04  0.22494043279E+04  0.50400001928E-02 0.  1.
</event>
<event>
 5   0  0.4449262E-07  0.3851562E+04  0.7818609E-02  0.8035179E-01
       -2   -1    0    0    0  501  0.00000000000E+00  0.00000000000E+00  0.14166405723E+04  0.14166405723E+04  0.25500000920E-02 0. -1.
        2   -1    0    0  501    0  0.00000000000E+00  0.00000000000E+00 -0.26179066265E+04  0.26179066265E+04  0.25500000920E-02 0.  1.
    10030    2    1    2    0    0  0.00000000000E+00  0.00000000000E+00 -0.12012660542E+04  0.40345471988E+04  0.38515621462E+04 0.  0.
        1    1    3    3  502    0  0.14590734440E+04  0.12565543946E+04 -0.57084837694E+03  0.20084053702E+04  0.50400001928E-02 0.  1.
       -1    1    3    3    0  502 -0.14590734440E+04 -0.12565543946E+04 -0.63041767723E+03  0.20261418286E+04  0.50400001928E-02 0. -1.
</event>
<event>
 5   0  0.3579559E-07  0.2328316E+04  0.7818609E-02  0.8466839E-01
        1   -1    0    0  501    0  0.00000000000E+00  0.00000000000E+00  0.88893616997E+03  0.88893616998E+03  0.50400001928E-02 0. -1.
       -1   -1    0    0    0  501  0.00000000000E+00  0.00000000000E+00 -0.15245911391E+04  0.15245911391E+04  0.50400001928E-02 0.  1.
    10030    2    1    2    0    0  0.00000000000E+00  0.00000000000E+00 -0.63565496910E+03  0.24135273091E+04  0.23283163084E+04 0.  0.
        4    1    3    3  502    0 -0.80671731695E+03 -0.76616998354E+03  0.37429716050E+02  0.11131989354E+04  0.12699999809E+01 0. -1.
       -4    1    3    3    0  502  0.80671731695E+03  0.76616998354E+03 -0.67308468515E+03  0.13003283737E+04  0.12699999809E+01 0.  1.
</event>
<event>
 5   0  0.6043512E-07  0.2755761E+04  0.7818609E-02  0.8317136E-01
       -2   -1    0    0    0  501  0.00000000000E+00  0.00000000000E+00  0.12754222271E+04  0.12754222271E+04  0.25500000920E-02 0. -1.
        2   -1    0    0  501    0  0.00000000000E+00  0.00000000000E+00 -0.14885700219E+04  0.14885700219E+04  0.25500000920E-02 0.  1.
    10030    2    1    2    0    0  0.00000000000E+00  0.00000000000E+00 -0.21314779480E+03  0.27639922491E+04  0.27557614502E+04 0.  0.
        3    1    3    3  502    0 -0.13211959565E+04 -0.61277573823E+02 -0.49404572222E+03  0.14118763693E+04  0.10100000352E+00 0.  1.
       -3    1    3    3    0  502  0.13211959565E+04  0.61277573823E+02  0.28089792742E+03  0.13521158797E+04  0.10100000352E+00 0. -1.
</event>
<event>
 5   0  0.4449262E-07  0.3992064E+04  0.7818609E-02  0.8006149E-01
       -2   -1    0    0    0  501  0.00000000000E+00  0.00000000000E+00  0.19006514491E+04  0.19006514491E+04  0.25500000920E-02 0.  1.
        2   -1    0    0  501    0  0.00000000000E+00  0.00000000000E+00 -0.20961995632E+04  0.20961995632E+04  0.25500000920E-02 0. -1.
    10030    2    1    2    0    0  0.00000000000E+00  0.00000000000E+00 -0.19554811410E+03  0.39968510123E+04  0.39920644971E+04 0.  0.
        1    1    3    3  502    0 -0.11003755836E+04 -0.13805509280E+04  0.83468437448E+03  0.19528044692E+04  0.50400001928E-02 0.  1.
       -1    1    3    3    0  502  0.11003755836E+04  0.13805509280E+04 -0.10302324886E+04  0.20440465431E+04  0.50400001928E-02 0. -1.
</event>
<event>
 5   0  0.4449262E-07  0.3295116E+04  0.7818609E-02  0.8164139E-01
       -2   -1    0    0    0  501  0.00000000000E+00  0.00000000000E+00  0.90339345850E+03  0.90339345850E+03  0.25500000920E-02 0.  1.
        2   -1    0    0  501    0  0.00000000000E+00  0.00000000000E+00 -0.30047229450E+04  0.30047229450E+04  0.25500000920E-02 0. -1.
    10030    2    1    2    0    0  0.00000000000E+00  0.00000000000E+00 -0.21013294865E+04  0.39081164035E+04  0.32951158117E+04 0.  0.
        1    1    3    3  502    0  0.43436968687E+03 -0.11310664700E+04 -0.23748103647E+04  0.26660293795E+04  0.50400001928E-02 0. -1.
       -1    1    3    3    0  502 -0.43436968687E+03  0.11310664700E+04  0.27348087817E+03  0.12420870240E+04  0.50400001928E-02 0.  1.
</event>
<event>
 5   0  0.2601252E-07  0.3660565E+04  0.7818609E-02  0.8076758E-01
       -1   -1    0    0    0  501  0.00000000000E+00  0.00000000000E+00  0.16719111015E+04  0.16719111015E+04  0.50400001928E-02 0.  1.
        1   -1    0    0  501    0  0.00000000000E+00  0.00000000000E+00 -0.20036555928E+04  0.20036555928E+04  0.50400001928E-02 0. -1.
    10030    2    1    2    0    0  0.00000000000E+00  0.00000000000E+00 -0.33174449123E+03  0.36755666943E+04  0.36605649997E+04 0.  0.
        3    1    3    3  502    0  0.66195996453E+03  0.93342637631E+03 -0.16001723779E+04  0.19672385325E+04  0.10100000352E+00 0. -1.
       -3    1    3    3    0  502 -0.66195996453E+03 -0.93342637631E+03  0.12684278866E+04  0.17083281618E+04  0.10100000352E+00 0.  1.
</event>
<event>
 5   0  0.4449262E-07  0.2819243E+04  0.7818609E-02  0.8297319E-01
       -2   -1    0    0    0  501  0.00000000000E+00  0.00000000000E+00  0.10696247903E+04  0.10696247903E+04  0.25500000920E-02 0.  1.
        2   -1    0    0  501    0  0.00000000000E+00  0.00000000000E+00 -0.18576917047E+04  0.18576917047E+04  0.25500000920E-02 0. -1.
    10030    2    1    2    0    0  0.00000000000E+00  0.00000000000E+00 -0.78806691435E+03  0.29273164950E+04  0.28192432319E+04 0.  0.
        1    1    3    3  502    0 -0.12248325960E+04 -0.67350710750E+03 -0.20482177227E+03  0.14127203086E+04  0.50400001928E-02 0. -1.
       -1    1    3    3    0  502  0.12248325960E+04  0.67350710750E+03 -0.58324514209E+03  0.15145961864E+04  0.50400001928E-02 0.  1.
</event>
<event>
 5   0  0.7570277E-07  0.4007211E+04  0.7818609E-02  0.8003093E-01
       -2   -1    0    0    0  501  0.00000000000E+00  0.00000000000E+00  0.20980486739E+04  0.20980486739E+04  0.25500000920E-02 0. -1.
        2   -1    0    0  501    0  0.00000000000E+00  0.00000000000E+00 -0.19134135806E+04  0.19134135806E+04  0.25500000920E-02 0.  1.
    10030    2    1    2    0    0  0.00000000000E+00  0.00000000000E+00  0.18463509327E+03  0.40114622544E+04  0.40072109130E+04 0.  0.
        5    1    3    3  502    0  0.13061493733E+04 -0.14781258866E+04 -0.25952427109E+03  0.19895369460E+04  0.46999998093E+01 0.  1.
       -5    1    3    3    0  502 -0.13061493733E+04  0.14781258866E+04  0.44415936436E+03  0.20219253085E+04  0.46999998093E+01 0. -1.
</event>
<event>
 5   0  0.2647879E-07  0.4041743E+04  0.7818609E-02  0.7996178E-01
       -1   -1    0    0    0  501  0.00000000000E+00  0.00000000000E+00  0.17926246075E+04  0.17926246075E+04  0.50400001928E-02 0.  1.
        1   -1    0    0  501    0  0.00000000000E+00  0.00000000000E+00 -0.22781797795E+04  0.22781797795E+04  0.50400001928E-02 0. -1.
    10030    2    1    2    0    0  0.00000000000E+00  0.00000000000E+00 -0.48555517197E+03  0.40708043870E+04  0.40417427593E+04 0.  0.
        2    1    3    3  502    0 -0.19525304591E+04  0.41845606140E+03 -0.55555919551E+03  0.20727099867E+04  0.25500000920E-02 0. -1.
       -2    1    3    3    0  502  0.19525304591E+04 -0.41845606140E+03  0.70004023534E+02  0.19980944003E+04  0.25500000920E-02 0.  1.
</event>
<event>
 5   0  0.4449262E-07  0.3928293E+04  0.7818609E-02  0.8019170E-01
        2   -1    0    0  501    0  0.00000000000E+00  0.00000000000E+00  0.28171150237E+04  0.28171150237E+04  0.25500000920E-02 0.  1.
       -2   -1    0    0    0  501  0.00000000000E+00  0.00000000000E+00 -0.13694403744E+04  0.13694403744E+04  0.25500000920E-02 0. -1.
    10030    2    1    2    0    0  0.00000000000E+00  0.00000000000E+00  0.14476746493E+04  0.41865553981E+04  0.39282927858E+04 0.  0.
        1    1    3    3  502    0  0.10382976626E+04 -0.90759500876E+03 -0.76671193919E+03  0.15778586546E+04  0.50400001928E-02 0. -1.
       -1    1    3    3    0  502 -0.10382976626E+04  0.90759500876E+03  0.22143865885E+04  0.26086967435E+04  0.50400001928E-02 0.  1.
</event>
<event>
 5   0  0.2601252E-07  0.4005374E+04  0.7818609E-02  0.8003463E-01
       -1   -1    0    0    0  501  0.00000000000E+00  0.00000000000E+00  0.13188475037E+04  0.13188475037E+04  0.50400001928E-02 0. -1.
        1   -1    0    0  501    0  0.00000000000E+00  0.00000000000E+00 -0.30411055902E+04  0.30411055902E+04  0.50400001928E-02 0.  1.
    10030    2    1    2    0    0  0.00000000000E+00  0.00000000000E+00 -0.17222580865E+04  0.43599530939E+04  0.40053736485E+04 0.  0.
        3    1    3    3  502    0 -0.13788646982E+04 -0.11187465550E+04 -0.18693490034E+04  0.25782411479E+04  0.10100000352E+00 0.  1.
       -3    1    3    3    0  502  0.13788646982E+04  0.11187465550E+04  0.14709091686E+03  0.17817119459E+04  0.10100000352E+00 0. -1.
</event>
<event>
 5   0  0.3579559E-07  0.2052617E+04  0.7818609E-02  0.8582408E-01
        1   -1    0    0  501    0  0.00000000000E+00  0.00000000000E+00  0.29098844182E+04  0.29098844182E+04  0.50400001928E-02 0. -1.
       -1   -1    0    0    0  501  0.00000000000E+00  0.00000000000E+00 -0.36197613499E+03  0.36197613503E+03  0.50400001928E-02 0.  1.
    10030    2    1    2    0    0  0.00000000000E+00  0.00000000000E+00  0.25479082832E+04  0.32718605532E+04  0.20526165887E+04 0.  0.
        4    1    3    3  502    0  0.12450182200E+03  0.30085226254E+03 -0.27746596878E+03  0.42778705484E+03  0.12699999809E+01 0.  1.
       -4    1    3    3    0  502 -0.12450182200E+03 -0.30085226254E+03  0.28253742520E+04  0.28440734984E+04  0.12699999809E+01 0. -1.
</event>
<event>
 5   0  0.2647879E-07  0.2661037E+04  0.7818609E-02  0.8347759E-01
        1   -1    0    0  501    0  0.00000000000E+00  0.00000000000E+00  0.10724622919E+04  0.10724622919E+04  0.50400001928E-02 0.  1.
       -1   -1    0    0    0  501  0.00000000000E+00  0.00000000000E+00 -0.16506678670E+04  0.16506678670E+04  0.50400001928E-02 0. -1.
    10030    2    1    2    0    0  0.00000000000E+00  0.00000000000E+00 -0.57820557507E+03  0.27231301589E+04  0.26610366730E+04 0.  0.
        2    1    3    3  502    0 -0.87731625312E+03 -0.23119981793E+02  0.73426259308E+03  0.11442726498E+04  0.25500000920E-02 0.  1.
       -2    1    3    3    0  502  0.87731625312E+03  0.23119981793E+02 -0.13124681681E+04  0.15788575091E+04  0.25500000920E-02 0. -1.
</event>
<event>
 5   0  0.5161550E-07  0.4012946E+04  0.7818609E-02  0.8001940E-01
        2   -1    0    0  501    0  0.00000000000E+00  0.00000000000E+00  0.28475200875E+04  0.28475200875E+04  0.25500000920E-02 0.  1.
       -2   -1    0    0    0  501  0.00000000000E+00  0.00000000000E+00 -0.14138386921E+04  0.14138386921E+04  0.25500000920E-02 0. -1.
    10030    2    1    2    0    0  0.00000000000E+00  0.00000000000E+00  0.14336813954E+04  0.42613587796E+04  0.40129460880E+04 0.  0.
        2    1    3    3  502    0  0.88871440787E+03  0.88334556384E+03 -0.94727364774E+03  0.15708087241E+04  0.25500000920E-02 0. -1.
       -2    1    3    3    0  502 -0.88871440787E+03 -0.88334556384E+03  0.23809550431E+04  0.26905500555E+04  0.25500000920E-02 0.  1.
</event>
<event>
 5   0  0.5161550E-07  0.2367258E+04  0.7818609E-02  0.8451864E-01
       -2   -1    0    0    0  501  0.00000000000E+00  0.00000000000E+00  0.12415420944E+04  0.12415420944E+04  0.25500000920E-02 0.  1.
        2   -1    0    0  501    0  0.00000000000E+00  0.00000000000E+00 -0.11284176695E+04  0.11284176695E+04  0.25500000920E-02 0. -1.
    10030    2    1    2    0    0  0.00000000000E+00  0.00000000000E+00  0.11312442485E+03  0.23699597639E+04  0.23672583609E+04 0.  0.
        2    1    3    3  502    0 -0.95020069491E+03 -0.62597544311E+03  0.38289648483E+03  0.12005566767E+04  0.25500000920E-02 0.  1.
       -2    1    3    3    0  502  0.95020069491E+03  0.62597544311E+03 -0.26977205998E+03  0.11694030872E+04  0.25500000920E-02 0. -1.
</event>
<event>
 5   0  0.5161550E-07  0.4090911E+04  0.7818609E-02  0.7986454E-01
        2   -1    0    0  501    0  0.00000000000E+00  0.00000000000E+00  0.19273445947E+04  0.19273445947E+04  0.25500000920E-02 0. -1.
       -2   -1    0    0    0  501  0.00000000000E+00  0.00000000000E+00 -0.21708043364E+04  0.21708043364E+04  0.25500000920E-02 0.  1.
    10030    2    1    2    0    0  0.00000000000E+00  0.00000000000E+00 -0.24345974171E+03  0.40981489311E+04  0.40909109029E+04 0.  0.
        2    1    3    3  502    0 -0.81147192505E+03  0.32710731456E+03 -0.19738932405E+04  0.21591063905E+04  0.25500000920E-02 0.  1.
       -2    1    3    3    0  502  0.81147192505E+03 -0.32710731456E+03  0.17304334988E+04  0.19390425406E+04  0.25500000920E-02 0. -1.
</event>
<event>
 5   0  0.6043512E-07  0.2875548E+04  0.7818609E-02  0.8280190E-01
        2   -1    0    0  501    0  0.00000000000E+00  0.00000000000E+00  0.12857783797E+04  0.12857783797E+04  0.25500000920E-02 0. -1.
       -2   -1    0    0    0  501  0.00000000000E+00  0.00000000000E+00 -0.16077370176E+04  0.16077370176E+04  0.25500000920E-02 0.  1.
    10030    2    1    2    0    0  0.00000000000E+00  0.00000000000E+00 -0.32195863791E+03  0.28935153974E+04  0.28755475983E+04 0.  0.
        3    1    3    3  502    0 -0.45172225996E+03 -0.13617904783E+04 -0.25465873127E+03  0.14571813156E+04  0.10100000352E+00 0.  1.
       -3    1    3    3    0  502  0.45172225996E+03  0.13617904783E+04 -0.67299906632E+02  0.14363340818E+04  0.10100000352E+00 0. -1.
</event>
<event>
 5   0  0.2647879E-07  0.3866920E+04  0.7818609E-02  0.8031945E-01
        1   -1    0    0  501    0  0.00000000000E+00  0.00000000000E+00  0.17280201061E+04  0.17280201062E+04  0.50400001928E-02 0.  1.
       -1   -1    0    0    0  501  0.00000000000E+00  0.00000000000E+00 -0.21633238109E+04  0.21633238109E+04  0.50400001928E-02 0. -1.
    10030    2    1    2    0    0  0.00000000000E+00  0.00000000000E+00 -0.43530370473E+03  0.38913439170E+04  0.38669197257E+04 0.  0.
        2    1    3    3  502    0  0.14227825607E+04  0.17458489108E+03  0.10880320360E+04  0.17996121278E+04  0.25500000920E-02 0.  1.
       -2    1    3    3    0  502 -0.14227825607E+04 -0.17458489108E+03 -0.15233357407E+04  0.20917317892E+04  0.25500000920E-02 0. -1.
</event>
<event>
 5   0  0.2713405E-07  0.2016521E+04  0.7818609E-02  0.8598935E-01
        1   -1    0    0  501    0  0.00000000000E+00  0.00000000000E+00  0.80037960453E+03  0.80037960455E+03  0.50400001928E-02 0. -1.
       -1   -1    0    0    0  501  0.00000000000E+00  0.00000000000E+00 -0.12701337063E+04  0.12701337063E+04  0.50400001928E-02 0.  1.
    10030    2    1    2    0    0  0.00000000000E+00  0.00000000000E+00 -0.46975410174E+03  0.20705133108E+04  0.20165208787E+04 0.  0.
        1    1    3    3  502    0  0.86015880375E+03  0.46883604164E+03  0.10065751242E+02  0.97968450073E+03  0.50400001928E-02 0.  1.
       -1    1    3    3    0  502 -0.86015880375E+03 -0.46883604164E+03 -0.47981985299E+03  0.10908288101E+04  0.50400001928E-02 0. -1.
</event>
<event>
 5   0  0.6043512E-07  0.3363069E+04  0.7818609E-02  0.8147030E-01
        2   -1    0    0  501    0  0.00000000000E+00  0.00000000000E+00  0.10428994760E+04  0.10428994760E+04  0.25500000920E-02 0. -1.
       -2   -1    0    0    0  501  0.00000000000E+00  0.00000000000E+00 -0.27112473694E+04  0.27112473694E+04  0.25500000920E-02 0.  1.
    10030    2    1    2    0    0  0.00000000000E+00  0.00000000000E+00 -0.16683478934E+04  0.37541468453E+04  0.33630691106E+04 0.  0.
        3    1    3    3  502    0 -0.16624396485E+04 -0.24235732340E+03 -0.91401604783E+03  0.19125553595E+04  0.10100000352E+00 0. -1.
       -3    1    3    3    0  502  0.16624396485E+04  0.24235732340E+03 -0.75433184556E+03  0.18415914858E+04  0.10100000352E+00 0.  1.
</event>
<event>
 5   0  0.7570277E-07  0.2621608E+04  0.7818609E-02  0.8360898E-01
       -2   -1    0    0    0  501  0.00000000000E+00  0.00000000000E+00  0.14539913282E+04  0.14539913282E+04  0.25500000920E-02 0.  1.
        2   -1    0    0  501    0  0.00000000000E+00  0.00000000000E+00 -0.11817174011E+04  0.11817174011E+04  0.25500000920E-02 0. -1.
    10030    2    1    2    0    0  0.00000000000E+00  0.00000000000E+00  0.27227392710E+03  0.26357087292E+04  0.26216077918E+04 0.  0.
        5    1    3    3  502    0  0.33826506664E+02  0.13249563094E+03  0.14467920573E+04  0.14532476292E+04  0.46999998093E+01 0.  1.
       -5    1    3    3    0  502 -0.33826506664E+02 -0.13249563094E+03 -0.11745181302E+04  0.11824611000E+04  0.46999998093E+01 0. -1.
</event>
<event>
 5   0  0.7930109E-07  0.2112543E+04  0.7818609E-02  0.8555738E-01
        2   -1    0    0  501    0  0.00000000000E+00  0.00000000000E+00  0.14343082739E+04  0.14343082739E+04  0.25500000920E-02 0. -1.
       -2   -1    0    0    0  501  0.00000000000E+00  0.00000000000E+00 -0.77787304605E+03  0.77787304606E+03  0.25500000920E-02 0.  1.
    10030    2    1    2    0    0  0.00000000000E+00  0.00000000000E+00  0.65643522785E+03  0.22121813200E+04  0.21125432502E+04 0.  0.
        3    1    3    3  502    0  0.69085676275E+03  0.25288939863E+03  0.11219062413E+04  0.13416071478E+04  0.10100000352E+00 0. -1.
       -3    1    3    3    0  502 -0.69085676275E+03 -0.25288939863E+03 -0.46547101348E+03  0.87057417213E+03  0.10100000352E+00 0.  1.
</event>
<event>
 5   0  0.2647879E-07  0.2192528E+04  0.7818609E-02  0.8521544E-01
        1   -1    0    0  501    0  0.00000000000E+00  0.00000000000E+00  0.68379175485E+03  0.68379175487E+03  0.50400001928E-02 0.  1.
       -1   -1    0    0    0  501  0.00000000000E+00  0.00000000000E+00 -0.17575453975E+04  0.17575453975E+04  0.50400001928E-02 0. -1.
    10030    2    1    2    0    0  0.00000000000E+00  0.00000000000E+00 -0.10737536426E+04  0.24413371524E+04  0.21925282681E+04 0.  0.
        2    1    3    3  502    0  0.54983310528E+03 -0.17262416626E+03 -0.15752708372E+04  0.16773770468E+04  0.25500000920E-02 0. -1.
       -2    1    3    3    0  502 -0.54983310528E+03  0.17262416626E+03  0.50151719459E+03  0.76396010558E+03  0.25500000920E-02 0.  1.
</event>
<event>
 5   0  0.2401125E-07  0.2022518E+04  0.7818609E-02  0.8596165E-01
       -1   -1    0    0    0  501  0.00000000000E+00  0.00000000000E+00  0.15555646824E+04  0.15555646824E+04  0.50400001928E-02 0. -1.
        1   -1    0    0  501    0  0.00000000000E+00  0.00000000000E+00 -0.65741066098E+03  0.65741066099E+03  0.50400001928E-02 0.  1.
    10030    2    1    2    0    0  0.00000000000E+00  0.00000000000E+00  0.89815402144E+03  0.22129753434E+04  0.20225180405E+04 0.  0.
        5    1    3    3  502    0 -0.29172486054E+03  0.21314997957E+03  0.14825226385E+04  0.15259199755E+04  0.46999998093E+01 0. -1.
       -5    1    3    3    0  502  0.29172486054E+03 -0.21314997957E+03 -0.58436861702E+03  0.68705536793E+03  0.46999998093E+01 0.  1.
</event>
<event>
 5   0  0.2713405E-07  0.2431545E+04  0.7818609E-02  0.8427787E-01
       -1   -1    0    0    0  501  0.00000000000E+00  0.00000000000E+00  0.79642504793E+03  0.79642504795E+03  0.50400001928E-02 0.  1.
        1   -1    0    0  501    0  0.00000000000E+00  0.00000000000E+00 -0.18559224501E+04  0.18559224501E+04  0.50400001928E-02 0. -1.
    10030    2    1    2    0    0  0.00000000000E+00  0.00000000000E+00 -0.10594974021E+04  0.26523474980E+04  0.24315452916E+04 0.  0.
        1    1    3    3  502    0  0.56714197986E+03 -0.33975774972E+03 -0.16427024871E+04  0.17707503537E+04  0.50400001928E-02 0. -1.
       -1    1    3    3    0  502 -0.56714197986E+03  0.33975774972E+03  0.58320508496E+03  0.88159714437E+03  0.50400001928E-02 0.  1.
</event>
<event>
 5   0  0.2713405E-07  0.4071294E+04  0.7818609E-02  0.7990317E-01
       -1   -1    0    0    0  501  0.00000000000E+00  0.00000000000E+00  0.18236480672E+04  0.18236480672E+04  0.50400001928E-02 0. -1.
        1   -1    0    0  501    0  0.00000000000E+00  0.00000000000E+00 -0.22722903757E+04  0.22722903757E+04  0.50400001928E-02 0.  1.
    10030    2    1    2    0    0  0.00000000000E+00  0.00000000000E+00 -0.44864230846E+03  0.40959384429E+04  0.40712936283E+04 0.  0.
        1    1    3    3  502    0  0.19651378051E+04  0.46242349048E+03  0.38518575615E+02  0.20191794765E+04  0.50400001928E-02 0. -1.
       -1    1    3    3    0  502 -0.19651378051E+04 -0.46242349048E+03 -0.48716088407E+03  0.20767589664E+04  0.50400001928E-02 0.  1.
</event>
<event>
 5   0  0.7256473E-07  0.3950230E+04  0.7818609E-02  0.8014663E-01
        2   -1    0    0  501    0  0.00000000000E+00  0.00000000000E+00  0.28993551778E+04  0.28993551778E+04  0.25500000920E-02 0.  1.
       -2   -1    0    0    0  501  0.00000000000E+00  0.00000000000E+00 -0.13454991485E+04  0.13454991485E+04  0.25500000920E-02 0. -1.
    10030    2    1    2    0    0  0.00000000000E+00  0.00000000000E+00  0.15538560293E+04  0.42448543263E+04  0.39502303340E+04 0.  0.
        4    1    3    3  502    0 -0.64294380190E+03 -0.17369020183E+04  0.15143095281E+04  0.23923503743E+04  0.12699999809E+01 0.  1.
       -4    1    3    3    0  502  0.64294380190E+03  0.17369020183E+04  0.39546501146E+02  0.18525039520E+04  0.12699999809E+01 0. -1.
</event>
<event>
 5   0  0.5161550E-07  0.3107272E+04  0.7818609E-02  0.8213745E-01
       -2   -1    0    0    0  501  0.00000000000E+00  0.00000000000E+00  0.97312142681E+03  0.97312142681E+03  0.25500000920E-02 0.  1.
        2   -1    0    0  501    0  0.00000000000E+00  0.00000000000E+00 -0.24804551714E+04  0.24804551714E+04  0.25500000920E-02 0. -1.
    10030    2    1    2    0    0  0.00000000000E+00  0.00000000000E+00 -0.15073337446E+04  0.34535765983E+04  0.31072715205E+04 0.  0.
        2    1    3    3  502    0 -0.55997163485E+03 -0.62502333761E+03  0.69955616661E+03  0.10925205877E+04  0.25500000920E-02 0.  1.
       -2    1    3    3    0  502  0.55997163485E+03  0.62502333761E+03 -0.22068899112E+04  0.23610560105E+04  0.25500000920E-02 0. -1.
</event>
<event>
 5   0  0.2713405E-07  0.2149820E+04  0.7818609E-02  0.8539609E-01
        1   -1    0    0  501    0  0.00000000000E+00  0.00000000000E+00  0.10899964319E+04  0.10899964319E+04  0.50400001928E-02 0. -1.
       -1   -1    0    0    0  501  0.00000000000E+00  0.00000000000E+00 -0.10600323215E+04  0.10600323215E+04  0.50400001928E-02 0.  1.
    10030    2    1    2    0    0  0.00000000000E+00  0.00000000000E+00  0.29964110411E+02  0.21500287534E+04  0.21498199443E+04 0.  0.
        1    1    3    3  502    0 -0.78074912822E+03 -0.44467589013E+03 -0.57509694707E+03  0.10667906763E+04  0.50400001928E-02 0.  1.
       -1    1    3    3    0  502  0.78074912822E+03  0.44467589013E+03  0.60506105748E+03  0.10832380771E+04  0.50400001928E-02 0. -1.
</event>
<event>
 5   0  0.4449262E-07  0.3982600E+04  0.7818609E-02  0.8008066E-01
        2   -1    0    0  501    0  0.00000000000E+00  0.00000000000E+00  0.22620327472E+04  0.22620327472E+04  0.25500000920E-02 0. -1.
       -2   -1    0    0    0  501  0.00000000000E+00  0.00000000000E+00 -0.17529697793E+04  0.17529697793E+04  0.25500000920E-02 0.  1.
    10030    2    1    2    0    0  0.00000000000E+00  0.00000000000E+00  0.50906296795E+03  0.40150025265E+04  0.39825996764E+04 0.  0.
        1    1    3    3  502    0 -0.11236719691E+04  0.14346320732E+04 -0.55478720014E+03  0.19048875865E+04  0.50400001928E-02 0.  1.
       -1    1    3    3    0  502  0.11236719691E+04 -0.14346320732E+04  0.10638501681E+04  0.21101149400E+04  0.50400001928E-02 0. -1.
</event>
<event>
 5   0  0.3579559E-07  0.3853042E+04  0.7818609E-02  0.8034867E-01
       -1   -1    0    0    0  501  0.00000000000E+00  0.00000000000E+00  0.16019077572E+04  0.16019077573E+04  0.50400001928E-02 0.  1.
        1   -1    0    0  501    0  0.00000000000E+00  0.00000000000E+00 -0.23169146212E+04  0.23169146212E+04  0.50400001928E-02 0. -1.
    10030    2    1    2    0    0  0.00000000000E+00  0.00000000000E+00 -0.71500686394E+03  0.39188223784E+04  0.38530421771E+04 0.  0.
        4    1    3    3  502    0 -0.77330590845E+03  0.65002362478E+03  0.13109133978E+04  0.16550009940E+04  0.12699999809E+01 0.  1.
       -4    1    3    3    0  502  0.77330590845E+03 -0.65002362478E+03 -0.20259202617E+04  0.22638213844E+04  0.12699999809E+01 0. -1.
</event>
<event>
 5   0  0.2647879E-07  0.3999722E+04  0.7818609E-02  0.8004603E-01
        1   -1    0    0  501    0  0.00000000000E+00  0.00000000000E+00  0.20220382158E+04  0.20220382158E+04  0.50400001928E-02 0. -1.
       -1   -1    0    0    0  501  0.00000000000E+00  0.00000000000E+00 -0.19779269381E+04  0.19779269381E+04  0.50400001928E-02 0.  1.
    10030    2    1    2    0    0  0.00000000000E+00  0.00000000000E+00  0.44111277754E+02  0.39999651539E+04  0.39997219188E+04 0.  0.
        2    1    3    3  502    0 -0.11180005909E+04  0.46187425987E+03 -0.15705834225E+04  0.19824190879E+04  0.25500000920E-02 0.  1.
       -2    1    3    3    0  502  0.11180005909E+04 -0.46187425987E+03  0.16146947003E+04  0.20175460659E+04  0.25500000920E-02 0. -1.
</event>
<event>
 5   0  0.2601252E-07  0.3071093E+04  0.7818609E-02  0.8223716E-01
        1   -1    0    0  501    0  0.00000000000E+00  0.00000000000E+00  0.20547956378E+04  0.20547956378E+04  0.50400001928E-02 0. -1.
       -1   -1    0    0    0  501  0.00000000000E+00  0.00000000000E+00 -0.11475122600E+04  0.11475122600E+04  0.50400001928E-02 0.  1.
    10030    2    1    2    0    0  0.00000000000E+00  0.00000000000E+00  0.90728337777E+03  0.32023078979E+04  0.30710930864E+04 0.  0.
        3    1    3    3  502    0 -0.90627484828E+03 -0.64455811291E+03  0.15577075405E+04  0.19139597837E+04  0.10100000352E+00 0. -1.
       -3    1    3    3    0  502  0.90627484828E+03  0.64455811291E+03 -0.65042416278E+03  0.12883481142E+04  0.10100000352E+00 0.  1.
</event>
<event>
 5   0  0.4702512E-07  0.2002060E+04  0.7818609E-02  0.8605658E-01
        2   -1    0    0  501    0  0.00000000000E+00  0.00000000000E+00  0.10450720722E+04  0.10450720722E+04  0.25500000920E-02 0.  1.
       -2   -1    0    0    0  501  0.00000000000E+00  0.00000000000E+00 -0.95884419465E+03  0.95884419466E+03  0.25500000920E-02 0. -1.
    10030    2    1    2    0    0  0.00000000000E+00  0.00000000000E+00  0.86227877575E+02  0.20039162669E+04  0.20020602283E+04 0.  0.
        1    1    3    3  502    0  0.52399165041E+03  0.66787340871E+03 -0.48788626453E+03  0.97910936412E+03  0.50400001928E-02 0. -1.
       -1    1    3    3    0  502 -0.52399165041E+03 -0.66787340871E+03  0.57411414211E+03  0.10248069028E+04  0.50400001928E-02 0.  1.
</event>
<event>
 5   0  0.3579559E-07  0.2238934E+04  0.7818609E-02  0.8502395E-01
        1   -1    0    0  501    0  0.00000000000E+00  0.00000000000E+00  0.31376045864E+04  0.31376045864E+04  0.50400001928E-02 0.  1.
       -1   -1    0    0    0  501  0.00000000000E+00  0.00000000000E+00 -0.39941500592E+03  0.39941500595E+03  0.50400001928E-02 0. -1.
    10030    2    1    2    0    0  0.00000000000E+00  0.00000000000E+00  0.27381895805E+04  0.35370195924E+04  0.22389339915E+04 0.  0.
        4    1    3    3  502    0 -0.90941491723E+03 -0.26922523220E+03  0.23086141622E+04  0.24958402753E+04  0.12699999809E+01 0.  1.
       -4    1    3    3    0  502  0.90941491723E+03  0.26922523220E+03  0.42957541837E+03  0.10411793171E+04  0.12699999809E+01 0. -1.
</event>
<event>
 5   0  0.4449262E-07  0.2689759E+04  0.7818609E-02  0.8338335E-01
        2   -1    0    0  501    0  0.00000000000E+00  0.00000000000E+00  0.14688165990E+04  0.14688165990E+04  0.25500000920E-02 0.  1.
       -2   -1    0    0    0  501  0.00000000000E+00  0.00000000000E+00 -0.12314004039E+04  0.12314004039E+04  0.25500000920E-02 0. -1.
    10030    2    1    2    0    0  0.00000000000E+00  0.00000000000E+00  0.23741619510E+03  0.27002170028E+04  0.26897593596E+04 0.  0.
        1    1    3    3  502    0  0.10342204735E+04  0.24516208041E+03  0.94591719969E+03  0.14228407438E+04  0.50400001928E-02 0.  1.
       -1    1    3    3    0  502 -0.10342204735E+04 -0.24516208041E+03 -0.70850100459E+03  0.12773762590E+04  0.50400001928E-02 0. -1.
</event>
<event>
 5   0  0.2706596E-07  0.1978842E+04  0.7818609E-02  0.8616577E-01
        1   -1    0    0  501    0  0.00000000000E+00  0.00000000000E+00  0.93305500428E+03  0.93305500429E+03  0.50400001928E-02 0.  1.
       -1   -1    0    0    0  501  0.00000000000E+00  0.00000000000E+00 -0.10491918110E+04  0.10491918110E+04  0.50400001928E-02 0. -1.
    10030    2    1    2    0    0  0.00000000000E+00  0.00000000000E+00 -0.11613680669E+03  0.19822468153E+04  0.19788417518E+04 0.  0.
        2    1    3    3  502    0 -0.25012788505E+03  0.17791891338E+03  0.88415342788E+03  0.93592007280E+03  0.25500000920E-02 0.  1.
       -2    1    3    3    0  502  0.25012788505E+03 -0.17791891338E+03 -0.10002902346E+04  0.10463267425E+04  0.25500000920E-02 0. -1.
</event>
<event>
 5   0  0.2601252E-07  0.3903070E+04  0.7818609E-02  0.8024391E-01
        1   -1    0    0  501    0  0.00000000000E+00  0.00000000000E+00  0.19384151635E+04  0.19384151635E+04  0.50400001928E-02 0. -1.
       -1   -1    0    0    0  501  0.00000000000E+00  0.00000000000E+00 -0.19647439388E+04  0.19647439388E+04  0.50400001928E-02 0.  1.
    10030    2    1    2    0    0  0.00000000000E+00  0.00000000000E+00 -0.26328775318E+02  0.39031591024E+04  0.39030703009E+04 0.  0.
        3    1    3    3  502    0  0.60388778476E+03 -0.17159462840E+03  0.18346774960E+04  0.19391149264E+04  0.10100000352E+00 0. -1.
       -3    1    3    3    0  502 -0.60388778476E+03  0.17159462840E+03 -0.18610062713E+04  0.19640441760E+04  0.10100000352E+00 0.  1.
</event>
<event>
 5   0  0.2401125E-07  0.2226929E+04  0.7818609E-02  0.8507303E-01
        1   -1    0    0  501    0  0.00000000000E+00  0.00000000000E+00  0.20646277066E+04  0.20646277066E+04  0.50400001928E-02 0.  1.
       -1   -1    0    0    0  501  0.00000000000E+00  0.00000000000E+00 -0.60049717433E+03  0.60049717435E+03  0.50400001928E-02 0. -1.
    10030    2    1    2    0    0  0.00000000000E+00  0.00000000000E+00  0.14641305322E+04  0.26651248809E+04  0.22269289202E+04 0.  0.
        5    1    3    3  502    0 -0.23712577829E+03 -0.10621667095E+04  0.10136354953E+04  0.14872477134E+04  0.46999998093E+01 0.  1.
       -5    1    3    3    0  502  0.23712577829E+03  0.10621667095E+04  0.45049503689E+03  0.11778771675E+04  0.46999998093E+01 0. -1.
</event>
<event>
 5   0  0.2401125E-07  0.3064229E+04  0.7818609E-02  0.8225624E-01
       -1   -1    0    0    0  501  0.00000000000E+00  0.00000000000E+00  0.15146116371E+04  0.15146116371E+04  0.50400001928E-02 0. -1.
        1   -1    0    0  501    0  0.00000000000E+00  0.00000000000E+00 -0.15498200912E+04  0.15498200912E+04  0.50400001928E-02 0.  1.
    10030    2    1    2    0    0  0.00000000000E+00  0.00000000000E+00 -0.35208454101E+02  0.30644317283E+04  0.30642294598E+04 0.  0.
        5    1    3    3  502    0 -0.11057382833E+04  0.59154066030E+03  0.86266745840E+03  0.15221020786E+04  0.46999998093E+01 0. -1.
       -5    1    3    3    0  502  0.11057382833E+04 -0.59154066030E+03 -0.89787591250E+03  0.15423296497E+04  0.46999998093E+01 0.  1.
</event>
<event>
 5   0  0.7570277E-07  0.3949697E+04  0.7818609E-02  0.8014772E-01
       -2   -1    0    0    0  501  0.00000000000E+00  0.00000000000E+00  0.15577366657E+04  0.15577366657E+04  0.25500000920E-02 0. -1.
        2   -1    0    0  501    0  0.00000000000E+00  0.00000000000E+00 -0.25036496458E+04  0.25036496458E+04  0.25500000920E-02 0.  1.
    10030    2    1    2    0    0  0.00000000000E+00  0.00000000000E+00 -0.94591298011E+03  0.40613863115E+04  0.39496971283E+04 0.  0.
        5    1    3    3  502    0 -0.41589950976E+03  0.14939934381E+04 -0.17302405857E+04  0.23235196082E+04  0.46999998093E+01 0.  1.
       -5    1    3    3    0  502  0.41589950976E+03 -0.14939934381E+04  0.78432760559E+03  0.17378667033E+04  0.46999998093E+01 0. -1.
</event>
<event>
 5   0  0.2401125E-07  0.3610470E+04  0.7818609E-02  0.8088098E-01
        1   -1    0    0  501    0  0.00000000000E+00  0.00000000000E+00  0.25218530948E+04  0.25218530948E+04  0.50400001928E-02 0. -1.
       -1   -1    0    0    0  501  0.00000000000E+00  0.00000000000E+00 -0.12922535388E+04  0.12922535389E+04  0.50400001928E-02 0.  1.
    10030    2    1    2    0    0  0.00000000000E+00  0.00000000000E+00  0.12295995560E+04  0.38141066337E+04  0.36104701003E+04 0.  0.
        5    1    3    3  502    0  0.11179200310E+04  0.47050023837E+02  0.21113494749E+04  0.23895140919E+04  0.46999998093E+01 0. -1.
       -5    1    3    3    0  502 -0.11179200310E+04 -0.47050023837E+02 -0.88174991895E+03  0.14245925417E+04  0.46999998093E+01 0.  1.
</event>
<event>
 5   0  0.7570277E-07  0.2694752E+04  0.7818609E-02  0.8336710E-01
       -2   -1    0    0    0  501  0.00000000000E+00  0.00000000000E+00  0.92312628447E+03  0.92312628447E+03  0.25500000920E-02 0. -1.
        2   -1    0    0  501    0  0.00000000000E+00  0.00000000000E+00 -0.19666015403E+04  0.19666015403E+04  0.25500000920E-02 0.  1.
    10030    2    1    2    0    0  0.00000000000E+00  0.00000000000E+00 -0.10434752558E+04  0.28897278248E+04  0.26947516197E+04 0.  0.
        5    1    3    3  502    0 -0.11704766202E+04  0.66260728713E+03 -0.60709288522E+03  0.14756855345E+04  0.46999998093E+01 0.  1.
       -5    1    3    3    0  502  0.11704766202E+04 -0.66260728713E+03 -0.43638237060E+03  0.14140422903E+04  0.46999998093E+01 0. -1.
</event>
<event>
 5   0  0.2401125E-07  0.3643335E+04  0.7818609E-02  0.8080637E-01
        1   -1    0    0  501    0  0.00000000000E+00  0.00000000000E+00  0.19860948142E+04  0.19860948142E+04  0.50400001928E-02 0. -1.
       -1   -1    0    0    0  501  0.00000000000E+00  0.00000000000E+00 -0.16708533994E+04  0.16708533994E+04  0.50400001928E-02 0.  1.
    10030    2    1    2    0    0  0.00000000000E+00  0.00000000000E+00  0.31524141479E+03  0.36569482136E+04  0.36433354344E+04 0.  0.
        5    1    3    3  502    0 -0.55733814007E+03 -0.14423383460E+04 -0.80903809757E+03  0.17451448192E+04  0.46999998093E+01 0.  1.
       -5    1    3    3    0  502  0.55733814007E+03  0.14423383460E+04  0.11242795124E+04  0.19118033944E+04  0.46999998093E+01 0. -1.
</event>
<event>
 5   0  0.2601252E-07  0.3138534E+04  0.7818609E-02  0.8205242E-01
       -1   -1    0    0    0  501  0.00000000000E+00  0.00000000000E+00  0.20537882217E+04  0.20537882217E+04  0.50400001928E-02 0.  1.
        1   -1    0    0  501    0  0.00000000000E+00  0.00000000000E+00 -0.11990518952E+04  0.11990518952E+04  0.50400001928E-02 0. -1.
    10030    2    1    2    0    0  0.00000000000E+00  0.00000000000E+00  0.85473632646E+03  0.32528401170E+04  0.31385338358E+04 0.  0.
        3    1    3    3  502    0  0.41773285021E+03 -0.12642148805E+04  0.12881953211E+04  0.18526163104E+04  0.10100000352E+00 0.  1.
       -3    1    3    3    0  502 -0.41773285021E+03  0.12642148805E+04 -0.43345899466E+03  0.14002238065E+04  0.10100000352E+00 0. -1.
</event>
<event>
 5   0  0.2401125E-07  0.4119190E+04  0.7818609E-02  0.7980925E-01
        1   -1    0    0  501    0  0.00000000000E+00  0.00000000000E+00  0.21464885961E+04  0.21464885961E+04  0.50400001928E-02 0. -1.
       -1   -1    0    0    0  501  0.00000000000E+00  0.00000000000E+00 -0.19762185538E+04  0.19762185538E+04  0.50400001928E-02 0.  1.
    10030    2    1    2    0    0  0.00000000000E+00  0.00000000000E+00  0.17027004231E+03  0.41227071499E+04  0.41191895266E+04 0.  0.
        5    1    3    3  502    0  0.51047215723E+03 -0.52190792197E+03  0.20126401632E+04  0.21409605832E+04  0.46999998093E+01 0. -1.
       -5    1    3    3    0  502 -0.51047215723E+03  0.52190792197E+03 -0.18423701209E+04  0.19817465667E+04  0.46999998093E+01 0.  1.
</event>
<event>
 5   0  0.2401125E-07  0.2818389E+04  0.7818609E-02  0.8297582E-01
       -3   -1    0    0    0  501  0.00000000000E+00  0.00000000000E+00  0.13903125099E+04  0.13903125136E+04  0.10100000352E+00 0.  1.
        3   -1    0    0  501    0  0.00000000000E+00  0.00000000000E+00 -0.14283324691E+04  0.14283324726E+04  0.10100000352E+00 0. -1.
    10030    2    1    2    0    0  0.00000000000E+00  0.00000000000E+00 -0.38019959109E+02  0.28186449862E+04  0.28183885540E+04 0.  0.
        5    1    3    3  502    0 -0.68167568151E+03 -0.77044588664E+03 -0.98218525634E+03  0.14223145105E+04  0.46999998093E+01 0. -1.
       -5    1    3    3    0  502  0.68167568151E+03  0.77044588664E+03  0.94416529723E+03  0.13963304757E+04  0.46999998093E+01 0.  1.
</event>
<event>
 5   0  0.5161550E-07  0.2669855E+04  0.7818609E-02  0.8344853E-01
       -2   -1    0    0    0  501  0.00000000000E+00  0.00000000000E+00  0.11917801106E+04  0.11917801106E+04  0.25500000920E-02 0.  1.
        2   -1    0    0  501    0  0.00000000000E+00  0.00000000000E+00 -0.14952684882E+04  0.14952684882E+04  0.25500000920E-02 0. -1.
    10030    2    1    2    0    0  0.00000000000E+00  0.00000000000E+00 -0.30348837759E+03  0.26870485988E+04  0.26698548606E+04 0.  0.
        2    1    3    3  502    0 -0.15209755816E+03 -0.42453191788E+03  0.11127987413E+04  0.12007006517E+04  0.25500000920E-02 0.  1.
       -2    1    3    3    0  502  0.15209755816E+03  0.42453191788E+03 -0.14162871189E+04  0.14863479470E+04  0.25500000920E-02 0. -1.
</event>
<event>
 5   0  0.2647879E-07  0.2043282E+04  0.7818609E-02  0.8586648E-01
       -1   -1    0    0    0  501  0.00000000000E+00  0.00000000000E+00  0.12789553180E+04  0.12789553181E+04  0.50400001928E-02 0.  1.
        1   -1    0    0  501    0  0.00000000000E+00  0.00000000000E+00 -0.81609624708E+03  0.81609624710E+03  0.50400001928E-02 0. -1.
    10030    2    1    2    0    0  0.00000000000E+00  0.00000000000E+00  0.46285907096E+03  0.20950515651E+04  0.20432822960E+04 0.  0.
        2    1    3    3  502    0 -0.89919393606E+03  0.64642308873E+02  0.72425514802E+03  0.11564055872E+04  0.25500000920E-02 0.  1.
       -2    1    3    3    0  502  0.89919393606E+03 -0.64642308873E+02 -0.26139607707E+03  0.93864597792E+03  0.25500000920E-02 0. -1.
</event>
<event>
 5   0  0.3582524E-07  0.2113287E+04  0.7818609E-02  0.8555413E-01
       -1   -1    0    0    0  501  0.00000000000E+00  0.00000000000E+00  0.75387457839E+03  0.75387457841E+03  0.50400001928E-02 0.  1.
        1   -1    0    0  501    0  0.00000000000E+00  0.00000000000E+00 -0.14810094293E+04  0.14810094293E+04  0.50400001928E-02 0. -1.
    10030    2    1    2    0    0  0.00000000000E+00  0.00000000000E+00 -0.72713485089E+03  0.22348840077E+04  0.21132868798E+04 0.  0.
        4    1    3    3  502    0  0.26563929478E+02  0.10506768386E+04 -0.24836704512E+03  0.10799607694E+04  0.12699999809E+01 0.  1.
       -4    1    3    3    0  502 -0.26563929478E+02 -0.10506768386E+04 -0.47876780577E+03  0.11549232383E+04  0.12699999809E+01 0. -1.
</event>
<event>
 5   0  0.3579559E-07  0.3988218E+04  0.7818609E-02  0.8006928E-01
        1   -1    0    0  501    0  0.00000000000E+00  0.00000000000E+00  0.24077733458E+04  0.24077733458E+04  0.50400001928E-02 0. -1.
       -1   -1    0    0    0  501  0.00000000000E+00  0.00000000000E+00 -0.16515134590E+04  0.16515134591E+04  0.50400001928E-02 0.  1.
    10030    2    1    2    0    0  0.00000000000E+00  0.00000000000E+00  0.75625988677E+03  0.40592868049E+04  0.39882176906E+04 0.  0.
        4    1    3    3  502    0  0.13744152349E+04 -0.67961078008E+03  0.16758323552E+04  0.22714100787E+04  0.12699999809E+01 0. -1.
       -4    1    3    3    0  502 -0.13744152349E+04  0.67961078008E+03 -0.91957246838E+03  0.17878767261E+04  0.12699999809E+01 0.  1.
</event>
<event>
 5   0  0.2401125E-07  0.3731050E+04  0.7818609E-02  0.8061115E-01
       -1   -1    0    0    0  501  0.00000000000E+00  0.00000000000E+00  0.23619089041E+04  0.23619089041E+04  0.50400001928E-02 0.  1.
        1   -1    0    0  501    0  0.00000000000E+00  0.00000000000E+00 -0.14734624789E+04  0.14734624789E+04  0.50400001928E-02 0. -1.
    10030    2    1    2    0    0  0.00000000000E+00  0.00000000000E+00  0.88844642514E+03  0.38353713830E+04  0.37310503340E+04 0.  0.
        5    1    3    3  502    0  0.16506038652E+04  0.86044143551E+03  0.57141423730E+03  0.19471489168E+04  0.46999998093E+01 0. -1.
       -5    1    3    3    0  502 -0.16506038652E+04 -0.86044143551E+03  0.31703218784E+03  0.18882224662E+04  0.46999998093E+01 0.  1.
</event>
<event>
 5   0  0.5161550E-07  0.2447950E+04  0.7818609E-02  0.8421767E-01
       -2   -1    0    0    0  501  0.00000000000E+00  0.00000000000E+00  0.90478978032E+03  0.90478978033E+03  0.25500000920E-02 0. -1.
        2   -1    0    0  501    0  0.00000000000E+00  0.00000000000E+00 -0.16557602865E+04  0.16557602865E+04  0.25500000920E-02 0.  1.
    10030    2    1    2    0    0  0.00000000000E+00  0.00000000000E+00 -0.75097050621E+03  0.25605500669E+04  0.24479501514E+04 0.  0.
        2    1    3    3  502    0 -0.28530701348E+03  0.35249624322E+02 -0.16199465618E+04  0.16452566641E+04  0.25500000920E-02 0.  1.
       -2    1    3    3    0  502  0.28530701348E+03 -0.35249624322E+02  0.86897605554E+03  0.91529340272E+03  0.25500000920E-02 0. -1.
</event>
<event>
 5   0  0.2713405E-07  0.3956097E+04  0.7818609E-02  0.8013462E-01
       -1   -1    0    0    0  501  0.00000000000E+00  0.00000000000E+00  0.14824180046E+04  0.14824180046E+04  0.50400001928E-02 0. -1.
        1   -1    0    0  501    0  0.00000000000E+00  0.00000000000E+00 -0.26393872507E+04  0.26393872507E+04  0.50400001928E-02 0.  1.
    10030    2    1    2    0    0  0.00000000000E+00  0.00000000000E+00 -0.11569692461E+04  0.41218052553E+04  0.39560966528E+04 0.  0.
        1    1    3    3  502    0  0.20819691935E+03 -0.68140351853E+03 -0.25010464329E+04  0.26005557044E+04  0.50400001928E-02 0.  1.
       -1    1    3    3    0  502 -0.20819691935E+03  0.68140351853E+03  0.13440771867E+04  0.15212495509E+04  0.50400001928E-02 0. -1.
</event>
<event>
 5   0  0.7256473E-07  0.2312446E+04  0.7818609E-02  0.8473030E-01
        2   -1    0    0  501    0  0.00000000000E+00  0.00000000000E+00  0.15956803905E+04  0.15956803905E+04  0.25500000920E-02 0.  1.
       -2   -1    0    0    0  501  0.00000000000E+00  0.00000000000E+00 -0.83779431788E+03  0.83779431789E+03  0.25500000920E-02 0. -1.
    10030    2    1    2    0    0  0.00000000000E+00  0.00000000000E+00  0.75788607260E+03  0.24334747084E+04  0.23124462928E+04 0.  0.
        4    1    3    3  502    0 -0.74254449163E+03 -0.37495290133E+03 -0.46613623285E+03  0.95354423115E+03  0.12699999809E+01 0. -1.
       -4    1    3    3    0  502  0.74254449163E+03  0.37495290133E+03  0.12240223055E+04  0.14799304772E+04  0.12699999809E+01 0.  1.
</event>
<event>
 5   0  0.4449262E-07  0.2253911E+04  0.7818609E-02  0.8496318E-01
        2   -1    0    0  501    0  0.00000000000E+00  0.00000000000E+00  0.17449078032E+04  0.17449078032E+04  0.25500000920E-02 0.  1.
       -2   -1    0    0    0  501  0.00000000000E+00  0.00000000000E+00 -0.72784879269E+03  0.72784879269E+03  0.25500000920E-02 0. -1.
    10030    2    1    2    0    0  0.00000000000E+00  0.00000000000E+00  0.10170590105E+04  0.24727565958E+04  0.22539113007E+04 0.  0.
        1    1    3    3  502    0 -0.29612196937E+03 -0.10859419308E+04  0.56932623490E+03  0.12613843425E+04  0.50400001928E-02 0. -1.
       -1    1    3    3    0  502  0.29612196937E+03  0.10859419308E+04  0.44773277557E+03  0.12113722533E+04  0.50400001928E-02 0.  1.
</event>
<event>
 5   0  0.7256473E-07  0.3963955E+04  0.7818609E-02  0.8011858E-01
        2   -1    0    0  501    0  0.00000000000E+00  0.00000000000E+00  0.20386354164E+04  0.20386354164E+04  0.25500000920E-02 0.  1.
       -2   -1    0    0    0  501  0.00000000000E+00  0.00000000000E+00 -0.19268945825E+04  0.19268945825E+04  0.25500000920E-02 0. -1.
    10030    2    1    2    0    0  0.00000000000E+00  0.00000000000E+00  0.11174083393E+03  0.39655299988E+04  0.39639553678E+04 0.  0.
        4    1    3    3  502    0  0.12402838433E+03 -0.78575825695E+03 -0.17601839621E+04  0.19315921598E+04  0.12699999809E+01 0. -1.
       -4    1    3    3    0  502 -0.12402838433E+03  0.78575825695E+03  0.18719247960E+04  0.20339378391E+04  0.12699999809E+01 0.  1.
</event>
<event>
 5   0  0.7256473E-07  0.2434489E+04  0.7818609E-02  0.8426703E-01
       -2   -1    0    0    0  501  0.00000000000E+00  0.00000000000E+00  0.79231951604E+03  0.79231951604E+03  0.25500000920E-02 0.  1.
        2   -1    0    0  501    0  0.00000000000E+00  0.00000000000E+00 -0.18700587352E+04  0.18700587352E+04  0.25500000920E-02 0. -1.
    10030    2    1    2    0    0  0.00000000000E+00  0.00000000000E+00 -0.10777392191E+04  0.26623782512E+04  0.24344888844E+04 0.  0.
        4    1    3    3  502    0 -0.67122313648E+03  0.23782864843E+02 -0.16490716864E+04  0.17806024721E+04  0.12699999809E+01 0. -1.
       -4    1    3    3    0  502  0.67122313648E+03 -0.23782864843E+02  0.57133246731E+03  0.88177577915E+03  0.12699999809E+01 0.  1.
</event>
<event>
 5   0  0.2713405E-07  0.4122187E+04  0.7818609E-02  0.7980341E-01
        1   -1    0    0  501    0  0.00000000000E+00  0.00000000000E+00  0.22755434529E+04  0.22755434529E+04  0.50400001928E-02 0. -1.
       -1   -1    0    0    0  501  0.00000000000E+00  0.00000000000E+00 -0.18668533457E+04  0.18668533457E+04  0.50400001928E-02 0.  1.
    10030    2    1    2    0    0  0.00000000000E+00  0.00000000000E+00  0.40869010714E+03  0.41423967986E+04  0.41221867538E+04 0.  0.
        1    1    3    3  502    0  0.52564149576E+03  0.12910845662E+04 -0.13212904652E+04  0.19206787427E+04  0.50400001928E-02 0.  1.
       -1    1    3    3    0  502 -0.52564149576E+03 -0.12910845662E+04  0.17299805724E+04  0.22217180559E+04  0.50400001928E-02 0. -1.
</event>
<event>
 5   0  0.4449262E-07  0.2511820E+04  0.7818609E-02  0.8398787E-01
       -2   -1    0    0    0  501  0.00000000000E+00  0.00000000000E+00  0.15432739621E+04  0.15432739621E+04  0.25500000920E-02 0.  1.
        2   -1    0    0  501    0  0.00000000000E+00  0.00000000000E+00 -0.10220540555E+04  0.10220540555E+04  0.25500000920E-02 0. -1.
    10030    2    1    2    0    0  0.00000000000E+00  0.00000000000E+00  0.52121990658E+03  0.25653280177E+04  0.25118195889E+04 0.  0.
        1    1    3    3  502    0 -0.95523194771E+02 -0.80395425883E+03  0.12411893707E+04  0.14818968199E+04  0.50400001928E-02 0.  1.
       -1    1    3    3    0  502  0.95523194771E+02  0.80395425883E+03 -0.71996946408E+03  0.10834311978E+04  0.50400001928E-02 0. -1.
</event>
<event>
 5   0  0.2713405E-07  0.2564434E+04  0.7818609E-02  0.8380384E-01
       -1   -1    0    0    0  501  0.00000000000E+00  0.00000000000E+00  0.90695147652E+03  0.90695147654E+03  0.50400001928E-02 0. -1.
        1   -1    0    0  501    0  0.00000000000E+00  0.00000000000E+00 -0.18127542950E+04  0.18127542950E+04  0.50400001928E-02 0.  1.
    10030    2    1    2    0    0  0.00000000000E+00  0.00000000000E+00 -0.90580281850E+03  0.27197057716E+04  0.25644338045E+04 0.  0.
        1    1    3    3  502    0  0.12607088993E+04  0.40278823071E+02 -0.20858167811E+03  0.12784817671E+04  0.50400001928E-02 0.  1.
       -1    1    3    3    0  502 -0.12607088993E+04 -0.40278823071E+02 -0.69722114039E+03  0.14412240045E+04  0.50400001928E-02 0. -1.
</event>
<event>
 5   0  0.2401125E-07  0.2743137E+04  0.7818609E-02  0.8321143E-01
       -3   -1    0    0    0  501  0.00000000000E+00  0.00000000000E+00  0.11734500633E+04  0.11734500676E+04  0.10100000352E+00 0.  1.
        3   -1    0    0  501    0  0.00000000000E+00  0.00000000000E+00 -0.16031356038E+04  0.16031356070E+04  0.10100000352E+00 0. -1.
    10030    2    1    2    0    0  0.00000000000E+00  0.00000000000E+00 -0.42968554055E+03  0.27765856746E+04  0.27431365888E+04 0.  0.
        1    1    3    3  502    0 -0.67142265140E+03 -0.32849571844E+03  0.94917200540E+03  0.12081578165E+04  0.50400001928E-02 0.  1.
       -1    1    3    3    0  502  0.67142265140E+03  0.32849571844E+03 -0.13788575459E+04  0.15684278580E+04  0.50400001928E-02 0. -1.
</event>
<event>
 5   0  0.5161550E-07  0.2423494E+04  0.7818609E-02  0.8430760E-01
        2   -1    0    0  501    0  0.00000000000E+00  0.00000000000E+00  0.12499746770E+04  0.12499746770E+04  0.25500000920E-02 0.  1.
       -2   -1    0    0    0  501  0.00000000000E+00  0.00000000000E+00 -0.11746885599E+04  0.11746885600E+04  0.25500000920E-02 0. -1.
    10030    2    1    2    0    0  0.00000000000E+00  0.00000000000E+00  0.75286117095E+02  0.24246632370E+04  0.24234941332E+04 0.  0.
        2    1    3    3  502    0  0.86871977948E+03  0.34158849208E+03  0.81065683906E+03  0.12363337995E+04  0.25500000920E-02 0.  1.
       -2    1    3    3    0  502 -0.86871977948E+03 -0.34158849208E+03 -0.73537072197E+03  0.11883294375E+04  0.25500000920E-02 0. -1.
</event>
<event>
 5   0  0.5161550E-07  0.2971230E+04  0.7818609E-02  0.8251994E-01
        2   -1    0    0  501    0  0.00000000000E+00  0.00000000000E+00  0.20091255971E+04  0.20091255971E+04  0.25500000920E-02 0.  1.
       -2   -1    0    0    0  501  0.00000000000E+00  0.00000000000E+00 -0.10985135770E+04  0.10985135770E+04  0.25500000920E-02 0. -1.
    10030    2    1    2    0    0  0.00000000000E+00  0.00000000000E+00  0.91061202013E+03  0.31076391741E+04  0.29712298775E+04 0.  0.
        2    1    3    3  502    0 -0.99656516232E+03 -0.21362754829E+03 -0.67518336280E+03  0.12225593751E+04  0.25500000920E-02 0. -1.
       -2    1    3    3    0  502  0.99656516232E+03  0.21362754829E+03  0.15857953829E+04  0.18850797990E+04  0.25500000920E-02 0.  1.
</event>
<event>
 5   0  0.4449262E-07  0.4021630E+04  0.7818609E-02  0.8000197E-01
       -2   -1    0    0    0  501  0.00000000000E+00  0.00000000000E+00  0.24647090026E+04  0.24647090026E+04  0.25500000920E-02 0. -1.
        2   -1    0    0  501    0  0.00000000000E+00  0.00000000000E+00 -0.16405085124E+04  0.16405085124E+04  0.25500000920E-02 0.  1.
    10030    2    1    2    0    0  0.00000000000E+00  0.00000000000E+00  0.82420049016E+03  0.41052175150E+04  0.40216295699E+04 0.  0.
        1    1    3    3  502    0  0.11590585737E+04  0.15892107896E+04  0.83835377080E+03  0.21381872594E+04  0.50400001928E-02 0. -1.
       -1    1    3    3    0  502 -0.11590585737E+04 -0.15892107896E+04 -0.14153280640E+02  0.19670302556E+04  0.50400001928E-02 0.  1.
</event>
<event>
 5   0  0.4449262E-07  0.3976578E+04  0.7818609E-02  0.8009288E-01
        2   -1    0    0  501    0  0.00000000000E+00  0.00000000000E+00  0.24185325153E+04  0.24185325153E+04  0.25500000920E-02 0.  1.
       -2   -1    0    0    0  501  0.00000000000E+00  0.00000000000E+00 -0.16345836103E+04  0.16345836103E+04  0.25500000920E-02 0. -1.
    10030    2    1    2    0    0  0.00000000000E+00  0.00000000000E+00  0.78394890499E+03  0.40531161255E+04  0.39765782328E+04 0.  0.
        1    1    3    3  502    0 -0.18835319265E+04 -0.59541416104E+03  0.62234025363E+03  0.20711151423E+04  0.50400001928E-02 0.  1.
       -1    1    3    3    0  502  0.18835319265E+04  0.59541416104E+03  0.16160865135E+03  0.19820009832E+04  0.50400001928E-02 0. -1.
</event>
<event>
 5   0  0.2401125E-07  0.2864580E+04  0.7818609E-02  0.8283495E-01
       -1   -1    0    0    0  501  0.00000000000E+00  0.00000000000E+00  0.15000521091E+04  0.15000521091E+04  0.50400001928E-02 0.  1.
        1   -1    0    0  501    0  0.00000000000E+00  0.00000000000E+00 -0.13675891918E+04  0.13675891918E+04  0.50400001928E-02 0. -1.
    10030    2    1    2    0    0  0.00000000000E+00  0.00000000000E+00  0.13246291725E+03  0.28676413009E+04  0.28645802845E+04 0.  0.
        5    1    3    3  502    0  0.47638142509E+03  0.11446118592E+03  0.14135493939E+04  0.14960563506E+04  0.46999998093E+01 0.  1.
       -5    1    3    3    0  502 -0.47638142509E+03 -0.11446118592E+03 -0.12810864767E+04  0.13715849503E+04  0.46999998093E+01 0. -1.
</event>
<event>
 5   0  0.5161550E-07  0.2423762E+04  0.7818609E-02  0.8430661E-01
       -2   -1    0    0    0  501  0.00000000000E+00  0.00000000000E+00  0.14089949075E+04  0.14089949075E+04  0.25500000920E-02 0. -1.
        2   -1    0    0  501    0  0.00000000000E+00  0.00000000000E+00 -0.10423428119E+04  0.10423428119E+04  0.25500000920E-02 0.  1.
    10030    2    1    2    0    0  0.00000000000E+00  0.00000000000E+00  0.36665209558E+03  0.24513377194E+04  0.24237621285E+04 0.  0.
        2    1    3    3  502    0 -0.44591463230E+03 -0.95587539639E+03 -0.42021965885E+03  0.11353951710E+04  0.25500000920E-02 0.  1.
       -2    1    3    3    0  502  0.44591463230E+03  0.95587539639E+03  0.78687175442E+03  0.13159425484E+04  0.25500000920E-02 0. -1.
</event>
<event>
 5   0  0.7570277E-07  0.3705022E+04  0.7818609E-02  0.8066850E-01
       -2   -1    0    0    0  501  0.00000000000E+00  0.00000000000E+00  0.14911145230E+04  0.14911145230E+04  0.25500000920E-02 0. -1.
        2   -1    0    0  501    0  0.00000000000E+00  0.00000000000E+00 -0.23014981738E+04  0.23014981738E+04  0.25500000920E-02 0.  1.
    10030    2    1    2    0    0  0.00000000000E+00  0.00000000000E+00 -0.81038365082E+03  0.37926126968E+04  0.37050221870E+04 0.  0.
        5    1    3    3  502    0  0.67308518559E+03  0.14224741215E+04  0.59530873429E+03  0.16825251476E+04  0.46999998093E+01 0. -1.
       -5    1    3    3    0  502 -0.67308518559E+03 -0.14224741215E+04 -0.14056923851E+04  0.21100875491E+04  0.46999998093E+01 0.  1.
</event>
<event>
 5   0  0.7570277E-07  0.2028213E+04  0.7818609E-02  0.8593542E-01
       -2   -1    0    0    0  501  0.00000000000E+00  0.00000000000E+00  0.62846576958E+03  0.62846576959E+03  0.25500000920E-02 0. -1.
        2   -1    0    0  501    0  0.00000000000E+00  0.00000000000E+00 -0.16363856134E+04  0.16363856134E+04  0.25500000920E-02 0.  1.
    10030    2    1    2    0    0  0.00000000000E+00  0.00000000000E+00 -0.10079198438E+04  0.22648513830E+04  0.20282133456E+04 0.  0.
        5    1    3    3  502    0  0.44842310251E+03  0.13503648399E+02  0.51161402018E+03  0.68046794416E+03  0.46999998093E+01 0. -1.
       -5    1    3    3    0  502 -0.44842310251E+03 -0.13503648399E+02 -0.15195338640E+04  0.15843834388E+04  0.46999998093E+01 0.  1.
</event>
<event>
 5   0  0.2647879E-07  0.2454660E+04  0.7818609E-02  0.8419319E-01
        1   -1    0    0  501    0  0.00000000000E+00  0.00000000000E+00  0.18653201997E+04  0.18653201997E+04  0.50400001928E-02 0. -1.
       -1   -1    0    0    0  501  0.00000000000E+00  0.00000000000E+00 -0.80754947068E+03  0.80754947070E+03  0.50400001928E-02 0.  1.
    10030    2    1    2    0    0  0.00000000000E+00  0.00000000000E+00  0.10577707290E+04  0.26728696704E+04  0.24546595201E+04 0.  0.
        2    1    3    3  502    0 -0.22477482492E+03  0.15464148809E+03 -0.77411027427E+03  0.82078281445E+03  0.25500000920E-02 0.  1.
       -2    1    3    3    0  502  0.22477482492E+03 -0.15464148809E+03  0.18318810033E+04  0.18520868559E+04  0.25500000920E-02 0. -1.
</event>
<event>
 5   0  0.2601252E-07  0.4069212E+04  0.7818609E-02  0.7990728E-01
        1   -1    0    0  501    0  0.00000000000E+00  0.00000000000E+00  0.23167664642E+04  0.23167664642E+04  0.50400001928E-02 0.  1.
       -1   -1    0    0    0  501  0.00000000000E+00  0.00000000000E+00 -0.17868103552E+04  0.17868103552E+04  0.50400001928E-02 0. -1.
    10030    2    1    2    0    0  0.00000000000E+00  0.00000000000E+00  0.52995610898E+03  0.41035768194E+04  0.40692123606E+04 0.  0.
        3    1    3    3  502    0  0.42840000450E+03 -0.46495018187E+03  0.22151962250E+04  0.23036491836E+04  0.10100000352E+00 0.  1.
       -3    1    3    3    0  502 -0.42840000450E+03  0.46495018187E+03 -0.16852401160E+04  0.17999276359E+04  0.10100000352E+00 0. -1.
</event>
<event>
 5   0  0.2601252E-07  0.2267384E+04  0.7818609E-02  0.8490893E-01
        1   -1    0    0  501    0  0.00000000000E+00  0.00000000000E+00  0.13068276824E+04  0.13068276824E+04  0.50400001928E-02 0.  1.
       -1   -1    0    0    0  501  0.00000000000E+00  0.00000000000E+00 -0.98349405036E+03  0.98349405037E+03  0.50400001928E-02 0. -1.
    10030    2    1    2    0    0  0.00000000000E+00  0.00000000000E+00  0.32333363206E+03  0.22903217328E+04  0.22673837351E+04 0.  0.
        3    1    3    3  502    0 -0.42650492603E+03  0.86648965296E+03  0.76142979128E+03  0.12298317397E+04  0.10100000352E+00 0.  1.
       -3    1    3    3    0  502  0.42650492603E+03 -0.86648965296E+03 -0.43809615922E+03  0.10604899931E+04  0.10100000352E+00 0. -1.
</event>
<event>
 5   0  0.2401125E-07  0.4011778E+04  0.7818609E-02  0.8002175E-01
        3   -1    0    0  501    0  0.00000000000E+00  0.00000000000E+00  0.21121895591E+04  0.21121895615E+04  0.10100000352E+00 0. -1.
       -3   -1    0    0    0  501  0.00000000000E+00  0.00000000000E+00 -0.19049378067E+04  0.19049378094E+04  0.10100000352E+00 0.  1.
    10030    2    1    2    0    0  0.00000000000E+00  0.00000000000E+00  0.20725175241E+03  0.40171273709E+04  0.40117775394E+04 0.  0.
        1    1    3    3  502    0 -0.14895444245E+04 -0.56142094424E+03  0.13257671676E+04  0.20716164346E+04  0.50400001928E-02 0.  1.
       -1    1    3    3    0  502  0.14895444245E+04  0.56142094424E+03 -0.11185154152E+04  0.19455109363E+04  0.50400001928E-02 0. -1.
</event>
<event>
 5   0  0.4703783E-07  0.2067098E+04  0.7818609E-02  0.8575877E-01
        2   -1    0    0  501    0  0.00000000000E+00  0.00000000000E+00  0.15110955147E+04  0.15110955147E+04  0.25500000920E-02 0.  1.
       -2   -1    0    0    0  501  0.00000000000E+00  0.00000000000E+00 -0.70691968307E+03  0.70691968307E+03  0.25500000920E-02 0. -1.
    10030    2    1    2    0    0  0.00000000000E+00  0.00000000000E+00  0.80417583162E+03  0.22180151978E+04  0.20670976390E+04 0.  0.
        1    1    3    3  502    0  0.46510586619E+03  0.91963056950E+03  0.31774015453E+03  0.10784260090E+04  0.50400001928E-02 0. -1.
       -1    1    3    3    0  502 -0.46510586619E+03 -0.91963056950E+03  0.48643567709E+03  0.11395891887E+04  0.50400001928E-02 0.  1.
</event>
<event>
 5   0  0.4449262E-07  0.3995382E+04  0.7818609E-02  0.8005479E-01
        2   -1    0    0  501    0  0.00000000000E+00  0.00000000000E+00  0.16292344663E+04  0.16292344663E+04  0.25500000920E-02 0. -1.
       -2   -1    0    0    0  501  0.00000000000E+00  0.00000000000E+00 -0.24494746235E+04  0.24494746235E+04  0.25500000920E-02 0.  1.
    10030    2    1    2    0    0  0.00000000000E+00  0.00000000000E+00 -0.82024015714E+03  0.40787090898E+04  0.39953815743E+04 0.  0.
        1    1    3    3  502    0  0.61224428413E+02  0.23056073581E+03  0.16146420893E+04  0.16321690354E+04  0.50400001928E-02 0. -1.
       -1    1    3    3    0  502 -0.61224428413E+02 -0.23056073581E+03 -0.24348822465E+04  0.24465400544E+04  0.50400001928E-02 0.  1.
</event>
<event>
 5   0  0.2401125E-07  0.3905162E+04  0.7818609E-02  0.8023957E-01
        1   -1    0    0  501    0  0.00000000000E+00  0.00000000000E+00  0.21592510025E+04  0.21592510025E+04  0.50400001928E-02 0.  1.
       -1   -1    0    0    0  501  0.00000000000E+00  0.00000000000E+00 -0.17656919650E+04  0.17656919650E+04  0.50400001928E-02 0. -1.
    10030    2    1    2    0    0  0.00000000000E+00  0.00000000000E+00  0.39355903745E+03  0.39249429675E+04  0.39051617870E+04 0.  0.
        5    1    3    3  502    0 -0.16976412319E+04  0.91833662592E+03  0.49360945635E+03  0.19922350002E+04  0.46999998093E+01 0. -1.
       -5    1    3    3    0  502  0.16976412319E+04 -0.91833662592E+03 -0.10005041889E+03  0.19327079673E+04  0.46999998093E+01 0.  1.
</event>
<event>
 5   0  0.4449262E-07  0.2123129E+04  0.7818609E-02  0.8551123E-01
        2   -1    0    0  501    0  0.00000000000E+00  0.00000000000E+00  0.10183196678E+04  0.10183196678E+04  0.25500000920E-02 0.  1.
       -2   -1    0    0    0  501  0.00000000000E+00  0.00000000000E+00 -0.11066459948E+04  0.11066459948E+04  0.25500000920E-02 0. -1.
    10030    2    1    2    0    0  0.00000000000E+00  0.00000000000E+00 -0.88326327038E+02  0.21249656627E+04  0.21231291829E+04 0.  0.
        1    1    3    3  502    0 -0.96122722563E+03 -0.43671696327E+03  0.66566599349E+02  0.10578802378E+04  0.50400001928E-02 0. -1.
       -1    1    3    3    0  502  0.96122722563E+03  0.43671696327E+03 -0.15489292639E+03  0.10670854249E+04  0.50400001928E-02 0.  1.
</event>
<event>
 5   0  0.7570277E-07  0.2349899E+04  0.7818609E-02  0.8458502E-01
        2   -1    0    0  501    0  0.00000000000E+00  0.00000000000E+00  0.15336588808E+04  0.15336588808E+04  0.25500000920E-02 0.  1.
       -2   -1    0    0    0  501  0.00000000000E+00  0.00000000000E+00 -0.90013914351E+03  0.90013914351E+03  0.25500000920E-02 0. -1.
    10030    2    1    2    0    0  0.00000000000E+00  0.00000000000E+00  0.63351973727E+03  0.24337980243E+04  0.23498990543E+04 0.  0.
        5    1    3    3  502    0  0.21557926177E+03  0.25157975092E+03 -0.85074805118E+03  0.91299568770E+03  0.46999998093E+01 0. -1.
       -5    1    3    3    0  502 -0.21557926177E+03 -0.25157975092E+03  0.14842677884E+04  0.15208023366E+04  0.46999998093E+01 0.  1.
</event>
<event>
 5   0  0.4449262E-07  0.2530612E+04  0.7818609E-02  0.8392160E-01
        2   -1    0    0  501    0  0.00000000000E+00  0.00000000000E+00  0.14393514395E+04  0.14393514395E+04  0.25500000920E-02 0. -1.
       -2   -1    0    0    0  501  0.00000000000E+00  0.00000000000E+00 -0.11123063308E+04  0.11123063308E+04  0.25500000920E-02 0.  1.
    10030    2    1    2    0    0  0.00000000000E+00  0.00000000000E+00  0.32704510868E+03  0.25516577702E+04  0.25306123514E+04 0.  0.
        1    1    3    3  502    0  0.29772949002E+03  0.10162199156E+04  0.86185274212E+03  0.13653336278E+04  0.50400001928E-02 0. -1.
       -1    1    3    3    0  502 -0.29772949002E+03 -0.10162199156E+04 -0.53480763344E+03  0.11863241424E+04  0.50400001928E-02 0.  1.
</event>
<event>
 5   0  0.5161550E-07  0.3466599E+04  0.7818609E-02  0.8121752E-01
       -2   -1    0    0    0  501  0.00000000000E+00  0.00000000000E+00  0.15995871520E+04  0.15995871520E+04  0.25500000920E-02 0. -1.
        2   -1    0    0  501    0  0.00000000000E+00  0.00000000000E+00 -0.18781886533E+04  0.18781886533E+04  0.25500000920E-02 0.  1.
    10030    2    1    2    0    0  0.00000000000E+00  0.00000000000E+00 -0.27860150131E+03  0.34777758052E+04  0.34665985858E+04 0.  0.
        2    1    3    3  502    0  0.91512324854E+03  0.60824805967E+03  0.12055101181E+04  0.16311563098E+04  0.25500000920E-02 0. -1.
       -2    1    3    3    0  502 -0.91512324854E+03 -0.60824805967E+03 -0.14841116194E+04  0.18466194954E+04  0.25500000920E-02 0.  1.
</event>
<event>
 5   0  0.6043512E-07  0.2564258E+04  0.7818609E-02  0.8380444E-01
        2   -1    0    0  501    0  0.00000000000E+00  0.00000000000E+00  0.15865303352E+04  0.15865303352E+04  0.25500000920E-02 0.  1.
       -2   -1    0    0    0  501  0.00000000000E+00  0.00000000000E+00 -0.10361318747E+04  0.10361318747E+04  0.25500000920E-02 0. -1.
    10030    2    1    2    0    0  0.00000000000E+00  0.00000000000E+00  0.55039846054E+03  0.26226622099E+04  0.25642579048E+04 0.  0.
        3    1    3    3  502    0  0.28796008708E+02  0.10916302121E+04  0.96234120179E+03  0.14555364402E+04  0.10100000352E+00 0. -1.
       -3    1    3    3    0  502 -0.28796008708E+02 -0.10916302121E+04 -0.41194274124E+03  0.11671257697E+04  0.10100000352E+00 0.  1.
</event>
<event>
 5   0  0.2401125E-07  0.4014951E+04  0.7818609E-02  0.8001537E-01
       -3   -1    0    0    0  501  0.00000000000E+00  0.00000000000E+00  0.25941617359E+04  0.25941617378E+04  0.10100000352E+00 0.  1.
        3   -1    0    0  501    0  0.00000000000E+00  0.00000000000E+00 -0.15534717843E+04  0.15534717876E+04  0.10100000352E+00 0. -1.
    10030    2    1    2    0    0  0.00000000000E+00  0.00000000000E+00  0.10406899515E+04  0.41476335255E+04  0.40149505957E+04 0.  0.
        5    1    3    3  502    0 -0.13490461220E+04 -0.53880105769E+02  0.20550743773E+04  0.24588983898E+04  0.46999998093E+01 0.  1.
       -5    1    3    3    0  502  0.13490461220E+04  0.53880105769E+02 -0.10143844258E+04  0.16887351356E+04  0.46999998093E+01 0. -1.
</event>
<event>
 5   0  0.3579559E-07  0.3438288E+04  0.7818609E-02  0.8128573E-01
       -1   -1    0    0    0  501  0.00000000000E+00  0.00000000000E+00  0.13720349109E+04  0.13720349109E+04  0.50400001928E-02 0.  1.
        1   -1    0    0  501    0  0.00000000000E+00  0.00000000000E+00 -0.21540676647E+04  0.21540676647E+04  0.50400001928E-02 0. -1.
    10030    2    1    2    0    0  0.00000000000E+00  0.00000000000E+00 -0.78203275383E+03  0.35261025756E+04  0.34382879672E+04 0.  0.
        4    1    3    3  502    0 -0.97283879159E+03  0.11275669431E+04 -0.12718067091E+04  0.19583963959E+04  0.12699999809E+01 0. -1.
       -4    1    3    3    0  502  0.97283879159E+03 -0.11275669431E+04  0.48977395525E+03  0.15677061796E+04  0.12699999809E+01 0.  1.
</event>
<event>
 5   0  0.2401125E-07  0.2793527E+04  0.7818609E-02  0.8305281E-01
        1   -1    0    0  501    0  0.00000000000E+00  0.00000000000E+00  0.13657514756E+04  0.13657514756E+04  0.50400001928E-02 0.  1.
       -1   -1    0    0    0  501  0.00000000000E+00  0.00000000000E+00 -0.14284794236E+04  0.14284794236E+04  0.50400001928E-02 0. -1.
    10030    2    1    2    0    0  0.00000000000E+00  0.00000000000E+00 -0.62727948023E+02  0.27942308992E+04  0.27935267177E+04 0.  0.
        5    1    3    3  502    0 -0.55882944275E+03  0.27675093146E+03  0.12187688085E+04  0.13690511031E+04  0.46999998093E+01 0.  1.
       -5    1    3    3    0  502  0.55882944275E+03 -0.27675093146E+03 -0.12814967566E+04  0.14251797961E+04  0.46999998093E+01 0. -1.
</event>
<event>
 5   0  0.2401125E-07  0.2246676E+04  0.7818609E-02  0.8499248E-01
       -3   -1    0    0    0  501  0.00000000000E+00  0.00000000000E+00  0.15728038901E+04  0.15728038934E+04  0.10100000352E+00 0. -1.
        3   -1    0    0  501    0  0.00000000000E+00  0.00000000000E+00 -0.80231749013E+03  0.80231749649E+03  0.10100000352E+00 0.  1.
    10030    2    1    2    0    0  0.00000000000E+00  0.00000000000E+00  0.77048640000E+03  0.23751213899E+04  0.22466758387E+04 0.  0.
        2    1    3    3  502    0  0.33577868913E+03 -0.22878598564E+03 -0.72191241427E+03  0.82840080226E+03  0.25500000920E-02 0.  1.
       -2    1    3    3    0  502 -0.33577868913E+03  0.22878598564E+03  0.14923988143E+04  0.15467205876E+04  0.25500000920E-02 0. -1.
</event>
<event>
 5   0  0.2713405E-07  0.3918098E+04  0.7818609E-02  0.8021276E-01
        1   -1    0    0  501    0  0.00000000000E+00  0.00000000000E+00  0.22257612681E+04  0.22257612681E+04  0.50400001928E-02 0. -1.
       -1   -1    0    0    0  501  0.00000000000E+00  0.00000000000E+00 -0.17242967505E+04  0.17242967505E+04  0.50400001928E-02 0.  1.
    10030    2    1    2    0    0  0.00000000000E+00  0.00000000000E+00  0.50146451767E+03  0.39500580186E+04  0.39180979681E+04 0.  0.
        1    1    3    3  502    0  0.23902530937E+03  0.19442239430E+04  0.22343590059E+03  0.19715637045E+04  0.50400001928E-02 0. -1.
       -1    1    3    3    0  502 -0.23902530937E+03 -0.19442239430E+04  0.27802861708E+03  0.19784943141E+04  0.50400001928E-02 0.  1.
</event>
<event>
 5   0  0.2401125E-07  0.3963128E+04  0.7818609E-02  0.8012026E-01
        3   -1    0    0  501    0  0.00000000000E+00  0.00000000000E+00  0.23717143604E+04  0.23717143625E+04  0.10100000352E+00 0. -1.
       -3   -1    0    0    0  501  0.00000000000E+00  0.00000000000E+00 -0.16555937670E+04  0.16555937701E+04  0.10100000352E+00 0.  1.
    10030    2    1    2    0    0  0.00000000000E+00  0.00000000000E+00  0.71612059340E+03  0.40273081326E+04  0.39631278166E+04 0.  0.
        2    1    3    3  502    0 -0.16232191892E+04  0.31403948382E+02 -0.79645849430E+03  0.18083619321E+04  0.25500000920E-02 0.  1.
       -2    1    3    3    0  502  0.16232191892E+04 -0.31403948382E+02  0.15125790877E+04  0.22189462005E+04  0.25500000920E-02 0. -1.
</event>
<event>
 5   0  0.2647879E-07  0.4010448E+04  0.7818609E-02  0.8002442E-01
        1   -1    0    0  501    0  0.00000000000E+00  0.00000000000E+00  0.14981769019E+04  0.14981769019E+04  0.50400001928E-02 0. -1.
       -1   -1    0    0    0  501  0.00000000000E+00  0.00000000000E+00 -0.26838770822E+04  0.26838770822E+04  0.50400001928E-02 0.  1.
    10030    2    1    2    0    0  0.00000000000E+00  0.00000000000E+00 -0.11857001803E+04  0.41820539841E+04  0.40104476818E+04 0.  0.
        2    1    3    3  502    0  0.53866253590E+03  0.10892271605E+04  0.10705057392E+04  0.16194306630E+04  0.25500000920E-02 0. -1.
       -2    1    3    3    0  502 -0.53866253590E+03 -0.10892271605E+04 -0.22562059195E+04  0.25626233211E+04  0.25500000920E-02 0.  1.
</event>
<event>
 5   0  0.2601252E-07  0.3565894E+04  0.7818609E-02  0.8098349E-01
       -1   -1    0    0    0  501  0.00000000000E+00  0.00000000000E+00  0.16744721447E+04  0.16744721447E+04  0.50400001928E-02 0.  1.
        1   -1    0    0  501    0  0.00000000000E+00  0.00000000000E+00 -0.18984495199E+04  0.18984495199E+04  0.50400001928E-02 0. -1.
    10030    2    1    2    0    0  0.00000000000E+00  0.00000000000E+00 -0.22397737522E+03  0.35729216646E+04  0.35658944680E+04 0.  0.
        3    1    3    3  502    0  0.61344453519E+03  0.16649521212E+04 -0.28703576022E+03  0.17974340882E+04  0.10100000352E+00 0. -1.
       -3    1    3    3    0  502 -0.61344453519E+03 -0.16649521212E+04  0.63058385008E+02  0.17754875764E+04  0.10100000352E+00 0.  1.
</event>
<event>
 5   0  0.4449262E-07  0.2306313E+04  0.7818609E-02  0.8475436E-01
       -2   -1    0    0    0  501  0.00000000000E+00  0.00000000000E+00  0.10672100431E+04  0.10672100431E+04  0.25500000920E-02 0. -1.
        2   -1    0    0  501    0  0.00000000000E+00  0.00000000000E+00 -0.12460247581E+04  0.12460247581E+04  0.25500000920E-02 0.  1.
    10030    2    1    2    0    0  0.00000000000E+00  0.00000000000E+00 -0.17881471503E+03  0.23132348012E+04  0.23063131928E+04 0.  0.
        1    1    3    3  502    0  0.82603422272E+03 -0.64075244830E+03 -0.57756493846E+03  0.11943523330E+04  0.50400001928E-02 0.  1.
       -1    1    3    3    0  502 -0.82603422272E+03  0.64075244830E+03  0.39875022343E+03  0.11188824683E+04  0.50400001928E-02 0. -1.
</event>
<event>
 5   0  0.7570277E-07  0.2874458E+04  0.7818609E-02  0.8280518E-01
       -2   -1    0    0    0  501  0.00000000000E+00  0.00000000000E+00  0.72930621311E+03  0.72930621311E+03  0.25500000920E-02 0.  1.
        2   -1    0    0  501    0  0.00000000000E+00  0.00000000000E+00 -0.28323184612E+04  0.28323184612E+04  0.25500000920E-02 0. -1.
    10030    2    1    2    0    0  0.00000000000E+00  0.00000000000E+00 -0.21030122481E+04  0.35616246743E+04  0.28744581759E+04 0.  0.
        5    1    3    3  502    0  0.51378473059E+03 -0.43304334361E+03 -0.26256989336E+04  0.27103170049E+04  0.46999998093E+01 0. -1.
       -5    1    3    3    0  502 -0.51378473059E+03  0.43304334361E+03  0.52268668553E+03  0.85130766945E+03  0.46999998093E+01 0.  1.
</event>
<event>
 5   0  0.2647879E-07  0.2283060E+04  0.7818609E-02  0.8484630E-01
       -1   -1    0    0    0  501  0.00000000000E+00  0.00000000000E+00  0.18999941776E+04  0.18999941776E+04  0.50400001928E-02 0. -1.
        1   -1    0    0  501    0  0.00000000000E+00  0.00000000000E+00 -0.68583944452E+03  0.68583944454E+03  0.50400001928E-02 0.  1.
    10030    2    1    2    0    0  0.00000000000E+00  0.00000000000E+00  0.12141547330E+04  0.25858336221E+04  0.22830601844E+04 0.  0.
        2    1    3    3  502    0  0.36578839525E+02  0.86564055745E+03  0.14488943146E+04  0.16881843268E+04  0.25500000920E-02 0. -1.
       -2    1    3    3    0  502 -0.36578839525E+02 -0.86564055745E+03 -0.23473958160E+03  0.89764929531E+03  0.25500000920E-02 0.  1.
</event>
<event>
 5   0  0.2713405E-07  0.3819186E+04  0.7818609E-02  0.8042050E-01
       -1   -1    0    0    0  501  0.00000000000E+00  0.00000000000E+00  0.20070475843E+04  0.20070475843E+04  0.50400001928E-02 0.  1.
        1   -1    0    0  501    0  0.00000000000E+00  0.00000000000E+00 -0.18168707974E+04  0.18168707974E+04  0.50400001928E-02 0. -1.
    10030    2    1    2    0    0  0.00000000000E+00  0.00000000000E+00  0.19017678689E+03  0.38239183817E+04  0.38191863766E+04 0.  0.
        1    1    3    3  502    0  0.16452058885E+04  0.87895238682E+03  0.50460179548E+03  0.19323257194E+04  0.50400001928E-02 0. -1.
       -1    1    3    3    0  502 -0.16452058885E+04 -0.87895238682E+03 -0.31442500860E+03  0.18915926623E+04  0.50400001928E-02 0.  1.
</event>
<event>
 5   0  0.2647879E-07  0.2752644E+04  0.7818609E-02  0.8318123E-01
        1   -1    0    0  501    0  0.00000000000E+00  0.00000000000E+00  0.18588441976E+04  0.18588441976E+04  0.50400001928E-02 0. -1.
       -1   -1    0    0    0  501  0.00000000000E+00  0.00000000000E+00 -0.10190540749E+04  0.10190540750E+04  0.50400001928E-02 0.  1.
    10030    2    1    2    0    0  0.00000000000E+00  0.00000000000E+00  0.83979012268E+03  0.28778982726E+04  0.27526443681E+04 0.  0.
        2    1    3    3  502    0  0.75356564869E+03 -0.64062079916E+02 -0.78234152569E+03  0.10881283931E+04  0.25500000920E-02 0.  1.
       -2    1    3    3    0  502 -0.75356564869E+03  0.64062079916E+02  0.16221316484E+04  0.17897698795E+04  0.25500000920E-02 0. -1.
</event>
<event>
 5   0  0.5161550E-07  0.2304706E+04  0.7818609E-02  0.8476068E-01
       -2   -1    0    0    0  501  0.00000000000E+00  0.00000000000E+00  0.12886395053E+04  0.12886395053E+04  0.25500000920E-02 0. -1.
        2   -1    0    0  501    0  0.00000000000E+00  0.00000000000E+00 -0.10304797333E+04  0.10304797333E+04  0.25500000920E-02 0.  1.
    10030    2    1    2    0    0  0.00000000000E+00  0.00000000000E+00  0.25815977193E+03  0.23191192386E+04  0.23047055289E+04 0.  0.
        2    1    3    3  502    0  0.35791586065E+03 -0.80033677213E+03 -0.62344353389E+03  0.10757901989E+04  0.25500000920E-02 0.  1.
       -2    1    3    3    0  502 -0.35791586065E+03  0.80033677213E+03  0.88160330582E+03  0.12433290397E+04  0.25500000920E-02 0. -1.
</event>
<event>
 5   0  0.6043512E-07  0.2521332E+04  0.7818609E-02  0.8395425E-01
       -2   -1    0    0    0  501  0.00000000000E+00  0.00000000000E+00  0.14546545856E+04  0.14546545856E+04  0.25500000920E-02 0.  1.
        2   -1    0    0  501    0  0.00000000000E+00  0.00000000000E+00 -0.10925470741E+04  0.10925470741E+04  0.25500000920E-02 0. -1.
    10030    2    1    2    0    0  0.00000000000E+00  0.00000000000E+00  0.36210751151E+03  0.25472016597E+04  0.25213318793E+04 0.  0.
        3    1    3    3  502    0 -0.37280297157E+03  0.59611809251E+02  0.13962012777E+04  0.14463449248E+04  0.10100000352E+00 0.  1.
       -3    1    3    3    0  502  0.37280297157E+03 -0.59611809251E+02 -0.10340937662E+04  0.11008567350E+04  0.10100000352E+00 0. -1.
</event>
<event>
 5   0  0.5178484E-07  0.2017573E+04  0.7818609E-02  0.8598448E-01
        2   -1    0    0  501    0  0.00000000000E+00  0.00000000000E+00  0.16014178032E+04  0.16014178032E+04  0.25500000920E-02 0. -1.
       -2   -1    0    0    0  501  0.00000000000E+00  0.00000000000E+00 -0.63546853757E+03  0.63546853758E+03  0.25500000920E-02 0.  1.
    10030    2    1    2    0    0  0.00000000000E+00  0.00000000000E+00  0.96594926564E+03  0.22368863408E+04  0.20175734232E+04 0.  0.
        1    1    3    3  502    0 -0.44865095330E+03  0.80657851328E+03  0.31535665369E+02  0.92349936340E+03  0.50400001928E-02 0.  1.
       -1    1    3    3    0  502  0.44865095330E+03 -0.80657851328E+03  0.93441360027E+03  0.13133869774E+04  0.50400001928E-02 0. -1.
</event>
<event>
 5   0  0.6043512E-07  0.3951780E+04  0.7818609E-02  0.8014345E-01
        2   -1    0    0  501    0  0.00000000000E+00  0.00000000000E+00  0.22521852624E+04  0.22521852624E+04  0.25500000920E-02 0. -1.
       -2   -1    0    0    0  501  0.00000000000E+00  0.00000000000E+00 -0.17334904276E+04  0.17334904276E+04  0.25500000920E-02 0.  1.
    10030    2    1    2    0    0  0.00000000000E+00  0.00000000000E+00  0.51869483476E+03  0.39856756900E+04  0.39517801526E+04 0.  0.
        3    1    3    3  502    0 -0.29137338632E+03  0.11369949410E+04 -0.13437783655E+04  0.17842074576E+04  0.10100000352E+00 0.  1.
       -3    1    3    3    0  502  0.29137338632E+03 -0.11369949410E+04  0.18624732002E+04  0.22014682323E+04  0.10100000352E+00 0. -1.
</event>
<event>
 5   0  0.2647879E-07  0.3976987E+04  0.7818609E-02  0.8009205E-01
        1   -1    0    0  501    0  0.00000000000E+00  0.00000000000E+00  0.24938557897E+04  0.24938557897E+04  0.50400001928E-02 0.  1.
       -1   -1    0    0    0  501  0.00000000000E+00  0.00000000000E+00 -0.15855394586E+04  0.15855394586E+04  0.50400001928E-02 0. -1.
    10030    2    1    2    0    0  0.00000000000E+00  0.00000000000E+00  0.90831633111E+03  0.40793952484E+04  0.39769871807E+04 0.  0.
        2    1    3    3  502    0 -0.82763128285E+03 -0.18046503065E+04  0.34007145887E+03  0.20142951288E+04  0.25500000920E-02 0.  1.
       -2    1    3    3    0  502  0.82763128285E+03  0.18046503065E+04  0.56824487223E+03  0.20651001195E+04  0.25500000920E-02 0. -1.
</event>
<event>
 5   0  0.2601252E-07  0.2333067E+04  0.7818609E-02  0.8464996E-01
        1   -1    0    0  501    0  0.00000000000E+00  0.00000000000E+00  0.19797773450E+04  0.19797773450E+04  0.50400001928E-02 0.  1.
       -1   -1    0    0    0  501  0.00000000000E+00  0.00000000000E+00 -0.68735008861E+03  0.68735008863E+03  0.50400001928E-02 0. -1.
    10030    2    1    2    0    0  0.00000000000E+00  0.00000000000E+00  0.12924272564E+04  0.26671274336E+04  0.23330667659E+04 0.  0.
        3    1    3    3  502    0  0.80855113880E+03  0.20919119677E+03  0.15772495396E+04  0.17847218330E+04  0.10100000352E+00 0.  1.
       -3    1    3    3    0  502 -0.80855113880E+03 -0.20919119677E+03 -0.28482228318E+03  0.88240560065E+03  0.10100000352E+00 0. -1.
</event>
<event>
 5   0  0.2713405E-07  0.2242882E+04  0.7818609E-02  0.8500789E-01
       -1   -1    0    0    0  501  0.00000000000E+00  0.00000000000E+00  0.70704732745E+03  0.70704732746E+03  0.50400001928E-02 0.  1.
        1   -1    0    0  501    0  0.00000000000E+00  0.00000000000E+00 -0.17787076102E+04  0.17787076102E+04  0.50400001928E-02 0. -1.
    10030    2    1    2    0    0  0.00000000000E+00  0.00000000000E+00 -0.10716602828E+04  0.24857549377E+04  0.22428824866E+04 0.  0.
        1    1    3    3  502    0 -0.95526785967E+03 -0.14131649065E+03  0.96109971730E+02  0.97043503695E+03  0.50400001928E-02 0.  1.
       -1    1    3    3    0  502  0.95526785967E+03  0.14131649065E+03 -0.11677702545E+04  0.15153199007E+04  0.50400001928E-02 0. -1.
</event>
<event>
 5   0  0.2601252E-07  0.3999607E+04  0.7818609E-02  0.8004626E-01
       -1   -1    0    0    0  501  0.00000000000E+00  0.00000000000E+00  0.33803449060E+04  0.33803449060E+04  0.50400001928E-02 0. -1.
        1   -1    0    0  501    0  0.00000000000E+00  0.00000000000E+00 -0.11830788878E+04  0.11830788878E+04  0.50400001928E-02 0.  1.
    10030    2    1    2    0    0  0.00000000000E+00  0.00000000000E+00  0.21972660182E+04  0.45634237938E+04  0.39996073266E+04 0.  0.
        3    1    3    3  502    0 -0.10672519988E+04  0.90237263827E+03  0.27306206528E+04  0.30675058871E+04  0.10100000352E+00 0. -1.
       -3    1    3    3    0  502  0.10672519988E+04 -0.90237263827E+03 -0.53335463461E+03  0.14959179067E+04  0.10100000352E+00 0.  1.
</event>
<event>
 5   0  0.5633450E-07  0.2148380E+04  0.7818609E-02  0.8540226E-01
        2   -1    0    0  501    0  0.00000000000E+00  0.00000000000E+00  0.20351009958E+04  0.20351009958E+04  0.25500000920E-02 0.  1.
       -2   -1    0    0    0  501  0.00000000000E+00  0.00000000000E+00 -0.56699085156E+03  0.56699085157E+03  0.25500000920E-02 0. -1.
    10030    2    1    2    0    0  0.00000000000E+00  0.00000000000E+00  0.14681101442E+04  0.26020918473E+04  0.21483795257E+04 0.  0.
        2    1    3    3  502    0 -0.14119713991E+03  0.17428471576E+02 -0.55552948216E+03  0.57345739990E+03  0.25500000920E-02 0. -1.
       -2    1    3    3    0  502  0.14119713991E+03 -0.17428471576E+02  0.20236396263E+04  0.20286344474E+04  0.25500000920E-02 0.  1.
</event>
<event>
 5   0  0.5244019E-07  0.2063745E+04  0.7818609E-02  0.8577384E-01
        2   -1    0    0  501    0  0.00000000000E+00  0.00000000000E+00  0.16410987427E+04  0.16410987427E+04  0.25500000920E-02 0.  1.
       -2   -1    0    0    0  501  0.00000000000E+00  0.00000000000E+00 -0.64880951713E+03  0.64880951714E+03  0.25500000920E-02 0. -1.
    10030    2    1    2    0    0  0.00000000000E+00  0.00000000000E+00  0.99228922561E+03  0.22899082599E+04  0.20637446381E+04 0.  0.
        1    1    3    3  502    0  0.31877784349E+03 -0.19327603770E+03  0.15637661418E+04  0.16075880960E+04  0.50400001928E-02 0.  1.
       -1    1    3    3    0  502 -0.31877784349E+03  0.19327603770E+03 -0.57147691618E+03  0.68232016385E+03  0.50400001928E-02 0. -1.
</event>
<event>
 5   0  0.4449262E-07  0.3603752E+04  0.7818609E-02  0.8089633E-01
        2   -1    0    0  501    0  0.00000000000E+00  0.00000000000E+00  0.18187257898E+04  0.18187257898E+04  0.25500000920E-02 0. -1.
       -2   -1    0    0    0  501  0.00000000000E+00  0.00000000000E+00 -0.17851825944E+04  0.17851825944E+04  0.25500000920E-02 0.  1.
    10030    2    1    2    0    0  0.00000000000E+00  0.00000000000E+00  0.33543195359E+02  0.36039083842E+04  0.36037522800E+04 0.  0.
        1    1    3    3  502    0  0.64701003728E+03  0.13348886014E+04  0.10396590288E+04  0.18114746652E+04  0.50400001928E-02 0. -1.
       -1    1    3    3    0  502 -0.64701003728E+03 -0.13348886014E+04 -0.10061158334E+04  0.17924337190E+04  0.50400001928E-02 0.  1.
</event>
<event>
 5   0  0.7570277E-07  0.2805821E+04  0.7818609E-02  0.8301463E-01
       -2   -1    0    0    0  501  0.00000000000E+00  0.00000000000E+00  0.13393038497E+04  0.13393038497E+04  0.25500000920E-02 0. -1.
        2   -1    0    0  501    0  0.00000000000E+00  0.00000000000E+00 -0.14695380601E+04  0.14695380601E+04  0.25500000920E-02 0.  1.
    10030    2    1    2    0    0  0.00000000000E+00  0.00000000000E+00 -0.13023421041E+03  0.28088419098E+04  0.28058210785E+04 0.  0.
        5    1    3    3  502    0  0.20878378557E+03 -0.10846844331E+03 -0.14496389535E+04  0.14686154220E+04  0.46999998093E+01 0.  1.
       -5    1    3    3    0  502 -0.20878378557E+03  0.10846844331E+03  0.13194047431E+04  0.13402264877E+04  0.46999998093E+01 0. -1.
</event>
<event>
 5   0  0.7256473E-07  0.3955658E+04  0.7818609E-02  0.8013552E-01
        2   -1    0    0  501    0  0.00000000000E+00  0.00000000000E+00  0.17611412806E+04  0.17611412806E+04  0.25500000920E-02 0. -1.
       -2   -1    0    0    0  501  0.00000000000E+00  0.00000000000E+00 -0.22211771996E+04  0.22211771996E+04  0.25500000920E-02 0.  1.
    10030    2    1    2    0    0  0.00000000000E+00  0.00000000000E+00 -0.46003591901E+03  0.39823184803E+04  0.39556576484E+04 0.  0.
        4    1    3    3  502    0 -0.35858465908E+03 -0.15102928594E+04  0.10039009780E+04  0.18486173929E+04  0.12699999809E+01 0. -1.
       -4    1    3    3    0  502  0.35858465908E+03  0.15102928594E+04 -0.14639368970E+04  0.21337010873E+04  0.12699999809E+01 0.  1.
</event>
<event>
 5   0  0.4449262E-07  0.4055128E+04  0.7818609E-02  0.7993517E-01
       -2   -1    0    0    0  501  0.00000000000E+00  0.00000000000E+00  0.16198016978E+04  0.16198016978E+04  0.25500000920E-02 0.  1.
        2   -1    0    0  501    0  0.00000000000E+00  0.00000000000E+00 -0.25379750473E+04  0.25379750473E+04  0.25500000920E-02 0. -1.
    10030    2    1    2    0    0  0.00000000000E+00  0.00000000000E+00 -0.91817334943E+03  0.41577767451E+04  0.40551282547E+04 0.  0.
        1    1    3    3  502    0  0.10171935980E+04 -0.28998556267E+03  0.13145102112E+04  0.16872200620E+04  0.50400001928E-02 0.  1.
       -1    1    3    3    0  502 -0.10171935980E+04  0.28998556267E+03 -0.22326835606E+04  0.24705566831E+04  0.50400001928E-02 0. -1.
</event>
<event>
 5   0  0.4449262E-07  0.2655376E+04  0.7818609E-02  0.8349631E-01
       -2   -1    0    0    0  501  0.00000000000E+00  0.00000000000E+00  0.12145429748E+04  0.12145429748E+04  0.25500000920E-02 0.  1.
        2   -1    0    0  501    0  0.00000000000E+00  0.00000000000E+00 -0.14513731380E+04  0.14513731381E+04  0.25500000920E-02 0. -1.
    10030    2    1    2    0    0  0.00000000000E+00  0.00000000000E+00 -0.23683016327E+03  0.26659161128E+04  0.26553757162E+04 0.  0.
        1    1    3    3  502    0 -0.14014995723E+03 -0.12172377522E+04  0.39493178290E+03  0.12873542127E+04  0.50400001928E-02 0. -1.
       -1    1    3    3    0  502  0.14014995723E+03  0.12172377522E+04 -0.63176194617E+03  0.13785619001E+04  0.50400001928E-02 0.  1.
</event>
<event>
 5   0  0.2401125E-07  0.3960528E+04  0.7818609E-02  0.8012557E-01
       -1   -1    0    0    0  501  0.00000000000E+00  0.00000000000E+00  0.14471619650E+04  0.14471619650E+04  0.50400001928E-02 0.  1.
        1   -1    0    0  501    0  0.00000000000E+00  0.00000000000E+00 -0.27097494197E+04  0.27097494197E+04  0.50400001928E-02 0. -1.
    10030    2    1    2    0    0  0.00000000000E+00  0.00000000000E+00 -0.12625874547E+04  0.41569113848E+04  0.39605283966E+04 0.  0.
        5    1    3    3  502    0  0.39562559923E+03 -0.38222143131E+03  0.13653501372E+04  0.14720108439E+04  0.46999998093E+01 0.  1.
       -5    1    3    3    0  502 -0.39562559923E+03  0.38222143131E+03 -0.26279375919E+04  0.26849005409E+04  0.46999998093E+01 0. -1.
</event>
<event>
 5   0  0.4449262E-07  0.3934092E+04  0.7818609E-02  0.8017976E-01
        2   -1    0    0  501    0  0.00000000000E+00  0.00000000000E+00  0.21418349015E+04  0.21418349015E+04  0.25500000920E-02 0.  1.
       -2   -1    0    0    0  501  0.00000000000E+00  0.00000000000E+00 -0.18065207919E+04  0.18065207920E+04  0.25500000920E-02 0. -1.
    10030    2    1    2    0    0  0.00000000000E+00  0.00000000000E+00  0.33531410956E+03  0.39483556935E+04  0.39340916525E+04 0.  0.
        1    1    3    3  502    0 -0.17394917411E+03  0.98489642521E+03  0.18676077034E+04  0.21185461566E+04  0.50400001928E-02 0.  1.
       -1    1    3    3    0  502  0.17394917411E+03 -0.98489642521E+03 -0.15322935939E+04  0.18298095369E+04  0.50400001928E-02 0. -1.
</event>
<event>
 5   0  0.6043512E-07  0.3987785E+04  0.7818609E-02  0.8007015E-01
        2   -1    0    0  501    0  0.00000000000E+00  0.00000000000E+00  0.15986883967E+04  0.15986883967E+04  0.25500000920E-02 0. -1.
       -2   -1    0    0    0  501  0.00000000000E+00  0.00000000000E+00 -0.24867931978E+04  0.24867931978E+04  0.25500000920E-02 0.  1.
    10030    2    1    2    0    0  0.00000000000E+00  0.00000000000E+00 -0.88810480108E+03  0.40854815944E+04  0.39877850645E+04 0.  0.
        3    1    3    3  502    0 -0.84141222016E+03 -0.33863499829E+03 -0.22632115439E+04  0.24381908640E+04  0.10100000352E+00 0.  1.
       -3    1    3    3    0  502  0.84141222016E+03  0.33863499829E+03  0.13751067428E+04  0.16472907305E+04  0.10100000352E+00 0. -1.
</event>
<event>
 5   0  0.2713405E-07  0.2103920E+04  0.7818609E-02  0.8559519E-01
       -1   -1    0    0    0  501  0.00000000000E+00  0.00000000000E+00  0.25500230801E+04  0.25500230801E+04  0.50400001928E-02 0. -1.
        1   -1    0    0  501    0  0.00000000000E+00  0.00000000000E+00 -0.43396464184E+03  0.43396464186E+03  0.50400001928E-02 0.  1.
    10030    2    1    2    0    0  0.00000000000E+00  0.00000000000E+00  0.21160584382E+04  0.29839877220E+04  0.21039200105E+04 0.  0.
        1    1    3    3  502    0  0.51401512870E+03  0.68630377313E+03  0.19368628516E+03  0.87905562886E+03  0.50400001928E-02 0.  1.
       -1    1    3    3    0  502 -0.51401512870E+03 -0.68630377313E+03  0.19223721531E+04  0.21049320931E+04  0.50400001928E-02 0. -1.
</event>
<event>
 5   0  0.2401125E-07  0.3914453E+04  0.7818609E-02  0.8022030E-01
        1   -1    0    0  501    0  0.00000000000E+00  0.00000000000E+00  0.14010907322E+04  0.14010907322E+04  0.50400001928E-02 0. -1.
       -1   -1    0    0    0  501  0.00000000000E+00  0.00000000000E+00 -0.27341102526E+04  0.27341102526E+04  0.50400001928E-02 0.  1.
    10030    2    1    2    0    0  0.00000000000E+00  0.00000000000E+00 -0.13330195204E+04  0.41352009848E+04  0.39144534922E+04 0.  0.
        5    1    3    3  502    0  0.13460810352E+04 -0.26820443132E+03 -0.21404889769E+04  0.25427510536E+04  0.46999998093E+01 0.  1.
       -5    1    3    3    0  502 -0.13460810352E+04  0.26820443132E+03  0.80746945652E+03  0.15924499312E+04  0.46999998093E+01 0. -1.
</event>
<event>
 5   0  0.7570277E-07  0.3946580E+04  0.7818609E-02  0.8015411E-01
        2   -1    0    0  501    0  0.00000000000E+00  0.00000000000E+00  0.23172073683E+04  0.23172073683E+04  0.25500000920E-02 0.  1.
       -2   -1    0    0    0  501  0.00000000000E+00  0.00000000000E+00 -0.16804163305E+04  0.16804163305E+04  0.25500000920E-02 0. -1.
    10030    2    1    2    0    0  0.00000000000E+00  0.00000000000E+00  0.63679103778E+03  0.39976236988E+04  0.39465798372E+04 0.  0.
        5    1    3    3  502    0 -0.18716887126E+04 -0.60142426693E+03  0.14613356257E+03  0.19713718305E+04  0.46999998093E+01 0.  1.
       -5    1    3    3    0  502  0.18716887126E+04  0.60142426693E+03  0.49065747521E+03  0.20262518683E+04  0.46999998093E+01 0. -1.
</event>
<event>
 5   0  0.2811902E-07  0.2277964E+04  0.7818609E-02  0.8486661E-01
       -1   -1    0    0    0  501  0.00000000000E+00  0.00000000000E+00  0.12637760210E+04  0.12637760210E+04  0.50400001928E-02 0.  1.
        1   -1    0    0  501    0  0.00000000000E+00  0.00000000000E+00 -0.10265108000E+04  0.10265108000E+04  0.50400001928E-02 0. -1.
    10030    2    1    2    0    0  0.00000000000E+00  0.00000000000E+00  0.23726522101E+03  0.22902868211E+04  0.22779637701E+04 0.  0.
        2    1    3    3  502    0 -0.19847590767E+03 -0.61115657016E+03  0.10641319184E+04  0.12430936324E+04  0.25500000920E-02 0.  1.
       -2    1    3    3    0  502  0.19847590767E+03  0.61115657016E+03 -0.82686669739E+03  0.10471931887E+04  0.25500000920E-02 0. -1.
</event>
<event>
 5   0  0.4449262E-07  0.2438824E+04  0.7818609E-02  0.8425110E-01
       -2   -1    0    0    0  501  0.00000000000E+00  0.00000000000E+00  0.50243314182E+03  0.50243314183E+03  0.25500000920E-02 0.  1.
        2   -1    0    0  501    0  0.00000000000E+00  0.00000000000E+00 -0.29595301529E+04  0.29595301529E+04  0.25500000920E-02 0. -1.
    10030    2    1    2    0    0  0.00000000000E+00  0.00000000000E+00 -0.24570970111E+04  0.34619632948E+04  0.24388243340E+04 0.  0.
        1    1    3    3  502    0  0.38175182558E+03 -0.97792573540E+03 -0.34788124521E+03  0.11059360565E+04  0.50400001928E-02 0.  1.
       -1    1    3    3    0  502 -0.38175182558E+03  0.97792573540E+03 -0.21092157659E+04  0.23560272383E+04  0.50400001928E-02 0. -1.
</event>
<event>
 5   0  0.4449262E-07  0.3967345E+04  0.7818609E-02  0.8011167E-01
       -2   -1    0    0    0  501  0.00000000000E+00  0.00000000000E+00  0.26474805067E+04  0.26474805067E+04  0.25500000920E-02 0. -1.
        2   -1    0    0  501    0  0.00000000000E+00  0.00000000000E+00 -0.14863022591E+04  0.14863022591E+04  0.25500000920E-02 0.  1.
    10030    2    1    2    0    0  0.00000000000E+00  0.00000000000E+00  0.11611782476E+04  0.41337827658E+04  0.39673448340E+04 0.  0.
        1    1    3    3  502    0  0.80204873968E+03  0.78146513549E+03 -0.11254736196E+04  0.15876589077E+04  0.50400001928E-02 0.  1.
       -1    1    3    3    0  502 -0.80204873968E+03 -0.78146513549E+03  0.22866518672E+04  0.25461238581E+04  0.50400001928E-02 0. -1.
</event>
<event>
 5   0  0.7779339E-07  0.2095625E+04  0.7818609E-02  0.8563173E-01
        2   -1    0    0  501    0  0.00000000000E+00  0.00000000000E+00  0.13000344311E+04  0.13000344311E+04  0.25500000920E-02 0. -1.
       -2   -1    0    0    0  501  0.00000000000E+00  0.00000000000E+00 -0.84452446891E+03  0.84452446891E+03  0.25500000920E-02 0.  1.
    10030    2    1    2    0    0  0.00000000000E+00  0.00000000000E+00  0.45550996214E+03  0.21445589000E+04  0.20956248590E+04 0.  0.
        4    1    3    3  502    0 -0.61539022266E+03 -0.14335627177E+02  0.10954926902E+04  0.12565892262E+04  0.12699999809E+01 0. -1.
       -4    1    3    3    0  502  0.61539022266E+03  0.14335627177E+02 -0.63998272805E+03  0.88796967372E+03  0.12699999809E+01 0.  1.
</event>
<event>
 5   0  0.3579559E-07  0.2382739E+04  0.7818609E-02  0.8445994E-01
        1   -1    0    0  501    0  0.00000000000E+00  0.00000000000E+00  0.79027422049E+03  0.79027422051E+03  0.50400001928E-02 0.  1.
       -1   -1    0    0    0  501  0.00000000000E+00  0.00000000000E+00 -0.17960368865E+04  0.17960368865E+04  0.50400001928E-02 0. -1.
    10030    2    1    2    0    0  0.00000000000E+00  0.00000000000E+00 -0.10057626660E+04  0.25863111070E+04  0.23827393063E+04 0.  0.
        4    1    3    3  502    0  0.10366408112E+04  0.26755067408E+03  0.64410887555E+02  0.10725473929E+04  0.12699999809E+01 0.  1.
       -4    1    3    3    0  502 -0.10366408112E+04 -0.26755067408E+03 -0.10701735535E+04  0.15137637141E+04  0.12699999809E+01 0. -1.
</event>
<event>
 5   0  0.5161550E-07  0.4060838E+04  0.7818609E-02  0.7992385E-01
        2   -1    0    0  501    0  0.00000000000E+00  0.00000000000E+00  0.18217788220E+04  0.18217788220E+04  0.25500000920E-02 0.  1.
       -2   -1    0    0    0  501  0.00000000000E+00  0.00000000000E+00 -0.22629538245E+04  0.22629538245E+04  0.25500000920E-02 0. -1.
    10030    2    1    2    0    0  0.00000000000E+00  0.00000000000E+00 -0.44117500250E+03  0.40847326466E+04  0.40608380183E+04 0.  0.
        2    1    3    3  502    0 -0.19487690951E+03  0.12164463982E+04 -0.18440491711E+04  0.22177096733E+04  0.25500000920E-02 0. -1.
       -2    1    3    3    0  502  0.19487690951E+03 -0.12164463982E+04  0.14028741686E+04  0.18670229732E+04  0.25500000920E-02 0.  1.
</event>
<event>
 5   0  0.4474724E-07  0.1982402E+04  0.7818609E-02  0.8614893E-01
       -2   -1    0    0    0  501  0.00000000000E+00  0.00000000000E+00  0.12220242977E+04  0.12220242977E+04  0.25500000920E-02 0. -1.
        2   -1    0    0  501    0  0.00000000000E+00  0.00000000000E+00 -0.80397664126E+03  0.80397664126E+03  0.25500000920E-02 0.  1.
    10030    2    1    2    0    0  0.00000000000E+00  0.00000000000E+00  0.41804765639E+03  0.20260009389E+04  0.19824015641E+04 0.  0.
        1    1    3    3  502    0 -0.35198402597E+03 -0.26961518653E+03  0.11150275170E+04  0.11999464434E+04  0.50400001928E-02 0. -1.
       -1    1    3    3    0  502  0.35198402597E+03  0.26961518653E+03 -0.69697986064E+03  0.82605449548E+03  0.50400001928E-02 0.  1.
</event>
<event>
 5   0  0.3579559E-07  0.4018724E+04  0.7818609E-02  0.8000780E-01
        1   -1    0    0  501    0  0.00000000000E+00  0.00000000000E+00  0.20090882537E+04  0.20090882537E+04  0.50400001928E-02 0. -1.
       -1   -1    0    0    0  501  0.00000000000E+00  0.00000000000E+00 -0.20096354249E+04  0.20096354249E+04  0.50400001928E-02 0.  1.
    10030    2    1    2    0    0  0.00000000000E+00  0.00000000000E+00 -0.54717121797E+00  0.40187236786E+04  0.40187236413E+04 0.  0.
        4    1    3    3  502    0  0.18604237892E+04  0.40647911231E+03 -0.64146885772E+03  0.20094491415E+04  0.12699999809E+01 0.  1.
       -4    1    3    3    0  502 -0.18604237892E+04 -0.40647911231E+03  0.64092168650E+03  0.20092745370E+04  0.12699999809E+01 0. -1.
</event>
<event>
 5   0  0.7256473E-07  0.2356193E+04  0.7818609E-02  0.8456089E-01
        2   -1    0    0  501    0  0.00000000000E+00  0.00000000000E+00  0.25256576906E+04  0.25256576906E+04  0.25500000920E-02 0.  1.
       -2   -1    0    0    0  501  0.00000000000E+00  0.00000000000E+00 -0.54952461026E+03  0.54952461027E+03  0.25500000920E-02 0. -1.
    10030    2    1    2    0    0  0.00000000000E+00  0.00000000000E+00  0.19761330803E+04  0.30751823009E+04  0.23561927409E+04 0.  0.
        4    1    3    3  502    0 -0.26700007959E+03 -0.82116260400E+03  0.20340701885E+04  0.22097602154E+04  0.12699999809E+01 0.  1.
       -4    1    3    3    0  502  0.26700007959E+03  0.82116260400E+03 -0.57937108161E+02  0.86542208552E+03  0.12699999809E+01 0. -1.
</event>
<event>
 5   0  0.2401125E-07  0.3947405E+04  0.7818609E-02  0.8015241E-01
       -1   -1    0    0    0  501  0.00000000000E+00  0.00000000000E+00  0.20202329450E+04  0.20202329450E+04  0.50400001928E-02 0. -1.
        1   -1    0    0  501    0  0.00000000000E+00  0.00000000000E+00 -0.19282436343E+04  0.19282436343E+04  0.50400001928E-02 0.  1.
    10030    2    1    2    0    0  0.00000000000E+00  0.00000000000E+00  0.91989310720E+02  0.39484765793E+04  0.39474048771E+04 0.  0.
        5    1    3    3  502    0  0.88244824201E+03  0.41671876275E+03  0.17620098351E+04  0.20142170132E+04  0.46999998093E+01 0. -1.
       -5    1    3    3    0  502 -0.88244824201E+03 -0.41671876275E+03 -0.16700205244E+04  0.19342595661E+04  0.46999998093E+01 0.  1.
</event>
<event>
 5   0  0.2401125E-07  0.3089840E+04  0.7818609E-02  0.8218532E-01
       -3   -1    0    0    0  501  0.00000000000E+00  0.00000000000E+00  0.17057790828E+04  0.17057790858E+04  0.10100000352E+00 0. -1.
        3   -1    0    0  501    0  0.00000000000E+00  0.00000000000E+00 -0.13992301845E+04  0.13992301881E+04  0.10100000352E+00 0.  1.
    10030    2    1    2    0    0  0.00000000000E+00  0.00000000000E+00  0.30654889835E+03  0.31050092739E+04  0.30898398606E+04 0.  0.
        1    1    3    3  502    0  0.75024604996E+03 -0.13467492176E+04  0.51908020615E+02  0.15424970124E+04  0.50400001928E-02 0. -1.
       -1    1    3    3    0  502 -0.75024604996E+03  0.13467492176E+04  0.25464087774E+03  0.15625122615E+04  0.50400001928E-02 0.  1.
</event>
<event>
 5   0  0.6043512E-07  0.3875512E+04  0.7818609E-02  0.8030142E-01
        2   -1    0    0  501    0  0.00000000000E+00  0.00000000000E+00  0.20530729393E+04  0.20530729393E+04  0.25500000920E-02 0.  1.
       -2   -1    0    0    0  501  0.00000000000E+00  0.00000000000E+00 -0.18289160463E+04  0.18289160463E+04  0.25500000920E-02 0. -1.
    10030    2    1    2    0    0  0.00000000000E+00  0.00000000000E+00  0.22415689309E+03  0.38819889856E+04  0.38755118593E+04 0.  0.
        3    1    3    3  502    0  0.15990942877E+04  0.10922336588E+04  0.18162882336E+03  0.19450105259E+04  0.10100000352E+00 0.  1.
       -3    1    3    3    0  502 -0.15990942877E+04 -0.10922336588E+04  0.42528069730E+02  0.19369784597E+04  0.10100000352E+00 0. -1.
</event>
<event>
 5   0  0.5161550E-07  0.3824959E+04  0.7818609E-02  0.8040820E-01
        2   -1    0    0  501    0  0.00000000000E+00  0.00000000000E+00  0.16978920032E+04  0.16978920032E+04  0.25500000920E-02 0.  1.
       -2   -1    0    0    0  501  0.00000000000E+00  0.00000000000E+00 -0.21541877881E+04  0.21541877881E+04  0.25500000920E-02 0. -1.
    10030    2    1    2    0    0  0.00000000000E+00  0.00000000000E+00 -0.45629578487E+03  0.38520797913E+04  0.38249591992E+04 0.  0.
        2    1    3    3  502    0  0.10469608339E+04  0.16003790706E+04 -0.21260925500E+03  0.19241992757E+04  0.25500000920E-02 0.  1.
       -2    1    3    3    0  502 -0.10469608339E+04 -0.16003790706E+04 -0.24368652987E+03  0.19278805156E+04  0.25500000920E-02 0. -1.
</event>
<event>
 5   0  0.4449262E-07  0.2604265E+04  0.7818609E-02  0.8366754E-01
        2   -1    0    0  501    0  0.00000000000E+00  0.00000000000E+00  0.16722959368E+04  0.16722959368E+04  0.25500000920E-02 0. -1.
       -2   -1    0    0    0  501  0.00000000000E+00  0.00000000000E+00 -0.10139051612E+04  0.10139051612E+04  0.25500000920E-02 0.  1.
    10030    2    1    2    0    0  0.00000000000E+00  0.00000000000E+00  0.65839077558E+03  0.26862010980E+04  0.26042653332E+04 0.  0.
        1    1    3    3  502    0  0.97164486287E+03  0.53347611281E+03 -0.37557256948E+03  0.11703611654E+04  0.50400001928E-02 0.  1.
       -1    1    3    3    0  502 -0.97164486287E+03 -0.53347611281E+03  0.10339633451E+04  0.15158399327E+04  0.50400001928E-02 0. -1.
</event>
<event>
 5   0  0.4449262E-07  0.2583444E+04  0.7818609E-02  0.8373847E-01
       -2   -1    0    0    0  501  0.00000000000E+00  0.00000000000E+00  0.11960874962E+04  0.11960874962E+04  0.25500000920E-02 0. -1.
        2   -1    0    0  501    0  0.00000000000E+00  0.00000000000E+00 -0.13950034411E+04  0.13950034411E+04  0.25500000920E-02 0.  1.
    10030    2    1    2    0    0  0.00000000000E+00  0.00000000000E+00 -0.19891594489E+03  0.25910909374E+04  0.25834443467E+04 0.  0.
        1    1    3    3  502    0 -0.43032711489E+03 -0.11579820535E+04  0.27907442103E+03  0.12664858446E+04  0.50400001928E-02 0. -1.
       -1    1    3    3    0  502  0.43032711489E+03  0.11579820535E+04 -0.47799036592E+03  0.13246050928E+04  0.50400001928E-02 0.  1.
</event>
<event>
 5   0  0.2401125E-07  0.3965102E+04  0.7818609E-02  0.8011624E-01
       -1   -1    0    0    0  501  0.00000000000E+00  0.00000000000E+00  0.13109241710E+04  0.13109241710E+04  0.50400001928E-02 0.  1.
        1   -1    0    0  501    0  0.00000000000E+00  0.00000000000E+00 -0.29982723321E+04  0.29982723321E+04  0.50400001928E-02 0. -1.
    10030    2    1    2    0    0  0.00000000000E+00  0.00000000000E+00 -0.16873481612E+04  0.43091965031E+04  0.39651015984E+04 0.  0.
        5    1    3    3  502    0  0.19438402278E+04  0.38977684749E+03 -0.83640326575E+03  0.21517512252E+04  0.46999998093E+01 0. -1.
       -5    1    3    3    0  502 -0.19438402278E+04 -0.38977684749E+03 -0.85094489541E+03  0.21574452779E+04  0.46999998093E+01 0.  1.
</event>
<event>
 5   0  0.5161550E-07  0.2215736E+04  0.7818609E-02  0.8511907E-01
        2   -1    0    0  501    0  0.00000000000E+00  0.00000000000E+00  0.23732915194E+04  0.23732915194E+04  0.25500000920E-02 0.  1.
       -2   -1    0    0    0  501  0.00000000000E+00  0.00000000000E+00 -0.51716018212E+03  0.51716018212E+03  0.25500000920E-02 0. -1.
    10030    2    1    2    0    0  0.00000000000E+00  0.00000000000E+00  0.18561313373E+04  0.28904517015E+04  0.22157363331E+04 0.  0.
        2    1    3    3  502    0  0.43085666618E+03  0.95827375447E+03  0.13864036319E+04  0.17395519785E+04  0.25500000920E-02 0.  1.
       -2    1    3    3    0  502 -0.43085666618E+03 -0.95827375447E+03  0.46972770539E+03  0.11508997230E+04  0.25500000920E-02 0. -1.
</event>
<event>
 5   0  0.4449262E-07  0.3386426E+04  0.7818609E-02  0.8141246E-01
        2   -1    0    0  501    0  0.00000000000E+00  0.00000000000E+00  0.14292094073E+04  0.14292094073E+04  0.25500000920E-02 0.  1.
       -2   -1    0    0    0  501  0.00000000000E+00  0.00000000000E+00 -0.20059832738E+04  0.20059832738E+04  0.25500000920E-02 0. -1.
    10030    2    1    2    0    0  0.00000000000E+00  0.00000000000E+00 -0.57677386653E+03  0.34351926811E+04  0.33864259424E+04 0.  0.
        1    1    3    3  502    0  0.54166804053E+02 -0.70530460744E+03 -0.18489102246E+04  0.19796104795E+04  0.50400001928E-02 0. -1.
       -1    1    3    3    0  502 -0.54166804053E+02  0.70530460744E+03  0.12721363581E+04  0.14555822016E+04  0.50400001928E-02 0.  1.
</event>
<event>
 5   0  0.2401125E-07  0.4073142E+04  0.7818609E-02  0.7989952E-01
        1   -1    0    0  501    0  0.00000000000E+00  0.00000000000E+00  0.22580125508E+04  0.22580125508E+04  0.50400001928E-02 0. -1.
       -1   -1    0    0    0  501  0.00000000000E+00  0.00000000000E+00 -0.18368456925E+04  0.18368456926E+04  0.50400001928E-02 0.  1.
    10030    2    1    2    0    0  0.00000000000E+00  0.00000000000E+00  0.42116685828E+03  0.40948582434E+04  0.40731416021E+04 0.  0.
        5    1    3    3  502    0  0.17601461362E+04  0.89391029729E+03  0.71365977106E+03  0.20991718365E+04  0.46999998093E+01 0. -1.
       -5    1    3    3    0  502 -0.17601461362E+04 -0.89391029729E+03 -0.29249291278E+03  0.19956864069E+04  0.46999998093E+01 0.  1.
</event>
<event>
 5   0  0.2601252E-07  0.3918514E+04  0.7818609E-02  0.8021190E-01
       -1   -1    0    0    0  501  0.00000000000E+00  0.00000000000E+00  0.18026552412E+04  0.18026552412E+04  0.50400001928E-02 0. -1.
        1   -1    0    0  501    0  0.00000000000E+00  0.00000000000E+00 -0.21294627055E+04  0.21294627055E+04  0.50400001928E-02 0.  1.
    10030    2    1    2    0    0  0.00000000000E+00  0.00000000000E+00 -0.32680746427E+03  0.39321179467E+04  0.39185135483E+04 0.  0.
        3    1    3    3  502    0 -0.35455068877E+03 -0.78925171621E+03 -0.19273641064E+04  0.21126658211E+04  0.10100000352E+00 0.  1.
       -3    1    3    3    0  502  0.35455068877E+03  0.78925171621E+03  0.16005566422E+04  0.18194521256E+04  0.10100000352E+00 0. -1.
</event>
<event>
 5   0  0.4449262E-07  0.3207797E+04  0.7818609E-02  0.8186761E-01
        2   -1    0    0  501    0  0.00000000000E+00  0.00000000000E+00  0.22915084023E+04  0.22915084023E+04  0.25500000920E-02 0.  1.
       -2   -1    0    0    0  501  0.00000000000E+00  0.00000000000E+00 -0.11226187335E+04  0.11226187335E+04  0.25500000920E-02 0. -1.
    10030    2    1    2    0    0  0.00000000000E+00  0.00000000000E+00  0.11688896687E+04  0.34141271358E+04  0.32077969140E+04 0.  0.
        1    1    3    3  502    0 -0.67439791097E+03 -0.10846313735E+04 -0.44814036531E+03  0.13535388970E+04  0.50400001928E-02 0. -1.
       -1    1    3    3    0  502  0.67439791097E+03  0.10846313735E+04  0.16170300340E+04  0.20605882388E+04  0.50400001928E-02 0.  1.
</event>
<event>
 5   0  0.2713405E-07  0.3527079E+04  0.7818609E-02  0.8107402E-01
        1   -1    0    0  501    0  0.00000000000E+00  0.00000000000E+00  0.20975842696E+04  0.20975842696E+04  0.50400001928E-02 0. -1.
       -1   -1    0    0    0  501  0.00000000000E+00  0.00000000000E+00 -0.14826918073E+04  0.14826918073E+04  0.50400001928E-02 0.  1.
    10030    2    1    2    0    0  0.00000000000E+00  0.00000000000E+00  0.61489246226E+03  0.35802760769E+04  0.35270786845E+04 0.  0.
        1    1    3    3  502    0 -0.85279314747E+03 -0.19560982573E+03  0.18617334333E+04  0.20570782029E+04  0.50400001928E-02 0. -1.
       -1    1    3    3    0  502  0.85279314747E+03  0.19560982573E+03 -0.12468409710E+04  0.15231978740E+04  0.50400001928E-02 0.  1.
</event>
<event>
 5   0  0.7256473E-07  0.4042242E+04  0.7818609E-02  0.7996079E-01
        2   -1    0    0  501    0  0.00000000000E+00  0.00000000000E+00  0.22221534186E+04  0.22221534186E+04  0.25500000920E-02 0. -1.
       -2   -1    0    0    0  501  0.00000000000E+00  0.00000000000E+00 -0.18382755910E+04  0.18382755910E+04  0.25500000920E-02 0.  1.
    10030    2    1    2    0    0  0.00000000000E+00  0.00000000000E+00  0.38387782765E+03  0.40604290096E+04  0.40422421446E+04 0.  0.
        4    1    3    3  502    0  0.71208822684E+03  0.10798915988E+04 -0.13680109184E+04  0.18827349770E+04  0.12699999809E+01 0.  1.
       -4    1    3    3    0  502 -0.71208822684E+03 -0.10798915988E+04  0.17518887461E+04  0.21776940325E+04  0.12699999809E+01 0. -1.
</event>
<event>
 5   0  0.7256473E-07  0.2121371E+04  0.7818609E-02  0.8551887E-01
        2   -1    0    0  501    0  0.00000000000E+00  0.00000000000E+00  0.15127099093E+04  0.15127099093E+04  0.25500000920E-02 0. -1.
       -2   -1    0    0    0  501  0.00000000000E+00  0.00000000000E+00 -0.74373411464E+03  0.74373411464E+03  0.25500000920E-02 0.  1.
    10030    2    1    2    0    0  0.00000000000E+00  0.00000000000E+00  0.76897579465E+03  0.22564440239E+04  0.21213712217E+04 0.  0.
        4    1    3    3  502    0  0.81716085389E+03 -0.50175881678E+03  0.86671827865E+03  0.12925617814E+04  0.12699999809E+01 0. -1.
       -4    1    3    3    0  502 -0.81716085389E+03  0.50175881678E+03 -0.97742483993E+02  0.96388224251E+03  0.12699999809E+01 0.  1.
</event>
<event>
 5   0  0.2401125E-07  0.2024809E+04  0.7818609E-02  0.8595109E-01
       -1   -1    0    0    0  501  0.00000000000E+00  0.00000000000E+00  0.51194225467E+03  0.51194225470E+03  0.50400001928E-02 0. -1.
        1   -1    0    0  501    0  0.00000000000E+00  0.00000000000E+00 -0.20021056437E+04  0.20021056437E+04  0.50400001928E-02 0.  1.
    10030    2    1    2    0    0  0.00000000000E+00  0.00000000000E+00 -0.14901633891E+04  0.25140478984E+04  0.20248086106E+04 0.  0.
        5    1    3    3  502    0  0.95797367081E+03  0.25275053829E+03 -0.48658555795E+03  0.11038043231E+04  0.46999998093E+01 0.  1.
       -5    1    3    3    0  502 -0.95797367081E+03 -0.25275053829E+03 -0.10035778311E+04  0.14102435753E+04  0.46999998093E+01 0. -1.
</event>
<event>
 5   0  0.5161550E-07  0.2489517E+04  0.7818609E-02  0.8406730E-01
        2   -1    0    0  501    0  0.00000000000E+00  0.00000000000E+00  0.12319291192E+04  0.12319291192E+04  0.25500000920E-02 0. -1.
       -2   -1    0    0    0  501  0.00000000000E+00  0.00000000000E+00 -0.12577216730E+04  0.12577216730E+04  0.25500000920E-02 0.  1.
    10030    2    1    2    0    0  0.00000000000E+00  0.00000000000E+00 -0.25792553850E+02  0.24896507922E+04  0.24895171844E+04 0.  0.
        2    1    3    3  502    0  0.82182679542E+02  0.80278374373E+03 -0.96068561734E+03  0.12546444067E+04  0.25500000920E-02 0.  1.
       -2    1    3    3    0  502 -0.82182679542E+02 -0.80278374373E+03  0.93489306349E+03  0.12350063855E+04  0.25500000920E-02 0. -1.
</event>
<event>
 5   0  0.4449262E-07  0.3953734E+04  0.7818609E-02  0.8013945E-01
       -2   -1    0    0    0  501  0.00000000000E+00  0.00000000000E+00  0.28750958814E+04  0.28750958814E+04  0.25500000920E-02 0.  1.
        2   -1    0    0  501    0  0.00000000000E+00  0.00000000000E+00 -0.13592601591E+04  0.13592601591E+04  0.25500000920E-02 0. -1.
    10030    2    1    2    0    0  0.00000000000E+00  0.00000000000E+00  0.15158357223E+04  0.42343560404E+04  0.39537340755E+04 0.  0.
        1    1    3    3  502    0 -0.89239224396E+03  0.14364265106E+04  0.18544629378E+04  0.25097246513E+04  0.50400001928E-02 0.  1.
       -1    1    3    3    0  502  0.89239224396E+03 -0.14364265106E+04 -0.33862721552E+03  0.17246313892E+04  0.50400001928E-02 0. -1.
</event>
<event>
 5   0  0.2647879E-07  0.2074523E+04  0.7818609E-02  0.8572550E-01
        1   -1    0    0  501    0  0.00000000000E+00  0.00000000000E+00  0.76005324552E+03  0.76005324554E+03  0.50400001928E-02 0. -1.
       -1   -1    0    0    0  501  0.00000000000E+00  0.00000000000E+00 -0.14155734477E+04  0.14155734477E+04  0.50400001928E-02 0.  1.
    10030    2    1    2    0    0  0.00000000000E+00  0.00000000000E+00 -0.65552020221E+03  0.21756266933E+04  0.20745227820E+04 0.  0.
        2    1    3    3  502    0 -0.76310195431E+03 -0.66504691885E+03 -0.56529173204E+03  0.11593820506E+04  0.25500000920E-02 0.  1.
       -2    1    3    3    0  502  0.76310195431E+03  0.66504691885E+03 -0.90228470174E+02  0.10162446427E+04  0.25500000920E-02 0. -1.
</event>
<event>
 5   0  0.2401125E-07  0.2255643E+04  0.7818609E-02  0.8495618E-01
        1   -1    0    0  501    0  0.00000000000E+00  0.00000000000E+00  0.96352008959E+03  0.96352008961E+03  0.50400001928E-02 0.  1.
       -1   -1    0    0    0  501  0.00000000000E+00  0.00000000000E+00 -0.13201404620E+04  0.13201404620E+04  0.50400001928E-02 0. -1.
    10030    2    1    2    0    0  0.00000000000E+00  0.00000000000E+00 -0.35662037243E+03  0.22836605516E+04  0.22556434614E+04 0.  0.
        5    1    3    3  502    0  0.40900734767E+03  0.10490213375E+04 -0.24413303447E+03  0.11521092854E+04  0.46999998093E+01 0. -1.
       -5    1    3    3    0  502 -0.40900734767E+03 -0.10490213375E+04 -0.11248733796E+03  0.11315512663E+04  0.46999998093E+01 0.  1.
</event>
<event>
 5   0  0.2601252E-07  0.2106007E+04  0.7818609E-02  0.8558602E-01
       -1   -1    0    0    0  501  0.00000000000E+00  0.00000000000E+00  0.90874423803E+03  0.90874423804E+03  0.50400001928E-02 0. -1.
        1   -1    0    0  501    0  0.00000000000E+00  0.00000000000E+00 -0.12201638699E+04  0.12201638699E+04  0.50400001928E-02 0.  1.
    10030    2    1    2    0    0  0.00000000000E+00  0.00000000000E+00 -0.31141963183E+03  0.21289081079E+04  0.21060074893E+04 0.  0.
        3    1    3    3  502    0  0.55253104258E+03  0.18574478890E+03  0.73076681098E+03  0.93477902301E+03  0.10100000352E+00 0. -1.
       -3    1    3    3    0  502 -0.55253104258E+03 -0.18574478890E+03 -0.10421864428E+04  0.11941290849E+04  0.10100000352E+00 0.  1.
</event>
<event>
 5   0  0.7256473E-07  0.3498224E+04  0.7818609E-02  0.8114211E-01
       -2   -1    0    0    0  501  0.00000000000E+00  0.00000000000E+00  0.16338131517E+04  0.16338131517E+04  0.25500000920E-02 0. -1.
        2   -1    0    0  501    0  0.00000000000E+00  0.00000000000E+00 -0.18725471101E+04  0.18725471101E+04  0.25500000920E-02 0.  1.
    10030    2    1    2    0    0  0.00000000000E+00  0.00000000000E+00 -0.23873395842E+03  0.35063602618E+04  0.34982236039E+04 0.  0.
        4    1    3    3  502    0 -0.19237134154E+02 -0.46583720973E+03  0.15703821744E+04  0.16381319117E+04  0.12699999809E+01 0. -1.
       -4    1    3    3    0  502  0.19237134154E+02  0.46583720973E+03 -0.18091161328E+04  0.18682283502E+04  0.12699999809E+01 0.  1.
</event>
<event>
 5   0  0.4449262E-07  0.3969348E+04  0.7818609E-02  0.8010759E-01
        2   -1    0    0  501    0  0.00000000000E+00  0.00000000000E+00  0.19952244119E+04  0.19952244119E+04  0.25500000920E-02 0.  1.
       -2   -1    0    0    0  501  0.00000000000E+00  0.00000000000E+00 -0.19741796902E+04  0.19741796902E+04  0.25500000920E-02 0. -1.
    10030    2    1    2    0    0  0.00000000000E+00  0.00000000000E+00  0.21044721684E+02  0.39694041021E+04  0.39693483149E+04 0.  0.
        1    1    3    3  502    0  0.83663269949E+03  0.15693067599E+04 -0.87054253497E+03  0.19800308800E+04  0.50400001928E-02 0. -1.
       -1    1    3    3    0  502 -0.83663269949E+03 -0.15693067599E+04  0.89158725666E+03  0.19893732221E+04  0.50400001928E-02 0.  1.
</event>
<event>
 5   0  0.5161550E-07  0.1968599E+04  0.7818609E-02  0.8621444E-01
       -2   -1    0    0    0  501  0.00000000000E+00  0.00000000000E+00  0.17112182927E+04  0.17112182927E+04  0.25500000920E-02 0.  1.
        2   -1    0    0  501    0  0.00000000000E+00  0.00000000000E+00 -0.56617290999E+03  0.56617290999E+03  0.25500000920E-02 0. -1.
    10030    2    1    2    0    0  0.00000000000E+00  0.00000000000E+00  0.11450453827E+04  0.22773912027E+04  0.19685989337E+04 0.  0.
        2    1    3    3  502    0  0.94584219079E+03 -0.26181661980E+03  0.65971062818E+03  0.11825326656E+04  0.25500000920E-02 0.  1.
       -2    1    3    3    0  502 -0.94584219079E+03  0.26181661980E+03  0.48533475454E+03  0.10948585371E+04  0.25500000920E-02 0. -1.
</event>
<event>
 5   0  0.6043512E-07  0.3964673E+04  0.7818609E-02  0.8011711E-01
       -2   -1    0    0    0  501  0.00000000000E+00  0.00000000000E+00  0.21945983150E+04  0.21945983150E+04  0.25500000920E-02 0.  1.
        2   -1    0    0  501    0  0.00000000000E+00  0.00000000000E+00 -0.17906043320E+04  0.17906043320E+04  0.25500000920E-02 0. -1.
    10030    2    1    2    0    0  0.00000000000E+00  0.00000000000E+00  0.40399398299E+03  0.39852026470E+04  0.39646726220E+04 0.  0.
        3    1    3    3  502    0 -0.50913830076E+03 -0.16560471301E+04 -0.76628935100E+03  0.18944427376E+04  0.10100000352E+00 0. -1.
       -3    1    3    3    0  502  0.50913830076E+03  0.16560471301E+04  0.11702833340E+04  0.20907599094E+04  0.10100000352E+00 0.  1.
</event>
<event>
 5   0  0.5161550E-07  0.3383233E+04  0.7818609E-02  0.8142034E-01
       -2   -1    0    0    0  501  0.00000000000E+00  0.00000000000E+00  0.20606337451E+04  0.20606337451E+04  0.25500000920E-02 0. -1.
        2   -1    0    0  501    0  0.00000000000E+00  0.00000000000E+00 -0.13886829281E+04  0.13886829281E+04  0.25500000920E-02 0.  1.
    10030    2    1    2    0    0  0.00000000000E+00  0.00000000000E+00  0.67195081702E+03  0.34493166733E+04  0.33832333073E+04 0.  0.
        2    1    3    3  502    0 -0.80047320367E+03  0.45510828743E+02  0.18546130556E+04  0.20204994856E+04  0.25500000920E-02 0. -1.
       -2    1    3    3    0  502  0.80047320367E+03 -0.45510828743E+02 -0.11826622385E+04  0.14288171877E+04  0.25500000920E-02 0.  1.
</event>
<event>
 5   0  0.2713405E-07  0.3998470E+04  0.7818609E-02  0.8004855E-01
       -1   -1    0    0    0  501  0.00000000000E+00  0.00000000000E+00  0.20060686359E+04  0.20060686359E+04  0.50400001928E-02 0. -1.
        1   -1    0    0  501    0  0.00000000000E+00  0.00000000000E+00 -0.19924247576E+04  0.19924247576E+04  0.50400001928E-02 0.  1.
    10030    2    1    2    0    0  0.00000000000E+00  0.00000000000E+00  0.13643878321E+02  0.39984933935E+04  0.39984701152E+04 0.  0.
        1    1    3    3  502    0 -0.76310284501E+03  0.12631645656E+04  0.13555440469E+04  0.20038488802E+04  0.50400001928E-02 0. -1.
       -1    1    3    3    0  502  0.76310284501E+03 -0.12631645656E+04 -0.13419001686E+04  0.19946445132E+04  0.50400001928E-02 0.  1.
</event>
<event>
 5   0  0.7256473E-07  0.3349685E+04  0.7818609E-02  0.8150367E-01
        2   -1    0    0  501    0  0.00000000000E+00  0.00000000000E+00  0.19024595518E+04  0.19024595518E+04  0.25500000920E-02 0. -1.
       -2   -1    0    0    0  501  0.00000000000E+00  0.00000000000E+00 -0.14744580270E+04  0.14744580270E+04  0.25500000920E-02 0.  1.
    10030    2    1    2    0    0  0.00000000000E+00  0.00000000000E+00  0.42800152478E+03  0.33769175788E+04  0.33496846164E+04 0.  0.
        4    1    3    3  502    0  0.80700435053E+03  0.13375290289E+03 -0.12593698742E+04  0.15017189996E+04  0.12699999809E+01 0.  1.
       -4    1    3    3    0  502 -0.80700435053E+03 -0.13375290289E+03  0.16873713990E+04  0.18751985793E+04  0.12699999809E+01 0. -1.
</event>
<event>
 5   0  0.7570277E-07  0.4108025E+04  0.7818609E-02  0.7983102E-01
        2   -1    0    0  501    0  0.00000000000E+00  0.00000000000E+00  0.25967978255E+04  0.25967978255E+04  0.25500000920E-02 0. -1.
       -2   -1    0    0    0  501  0.00000000000E+00  0.00000000000E+00 -0.16246803905E+04  0.16246803905E+04  0.25500000920E-02 0.  1.
    10030    2    1    2    0    0  0.00000000000E+00  0.00000000000E+00  0.97211743497E+03  0.42214782160E+04  0.41080245886E+04 0.  0.
        5    1    3    3  502    0  0.33126681965E+03 -0.17873943113E+04 -0.49660821912E+03  0.18844516293E+04  0.46999998093E+01 0.  1.
       -5    1    3    3    0  502 -0.33126681965E+03  0.17873943113E+04  0.14687256541E+04  0.23370265867E+04  0.46999998093E+01 0. -1.
</event>
<event>
 5   0  0.2647879E-07  0.3945118E+04  0.7818609E-02  0.8015710E-01
       -1   -1    0    0    0  501  0.00000000000E+00  0.00000000000E+00  0.23337891764E+04  0.23337891764E+04  0.50400001928E-02 0. -1.
        1   -1    0    0  501    0  0.00000000000E+00  0.00000000000E+00 -0.16672406704E+04  0.16672406704E+04  0.50400001928E-02 0.  1.
    10030    2    1    2    0    0  0.00000000000E+00  0.00000000000E+00  0.66654850599E+03  0.40010298468E+04  0.39451176059E+04 0.  0.
        2    1    3    3  502    0 -0.83415435983E+03 -0.10148302648E+03  0.21431889065E+04  0.23020362703E+04  0.25500000920E-02 0. -1.
       -2    1    3    3    0  502  0.83415435983E+03  0.10148302648E+03 -0.14766404005E+04  0.16989935766E+04  0.25500000920E-02 0.  1.
</event>
<event>
 5   0  0.4449262E-07  0.2907898E+04  0.7818609E-02  0.8270532E-01
        2   -1    0    0  501    0  0.00000000000E+00  0.00000000000E+00  0.13581177125E+04  0.13581177125E+04  0.25500000920E-02 0. -1.
       -2   -1    0    0    0  501  0.00000000000E+00  0.00000000000E+00 -0.15565421528E+04  0.15565421528E+04  0.25500000920E-02 0.  1.
    10030    2    1    2    0    0  0.00000000000E+00  0.00000000000E+00 -0.19842444031E+03  0.29146598653E+04  0.29078978441E+04 0.  0.
        1    1    3    3  502    0 -0.63359056419E+03  0.11676531887E+04 -0.69144701623E+03  0.14976481390E+04  0.50400001928E-02 0. -1.
       -1    1    3    3    0  502  0.63359056419E+03 -0.11676531887E+04  0.49302257592E+03  0.14170117263E+04  0.50400001928E-02 0.  1.
</event>
<event>
 5   0  0.6043512E-07  0.3174826E+04  0.7818609E-02  0.8195497E-01
       -2   -1    0    0    0  501  0.00000000000E+00  0.00000000000E+00  0.13798182424E+04  0.13798182424E+04  0.25500000920E-02 0.  1.
        2   -1    0    0  501    0  0.00000000000E+00  0.00000000000E+00 -0.18262406348E+04  0.18262406348E+04  0.25500000920E-02 0. -1.
    10030    2    1    2    0    0  0.00000000000E+00  0.00000000000E+00 -0.44642239240E+03  0.32060588771E+04  0.31748260695E+04 0.  0.
        3    1    3    3  502    0  0.14349180822E+04 -0.36876468855E+03  0.35239877144E+03  0.15228795759E+04  0.10100000352E+00 0.  1.
       -3    1    3    3    0  502 -0.14349180822E+04  0.36876468855E+03 -0.79882116384E+03  0.16831793013E+04  0.10100000352E+00 0. -1.
</event>
<event>
 5   0  0.2401125E-07  0.2296568E+04  0.7818609E-02  0.8479276E-01
        1   -1    0    0  501    0  0.00000000000E+00  0.00000000000E+00  0.10052074073E+04  0.10052074073E+04  0.50400001928E-02 0.  1.
       -1   -1    0    0    0  501  0.00000000000E+00  0.00000000000E+00 -0.13117251154E+04  0.13117251155E+04  0.50400001928E-02 0. -1.
    10030    2    1    2    0    0  0.00000000000E+00  0.00000000000E+00 -0.30651770817E+03  0.23169325228E+04  0.22965677019E+04 0.  0.
        5    1    3    3  502    0 -0.80308422524E+03  0.16146330822E+03 -0.96508008424E+03  0.12658658427E+04  0.46999998093E+01 0. -1.
       -5    1    3    3    0  502  0.80308422524E+03 -0.16146330822E+03  0.65856237607E+03  0.10510666801E+04  0.46999998093E+01 0.  1.
</event>
<event>
 5   0  0.2401125E-07  0.3463094E+04  0.7818609E-02  0.8122592E-01
       -1   -1    0    0    0  501  0.00000000000E+00  0.00000000000E+00  0.21740077170E+04  0.21740077170E+04  0.50400001928E-02 0. -1.
        1   -1    0    0  501    0  0.00000000000E+00  0.00000000000E+00 -0.13791371029E+04  0.13791371029E+04  0.50400001928E-02 0.  1.
    10030    2    1    2    0    0  0.00000000000E+00  0.00000000000E+00  0.79487061407E+03  0.35531448199E+04  0.34630938217E+04 0.  0.
        5    1    3    3  502    0 -0.15420569489E+04 -0.39731716954E+03  0.10951415570E+04  0.19326556048E+04  0.46999998093E+01 0. -1.
       -5    1    3    3    0  502  0.15420569489E+04  0.39731716954E+03 -0.30027094297E+03  0.16204892151E+04  0.46999998093E+01 0.  1.
</event>
<event>
 5   0  0.6043512E-07  0.2455397E+04  0.7818609E-02  0.8419050E-01
       -2   -1    0    0    0  501  0.00000000000E+00  0.00000000000E+00  0.70209114899E+03  0.70209114899E+03  0.25500000920E-02 0. -1.
        2   -1    0    0  501    0  0.00000000000E+00  0.00000000000E+00 -0.21467927154E+04  0.21467927154E+04  0.25500000920E-02 0.  1.
    10030    2    1    2    0    0  0.00000000000E+00  0.00000000000E+00 -0.14447015664E+04  0.28488838644E+04  0.24553974539E+04 0.  0.
        3    1    3    3  502    0  0.44869152761E+03  0.75385571716E+03  0.27413191952E+03  0.91911416524E+03  0.10100000352E+00 0. -1.
       -3    1    3    3    0  502 -0.44869152761E+03 -0.75385571716E+03 -0.17188334859E+04  0.19297696991E+04  0.10100000352E+00 0.  1.
</event>
<event>
 5   0  0.4449262E-07  0.2085665E+04  0.7818609E-02  0.8567585E-01
       -2   -1    0    0    0  501  0.00000000000E+00  0.00000000000E+00  0.56407073983E+03  0.56407073984E+03  0.25500000920E-02 0.  1.
        2   -1    0    0  501    0  0.00000000000E+00  0.00000000000E+00 -0.19279485298E+04  0.19279485298E+04  0.25500000920E-02 0. -1.
    10030    2    1    2    0    0  0.00000000000E+00  0.00000000000E+00 -0.13638777900E+04  0.24920192696E+04  0.20856647416E+04 0.  0.
        1    1    3    3  502    0 -0.95473675893E+03  0.39376892349E+03 -0.50910854414E+03  0.11514198859E+04  0.50400001928E-02 0. -1.
       -1    1    3    3    0  502  0.95473675893E+03 -0.39376892349E+03 -0.85476924582E+03  0.13405993837E+04  0.50400001928E-02 0.  1.
</event>
<event>
 5   0  0.2647879E-07  0.4020995E+04  0.7818609E-02  0.8000325E-01
        1   -1    0    0  501    0  0.00000000000E+00  0.00000000000E+00  0.25407592317E+04  0.25407592317E+04  0.50400001928E-02 0. -1.
       -1   -1    0    0    0  501  0.00000000000E+00  0.00000000000E+00 -0.15909025568E+04  0.15909025569E+04  0.50400001928E-02 0.  1.
    10030    2    1    2    0    0  0.00000000000E+00  0.00000000000E+00  0.94985667488E+03  0.41316617886E+04  0.40209950799E+04 0.  0.
        2    1    3    3  502    0  0.21764162551E+03  0.19254695685E+04 -0.75826851738E+02  0.19392139253E+04  0.25500000920E-02 0.  1.
       -2    1    3    3    0  502 -0.21764162551E+03 -0.19254695685E+04  0.10256835266E+04  0.21924478633E+04  0.25500000920E-02 0. -1.
</event>
<event>
 5   0  0.2401125E-07  0.3850638E+04  0.7818609E-02  0.8035375E-01
        1   -1    0    0  501    0  0.00000000000E+00  0.00000000000E+00  0.12542114896E+04  0.12542114896E+04  0.50400001928E-02 0. -1.
       -1   -1    0    0    0  501  0.00000000000E+00  0.00000000000E+00 -0.29555245356E+04  0.29555245356E+04  0.50400001928E-02 0.  1.
    10030    2    1    2    0    0  0.00000000000E+00  0.00000000000E+00 -0.17013130461E+04  0.42097360252E+04  0.38506377811E+04 0.  0.
        5    1    3    3  502    0 -0.14415536042E+04  0.88012459213E+03 -0.18610379775E+04  0.25132012524E+04  0.46999998093E+01 0. -1.
       -5    1    3    3    0  502  0.14415536042E+04 -0.88012459213E+03  0.15972493144E+03  0.16965347728E+04  0.46999998093E+01 0.  1.
</event>
<event>
 5   0  0.2401125E-07  0.4040635E+04  0.7818609E-02  0.7996399E-01
        1   -1    0    0  501    0  0.00000000000E+00  0.00000000000E+00  0.12520066299E+04  0.12520066299E+04  0.50400001928E-02 0. -1.
       -1   -1    0    0    0  501  0.00000000000E+00  0.00000000000E+00 -0.32601129137E+04  0.32601129137E+04  0.50400001928E-02 0.  1.
    10030    2    1    2    0    0  0.00000000000E+00  0.00000000000E+00 -0.20081062838E+04  0.45121195436E+04  0.40406350897E+04 0.  0.
        5    1    3    3  502    0 -0.11519037343E+04 -0.11698435741E+04  0.31072027395E+03  0.16709235109E+04  0.46999998093E+01 0. -1.
       -5    1    3    3    0  502  0.11519037343E+04  0.11698435741E+04 -0.23188265578E+04  0.28411960326E+04  0.46999998093E+01 0.  1.
</event>
<event>
 5   0  0.6043512E-07  0.3985781E+04  0.7818609E-02  0.8007421E-01
       -2   -1    0    0    0  501  0.00000000000E+00  0.00000000000E+00  0.16827379445E+04  0.16827379445E+04  0.25500000920E-02 0. -1.
        2   -1    0    0  501    0  0.00000000000E+00  0.00000000000E+00 -0.23602083807E+04  0.23602083807E+04  0.25500000920E-02 0.  1.
    10030    2    1    2    0    0  0.00000000000E+00  0.00000000000E+00 -0.67747043625E+03  0.40429463252E+04  0.39857808265E+04 0.  0.
        3    1    3    3  502    0 -0.19057537920E+04 -0.14940165719E+03 -0.91019252972E+03  0.21172314050E+04  0.10100000352E+00 0.  1.
       -3    1    3    3    0  502  0.19057537920E+04  0.14940165719E+03  0.23272209347E+03  0.19257149202E+04  0.10100000352E+00 0. -1.
</event>
<event>
 5   0  0.5161550E-07  0.2611137E+04  0.7818609E-02  0.8364428E-01
        2   -1    0    0  501    0  0.00000000000E+00  0.00000000000E+00  0.11827679487E+04  0.11827679487E+04  0.25500000920E-02 0. -1.
       -2   -1    0    0    0  501  0.00000000000E+00  0.00000000000E+00 -0.14411186290E+04  0.14411186290E+04  0.25500000920E-02 0.  1.
    10030    2    1    2    0    0  0.00000000000E+00  0.00000000000E+00 -0.25835068029E+03  0.26238865776E+04  0.26111368594E+04 0.  0.
        2    1    3    3  502    0 -0.11506252760E+04  0.58358713891E+03 -0.33014298620E+03  0.13317307783E+04  0.25500000920E-02 0.  1.
       -2    1    3    3    0  502  0.11506252760E+04 -0.58358713891E+03  0.71792305915E+02  0.12921557993E+04  0.25500000920E-02 0. -1.
</event>
<event>
 5   0  0.4449262E-07  0.3144526E+04  0.7818609E-02  0.8203623E-01
       -2   -1    0    0    0  501  0.00000000000E+00  0.00000000000E+00  0.12374624415E+04  0.12374624415E+04  0.25500000920E-02 0. -1.
        2   -1    0    0  501    0  0.00000000000E+00  0.00000000000E+00 -0.19976452257E+04  0.19976452257E+04  0.25500000920E-02 0.  1.
    10030    2    1    2    0    0  0.00000000000E+00  0.00000000000E+00 -0.76018278423E+03  0.32351076672E+04  0.31445259982E+04 0.  0.
        1    1    3    3  502    0  0.21924310459E+02  0.38544595073E+03 -0.19481221314E+04  0.19860083321E+04  0.50400001928E-02 0.  1.
       -1    1    3    3    0  502 -0.21924310459E+02 -0.38544595073E+03  0.11879393472E+04  0.12490993351E+04  0.50400001928E-02 0. -1.
</event>
<event>
 5   0  0.4707176E-07  0.2098310E+04  0.7818609E-02  0.8561988E-01
        1   -1    0    0  501    0  0.00000000000E+00  0.00000000000E+00  0.13465876920E+04  0.13465876920E+04  0.50400001928E-02 0. -1.
       -1   -1    0    0    0  501  0.00000000000E+00  0.00000000000E+00 -0.81741876942E+03  0.81741876944E+03  0.50400001928E-02 0.  1.
    10030    2    1    2    0    0  0.00000000000E+00  0.00000000000E+00  0.52916892254E+03  0.21640064614E+04  0.20983098476E+04 0.  0.
        4    1    3    3  502    0  0.70647264554E+02 -0.20415174166E+03  0.13234008817E+04  0.13409177739E+04  0.12699999809E+01 0. -1.
       -4    1    3    3    0  502 -0.70647264554E+02  0.20415174166E+03 -0.79423195920E+03  0.82308868752E+03  0.12699999809E+01 0.  1.
</event>
<event>
 5   0  0.4449262E-07  0.4004849E+04  0.7818609E-02  0.8003569E-01
        2   -1    0    0  501    0  0.00000000000E+00  0.00000000000E+00  0.30134955897E+04  0.30134955897E+04  0.25500000920E-02 0. -1.
       -2   -1    0    0    0  501  0.00000000000E+00  0.00000000000E+00 -0.13305823352E+04  0.13305823352E+04  0.25500000920E-02 0.  1.
    10030    2    1    2    0    0  0.00000000000E+00  0.00000000000E+00  0.16829132545E+04  0.43440779250E+04  0.40048490603E+04 0.  0.
        1    1    3    3  502    0 -0.15667236585E+04  0.98279708367E+03  0.88507762124E+01  0.18494841081E+04  0.50400001928E-02 0.  1.
       -1    1    3    3    0  502  0.15667236585E+04 -0.98279708367E+03  0.16740624783E+04  0.24945938168E+04  0.50400001928E-02 0. -1.
</event>
<event>
 5   0  0.6043512E-07  0.4005182E+04  0.7818609E-02  0.8003502E-01
       -2   -1    0    0    0  501  0.00000000000E+00  0.00000000000E+00  0.14328692476E+04  0.14328692476E+04  0.25500000920E-02 0.  1.
        2   -1    0    0  501    0  0.00000000000E+00  0.00000000000E+00 -0.27988394876E+04  0.27988394876E+04  0.25500000920E-02 0. -1.
    10030    2    1    2    0    0  0.00000000000E+00  0.00000000000E+00 -0.13659702400E+04  0.42317087353E+04  0.40051821586E+04 0.  0.
        3    1    3    3  502    0  0.58992154661E+03  0.17440420145E+04  0.14940656854E+03  0.18471633150E+04  0.10100000352E+00 0. -1.
       -3    1    3    3    0  502 -0.58992154661E+03 -0.17440420145E+04 -0.15153768085E+04  0.23845454203E+04  0.10100000352E+00 0.  1.
</event>
<event>
 5   0  0.2647879E-07  0.3750067E+04  0.7818609E-02  0.8056956E-01
        1   -1    0    0  501    0  0.00000000000E+00  0.00000000000E+00  0.29799420791E+04  0.29799420791E+04  0.50400001928E-02 0. -1.
       -1   -1    0    0    0  501  0.00000000000E+00  0.00000000000E+00 -0.11798053320E+04  0.11798053320E+04  0.50400001928E-02 0.  1.
    10030    2    1    2    0    0  0.00000000000E+00  0.00000000000E+00  0.18001367471E+04  0.41597474111E+04  0.37500674948E+04 0.  0.
        2    1    3    3  502    0 -0.12146784059E+04  0.12190853651E+04  0.17257966451E+04  0.24372088170E+04  0.25500000920E-02 0. -1.
       -2    1    3    3    0  502  0.12146784059E+04 -0.12190853651E+04  0.74340102012E+02  0.17225385941E+04  0.25500000920E-02 0.  1.
</event>
<event>
 5   0  0.7570277E-07  0.4105982E+04  0.7818609E-02  0.7983501E-01
        2   -1    0    0  501    0  0.00000000000E+00  0.00000000000E+00  0.26091716595E+04  0.26091716595E+04  0.25500000920E-02 0. -1.
       -2   -1    0    0    0  501  0.00000000000E+00  0.00000000000E+00 -0.16153675495E+04  0.16153675495E+04  0.25500000920E-02 0.  1.
    10030    2    1    2    0    0  0.00000000000E+00  0.00000000000E+00  0.99380411002E+03  0.42245392089E+04  0.41059816023E+04 0.  0.
        5    1    3    3  502    0 -0.10885948638E+04 -0.17366810579E+04  0.37669859060E+03  0.20839922727E+04  0.46999998093E+01 0.  1.
       -5    1    3    3    0  502  0.10885948638E+04  0.17366810579E+04  0.61710551943E+03  0.21405469363E+04  0.46999998093E+01 0. -1.
</event>
<event>
 5   0  0.7256473E-07  0.2889706E+04  0.7818609E-02  0.8275947E-01
       -2   -1    0    0    0  501  0.00000000000E+00  0.00000000000E+00  0.11866111155E+04  0.11866111155E+04  0.25500000920E-02 0. -1.
        2   -1    0    0  501    0  0.00000000000E+00  0.00000000000E+00 -0.17592954991E+04  0.17592954991E+04  0.25500000920E-02 0.  1.
    10030    2    1    2    0    0  0.00000000000E+00  0.00000000000E+00 -0.57268438356E+03  0.29459066146E+04  0.28897055869E+04 0.  0.
        4    1    3    3  502    0  0.78727810067E+03  0.10327657428E+04  0.35936899991E+03  0.13474270215E+04  0.12699999809E+01 0. -1.
       -4    1    3    3    0  502 -0.78727810067E+03 -0.10327657428E+04 -0.93205338347E+03  0.15984795932E+04  0.12699999809E+01 0.  1.
</event>
<event>
 5   0  0.7256473E-07  0.3813444E+04  0.7818609E-02  0.8043276E-01
       -2   -1    0    0    0  501  0.00000000000E+00  0.00000000000E+00  0.27563916669E+04  0.27563916669E+04  0.25500000920E-02 0.  1.
        2   -1    0    0  501    0  0.00000000000E+00  0.00000000000E+00 -0.13189664986E+04  0.13189664986E+04  0.25500000920E-02 0. -1.
    10030    2    1    2    0    0  0.00000000000E+00  0.00000000000E+00  0.14374251683E+04  0.40753581655E+04  0.38134437274E+04 0.  0.
        4    1    3    3  502    0 -0.37911585689E+03  0.92753448180E+03  0.24523298796E+04  0.26491456169E+04  0.12699999809E+01 0.  1.
       -4    1    3    3    0  502  0.37911585689E+03 -0.92753448180E+03 -0.10149047113E+04  0.14262125486E+04  0.12699999809E+01 0. -1.
</event>
<event>
 5   0  0.5161550E-07  0.3975632E+04  0.7818609E-02  0.8009480E-01
        2   -1    0    0  501    0  0.00000000000E+00  0.00000000000E+00  0.16148939549E+04  0.16148939549E+04  0.25500000920E-02 0. -1.
       -2   -1    0    0    0  501  0.00000000000E+00  0.00000000000E+00 -0.24468555566E+04  0.24468555566E+04  0.25500000920E-02 0.  1.
    10030    2    1    2    0    0  0.00000000000E+00  0.00000000000E+00 -0.83196160169E+03  0.40617495115E+04  0.39756318978E+04 0.  0.
        2    1    3    3  502    0 -0.11382371252E+03 -0.15599559654E+04 -0.16693364568E+04  0.22875975733E+04  0.25500000920E-02 0.  1.
       -2    1    3    3    0  502  0.11382371252E+03  0.15599559654E+04  0.83737485513E+03  0.17741519381E+04  0.25500000920E-02 0. -1.
</event>
<event>
 5   0  0.4449262E-07  0.4050801E+04  0.7818609E-02  0.7994376E-01
       -2   -1    0    0    0  501  0.00000000000E+00  0.00000000000E+00  0.15474795715E+04  0.15474795715E+04  0.25500000920E-02 0. -1.
        2   -1    0    0  501    0  0.00000000000E+00  0.00000000000E+00 -0.26509220362E+04  0.26509220362E+04  0.25500000920E-02 0.  1.
    10030    2    1    2    0    0  0.00000000000E+00  0.00000000000E+00 -0.11034424647E+04  0.41984016077E+04  0.40508012524E+04 0.  0.
        1    1    3    3  502    0 -0.18377822914E+04  0.83789788671E+03 -0.70798311589E+03  0.21402702427E+04  0.50400001928E-02 0. -1.
       -1    1    3    3    0  502  0.18377822914E+04 -0.83789788671E+03 -0.39545934879E+03  0.20581313650E+04  0.50400001928E-02 0.  1.
</event>
<event>
 5   0  0.7256473E-07  0.2259597E+04  0.7818609E-02  0.8494024E-01
       -2   -1    0    0    0  501  0.00000000000E+00  0.00000000000E+00  0.83297080154E+03  0.83297080154E+03  0.25500000920E-02 0. -1.
        2   -1    0    0  501    0  0.00000000000E+00  0.00000000000E+00 -0.15324002237E+04  0.15324002237E+04  0.25500000920E-02 0.  1.
    10030    2    1    2    0    0  0.00000000000E+00  0.00000000000E+00 -0.69942942217E+03  0.23653710252E+04  0.22595969929E+04 0.  0.
        4    1    3    3  502    0 -0.98055271836E+02 -0.69482119548E+03  0.57720183527E+03  0.90860051814E+03  0.12699999809E+01 0. -1.
       -4    1    3    3    0  502  0.98055271836E+02  0.69482119548E+03 -0.12766312574E+04  0.14567705071E+04  0.12699999809E+01 0.  1.
</event>
<event>
 5   0  0.2401125E-07  0.4025045E+04  0.7818609E-02  0.7999513E-01
        3   -1    0    0  501    0  0.00000000000E+00  0.00000000000E+00  0.22034949362E+04  0.22034949385E+04  0.10100000352E+00 0.  1.
       -3   -1    0    0    0  501  0.00000000000E+00  0.00000000000E+00 -0.18381015976E+04  0.18381016004E+04  0.10100000352E+00 0. -1.
    10030    2    1    2    0    0  0.00000000000E+00  0.00000000000E+00  0.36539333851E+03  0.40415965389E+04  0.40250453776E+04 0.  0.
        1    1    3    3  502    0 -0.31894861501E+03  0.12796575229E+04 -0.13437504755E+04  0.18827949797E+04  0.50400001928E-02 0. -1.
       -1    1    3    3    0  502  0.31894861501E+03 -0.12796575229E+04  0.17091438140E+04  0.21588015592E+04  0.50400001928E-02 0.  1.
</event>
<event>
 5   0  0.4449262E-07  0.3757323E+04  0.7818609E-02  0.8055376E-01
        2   -1    0    0  501    0  0.00000000000E+00  0.00000000000E+00  0.18753357702E+04  0.18753357702E+04  0.25500000920E-02 0.  1.
       -2   -1    0    0    0  501  0.00000000000E+00  0.00000000000E+00 -0.18819929737E+04  0.18819929737E+04  0.25500000920E-02 0. -1.
    10030    2    1    2    0    0  0.00000000000E+00  0.00000000000E+00 -0.66572034525E+01  0.37573287439E+04  0.37573228463E+04 0.  0.
        1    1    3    3  502    0 -0.64148003974E+03 -0.82217980154E+03 -0.15659866389E+04  0.18814330763E+04  0.50400001928E-02 0. -1.
       -1    1    3    3    0  502  0.64148003974E+03  0.82217980154E+03  0.15593294354E+04  0.18758956676E+04  0.50400001928E-02 0.  1.
</event>
<event>
 5   0  0.2401125E-07  0.3844483E+04  0.7818609E-02  0.8036676E-01
        1   -1    0    0  501    0  0.00000000000E+00  0.00000000000E+00  0.33963754879E+04  0.33963754879E+04  0.50400001928E-02 0.  1.
       -1   -1    0    0    0  501  0.00000000000E+00  0.00000000000E+00 -0.10879278649E+04  0.10879278649E+04  0.50400001928E-02 0. -1.
    10030    2    1    2    0    0  0.00000000000E+00  0.00000000000E+00  0.23084476230E+04  0.44843033528E+04  0.38444825570E+04 0.  0.
        5    1    3    3  502    0 -0.66023100271E+03  0.28675169841E+03  0.32332309755E+04  0.33123913030E+04  0.46999998093E+01 0.  1.
       -5    1    3    3    0  502  0.66023100271E+03 -0.28675169841E+03 -0.92478335242E+03  0.11719120498E+04  0.46999998093E+01 0. -1.
</event>
<event>
 5   0  0.2713405E-07  0.3942059E+04  0.7818609E-02  0.8016338E-01
       -1   -1    0    0    0  501  0.00000000000E+00  0.00000000000E+00  0.19052474803E+04  0.19052474803E+04  0.50400001928E-02 0.  1.
        1   -1    0    0  501    0  0.00000000000E+00  0.00000000000E+00 -0.20390823728E+04  0.20390823728E+04  0.50400001928E-02 0. -1.
    10030    2    1    2    0    0  0.00000000000E+00  0.00000000000E+00 -0.13383489255E+03  0.39443298531E+04  0.39420586261E+04 0.  0.
        1    1    3    3  502    0 -0.92653211206E+03  0.97062732702E+03  0.13776516662E+04  0.19231493120E+04  0.50400001928E-02 0.  1.
       -1    1    3    3    0  502  0.92653211206E+03 -0.97062732702E+03 -0.15114865588E+04  0.20211805412E+04  0.50400001928E-02 0. -1.
</event>
<event>
 5   0  0.2713405E-07  0.2214102E+04  0.7818609E-02  0.8512581E-01
       -1   -1    0    0    0  501  0.00000000000E+00  0.00000000000E+00  0.11190807244E+04  0.11190807244E+04  0.50400001928E-02 0.  1.
        1   -1    0    0  501    0  0.00000000000E+00  0.00000000000E+00 -0.10951508260E+04  0.10951508260E+04  0.50400001928E-02 0. -1.
    10030    2    1    2    0    0  0.00000000000E+00  0.00000000000E+00  0.23929898426E+02  0.22142315505E+04  0.22141022377E+04 0.  0.
        1    1    3    3  502    0  0.74378614042E+03  0.62798516557E+03 -0.51530297138E+03  0.11014174246E+04  0.50400001928E-02 0.  1.
       -1    1    3    3    0  502 -0.74378614042E+03 -0.62798516557E+03  0.53923286980E+03  0.11128141259E+04  0.50400001928E-02 0. -1.
</event>
<event>
 5   0  0.2647879E-07  0.3604784E+04  0.7818609E-02  0.8089397E-01
        1   -1    0    0  501    0  0.00000000000E+00  0.00000000000E+00  0.16685565075E+04  0.16685565076E+04  0.50400001928E-02 0.  1.
       -1   -1    0    0    0  501  0.00000000000E+00  0.00000000000E+00 -0.19469628830E+04  0.19469628830E+04  0.50400001928E-02 0. -1.
    10030    2    1    2    0    0  0.00000000000E+00  0.00000000000E+00 -0.27840637547E+03  0.36155193906E+04  0.36047843699E+04 0.  0.
        2    1    3    3  502    0  0.14840968131E+04  0.94371970328E+03 -0.53467088484E+03  0.18382119530E+04  0.25500000920E-02 0.  1.
       -2    1    3    3    0  502 -0.14840968131E+04 -0.94371970328E+03  0.25626450936E+03  0.17773074376E+04  0.25500000920E-02 0. -1.
</event>
<event>
 5   0  0.3579559E-07  0.4011665E+04  0.7818609E-02  0.8002198E-01
       -1   -1    0    0    0  501  0.00000000000E+00  0.00000000000E+00  0.22104537009E+04  0.22104537009E+04  0.50400001928E-02 0.  1.
        1   -1    0    0  501    0  0.00000000000E+00  0.00000000000E+00 -0.18201528877E+04  0.18201528877E+04  0.50400001928E-02 0. -1.
    10030    2    1    2    0    0  0.00000000000E+00  0.00000000000E+00  0.39030081322E+03  0.40306065887E+04  0.40116648349E+04 0.  0.
        4    1    3    3  502    0  0.17366611892E+04  0.51588653953E+03 -0.66986247599E+03  0.19315404105E+04  0.12699999809E+01 0. -1.
       -4    1    3    3    0  502 -0.17366611892E+04 -0.51588653953E+03  0.10601632892E+04  0.20990661782E+04  0.12699999809E+01 0.  1.
</event>
<event>
 5   0  0.7256473E-07  0.3477808E+04  0.7818609E-02  0.8119069E-01
        2   -1    0    0  501    0  0.00000000000E+00  0.00000000000E+00  0.19842098953E+04  0.19842098953E+04  0.25500000920E-02 0.  1.
       -2   -1    0    0    0  501  0.00000000000E+00  0.00000000000E+00 -0.15239249412E+04  0.15239249412E+04  0.25500000920E-02 0. -1.
    10030    2    1    2    0    0  0.00000000000E+00  0.00000000000E+00  0.46028495407E+03  0.35081348364E+04  0.34778079003E+04 0.  0.
        4    1    3    3  502    0 -0.74432840062E+03 -0.42986496948E+03 -0.12946529231E+04  0.15540065843E+04  0.12699999809E+01 0. -1.
       -4    1    3    3    0  502  0.74432840062E+03  0.42986496948E+03  0.17549378772E+04  0.19541282521E+04  0.12699999809E+01 0.  1.
</event>
<event>
 5   0  0.5161550E-07  0.3676737E+04  0.7818609E-02  0.8073137E-01
        2   -1    0    0  501    0  0.00000000000E+00  0.00000000000E+00  0.22388686492E+04  0.22388686492E+04  0.25500000920E-02 0.  1.
       -2   -1    0    0    0  501  0.00000000000E+00  0.00000000000E+00 -0.15095114488E+04  0.15095114488E+04  0.25500000920E-02 0. -1.
    10030    2    1    2    0    0  0.00000000000E+00  0.00000000000E+00  0.72935720038E+03  0.37483800980E+04  0.36767365195E+04 0.  0.
        2    1    3    3  502    0 -0.14259638853E+04  0.11602583833E+04  0.36981060395E+03  0.18751886307E+04  0.25500000920E-02 0. -1.
       -2    1    3    3    0  502  0.14259638853E+04 -0.11602583833E+04  0.35954659643E+03  0.18731914673E+04  0.25500000920E-02 0.  1.
</event>
<event>
 5   0  0.5161550E-07  0.3030981E+04  0.7818609E-02  0.8234939E-01
        2   -1    0    0  501    0  0.00000000000E+00  0.00000000000E+00  0.15939902315E+04  0.15939902315E+04  0.25500000920E-02 0. -1.
       -2   -1    0    0    0  501  0.00000000000E+00  0.00000000000E+00 -0.14408569953E+04  0.14408569953E+04  0.25500000920E-02 0.  1.
    10030    2    1    2    0    0  0.00000000000E+00  0.00000000000E+00  0.15313323622E+03  0.30348472269E+04  0.30309813431E+04 0.  0.
        2    1    3    3  502    0 -0.10030936833E+04 -0.60982679100E+03 -0.88310580133E+03  0.14690001732E+04  0.25500000920E-02 0.  1.
       -2    1    3    3    0  502  0.10030936833E+04  0.60982679100E+03  0.10362390376E+04  0.15658470537E+04  0.25500000920E-02 0. -1.
</event>
<event>
 5   0  0.2401125E-07  0.2113747E+04  0.7818609E-02  0.8555212E-01
       -1   -1    0    0    0  501  0.00000000000E+00  0.00000000000E+00  0.52553826313E+03  0.52553826315E+03  0.50400001928E-02 0. -1.
        1   -1    0    0  501    0  0.00000000000E+00  0.00000000000E+00 -0.21254044845E+04  0.21254044845E+04  0.50400001928E-02 0.  1.
    10030    2    1    2    0    0  0.00000000000E+00  0.00000000000E+00 -0.15998662214E+04  0.26509427477E+04  0.21137467978E+04 0.  0.
        5    1    3    3  502    0 -0.89438039305E+03  0.14235399387E+03 -0.14831577019E+04  0.17378031551E+04  0.46999998093E+01 0.  1.
       -5    1    3    3    0  502  0.89438039305E+03 -0.14235399387E+03 -0.11670851946E+03  0.91313959259E+03  0.46999998093E+01 0. -1.
</event>
<event>
 5   0  0.2713405E-07  0.2560492E+04  0.7818609E-02  0.8381746E-01
        1   -1    0    0  501    0  0.00000000000E+00  0.00000000000E+00  0.17404096895E+04  0.17404096896E+04  0.50400001928E-02 0.  1.
       -1   -1    0    0    0  501  0.00000000000E+00  0.00000000000E+00 -0.94174916193E+03  0.94174916195E+03  0.50400001928E-02 0. -1.
    10030    2    1    2    0    0  0.00000000000E+00  0.00000000000E+00  0.79866052761E+03  0.26821588515E+04  0.25604916454E+04 0.  0.
        1    1    3    3  502    0  0.76904133695E+03  0.25231108955E+03  0.14384038424E+04  0.16504820743E+04  0.50400001928E-02 0.  1.
       -1    1    3    3    0  502 -0.76904133695E+03 -0.25231108955E+03 -0.63974331474E+03  0.10316767772E+04  0.50400001928E-02 0. -1.
</event>
<event>
 5   0  0.4449262E-07  0.4087362E+04  0.7818609E-02  0.7987151E-01
       -2   -1    0    0    0  501  0.00000000000E+00  0.00000000000E+00  0.22689007594E+04  0.22689007594E+04  0.25500000920E-02 0.  1.
        2   -1    0    0  501    0  0.00000000000E+00  0.00000000000E+00 -0.18408173816E+04  0.18408173816E+04  0.25500000920E-02 0. -1.
    10030    2    1    2    0    0  0.00000000000E+00  0.00000000000E+00  0.42808337780E+03  0.41097181410E+04  0.40873619634E+04 0.  0.
        1    1    3    3  502    0  0.41979814419E+02  0.14194244283E+04 -0.12637263285E+04  0.19009293111E+04  0.50400001928E-02 0. -1.
       -1    1    3    3    0  502 -0.41979814419E+02 -0.14194244283E+04  0.16918097063E+04  0.22087888299E+04  0.50400001928E-02 0.  1.
</event>
<event>
 5   0  0.2401125E-07  0.1977346E+04  0.7818609E-02  0.8617286E-01
        3   -1    0    0  501    0  0.00000000000E+00  0.00000000000E+00  0.95300009026E+03  0.95300009561E+03  0.10100000352E+00 0. -1.
       -3   -1    0    0    0  501  0.00000000000E+00  0.00000000000E+00 -0.10256810905E+04  0.10256810955E+04  0.10100000352E+00 0.  1.
    10030    2    1    2    0    0  0.00000000000E+00  0.00000000000E+00 -0.72681000255E+02  0.19786811911E+04  0.19773458798E+04 0.  0.
        4    1    3    3  502    0 -0.11504569847E+03 -0.59156690296E+03 -0.82063355511E+03  0.10181492808E+04  0.12699999809E+01 0.  1.
       -4    1    3    3    0  502  0.11504569847E+03  0.59156690296E+03  0.74795255485E+03  0.96053191026E+03  0.12699999809E+01 0. -1.
</event>
<event>
 5   0  0.2647879E-07  0.3983407E+04  0.7818609E-02  0.8007902E-01
        1   -1    0    0  501    0  0.00000000000E+00  0.00000000000E+00  0.19758520035E+04  0.19758520035E+04  0.50400001928E-02 0.  1.
       -1   -1    0    0    0  501  0.00000000000E+00  0.00000000000E+00 -0.20076824595E+04  0.20076824595E+04  0.50400001928E-02 0. -1.
    10030    2    1    2    0    0  0.00000000000E+00  0.00000000000E+00 -0.31830456036E+02  0.39835344630E+04  0.39834072903E+04 0.  0.
        2    1    3    3  502    0  0.12439268180E+03  0.85467288155E+03 -0.18106714234E+04  0.20061082417E+04  0.25500000920E-02 0. -1.
       -2    1    3    3    0  502 -0.12439268180E+03 -0.85467288155E+03  0.17788409674E+04  0.19774262214E+04  0.25500000920E-02 0.  1.
</event>
<event>
 5   0  0.2713405E-07  0.4092320E+04  0.7818609E-02  0.7986177E-01
        1   -1    0    0  501    0  0.00000000000E+00  0.00000000000E+00  0.23478611590E+04  0.23478611590E+04  0.50400001928E-02 0.  1.
       -1   -1    0    0    0  501  0.00000000000E+00  0.00000000000E+00 -0.17832273425E+04  0.17832273425E+04  0.50400001928E-02 0. -1.
    10030    2    1    2    0    0  0.00000000000E+00  0.00000000000E+00  0.56463381650E+03  0.41310885015E+04  0.40923197407E+04 0.  0.
        1    1    3    3  502    0 -0.17628906438E+04  0.79639254618E+03 -0.39089350041E+03  0.19735303996E+04  0.50400001928E-02 0. -1.
       -1    1    3    3    0  502  0.17628906438E+04 -0.79639254618E+03  0.95552731691E+03  0.21575581019E+04  0.50400001928E-02 0.  1.
</event>
<event>
 5   0  0.3579559E-07  0.3920099E+04  0.7818609E-02  0.8020862E-01
       -1   -1    0    0    0  501  0.00000000000E+00  0.00000000000E+00  0.13028754440E+04  0.13028754440E+04  0.50400001928E-02 0. -1.
        1   -1    0    0  501    0  0.00000000000E+00  0.00000000000E+00 -0.29487045498E+04  0.29487045498E+04  0.50400001928E-02 0.  1.
    10030    2    1    2    0    0  0.00000000000E+00  0.00000000000E+00 -0.16458291058E+04  0.42515799938E+04  0.39200993607E+04 0.  0.
        4    1    3    3  502    0  0.46863203986E+03 -0.34950831549E+03  0.12061161097E+04  0.13403319493E+04  0.12699999809E+01 0. -1.
       -4    1    3    3    0  502 -0.46863203986E+03  0.34950831549E+03 -0.28519452155E+04  0.29112480445E+04  0.12699999809E+01 0.  1.
</event>
<event>
 5   0  0.2401125E-07  0.3767549E+04  0.7818609E-02  0.8053155E-01
       -1   -1    0    0    0  501  0.00000000000E+00  0.00000000000E+00  0.18235513331E+04  0.18235513331E+04  0.50400001928E-02 0. -1.
        1   -1    0    0  501    0  0.00000000000E+00  0.00000000000E+00 -0.19459866860E+04  0.19459866860E+04  0.50400001928E-02 0.  1.
    10030    2    1    2    0    0  0.00000000000E+00  0.00000000000E+00 -0.12243535289E+03  0.37695380192E+04  0.37675491320E+04 0.  0.
        5    1    3    3  502    0  0.51391352436E+03  0.76788595437E+02  0.17504233924E+04  0.18259265433E+04  0.46999998093E+01 0. -1.
       -5    1    3    3    0  502 -0.51391352436E+03 -0.76788595437E+02 -0.18728587453E+04  0.19436114758E+04  0.46999998093E+01 0.  1.
</event>
<event>
 5   0  0.2401125E-07  0.2317325E+04  0.7818609E-02  0.8471121E-01
       -1   -1    0    0    0  501  0.00000000000E+00  0.00000000000E+00  0.11070412480E+04  0.11070412480E+04  0.50400001928E-02 0.  1.
        1   -1    0    0  501    0  0.00000000000E+00  0.00000000000E+00 -0.12126906372E+04  0.12126906372E+04  0.50400001928E-02 0. -1.
    10030    2    1    2    0    0  0.00000000000E+00  0.00000000000E+00 -0.10564938922E+03  0.23197318852E+04  0.23173247994E+04 0.  0.
        5    1    3    3  502    0  0.33254118013E+03  0.74991854568E+03 -0.87191359348E+03  0.11971703580E+04  0.46999998093E+01 0. -1.
       -5    1    3    3    0  502 -0.33254118013E+03 -0.74991854568E+03  0.76626420426E+03  0.11225615272E+04  0.46999998093E+01 0.  1.
</event>
<event>
 5   0  0.2713405E-07  0.2302493E+04  0.7818609E-02  0.8476939E-01
       -1   -1    0    0    0  501  0.00000000000E+00  0.00000000000E+00  0.88124458794E+03  0.88124458795E+03  0.50400001928E-02 0.  1.
        1   -1    0    0  501    0  0.00000000000E+00  0.00000000000E+00 -0.15039738158E+04  0.15039738158E+04  0.50400001928E-02 0. -1.
    10030    2    1    2    0    0  0.00000000000E+00  0.00000000000E+00 -0.62272922781E+03  0.23852184037E+04  0.23024932448E+04 0.  0.
        1    1    3    3  502    0  0.11408515123E+04 -0.11643896269E+03 -0.20638982937E+03  0.11652025432E+04  0.50400001928E-02 0.  1.
       -1    1    3    3    0  502 -0.11408515123E+04  0.11643896269E+03 -0.41633939845E+03  0.12200158605E+04  0.50400001928E-02 0. -1.
</event>
<event>
 5   0  0.7256473E-07  0.3829040E+04  0.7818609E-02  0.8039952E-01
        2   -1    0    0  501    0  0.00000000000E+00  0.00000000000E+00  0.31005942426E+04  0.31005942426E+04  0.25500000920E-02 0.  1.
       -2   -1    0    0    0  501  0.00000000000E+00  0.00000000000E+00 -0.11821561508E+04  0.11821561508E+04  0.25500000920E-02 0. -1.
    10030    2    1    2    0    0  0.00000000000E+00  0.00000000000E+00  0.19184380918E+04  0.42827503934E+04  0.38290398562E+04 0.  0.
        4    1    3    3  502    0 -0.13201358231E+03  0.94476463020E+03  0.28158406641E+04  0.29730402033E+04  0.12699999809E+01 0.  1.
       -4    1    3    3    0  502  0.13201358231E+03 -0.94476463020E+03 -0.89740257225E+03  0.13097101901E+04  0.12699999809E+01 0. -1.
</event>
<event>
 5   0  0.7256473E-07  0.3865902E+04  0.7818609E-02  0.8032158E-01
       -2   -1    0    0    0  501  0.00000000000E+00  0.00000000000E+00  0.28497352976E+04  0.28497352976E+04  0.25500000920E-02 0.  1.
        2   -1    0    0  501    0  0.00000000000E+00  0.00000000000E+00 -0.13111043282E+04  0.13111043283E+04  0.25500000920E-02 0. -1.
    10030    2    1    2    0    0  0.00000000000E+00  0.00000000000E+00  0.15386309693E+04  0.41608396258E+04  0.38659023697E+04 0.  0.
        4    1    3    3  502    0 -0.17514260196E+04 -0.30386447739E+03  0.15864982221E+04  0.23826046555E+04  0.12699999809E+01 0.  1.
       -4    1    3    3    0  502  0.17514260196E+04  0.30386447739E+03 -0.47867252817E+02  0.17782349703E+04  0.12699999809E+01 0. -1.
</event>
<event>
 5   0  0.2647879E-07  0.2612544E+04  0.7818609E-02  0.8363953E-01
        1   -1    0    0  501    0  0.00000000000E+00  0.00000000000E+00  0.22930244969E+04  0.22930244969E+04  0.50400001928E-02 0. -1.
       -1   -1    0    0    0  501  0.00000000000E+00  0.00000000000E+00 -0.74414690032E+03  0.74414690033E+03  0.50400001928E-02 0.  1.
    10030    2    1    2    0    0  0.00000000000E+00  0.00000000000E+00  0.15488775966E+04  0.30371713973E+04  0.26125444086E+04 0.  0.
        2    1    3    3  502    0  0.78284594139E+03 -0.15854066726E+03  0.19760536160E+04  0.21313776776E+04  0.25500000920E-02 0. -1.
       -2    1    3    3    0  502 -0.78284594139E+03  0.15854066726E+03 -0.42717601938E+03  0.90579371971E+03  0.25500000920E-02 0.  1.
</event>
<event>
 5   0  0.6043512E-07  0.3327667E+04  0.7818609E-02  0.8155891E-01
        2   -1    0    0  501    0  0.00000000000E+00  0.00000000000E+00  0.24917409720E+04  0.24917409720E+04  0.25500000920E-02 0.  1.
       -2   -1    0    0    0  501  0.00000000000E+00  0.00000000000E+00 -0.11110071657E+04  0.11110071657E+04  0.25500000920E-02 0. -1.
    10030    2    1    2    0    0  0.00000000000E+00  0.00000000000E+00  0.13807338063E+04  0.36027481378E+04  0.33276670957E+04 0.  0.
        3    1    3    3  502    0 -0.12707665544E+04  0.56510032517E+03  0.16791879059E+04  0.21803343888E+04  0.10100000352E+00 0. -1.
       -3    1    3    3    0  502  0.12707665544E+04 -0.56510032517E+03 -0.29845409959E+03  0.14224137489E+04  0.10100000352E+00 0.  1.
</event>
<event>
 5   0  0.2647879E-07  0.3864177E+04  0.7818609E-02  0.8032521E-01
       -1   -1    0    0    0  501  0.00000000000E+00  0.00000000000E+00  0.28854769237E+04  0.28854769237E+04  0.50400001928E-02 0.  1.
        1   -1    0    0  501    0  0.00000000000E+00  0.00000000000E+00 -0.12937085084E+04  0.12937085084E+04  0.50400001928E-02 0. -1.
    10030    2    1    2    0    0  0.00000000000E+00  0.00000000000E+00  0.15917684153E+04  0.41791854321E+04  0.38641770389E+04 0.  0.
        2    1    3    3  502    0  0.82682973863E+03  0.13758042891E+04 -0.36718059278E+03  0.16466045203E+04  0.25500000920E-02 0. -1.
       -2    1    3    3    0  502 -0.82682973863E+03 -0.13758042891E+04  0.19589490080E+04  0.25325809118E+04  0.25500000920E-02 0.  1.
</event>
<event>
 5   0  0.3579559E-07  0.2078450E+04  0.7818609E-02  0.8570796E-01
        1   -1    0    0  501    0  0.00000000000E+00  0.00000000000E+00  0.16289056896E+04  0.16289056896E+04  0.50400001928E-02 0.  1.
       -1   -1    0    0    0  501  0.00000000000E+00  0.00000000000E+00 -0.66301494876E+03  0.66301494878E+03  0.50400001928E-02 0. -1.
    10030    2    1    2    0    0  0.00000000000E+00  0.00000000000E+00  0.96589074081E+03  0.22919206384E+04  0.20784502134E+04 0.  0.
        4    1    3    3  502    0 -0.66686886291E+03 -0.31137709536E+03 -0.32611172651E+03  0.80499704776E+03  0.12699999809E+01 0. -1.
       -4    1    3    3    0  502  0.66686886291E+03  0.31137709536E+03  0.12920024673E+04  0.14869235906E+04  0.12699999809E+01 0.  1.
</event>
<event>
 5   0  0.2713405E-07  0.3957527E+04  0.7818609E-02  0.8013170E-01
        1   -1    0    0  501    0  0.00000000000E+00  0.00000000000E+00  0.28714479677E+04  0.28714479677E+04  0.50400001928E-02 0. -1.
       -1   -1    0    0    0  501  0.00000000000E+00  0.00000000000E+00 -0.13635995725E+04  0.13635995725E+04  0.50400001928E-02 0.  1.
    10030    2    1    2    0    0  0.00000000000E+00  0.00000000000E+00  0.15078483952E+04  0.42350475403E+04  0.39575271175E+04 0.  0.
        1    1    3    3  502    0 -0.80201060461E+03  0.65951719796E+03 -0.10486313129E+04  0.14757410256E+04  0.50400001928E-02 0.  1.
       -1    1    3    3    0  502  0.80201060461E+03 -0.65951719796E+03  0.25564797081E+04  0.27593065147E+04  0.50400001928E-02 0. -1.
</event>
<event>
 5   0  0.2713405E-07  0.3953028E+04  0.7818609E-02  0.8014090E-01
       -1   -1    0    0    0  501  0.00000000000E+00  0.00000000000E+00  0.16579870649E+04  0.16579870650E+04  0.50400001928E-02 0. -1.
        1   -1    0    0  501    0  0.00000000000E+00  0.00000000000E+00 -0.23562352004E+04  0.23562352004E+04  0.50400001928E-02 0.  1.
    10030    2    1    2    0    0  0.00000000000E+00  0.00000000000E+00 -0.69824813542E+03  0.40142222653E+04  0.39530279454E+04 0.  0.
        1    1    3    3  502    0 -0.62443096049E+03  0.89401104293E+03  0.13248600385E+04  0.17159323678E+04  0.50400001928E-02 0. -1.
       -1    1    3    3    0  502  0.62443096049E+03 -0.89401104293E+03 -0.20231081740E+04  0.22982898975E+04  0.50400001928E-02 0.  1.
</event>
<event>
 5   0  0.2401125E-07  0.2230660E+04  0.7818609E-02  0.8505774E-01
        3   -1    0    0  501    0  0.00000000000E+00  0.00000000000E+00  0.72206520812E+03  0.72206521519E+03  0.10100000352E+00 0.  1.
       -3   -1    0    0    0  501  0.00000000000E+00  0.00000000000E+00 -0.17227824609E+04  0.17227824638E+04  0.10100000352E+00 0. -1.
    10030    2    1    2    0    0  0.00000000000E+00  0.00000000000E+00 -0.10007172527E+04  0.24448476790E+04  0.22306602506E+04 0.  0.
        2    1    3    3  502    0 -0.99177748856E+03 -0.43384260744E+03 -0.20602213395E+03  0.11019469654E+04  0.25500000920E-02 0.  1.
       -2    1    3    3    0  502  0.99177748856E+03  0.43384260744E+03 -0.79469511880E+03  0.13429007136E+04  0.25500000920E-02 0. -1.
</event>
<event>
 5   0  0.6043512E-07  0.3363579E+04  0.7818609E-02  0.8146903E-01
       -2   -1    0    0    0  501  0.00000000000E+00  0.00000000000E+00  0.12541578288E+04  0.12541578288E+04  0.25500000920E-02 0.  1.
        2   -1    0    0  501    0  0.00000000000E+00  0.00000000000E+00 -0.22552315314E+04  0.22552315314E+04  0.25500000920E-02 0. -1.
    10030    2    1    2    0    0  0.00000000000E+00  0.00000000000E+00 -0.10010737027E+04  0.35093893602E+04  0.33635792131E+04 0.  0.
        3    1    3    3  502    0 -0.70615961488E+03  0.14566774672E+03 -0.20857884501E+04  0.22068969081E+04  0.10100000352E+00 0. -1.
       -3    1    3    3    0  502  0.70615961488E+03 -0.14566774672E+03  0.10847147475E+04  0.13024924521E+04  0.10100000352E+00 0.  1.
</event>
<event>
 5   0  0.4449262E-07  0.3141135E+04  0.7818609E-02  0.8204539E-01
        2   -1    0    0  501    0  0.00000000000E+00  0.00000000000E+00  0.20896760093E+04  0.20896760093E+04  0.25500000920E-02 0. -1.
       -2   -1    0    0    0  501  0.00000000000E+00  0.00000000000E+00 -0.11804134833E+04  0.11804134833E+04  0.25500000920E-02 0.  1.
    10030    2    1    2    0    0  0.00000000000E+00  0.00000000000E+00  0.90926252604E+03  0.32700894926E+04  0.31411346594E+04 0.  0.
        1    1    3    3  502    0  0.37627177462E+03 -0.47574086357E+03  0.19628200437E+04  0.20544031594E+04  0.50400001928E-02 0. -1.
       -1    1    3    3    0  502 -0.37627177462E+03  0.47574086357E+03 -0.10535575176E+04  0.12156863332E+04  0.50400001928E-02 0.  1.
</event>
<event>
 5   0  0.2647879E-07  0.3942487E+04  0.7818609E-02  0.8016250E-01
       -1   -1    0    0    0  501  0.00000000000E+00  0.00000000000E+00  0.16318362759E+04  0.16318362760E+04  0.50400001928E-02 0.  1.
        1   -1    0    0  501    0  0.00000000000E+00  0.00000000000E+00 -0.23812447463E+04  0.23812447463E+04  0.50400001928E-02 0. -1.
    10030    2    1    2    0    0  0.00000000000E+00  0.00000000000E+00 -0.74940847036E+03  0.40130810223E+04  0.39424873159E+04 0.  0.
        2    1    3    3  502    0 -0.61260744828E+02  0.10612226350E+04  0.13150977681E+04  0.16909844764E+04  0.25500000920E-02 0.  1.
       -2    1    3    3    0  502  0.61260744828E+02 -0.10612226350E+04 -0.20645062384E+04  0.23220965459E+04  0.25500000920E-02 0. -1.
</event>
<event>
 5   0  0.2713405E-07  0.3556565E+04  0.7818609E-02  0.8100514E-01
        1   -1    0    0  501    0  0.00000000000E+00  0.00000000000E+00  0.17742747321E+04  0.17742747321E+04  0.50400001928E-02 0.  1.
       -1   -1    0    0    0  501  0.00000000000E+00  0.00000000000E+00 -0.17822997386E+04  0.17822997386E+04  0.50400001928E-02 0. -1.
    10030    2    1    2    0    0  0.00000000000E+00  0.00000000000E+00 -0.80250064502E+01  0.35565744707E+04  0.35565654170E+04 0.  0.
        1    1    3    3  502    0  0.94875087351E+03  0.17385986796E+03 -0.14979821418E+04  0.17816582082E+04  0.50400001928E-02 0. -1.
       -1    1    3    3    0  502 -0.94875087351E+03 -0.17385986796E+03  0.14899571354E+04  0.17749162625E+04  0.50400001928E-02 0.  1.
</event>
<event>
 5   0  0.6043512E-07  0.2941832E+04  0.7818609E-02  0.8260539E-01
        2   -1    0    0  501    0  0.00000000000E+00  0.00000000000E+00  0.26208510288E+04  0.26208510288E+04  0.25500000920E-02 0.  1.
       -2   -1    0    0    0  501  0.00000000000E+00  0.00000000000E+00 -0.82553118000E+03  0.82553118001E+03  0.25500000920E-02 0. -1.
    10030    2    1    2    0    0  0.00000000000E+00  0.00000000000E+00  0.17953198488E+04  0.34463822088E+04  0.29418322471E+04 0.  0.
        3    1    3    3  502    0  0.56674361085E+03  0.86839050289E+03 -0.32447350095E+03  0.10865465701E+04  0.10100000352E+00 0. -1.
       -3    1    3    3    0  502 -0.56674361085E+03 -0.86839050289E+03  0.21197933498E+04  0.23598356387E+04  0.10100000352E+00 0.  1.
</event>
<event>
 5   0  0.2601252E-07  0.2438164E+04  0.7818609E-02  0.8425352E-01
        1   -1    0    0  501    0  0.00000000000E+00  0.00000000000E+00  0.10889841936E+04  0.10889841937E+04  0.50400001928E-02 0. -1.
       -1   -1    0    0    0  501  0.00000000000E+00  0.00000000000E+00 -0.13647226449E+04  0.13647226449E+04  0.50400001928E-02 0.  1.
    10030    2    1    2    0    0  0.00000000000E+00  0.00000000000E+00 -0.27573845128E+03  0.24537068386E+04  0.24381643825E+04 0.  0.
        3    1    3    3  502    0  0.73560953968E+03  0.57439757303E+00 -0.11161977287E+04  0.13367943389E+04  0.10100000352E+00 0.  1.
       -3    1    3    3    0  502 -0.73560953968E+03 -0.57439757303E+00  0.84045927740E+03  0.11169124997E+04  0.10100000352E+00 0. -1.
</event>
<event>
 5   0  0.2713405E-07  0.3696586E+04  0.7818609E-02  0.8068719E-01
       -1   -1    0    0    0  501  0.00000000000E+00  0.00000000000E+00  0.12193237338E+04  0.12193237338E+04  0.50400001928E-02 0.  1.
        1   -1    0    0  501    0  0.00000000000E+00  0.00000000000E+00 -0.28017067186E+04  0.28017067187E+04  0.50400001928E-02 0. -1.
    10030    2    1    2    0    0  0.00000000000E+00  0.00000000000E+00 -0.15823829848E+04  0.40210304525E+04  0.36965862615E+04 0.  0.
        1    1    3    3  502    0  0.14208836756E+04  0.19869282602E+03  0.47632651354E+03  0.15117130039E+04  0.50400001928E-02 0.  1.
       -1    1    3    3    0  502 -0.14208836756E+04 -0.19869282602E+03 -0.20587094984E+04  0.25093174485E+04  0.50400001928E-02 0. -1.
</event>
<event>
 5   0  0.7256473E-07  0.3915858E+04  0.7818609E-02  0.8021739E-01
        2   -1    0    0  501    0  0.00000000000E+00  0.00000000000E+00  0.21682639726E+04  0.21682639726E+04  0.25500000920E-02 0. -1.
       -2   -1    0    0    0  501  0.00000000000E+00  0.00000000000E+00 -0.17679977943E+04  0.17679977943E+04  0.25500000920E-02 0.  1.
    10030    2    1    2    0    0  0.00000000000E+00  0.00000000000E+00  0.40026617828E+03  0.39362617669E+04  0.39158579755E+04 0.  0.
        4    1    3    3  502    0 -0.25122030211E+03 -0.64097187263E+03  0.20425849723E+04  0.21554840672E+04  0.12699999809E+01 0. -1.
       -4    1    3    3    0  502  0.25122030211E+03  0.64097187263E+03 -0.16423187940E+04  0.17807776997E+04  0.12699999809E+01 0.  1.
</event>
<event>
 5   0  0.5161550E-07  0.3989619E+04  0.7818609E-02  0.8006644E-01
       -2   -1    0    0    0  501  0.00000000000E+00  0.00000000000E+00  0.21975797074E+04  0.21975797074E+04  0.25500000920E-02 0.  1.
        2   -1    0    0  501    0  0.00000000000E+00  0.00000000000E+00 -0.18107488207E+04  0.18107488207E+04  0.25500000920E-02 0. -1.
    10030    2    1    2    0    0  0.00000000000E+00  0.00000000000E+00  0.38683088671E+03  0.40083285280E+04  0.39896189610E+04 0.  0.
        2    1    3    3  502    0 -0.93055423796E+03 -0.15555354365E+04 -0.64334270557E+03  0.19234114279E+04  0.25500000920E-02 0. -1.
       -2    1    3    3    0  502  0.93055423796E+03  0.15555354365E+04  0.10301735923E+04  0.20849171001E+04  0.25500000920E-02 0.  1.
</event>
<event>
 5   0  0.7570277E-07  0.2038757E+04  0.7818609E-02  0.8588712E-01
       -2   -1    0    0    0  501  0.00000000000E+00  0.00000000000E+00  0.58253679278E+03  0.58253679278E+03  0.25500000920E-02 0. -1.
        2   -1    0    0  501    0  0.00000000000E+00  0.00000000000E+00 -0.17838059261E+04  0.17838059261E+04  0.25500000920E-02 0.  1.
    10030    2    1    2    0    0  0.00000000000E+00  0.00000000000E+00 -0.12012691333E+04  0.23663427189E+04  0.20387570558E+04 0.  0.
        5    1    3    3  502    0  0.39954729601E+03  0.90580908970E+03 -0.31874877746E+03  0.10400726041E+04  0.46999998093E+01 0.  1.
       -5    1    3    3    0  502 -0.39954729601E+03 -0.90580908970E+03 -0.88252035584E+03  0.13262701147E+04  0.46999998093E+01 0. -1.
</event>
<event>
 5   0  0.5161550E-07  0.2394871E+04  0.7818609E-02  0.8441426E-01
        2   -1    0    0  501    0  0.00000000000E+00  0.00000000000E+00  0.22520109671E+04  0.22520109671E+04  0.25500000920E-02 0. -1.
       -2   -1    0    0    0  501  0.00000000000E+00  0.00000000000E+00 -0.63669829203E+03  0.63669829204E+03  0.25500000920E-02 0.  1.
    10030    2    1    2    0    0  0.00000000000E+00  0.00000000000E+00  0.16153126750E+04  0.28887092591E+04  0.23948707993E+04 0.  0.
        2    1    3    3  502    0 -0.15847565496E+03 -0.97432767512E+03  0.16252319251E+04  0.19015277443E+04  0.25500000920E-02 0. -1.
       -2    1    3    3    0  502  0.15847565496E+03  0.97432767512E+03 -0.99192500908E+01  0.98718151485E+03  0.25500000920E-02 0.  1.
</event>
<event>
 5   0  0.7570277E-07  0.2677772E+04  0.7818609E-02  0.8342253E-01
        2   -1    0    0  501    0  0.00000000000E+00  0.00000000000E+00  0.22843624853E+04  0.22843624853E+04  0.25500000920E-02 0.  1.
       -2   -1    0    0    0  501  0.00000000000E+00  0.00000000000E+00 -0.78473370883E+03  0.78473370883E+03  0.25500000920E-02 0. -1.
    10030    2    1    2    0    0  0.00000000000E+00  0.00000000000E+00  0.14996287765E+04  0.30690961942E+04  0.26777723917E+04 0.  0.
        5    1    3    3  502    0  0.58369725624E+03 -0.74025517013E+03 -0.33986913942E+03  0.10021044485E+04  0.46999998093E+01 0. -1.
       -5    1    3    3    0  502 -0.58369725624E+03  0.74025517013E+03  0.18394979159E+04  0.20669917456E+04  0.46999998093E+01 0.  1.
</event>
<event>
 5   0  0.2401125E-07  0.3979096E+04  0.7818609E-02  0.8008777E-01
       -1   -1    0    0    0  501  0.00000000000E+00  0.00000000000E+00  0.24478202728E+04  0.24478202728E+04  0.50400001928E-02 0. -1.
        1   -1    0    0  501    0  0.00000000000E+00  0.00000000000E+00 -0.16170716104E+04  0.16170716104E+04  0.50400001928E-02 0.  1.
    10030    2    1    2    0    0  0.00000000000E+00  0.00000000000E+00  0.83074866246E+03  0.40648918832E+04  0.39790957116E+04 0.  0.
        5    1    3    3  502    0  0.57240338247E+02  0.55268670629E+03 -0.15361934929E+04  0.16336008047E+04  0.46999998093E+01 0.  1.
       -5    1    3    3    0  502 -0.57240338247E+02 -0.55268670629E+03  0.23669421553E+04  0.24312910785E+04  0.46999998093E+01 0. -1.
</event>
<event>
 5   0  0.3579559E-07  0.4076854E+04  0.7818609E-02  0.7989220E-01
        1   -1    0    0  501    0  0.00000000000E+00  0.00000000000E+00  0.27725727546E+04  0.27725727546E+04  0.50400001928E-02 0. -1.
       -1   -1    0    0    0  501  0.00000000000E+00  0.00000000000E+00 -0.14986749969E+04  0.14986749970E+04  0.50400001928E-02 0.  1.
    10030    2    1    2    0    0  0.00000000000E+00  0.00000000000E+00  0.12738977576E+04  0.42712477515E+04  0.40768544073E+04 0.  0.
        4    1    3    3  502    0 -0.85308009242E+03 -0.10609772071E+04  0.22264473191E+04  0.26096910844E+04  0.12699999809E+01 0. -1.
       -4    1    3    3    0  502  0.85308009242E+03  0.10609772071E+04 -0.95254956150E+03  0.16615566672E+04  0.12699999809E+01 0.  1.
</event>
<event>
 5   0  0.5161550E-07  0.3098100E+04  0.7818609E-02  0.8216259E-01
       -2   -1    0    0    0  501  0.00000000000E+00  0.00000000000E+00  0.13670126820E+04  0.13670126820E+04  0.25500000920E-02 0. -1.
        2   -1    0    0  501    0  0.00000000000E+00  0.00000000000E+00 -0.17553284623E+04  0.17553284623E+04  0.25500000920E-02 0.  1.
    10030    2    1    2    0    0  0.00000000000E+00  0.00000000000E+00 -0.38831578030E+03  0.31223411444E+04  0.30981002367E+04 0.  0.
        2    1    3    3  502    0  0.37318924320E+03  0.46088107322E+03  0.12480789230E+04  0.13818041008E+04  0.25500000920E-02 0. -1.
       -2    1    3    3    0  502 -0.37318924320E+03 -0.46088107322E+03 -0.16363947033E+04  0.17405370436E+04  0.25500000920E-02 0.  1.
</event>
<event>
 5   0  0.7256473E-07  0.4051229E+04  0.7818609E-02  0.7994291E-01
        2   -1    0    0  501    0  0.00000000000E+00  0.00000000000E+00  0.25200306810E+04  0.25200306810E+04  0.25500000920E-02 0. -1.
       -2   -1    0    0    0  501  0.00000000000E+00  0.00000000000E+00 -0.16282003192E+04  0.16282003192E+04  0.25500000920E-02 0.  1.
    10030    2    1    2    0    0  0.00000000000E+00  0.00000000000E+00  0.89183036177E+03  0.41482310002E+04  0.40512293241E+04 0.  0.
        4    1    3    3  502    0  0.17745345776E+04 -0.50882527420E+03  0.12996884429E+04  0.22576686622E+04  0.12699999809E+01 0. -1.
       -4    1    3    3    0  502 -0.17745345776E+04  0.50882527420E+03 -0.40785808111E+03  0.18905623380E+04  0.12699999809E+01 0.  1.
</event>
<event>
 5   0  0.7256473E-07  0.3934212E+04  0.7818609E-02  0.8017951E-01
       -2   -1    0    0    0  501  0.00000000000E+00  0.00000000000E+00  0.11784209557E+04  0.11784209557E+04  0.25500000920E-02 0.  1.
        2   -1    0    0  501    0  0.00000000000E+00  0.00000000000E+00 -0.32836365275E+04  0.32836365275E+04  0.25500000920E-02 0. -1.
    10030    2    1    2    0    0  0.00000000000E+00  0.00000000000E+00 -0.21052155717E+04  0.44620574832E+04  0.39342120406E+04 0.  0.
        4    1    3    3  502    0 -0.11378043360E+04 -0.15850277484E+04 -0.76885533018E+03  0.20971532614E+04  0.12699999809E+01 0.  1.
       -4    1    3    3    0  502  0.11378043360E+04  0.15850277484E+04 -0.13363602416E+04  0.23649042218E+04  0.12699999809E+01 0. -1.
</event>
<event>
 5   0  0.7256473E-07  0.2556012E+04  0.7818609E-02  0.8383298E-01
       -2   -1    0    0    0  501  0.00000000000E+00  0.00000000000E+00  0.91298415486E+03  0.91298415486E+03  0.25500000920E-02 0. -1.
        2   -1    0    0  501    0  0.00000000000E+00  0.00000000000E+00 -0.17889673078E+04  0.17889673078E+04  0.25500000920E-02 0.  1.
    10030    2    1    2    0    0  0.00000000000E+00  0.00000000000E+00 -0.87598315293E+03  0.27019514627E+04  0.25560115849E+04 0.  0.
        4    1    3    3  502    0 -0.60286578013E+03 -0.50368129213E+03  0.62760973713E+03  0.10055036489E+04  0.12699999809E+01 0. -1.
       -4    1    3    3    0  502  0.60286578013E+03  0.50368129213E+03 -0.15035928901E+04  0.16964478138E+04  0.12699999809E+01 0.  1.
</event>
<event>
 5   0  0.7570277E-07  0.2503672E+04  0.7818609E-02  0.8401678E-01
       -2   -1    0    0    0  501  0.00000000000E+00  0.00000000000E+00  0.11779347788E+04  0.11779347788E+04  0.25500000920E-02 0.  1.
        2   -1    0    0  501    0  0.00000000000E+00  0.00000000000E+00 -0.13303741462E+04  0.13303741462E+04  0.25500000920E-02 0. -1.
    10030    2    1    2    0    0  0.00000000000E+00  0.00000000000E+00 -0.15243936743E+03  0.25083089251E+04  0.25036724831E+04 0.  0.
        5    1    3    3  502    0 -0.80101381798E+03  0.86705526261E+03 -0.49372144126E+03  0.12795276146E+04  0.46999998093E+01 0. -1.
       -5    1    3    3    0  502  0.80101381798E+03 -0.86705526261E+03  0.34128207383E+03  0.12287813105E+04  0.46999998093E+01 0.  1.
</event>
<event>
 5   0  0.6043512E-07  0.4207545E+04  0.7818609E-02  0.7963939E-01
       -2   -1    0    0    0  501  0.00000000000E+00  0.00000000000E+00  0.25105369340E+04  0.25105369340E+04  0.25500000920E-02 0. -1.
        2   -1    0    0  501    0  0.00000000000E+00  0.00000000000E+00 -0.17629133278E+04  0.17629133278E+04  0.25500000920E-02 0.  1.
    10030    2    1    2    0    0  0.00000000000E+00  0.00000000000E+00  0.74762360624E+03  0.42734502618E+04  0.42075451375E+04 0.  0.
        3    1    3    3  502    0 -0.62708420097E+03 -0.51626924907E+03 -0.15972273201E+04  0.17918994545E+04  0.10100000352E+00 0.  1.
       -3    1    3    3    0  502  0.62708420097E+03  0.51626924907E+03  0.23448509263E+04  0.24815508074E+04  0.10100000352E+00 0. -1.
</event>
<event>
 5   0  0.7256473E-07  0.2663685E+04  0.7818609E-02  0.8346885E-01
        2   -1    0    0  501    0  0.00000000000E+00  0.00000000000E+00  0.14169111846E+04  0.14169111846E+04  0.25500000920E-02 0.  1.
       -2   -1    0    0    0  501  0.00000000000E+00  0.00000000000E+00 -0.12518808704E+04  0.12518808704E+04  0.25500000920E-02 0. -1.
    10030    2    1    2    0    0  0.00000000000E+00  0.00000000000E+00  0.16503031423E+03  0.26687920551E+04  0.26636846714E+04 0.  0.
        4    1    3    3  502    0 -0.69747604705E+03  0.99371642199E+03 -0.46612701535E+03  0.13004695963E+04  0.12699999809E+01 0. -1.
       -4    1    3    3    0  502  0.69747604705E+03 -0.99371642199E+03  0.63115732958E+03  0.13683224588E+04  0.12699999809E+01 0.  1.
</event>
<event>
 5   0  0.6043512E-07  0.3881321E+04  0.7818609E-02  0.8028925E-01
        2   -1    0    0  501    0  0.00000000000E+00  0.00000000000E+00  0.22084468832E+04  0.22084468832E+04  0.25500000920E-02 0.  1.
       -2   -1    0    0    0  501  0.00000000000E+00  0.00000000000E+00 -0.17053447976E+04  0.17053447976E+04  0.25500000920E-02 0. -1.
    10030    2    1    2    0    0  0.00000000000E+00  0.00000000000E+00  0.50310208555E+03  0.39137916808E+04  0.38813211169E+04 0.  0.
        3    1    3    3  502    0 -0.82527762285E+02  0.83461818259E+03 -0.15131655615E+04  0.17300486609E+04  0.10100000352E+00 0. -1.
       -3    1    3    3    0  502  0.82527762285E+02 -0.83461818259E+03  0.20162676471E+04  0.21837430199E+04  0.10100000352E+00 0.  1.
</event>
<event>
 5   0  0.7256473E-07  0.3883973E+04  0.7818609E-02  0.8028371E-01
       -2   -1    0    0    0  501  0.00000000000E+00  0.00000000000E+00  0.17826655735E+04  0.17826655735E+04  0.25500000920E-02 0. -1.
        2   -1    0    0  501    0  0.00000000000E+00  0.00000000000E+00 -0.21155465581E+04  0.21155465581E+04  0.25500000920E-02 0.  1.
    10030    2    1    2    0    0  0.00000000000E+00  0.00000000000E+00 -0.33288098457E+03  0.38982121316E+04  0.38839732328E+04 0.  0.
        4    1    3    3  502    0 -0.17220542927E+04 -0.16964482824E+03 -0.10511822624E+04  0.20246570367E+04  0.12699999809E+01 0. -1.
       -4    1    3    3    0  502  0.17220542927E+04  0.16964482824E+03  0.71830127787E+03  0.18735550948E+04  0.12699999809E+01 0.  1.
</event>
<event>
 5   0  0.3579559E-07  0.2252233E+04  0.7818609E-02  0.8496997E-01
       -1   -1    0    0    0  501  0.00000000000E+00  0.00000000000E+00  0.11812310039E+04  0.11812310039E+04  0.50400001928E-02 0.  1.
        1   -1    0    0  501    0  0.00000000000E+00  0.00000000000E+00 -0.10735733933E+04  0.10735733933E+04  0.50400001928E-02 0. -1.
    10030    2    1    2    0    0  0.00000000000E+00  0.00000000000E+00  0.10765761059E+03  0.22548043973E+04  0.22522328274E+04 0.  0.
        4    1    3    3  502    0  0.18291328811E+03  0.17992253411E+03  0.11515784578E+04  0.11798152172E+04  0.12699999809E+01 0.  1.
       -4    1    3    3    0  502 -0.18291328811E+03 -0.17992253411E+03 -0.10439208472E+04  0.10749891801E+04  0.12699999809E+01 0. -1.
</event>
<event>
 5   0  0.4449262E-07  0.3954899E+04  0.7818609E-02  0.8013707E-01
        2   -1    0    0  501    0  0.00000000000E+00  0.00000000000E+00  0.30075715494E+04  0.30075715494E+04  0.25500000920E-02 0.  1.
       -2   -1    0    0    0  501  0.00000000000E+00  0.00000000000E+00 -0.13001540361E+04  0.13001540361E+04  0.25500000920E-02 0. -1.
    10030    2    1    2    0    0  0.00000000000E+00  0.00000000000E+00  0.17074175134E+04  0.43077255855E+04  0.39548988805E+04 0.  0.
        1    1    3    3  502    0 -0.12091673603E+03 -0.63359841492E+03  0.28897609974E+04  0.29608759566E+04  0.50400001928E-02 0.  1.
       -1    1    3    3    0  502  0.12091673603E+03  0.63359841492E+03 -0.11823434840E+04  0.13468496288E+04  0.50400001928E-02 0. -1.
</event>
<event>
 5   0  0.4449262E-07  0.3911122E+04  0.7818609E-02  0.8022720E-01
        2   -1    0    0  501    0  0.00000000000E+00  0.00000000000E+00  0.21090160922E+04  0.21090160922E+04  0.25500000920E-02 0. -1.
       -2   -1    0    0    0  501  0.00000000000E+00  0.00000000000E+00 -0.18132717343E+04  0.18132717343E+04  0.25500000920E-02 0.  1.
    10030    2    1    2    0    0  0.00000000000E+00  0.00000000000E+00  0.29574435790E+03  0.39222878264E+04  0.39111222262E+04 0.  0.
        1    1    3    3  502    0 -0.16013907042E+04  0.56463524023E+03  0.11206693455E+04  0.20344937759E+04  0.50400001928E-02 0. -1.
       -1    1    3    3    0  502  0.16013907042E+04 -0.56463524023E+03 -0.82492498758E+03  0.18877940505E+04  0.50400001928E-02 0.  1.
</event>
<event>
 5   0  0.2647879E-07  0.2337477E+04  0.7818609E-02  0.8463289E-01
       -1   -1    0    0    0  501  0.00000000000E+00  0.00000000000E+00  0.17500438753E+04  0.17500438753E+04  0.50400001928E-02 0.  1.
        1   -1    0    0  501    0  0.00000000000E+00  0.00000000000E+00 -0.78052331419E+03  0.78052331420E+03  0.50400001928E-02 0. -1.
    10030    2    1    2    0    0  0.00000000000E+00  0.00000000000E+00  0.96952056108E+03  0.25305671895E+04  0.23374773116E+04 0.  0.
        2    1    3    3  502    0  0.11670670329E+04 -0.49672297673E+02  0.52580303471E+03  0.12810080514E+04  0.25500000920E-02 0. -1.
       -2    1    3    3    0  502 -0.11670670329E+04  0.49672297673E+02  0.44371752636E+03  0.12495591381E+04  0.25500000920E-02 0.  1.
</event>
<event>
 5   0  0.4449262E-07  0.4137385E+04  0.7818609E-02  0.7977391E-01
        2   -1    0    0  501    0  0.00000000000E+00  0.00000000000E+00  0.26067483334E+04  0.26067483334E+04  0.25500000920E-02 0. -1.
       -2   -1    0    0    0  501  0.00000000000E+00  0.00000000000E+00 -0.16416959187E+04  0.16416959187E+04  0.25500000920E-02 0.  1.
    10030    2    1    2    0    0  0.00000000000E+00  0.00000000000E+00  0.96505241465E+03  0.42484442521E+04  0.41373847295E+04 0.  0.
        1    1    3    3  502    0  0.80059916928E+03 -0.16849218568E+04  0.14007140914E+04  0.23327924596E+04  0.50400001928E-02 0. -1.
       -1    1    3    3    0  502 -0.80059916928E+03  0.16849218568E+04 -0.43566167675E+03  0.19156517925E+04  0.50400001928E-02 0.  1.
</event>
<event>
 5   0  0.4449262E-07  0.2669922E+04  0.7818609E-02  0.8344831E-01
       -2   -1    0    0    0  501  0.00000000000E+00  0.00000000000E+00  0.14570074754E+04  0.14570074754E+04  0.25500000920E-02 0.  1.
        2   -1    0    0  501    0  0.00000000000E+00  0.00000000000E+00 -0.12231373302E+04  0.12231373302E+04  0.25500000920E-02 0. -1.
    10030    2    1    2    0    0  0.00000000000E+00  0.00000000000E+00  0.23387014521E+03  0.26801448056E+04  0.26699215221E+04 0.  0.
        1    1    3    3  502    0 -0.90925262715E+03  0.82967319583E+03  0.63565569504E+03  0.13853361016E+04  0.50400001928E-02 0.  1.
       -1    1    3    3    0  502  0.90925262715E+03 -0.82967319583E+03 -0.40178554983E+03  0.12948087040E+04  0.50400001928E-02 0. -1.
</event>
<event>
 5   0  0.7570277E-07  0.4030754E+04  0.7818609E-02  0.7998371E-01
       -2   -1    0    0    0  501  0.00000000000E+00  0.00000000000E+00  0.18759053719E+04  0.18759053719E+04  0.25500000920E-02 0.  1.
        2   -1    0    0  501    0  0.00000000000E+00  0.00000000000E+00 -0.21652180539E+04  0.21652180539E+04  0.25500000920E-02 0. -1.
    10030    2    1    2    0    0  0.00000000000E+00  0.00000000000E+00 -0.28931268203E+03  0.40411234258E+04  0.40307538643E+04 0.  0.
        5    1    3    3  502    0 -0.25105976828E+03 -0.19398844222E+04 -0.63122901999E+03  0.20553964932E+04  0.46999998093E+01 0. -1.
       -5    1    3    3    0  502  0.25105976828E+03  0.19398844222E+04  0.34191633796E+03  0.19857269326E+04  0.46999998093E+01 0.  1.
</event>
<event>
 5   0  0.6043512E-07  0.3966515E+04  0.7818609E-02  0.8011336E-01
       -2   -1    0    0    0  501  0.00000000000E+00  0.00000000000E+00  0.15737675913E+04  0.15737675913E+04  0.25500000920E-02 0.  1.
        2   -1    0    0  501    0  0.00000000000E+00  0.00000000000E+00 -0.24992957941E+04  0.24992957941E+04  0.25500000920E-02 0. -1.
    10030    2    1    2    0    0  0.00000000000E+00  0.00000000000E+00 -0.92552820284E+03  0.40730633854E+04  0.39665152069E+04 0.  0.
        3    1    3    3  502    0  0.10756257116E+04 -0.80178994185E+02  0.12462473842E+04  0.16481904912E+04  0.10100000352E+00 0.  1.
       -3    1    3    3    0  502 -0.10756257116E+04  0.80178994185E+02 -0.21717755870E+04  0.24248728942E+04  0.10100000352E+00 0. -1.
</event>
<event>
 5   0  0.3579559E-07  0.3959490E+04  0.7818609E-02  0.8012769E-01
       -1   -1    0    0    0  501  0.00000000000E+00  0.00000000000E+00  0.33590963838E+04  0.33590963838E+04  0.50400001928E-02 0. -1.
        1   -1    0    0  501    0  0.00000000000E+00  0.00000000000E+00 -0.11667991376E+04  0.11667991376E+04  0.50400001928E-02 0.  1.
    10030    2    1    2    0    0  0.00000000000E+00  0.00000000000E+00  0.21922972462E+04  0.45258955214E+04  0.39594902518E+04 0.  0.
        4    1    3    3  502    0 -0.73217213146E+03  0.14169956651E+04 -0.24440905285E+03  0.16135954087E+04  0.12699999809E+01 0.  1.
       -4    1    3    3    0  502  0.73217213146E+03 -0.14169956651E+04  0.24367062991E+04  0.29123001126E+04  0.12699999809E+01 0. -1.
</event>
<event>
 5   0  0.4449262E-07  0.2792024E+04  0.7818609E-02  0.8305749E-01
       -2   -1    0    0    0  501  0.00000000000E+00  0.00000000000E+00  0.18940306729E+04  0.18940306729E+04  0.25500000920E-02 0. -1.
        2   -1    0    0  501    0  0.00000000000E+00  0.00000000000E+00 -0.10289432412E+04  0.10289432412E+04  0.25500000920E-02 0.  1.
    10030    2    1    2    0    0  0.00000000000E+00  0.00000000000E+00  0.86508743164E+03  0.29229739141E+04  0.27920243978E+04 0.  0.
        1    1    3    3  502    0 -0.36176590230E+03 -0.10249948477E+04 -0.48453287369E+03  0.11900676920E+04  0.50400001928E-02 0.  1.
       -1    1    3    3    0  502  0.36176590230E+03  0.10249948477E+04  0.13496203053E+04  0.17329062221E+04  0.50400001928E-02 0. -1.
</event>
<event>
 5   0  0.5161550E-07  0.2500993E+04  0.7818609E-02  0.8402632E-01
       -2   -1    0    0    0  501  0.00000000000E+00  0.00000000000E+00  0.10663358211E+04  0.10663358211E+04  0.25500000920E-02 0. -1.
        2   -1    0    0  501    0  0.00000000000E+00  0.00000000000E+00 -0.14664622618E+04  0.14664622618E+04  0.25500000920E-02 0.  1.
    10030    2    1    2    0    0  0.00000000000E+00  0.00000000000E+00 -0.40012644064E+03  0.25327980829E+04  0.25009927949E+04 0.  0.
        2    1    3    3  502    0 -0.26927056712E+03  0.58313572085E+03 -0.12866417750E+04  0.14380545763E+04  0.25500000920E-02 0.  1.
       -2    1    3    3    0  502  0.26927056712E+03 -0.58313572085E+03  0.88651533435E+03  0.10947435066E+04  0.25500000920E-02 0. -1.
</event>
<event>
 5   0  0.2401125E-07  0.2469491E+04  0.7818609E-02  0.8413936E-01
        1   -1    0    0  501    0  0.00000000000E+00  0.00000000000E+00  0.12018103537E+04  0.12018103537E+04  0.50400001928E-02 0. -1.
       -1   -1    0    0    0  501  0.00000000000E+00  0.00000000000E+00 -0.12685835245E+04  0.12685835245E+04  0.50400001928E-02 0.  1.
    10030    2    1    2    0    0  0.00000000000E+00  0.00000000000E+00 -0.66773170783E+02  0.24703938782E+04  0.24694912952E+04 0.  0.
        5    1    3    3  502    0  0.55005156085E+03 -0.23156439507E+03  0.10479321345E+04  0.12059695838E+04  0.46999998093E+01 0. -1.
       -5    1    3    3    0  502 -0.55005156085E+03  0.23156439507E+03 -0.11147053053E+04  0.12644242944E+04  0.46999998093E+01 0.  1.
</event>
<event>
 5   0  0.2713405E-07  0.2043984E+04  0.7818609E-02  0.8586328E-01
       -1   -1    0    0    0  501  0.00000000000E+00  0.00000000000E+00  0.16642523807E+04  0.16642523807E+04  0.50400001928E-02 0.  1.
        1   -1    0    0  501    0  0.00000000000E+00  0.00000000000E+00 -0.62758973866E+03  0.62758973868E+03  0.50400001928E-02 0. -1.
    10030    2    1    2    0    0  0.00000000000E+00  0.00000000000E+00  0.10366626420E+04  0.22918421194E+04  0.20439840671E+04 0.  0.
        1    1    3    3  502    0 -0.52250572520E+03 -0.42476695326E+03 -0.34367690306E+03  0.75601125069E+03  0.50400001928E-02 0.  1.
       -1    1    3    3    0  502  0.52250572520E+03  0.42476695326E+03  0.13803395451E+04  0.15358308687E+04  0.50400001928E-02 0. -1.
</event>
<event>
 5   0  0.4449262E-07  0.2565377E+04  0.7818609E-02  0.8380058E-01
       -2   -1    0    0    0  501  0.00000000000E+00  0.00000000000E+00  0.62906681808E+03  0.62906681808E+03  0.25500000920E-02 0.  1.
        2   -1    0    0  501    0  0.00000000000E+00  0.00000000000E+00 -0.26154458493E+04  0.26154458493E+04  0.25500000920E-02 0. -1.
    10030    2    1    2    0    0  0.00000000000E+00  0.00000000000E+00 -0.19863790312E+04  0.32445126674E+04  0.25653773198E+04 0.  0.
        1    1    3    3  502    0 -0.61848403031E+03  0.75739643161E+03 -0.20430827324E+04  0.22650295587E+04  0.50400001928E-02 0. -1.
       -1    1    3    3    0  502  0.61848403031E+03 -0.75739643161E+03  0.56703701209E+02  0.97948310864E+03  0.50400001928E-02 0.  1.
</event>
<event>
 5   0  0.6043512E-07  0.3147500E+04  0.7818609E-02  0.8202822E-01
        2   -1    0    0  501    0  0.00000000000E+00  0.00000000000E+00  0.11437361223E+04  0.11437361223E+04  0.25500000920E-02 0.  1.
       -2   -1    0    0    0  501  0.00000000000E+00  0.00000000000E+00 -0.21654374638E+04  0.21654374638E+04  0.25500000920E-02 0. -1.
    10030    2    1    2    0    0  0.00000000000E+00  0.00000000000E+00 -0.10217013415E+04  0.33091735861E+04  0.31474999908E+04 0.  0.
        3    1    3    3  502    0 -0.97903894492E+03  0.36156356475E+03  0.72755084820E+03  0.12722325707E+04  0.10100000352E+00 0.  1.
       -3    1    3    3    0  502  0.97903894492E+03 -0.36156356475E+03 -0.17492521897E+04  0.20369410154E+04  0.10100000352E+00 0. -1.
</event>
<event>
 5   0  0.2401125E-07  0.3855012E+04  0.7818609E-02  0.8034451E-01
       -1   -1    0    0    0  501  0.00000000000E+00  0.00000000000E+00  0.24918725649E+04  0.24918725649E+04  0.50400001928E-02 0.  1.
        1   -1    0    0  501    0  0.00000000000E+00  0.00000000000E+00 -0.14909589292E+04  0.14909589292E+04  0.50400001928E-02 0. -1.
    10030    2    1    2    0    0  0.00000000000E+00  0.00000000000E+00  0.10009136357E+04  0.39828314941E+04  0.38550121406E+04 0.  0.
        5    1    3    3  502    0 -0.54898909235E+03 -0.17571482571E+04 -0.89708587024E+02  0.18431030198E+04  0.46999998093E+01 0. -1.
       -5    1    3    3    0  502  0.54898909235E+03  0.17571482571E+04  0.10906222228E+04  0.21397284743E+04  0.46999998093E+01 0.  1.
</event>
<event>
 5   0  0.7256473E-07  0.3947710E+04  0.7818609E-02  0.8015179E-01
       -2   -1    0    0    0  501  0.00000000000E+00  0.00000000000E+00  0.14828772611E+04  0.14828772611E+04  0.25500000920E-02 0.  1.
        2   -1    0    0  501    0  0.00000000000E+00  0.00000000000E+00 -0.26273950998E+04  0.26273950998E+04  0.25500000920E-02 0. -1.
    10030    2    1    2    0    0  0.00000000000E+00  0.00000000000E+00 -0.11445178387E+04  0.41102723609E+04  0.39477104501E+04 0.  0.
        4    1    3    3  502    0 -0.10492039933E+04 -0.47989098772E+02 -0.23122960347E+04  0.25396548069E+04  0.12699999809E+01 0. -1.
       -4    1    3    3    0  502  0.10492039933E+04  0.47989098772E+02  0.11677781960E+04  0.15706175540E+04  0.12699999809E+01 0.  1.
</event>
<event>
 5   0  0.2647879E-07  0.3604515E+04  0.7818609E-02  0.8089458E-01
       -1   -1    0    0    0  501  0.00000000000E+00  0.00000000000E+00  0.16989878107E+04  0.16989878108E+04  0.50400001928E-02 0.  1.
        1   -1    0    0  501    0  0.00000000000E+00  0.00000000000E+00 -0.19118042729E+04  0.19118042729E+04  0.50400001928E-02 0. -1.
    10030    2    1    2    0    0  0.00000000000E+00  0.00000000000E+00 -0.21281646216E+03  0.36107920837E+04  0.36045150332E+04 0.  0.
        2    1    3    3  502    0 -0.65061948356E+03 -0.14410151722E+04 -0.97295899885E+03  0.18564696745E+04  0.25500000920E-02 0.  1.
       -2    1    3    3    0  502  0.65061948356E+03  0.14410151722E+04  0.76014253670E+03  0.17543224091E+04  0.25500000920E-02 0. -1.
</event>
<event>
 5   0  0.4449262E-07  0.3067069E+04  0.7818609E-02  0.8224834E-01
        2   -1    0    0  501    0  0.00000000000E+00  0.00000000000E+00  0.14607472473E+04  0.14607472473E+04  0.25500000920E-02 0. -1.
       -2   -1    0    0    0  501  0.00000000000E+00  0.00000000000E+00 -0.16099488906E+04  0.16099488906E+04  0.25500000920E-02 0.  1.
    10030    2    1    2    0    0  0.00000000000E+00  0.00000000000E+00 -0.14920164330E+03  0.30706961378E+04  0.30670692266E+04 0.  0.
        1    1    3    3  502    0  0.36983337138E+03 -0.24624210348E+03  0.13948938630E+04  0.14639469885E+04  0.50400001928E-02 0. -1.
       -1    1    3    3    0  502 -0.36983337138E+03  0.24624210348E+03 -0.15440955063E+04  0.16067491493E+04  0.50400001928E-02 0.  1.
</event>
<event>
 5   0  0.2401125E-07  0.4037029E+04  0.7818609E-02  0.7997118E-01
        1   -1    0    0  501    0  0.00000000000E+00  0.00000000000E+00  0.17778325363E+04  0.17778325363E+04  0.50400001928E-02 0. -1.
       -1   -1    0    0    0  501  0.00000000000E+00  0.00000000000E+00 -0.22917799115E+04  0.22917799115E+04  0.50400001928E-02 0.  1.
    10030    2    1    2    0    0  0.00000000000E+00  0.00000000000E+00 -0.51394737518E+03  0.40696124478E+04  0.40370290525E+04 0.  0.
        5    1    3    3  502    0  0.23749885762E+03  0.63693782715E+02  0.17626726610E+04  0.17797470621E+04  0.46999998093E+01 0. -1.
       -5    1    3    3    0  502 -0.23749885762E+03 -0.63693782715E+02 -0.22766200362E+04  0.22898653857E+04  0.46999998093E+01 0.  1.
</event>
<event>
 5   0  0.5161550E-07  0.3943048E+04  0.7818609E-02  0.8016135E-01
       -2   -1    0    0    0  501  0.00000000000E+00  0.00000000000E+00  0.20566631232E+04  0.20566631232E+04  0.25500000920E-02 0. -1.
        2   -1    0    0  501    0  0.00000000000E+00  0.00000000000E+00 -0.18899090861E+04  0.18899090861E+04  0.25500000920E-02 0.  1.
    10030    2    1    2    0    0  0.00000000000E+00  0.00000000000E+00  0.16675403707E+03  0.39465722092E+04  0.39430477164E+04 0.  0.
        2    1    3    3  502    0 -0.19221102458E+04 -0.33082866891E+03 -0.20489243156E+03  0.19611058905E+04  0.25500000920E-02 0.  1.
       -2    1    3    3    0  502  0.19221102458E+04  0.33082866891E+03  0.37164646863E+03  0.19854663187E+04  0.25500000920E-02 0. -1.
</event>
<event>
 5   0  0.5161550E-07  0.3966999E+04  0.7818609E-02  0.8011237E-01
       -2   -1    0    0    0  501  0.00000000000E+00  0.00000000000E+00  0.26084368602E+04  0.26084368602E+04  0.25500000920E-02 0.  1.
        2   -1    0    0  501    0  0.00000000000E+00  0.00000000000E+00 -0.15082864903E+04  0.15082864903E+04  0.25500000920E-02 0. -1.
    10030    2    1    2    0    0  0.00000000000E+00  0.00000000000E+00  0.11001503699E+04  0.41167233506E+04  0.39669989045E+04 0.  0.
        2    1    3    3  502    0 -0.26108655401E+03  0.13429403590E+03 -0.14856119296E+04  0.15143460246E+04  0.25500000920E-02 0. -1.
       -2    1    3    3    0  502  0.26108655401E+03 -0.13429403590E+03  0.25857622996E+04  0.26023773259E+04  0.25500000920E-02 0.  1.
</event>
<event>
 5   0  0.5161550E-07  0.3424404E+04  0.7818609E-02  0.8131943E-01
       -2   -1    0    0    0  501  0.00000000000E+00  0.00000000000E+00  0.13913955817E+04  0.13913955817E+04  0.25500000920E-02 0.  1.
        2   -1    0    0  501    0  0.00000000000E+00  0.00000000000E+00 -0.21069752465E+04  0.21069752465E+04  0.25500000920E-02 0. -1.
    10030    2    1    2    0    0  0.00000000000E+00  0.00000000000E+00 -0.71557966480E+03  0.34983708283E+04  0.34244042103E+04 0.  0.
        2    1    3    3  502    0  0.13416761229E+04 -0.39861047690E+03 -0.13653229285E+04  0.19552728276E+04  0.25500000920E-02 0. -1.
       -2    1    3    3    0  502 -0.13416761229E+04  0.39861047690E+03  0.64974326372E+03  0.15430980007E+04  0.25500000920E-02 0.  1.
</event>
<event>
 5   0  0.4449262E-07  0.3954844E+04  0.7818609E-02  0.8013718E-01
       -2   -1    0    0    0  501  0.00000000000E+00  0.00000000000E+00  0.21383479041E+04  0.21383479041E+04  0.25500000920E-02 0.  1.
        2   -1    0    0  501    0  0.00000000000E+00  0.00000000000E+00 -0.18286070151E+04  0.18286070151E+04  0.25500000920E-02 0. -1.
    10030    2    1    2    0    0  0.00000000000E+00  0.00000000000E+00  0.30974088900E+03  0.39669549193E+04  0.39548441073E+04 0.  0.
        1    1    3    3  502    0 -0.56681213666E+03  0.18668213035E+04 -0.16845217538E+03  0.19582323440E+04  0.50400001928E-02 0. -1.
       -1    1    3    3    0  502  0.56681213666E+03 -0.18668213035E+04  0.47819306438E+03  0.20087225753E+04  0.50400001928E-02 0.  1.
</event>
<event>
 5   0  0.2401125E-07  0.2535321E+04  0.7818609E-02  0.8390509E-01
        1   -1    0    0  501    0  0.00000000000E+00  0.00000000000E+00  0.14972139407E+04  0.14972139407E+04  0.50400001928E-02 0.  1.
       -1   -1    0    0    0  501  0.00000000000E+00  0.00000000000E+00 -0.10733022661E+04  0.10733022661E+04  0.50400001928E-02 0. -1.
    10030    2    1    2    0    0  0.00000000000E+00  0.00000000000E+00  0.42391167459E+03  0.25705162067E+04  0.25353209779E+04 0.  0.
        5    1    3    3  502    0 -0.56579680150E+03  0.12518793252E+03  0.13550568229E+04  0.14737703764E+04  0.46999998093E+01 0.  1.
       -5    1    3    3    0  502  0.56579680150E+03 -0.12518793252E+03 -0.93114514834E+03  0.10967458303E+04  0.46999998093E+01 0. -1.
</event>
<event>
 5   0  0.3579559E-07  0.3854677E+04  0.7818609E-02  0.8034522E-01
        1   -1    0    0  501    0  0.00000000000E+00  0.00000000000E+00  0.27317683734E+04  0.27317683734E+04  0.50400001928E-02 0. -1.
       -1   -1    0    0    0  501  0.00000000000E+00  0.00000000000E+00 -0.13597911820E+04  0.13597911820E+04  0.50400001928E-02 0.  1.
    10030    2    1    2    0    0  0.00000000000E+00  0.00000000000E+00  0.13719771914E+04  0.40915595554E+04  0.38546774420E+04 0.  0.
        4    1    3    3  502    0 -0.30064650384E+03  0.18885056761E+04  0.94115920574E+03  0.21313433024E+04  0.12699999809E+01 0.  1.
       -4    1    3    3    0  502  0.30064650384E+03 -0.18885056761E+04  0.43081798565E+03  0.19602162531E+04  0.12699999809E+01 0. -1.
</event>
<event>
 5   0  0.4449262E-07  0.2253856E+04  0.7818609E-02  0.8496341E-01
       -2   -1    0    0    0  501  0.00000000000E+00  0.00000000000E+00  0.10059388229E+04  0.10059388229E+04  0.25500000920E-02 0. -1.
        2   -1    0    0  501    0  0.00000000000E+00  0.00000000000E+00 -0.12624690933E+04  0.12624690933E+04  0.25500000920E-02 0.  1.
    10030    2    1    2    0    0  0.00000000000E+00  0.00000000000E+00 -0.25653027035E+03  0.22684079162E+04  0.22538559614E+04 0.  0.
        1    1    3    3  502    0 -0.27566601515E+03 -0.24636173859E+03  0.94316477202E+03  0.10130378302E+04  0.50400001928E-02 0. -1.
       -1    1    3    3    0  502  0.27566601515E+03  0.24636173859E+03 -0.11996950424E+04  0.12553700860E+04  0.50400001928E-02 0.  1.
</event>
<event>
 5   0  0.7570277E-07  0.3981012E+04  0.7818609E-02  0.8008388E-01
       -2   -1    0    0    0  501  0.00000000000E+00  0.00000000000E+00  0.18247041008E+04  0.18247041008E+04  0.25500000920E-02 0.  1.
        2   -1    0    0  501    0  0.00000000000E+00  0.00000000000E+00 -0.21713733753E+04  0.21713733753E+04  0.25500000920E-02 0. -1.
    10030    2    1    2    0    0  0.00000000000E+00  0.00000000000E+00 -0.34666927458E+03  0.39960774761E+04  0.39810118826E+04 0.  0.
        5    1    3    3  502    0 -0.16418800758E+04  0.31371548225E+03  0.91145128535E+03  0.19039309658E+04  0.46999998093E+01 0.  1.
       -5    1    3    3    0  502  0.16418800758E+04 -0.31371548225E+03 -0.12581205599E+04  0.20921465103E+04  0.46999998093E+01 0. -1.
</event>
<event>
 5   0  0.2601252E-07  0.2158789E+04  0.7818609E-02  0.8535779E-01
       -1   -1    0    0    0  501  0.00000000000E+00  0.00000000000E+00  0.85053647814E+03  0.85053647815E+03  0.50400001928E-02 0. -1.
        1   -1    0    0  501    0  0.00000000000E+00  0.00000000000E+00 -0.13698324779E+04  0.13698324780E+04  0.50400001928E-02 0.  1.
    10030    2    1    2    0    0  0.00000000000E+00  0.00000000000E+00 -0.51929599980E+03  0.22203689561E+04  0.21587890045E+04 0.  0.
        3    1    3    3  502    0  0.99216587703E+01  0.10720836740E+03  0.84499978366E+03  0.85183139055E+03  0.10100000352E+00 0. -1.
       -3    1    3    3    0  502 -0.99216587703E+01 -0.10720836740E+03 -0.13642957835E+04  0.13685375655E+04  0.10100000352E+00 0.  1.
</event>
<event>
 5   0  0.3332451E-07  0.2044084E+04  0.7818609E-02  0.8586283E-01
       -1   -1    0    0    0  501  0.00000000000E+00  0.00000000000E+00  0.59274394243E+03  0.59274394245E+03  0.50400001928E-02 0. -1.
        1   -1    0    0  501    0  0.00000000000E+00  0.00000000000E+00 -0.17622611565E+04  0.17622611565E+04  0.50400001928E-02 0.  1.
    10030    2    1    2    0    0  0.00000000000E+00  0.00000000000E+00 -0.11695172140E+04  0.23550050989E+04  0.20440837806E+04 0.  0.
        2    1    3    3  502    0 -0.49347348670E+03 -0.20424465359E+03  0.41918803350E+03  0.67893340471E+03  0.25500000920E-02 0. -1.
       -2    1    3    3    0  502  0.49347348670E+03  0.20424465359E+03 -0.15887052475E+04  0.16760716942E+04  0.25500000920E-02 0.  1.
</event>
<event>
 5   0  0.7256473E-07  0.3998345E+04  0.7818609E-02  0.8004880E-01
       -2   -1    0    0    0  501  0.00000000000E+00  0.00000000000E+00  0.16059066115E+04  0.16059066115E+04  0.25500000920E-02 0. -1.
        2   -1    0    0  501    0  0.00000000000E+00  0.00000000000E+00 -0.24887445118E+04  0.24887445118E+04  0.25500000920E-02 0.  1.
    10030    2    1    2    0    0  0.00000000000E+00  0.00000000000E+00 -0.88283790036E+03  0.40946511233E+04  0.39983452907E+04 0.  0.
        4    1    3    3  502    0 -0.11525722446E+04  0.36604330531E+03  0.11888671858E+04  0.16958234810E+04  0.12699999809E+01 0. -1.
       -4    1    3    3    0  502  0.11525722446E+04 -0.36604330531E+03 -0.20717050862E+04  0.23988276423E+04  0.12699999809E+01 0.  1.
</event>
<event>
 5   0  0.7570277E-07  0.2174609E+04  0.7818609E-02  0.8529071E-01
        2   -1    0    0  501    0  0.00000000000E+00  0.00000000000E+00  0.67598615378E+03  0.67598615378E+03  0.25500000920E-02 0. -1.
       -2   -1    0    0    0  501  0.00000000000E+00  0.00000000000E+00 -0.17488981152E+04  0.17488981152E+04  0.25500000920E-02 0.  1.
    10030    2    1    2    0    0  0.00000000000E+00  0.00000000000E+00 -0.10729119614E+04  0.24248842690E+04  0.21746088478E+04 0.  0.
        5    1    3    3  502    0  0.55847320135E+03  0.52304694038E+03 -0.13978500133E+04  0.15935737097E+04  0.46999998093E+01 0.  1.
       -5    1    3    3    0  502 -0.55847320135E+03 -0.52304694038E+03  0.32493805189E+03  0.83131055931E+03  0.46999998093E+01 0. -1.
</event>
<event>
 5   0  0.2601252E-07  0.3439136E+04  0.7818609E-02  0.8128367E-01
        1   -1    0    0  501    0  0.00000000000E+00  0.00000000000E+00  0.23861674988E+04  0.23861674988E+04  0.50400001928E-02 0.  1.
       -1   -1    0    0    0  501  0.00000000000E+00  0.00000000000E+00 -0.12391896484E+04  0.12391896484E+04  0.50400001928E-02 0. -1.
    10030    2    1    2    0    0  0.00000000000E+00  0.00000000000E+00  0.11469778504E+04  0.36253571473E+04  0.34391359752E+04 0.  0.
        3    1    3    3  502    0 -0.17008844141E+04 -0.21370949851E+03  0.71583599883E+03  0.18577138443E+04  0.10100000352E+00 0.  1.
       -3    1    3    3    0  502  0.17008844141E+04  0.21370949851E+03  0.43114185156E+03  0.17676433029E+04  0.10100000352E+00 0. -1.
</event>
<event>
 5   0  0.2601252E-07  0.4006101E+04  0.7818609E-02  0.8003317E-01
       -1   -1    0    0    0  501  0.00000000000E+00  0.00000000000E+00  0.15856915316E+04  0.15856915316E+04  0.50400001928E-02 0.  1.
        1   -1    0    0  501    0  0.00000000000E+00  0.00000000000E+00 -0.25302597894E+04  0.25302597894E+04  0.50400001928E-02 0. -1.
    10030    2    1    2    0    0  0.00000000000E+00  0.00000000000E+00 -0.94456825777E+03  0.41159513210E+04  0.40061011075E+04 0.  0.
        3    1    3    3  502    0 -0.20340070787E+03 -0.74696574673E+03  0.14257715569E+04  0.16223915118E+04  0.10100000352E+00 0.  1.
       -3    1    3    3    0  502  0.20340070787E+03  0.74696574673E+03 -0.23703398147E+04  0.24935598092E+04  0.10100000352E+00 0. -1.
</event>
<event>
 5   0  0.4449262E-07  0.2080866E+04  0.7818609E-02  0.8569719E-01
        2   -1    0    0  501    0  0.00000000000E+00  0.00000000000E+00  0.10826694162E+04  0.10826694162E+04  0.25500000920E-02 0. -1.
       -2   -1    0    0    0  501  0.00000000000E+00  0.00000000000E+00 -0.99984414050E+03  0.99984414050E+03  0.25500000920E-02 0.  1.
    10030    2    1    2    0    0  0.00000000000E+00  0.00000000000E+00  0.82825275705E+02  0.20825135567E+04  0.20808658505E+04 0.  0.
        1    1    3    3  502    0 -0.36779975085E+02  0.30280353186E+03 -0.95409001171E+03  0.10016638637E+04  0.50400001928E-02 0.  1.
       -1    1    3    3    0  502  0.36779975085E+02 -0.30280353186E+03  0.10369152874E+04  0.10808496930E+04  0.50400001928E-02 0. -1.
</event>
<event>
 5   0  0.2401125E-07  0.3700700E+04  0.7818609E-02  0.8067807E-01
       -1   -1    0    0    0  501  0.00000000000E+00  0.00000000000E+00  0.15923952022E+04  0.15923952022E+04  0.50400001928E-02 0. -1.
        1   -1    0    0  501    0  0.00000000000E+00  0.00000000000E+00 -0.21500908668E+04  0.21500908668E+04  0.50400001928E-02 0.  1.
    10030    2    1    2    0    0  0.00000000000E+00  0.00000000000E+00 -0.55769566466E+03  0.37424860690E+04  0.37006995991E+04 0.  0.
        5    1    3    3  502    0  0.12533184538E+04 -0.37173873038E+03 -0.16031283480E+04  0.20685839167E+04  0.46999998093E+01 0.  1.
       -5    1    3    3    0  502 -0.12533184538E+04  0.37173873038E+03  0.10454326833E+04  0.16739021523E+04  0.46999998093E+01 0. -1.
</event>
<event>
 5   0  0.2601252E-07  0.4010564E+04  0.7818609E-02  0.8002419E-01
        1   -1    0    0  501    0  0.00000000000E+00  0.00000000000E+00  0.25275273024E+04  0.25275273024E+04  0.50400001928E-02 0.  1.
       -1   -1    0    0    0  501  0.00000000000E+00  0.00000000000E+00 -0.15909447736E+04  0.15909447736E+04  0.50400001928E-02 0. -1.
    10030    2    1    2    0    0  0.00000000000E+00  0.00000000000E+00  0.93658252875E+03  0.41184720760E+04  0.40105642256E+04 0.  0.
        3    1    3    3  502    0  0.85242381214E+03 -0.15416593747E+04  0.14520951809E+04  0.22829630763E+04  0.10100000352E+00 0.  1.
       -3    1    3    3    0  502 -0.85242381214E+03  0.15416593747E+04 -0.51551265216E+03  0.18355089997E+04  0.10100000352E+00 0. -1.
</event>
<event>
 5   0  0.2401125E-07  0.2050102E+04  0.7818609E-02  0.8583548E-01
       -1   -1    0    0    0  501  0.00000000000E+00  0.00000000000E+00  0.10079969861E+04  0.10079969861E+04  0.50400001928E-02 0.  1.
        1   -1    0    0  501    0  0.00000000000E+00  0.00000000000E+00 -0.10423930890E+04  0.10423930890E+04  0.50400001928E-02 0. -1.
    10030    2    1    2    0    0  0.00000000000E+00  0.00000000000E+00 -0.34396102929E+02  0.20503900751E+04  0.20501015507E+04 0.  0.
        5    1    3    3  502    0 -0.78660017034E+03 -0.65408802557E+03  0.47122964964E+02  0.10241160271E+04  0.46999998093E+01 0. -1.
       -5    1    3    3    0  502  0.78660017034E+03  0.65408802557E+03 -0.81519067893E+02  0.10262740480E+04  0.46999998093E+01 0.  1.
</event>
<event>
 5   0  0.5161550E-07  0.3701680E+04  0.7818609E-02  0.8067590E-01
        2   -1    0    0  501    0  0.00000000000E+00  0.00000000000E+00  0.30752111156E+04  0.30752111156E+04  0.25500000920E-02 0. -1.
       -2   -1    0    0    0  501  0.00000000000E+00  0.00000000000E+00 -0.11139425191E+04  0.11139425192E+04  0.25500000920E-02 0.  1.
    10030    2    1    2    0    0  0.00000000000E+00  0.00000000000E+00  0.19612685964E+04  0.41891536347E+04  0.37016798441E+04 0.  0.
        2    1    3    3  502    0  0.97861876953E+03 -0.12812490509E+04  0.20093613126E+04  0.25762039343E+04  0.25500000920E-02 0. -1.
       -2    1    3    3    0  502 -0.97861876953E+03  0.12812490509E+04 -0.48092716213E+02  0.16129497004E+04  0.25500000920E-02 0.  1.
</event>
<event>
 5   0  0.7570277E-07  0.3932121E+04  0.7818609E-02  0.8018382E-01
        2   -1    0    0  501    0  0.00000000000E+00  0.00000000000E+00  0.18038538695E+04  0.18038538695E+04  0.25500000920E-02 0.  1.
       -2   -1    0    0    0  501  0.00000000000E+00  0.00000000000E+00 -0.21428530286E+04  0.21428530286E+04  0.25500000920E-02 0. -1.
    10030    2    1    2    0    0  0.00000000000E+00  0.00000000000E+00 -0.33899915918E+03  0.39467068981E+04  0.39321209175E+04 0.  0.
        5    1    3    3  502    0 -0.78662985670E+03 -0.87718501202E+03 -0.17492284188E+04  0.21090429649E+04  0.46999998093E+01 0. -1.
       -5    1    3    3    0  502  0.78662985670E+03  0.87718501202E+03  0.14102292596E+04  0.18376639332E+04  0.46999998093E+01 0.  1.
</event>
<event>
 5   0  0.6043512E-07  0.3963755E+04  0.7818609E-02  0.8011898E-01
        2   -1    0    0  501    0  0.00000000000E+00  0.00000000000E+00  0.16681659792E+04  0.16681659792E+04  0.25500000920E-02 0. -1.
       -2   -1    0    0    0  501  0.00000000000E+00  0.00000000000E+00 -0.23545853469E+04  0.23545853469E+04  0.25500000920E-02 0.  1.
    10030    2    1    2    0    0  0.00000000000E+00  0.00000000000E+00 -0.68641936773E+03  0.40227513262E+04  0.39637553764E+04 0.  0.
        3    1    3    3  502    0 -0.14926202502E+04 -0.42615148802E+03 -0.15937503981E+04  0.22247608059E+04  0.10100000352E+00 0.  1.
       -3    1    3    3    0  502  0.14926202502E+04  0.42615148802E+03  0.90733103038E+03  0.17979905202E+04  0.10100000352E+00 0. -1.
</event>
<event>
 5   0  0.7256473E-07  0.3955162E+04  0.7818609E-02  0.8013653E-01
       -2   -1    0    0    0  501  0.00000000000E+00  0.00000000000E+00  0.12459518809E+04  0.12459518809E+04  0.25500000920E-02 0.  1.
        2   -1    0    0  501    0  0.00000000000E+00  0.00000000000E+00 -0.31388262215E+04  0.31388262215E+04  0.25500000920E-02 0. -1.
    10030    2    1    2    0    0  0.00000000000E+00  0.00000000000E+00 -0.18928743406E+04  0.43847781024E+04  0.39551619104E+04 0.  0.
        4    1    3    3  502    0  0.55361873942E+03  0.14673785448E+04 -0.22819150878E+04  0.27689044012E+04  0.12699999809E+01 0. -1.
       -4    1    3    3    0  502 -0.55361873942E+03 -0.14673785448E+04  0.38904074719E+03  0.16158737012E+04  0.12699999809E+01 0.  1.
</event>
<event>
 5   0  0.7256473E-07  0.4111774E+04  0.7818609E-02  0.7982370E-01
       -2   -1    0    0    0  501  0.00000000000E+00  0.00000000000E+00  0.24825702276E+04  0.24825702276E+04  0.25500000920E-02 0. -1.
        2   -1    0    0  501    0  0.00000000000E+00  0.00000000000E+00 -0.17025385761E+04  0.17025385761E+04  0.25500000920E-02 0.  1.
    10030    2    1    2    0    0  0.00000000000E+00  0.00000000000E+00  0.78003165150E+03  0.41851088037E+04  0.41117741088E+04 0.  0.
        4    1    3    3  502    0  0.67770336356E+03 -0.39430421502E+03  0.23244150276E+04  0.24530928430E+04  0.12699999809E+01 0. -1.
       -4    1    3    3    0  502 -0.67770336356E+03  0.39430421502E+03 -0.15443833761E+04  0.17320159607E+04  0.12699999809E+01 0.  1.
</event>
<event>
 5   0  0.2401125E-07  0.2309967E+04  0.7818609E-02  0.8474002E-01
        1   -1    0    0  501    0  0.00000000000E+00  0.00000000000E+00  0.12186661745E+04  0.12186661745E+04  0.50400001928E-02 0. -1.
       -1   -1    0    0    0  501  0.00000000000E+00  0.00000000000E+00 -0.10946282578E+04  0.10946282578E+04  0.50400001928E-02 0.  1.
    10030    2    1    2    0    0  0.00000000000E+00  0.00000000000E+00  0.12403791671E+03  0.23132944323E+04  0.23099666071E+04 0.  0.
        5    1    3    3  502    0  0.39412675874E+03 -0.66004958246E+03 -0.80117581184E+03  0.11103630599E+04  0.46999998093E+01 0.  1.
       -5    1    3    3    0  502 -0.39412675874E+03  0.66004958246E+03  0.92521372855E+03  0.12029313724E+04  0.46999998093E+01 0. -1.
</event>
<event>
 5   0  0.2401125E-07  0.2054235E+04  0.7818609E-02  0.8581676E-01
       -1   -1    0    0    0  501  0.00000000000E+00  0.00000000000E+00  0.10732764495E+04  0.10732764495E+04  0.50400001928E-02 0. -1.
        1   -1    0    0  501    0  0.00000000000E+00  0.00000000000E+00 -0.98294330768E+03  0.98294330769E+03  0.50400001928E-02 0.  1.
    10030    2    1    2    0    0  0.00000000000E+00  0.00000000000E+00  0.90333141788E+02  0.20562197572E+04  0.20542345565E+04 0.  0.
        5    1    3    3  502    0 -0.79229793778E+03 -0.53120259527E+03 -0.33603685576E+03  0.10113629803E+04  0.46999998093E+01 0.  1.
       -5    1    3    3    0  502  0.79229793778E+03  0.53120259527E+03  0.42636999755E+03  0.10448567769E+04  0.46999998093E+01 0. -1.
</event>
<event>
 5   0  0.2401125E-07  0.3744525E+04  0.7818609E-02  0.8058166E-01
        1   -1    0    0  501    0  0.00000000000E+00  0.00000000000E+00  0.26466200911E+04  0.26466200911E+04  0.50400001928E-02 0.  1.
       -1   -1    0    0    0  501  0.00000000000E+00  0.00000000000E+00 -0.13244690047E+04  0.13244690047E+04  0.50400001928E-02 0. -1.
    10030    2    1    2    0    0  0.00000000000E+00  0.00000000000E+00  0.13221510864E+04  0.39710890958E+04  0.37445246843E+04 0.  0.
        5    1    3    3  502    0  0.15449762644E+04  0.62902775763E+03  0.15626403522E+04  0.22857153229E+04  0.46999998093E+01 0.  1.
       -5    1    3    3    0  502 -0.15449762644E+04 -0.62902775763E+03 -0.24048926578E+03  0.16853737729E+04  0.46999998093E+01 0. -1.
</event>
<event>
 5   0  0.7256474E-07  0.2139352E+04  0.7818609E-02  0.8544104E-01
       -2   -1    0    0    0  501  0.00000000000E+00  0.00000000000E+00  0.12022748501E+04  0.12022748501E+04  0.25500000920E-02 0.  1.
        2   -1    0    0  501    0  0.00000000000E+00  0.00000000000E+00 -0.95170169812E+03  0.95170169812E+03  0.25500000920E-02 0. -1.
    10030    2    1    2    0    0  0.00000000000E+00  0.00000000000E+00  0.25057315198E+03  0.21539765482E+04  0.21393522538E+04 0.  0.
        4    1    3    3  502    0 -0.10027869485E+03  0.61760371776E+03 -0.74823578060E+03  0.97537098845E+03  0.12699999809E+01 0.  1.
       -4    1    3    3    0  502  0.10027869485E+03 -0.61760371776E+03  0.99880893258E+03  0.11786055598E+04  0.12699999809E+01 0. -1.
</event>
<event>
 5   0  0.6043512E-07  0.4008497E+04  0.7818609E-02  0.8002835E-01
        2   -1    0    0  501    0  0.00000000000E+00  0.00000000000E+00  0.17234960197E+04  0.17234960197E+04  0.25500000920E-02 0.  1.
       -2   -1    0    0    0  501  0.00000000000E+00  0.00000000000E+00 -0.23307349714E+04  0.23307349714E+04  0.25500000920E-02 0. -1.
    10030    2    1    2    0    0  0.00000000000E+00  0.00000000000E+00 -0.60723895175E+03  0.40542309911E+04  0.40084971978E+04 0.  0.
        3    1    3    3  502    0 -0.82721835726E+03 -0.12614430761E+04 -0.16383285042E+04  0.22270269740E+04  0.10100000352E+00 0. -1.
       -3    1    3    3    0  502  0.82721835726E+03  0.12614430761E+04  0.10310895524E+04  0.18272040171E+04  0.10100000352E+00 0.  1.
</event>
<event>
 5   0  0.2601252E-07  0.3866435E+04  0.7818609E-02  0.8032047E-01
       -1   -1    0    0    0  501  0.00000000000E+00  0.00000000000E+00  0.20384132653E+04  0.20384132653E+04  0.50400001928E-02 0.  1.
        1   -1    0    0  501    0  0.00000000000E+00  0.00000000000E+00 -0.18334501110E+04  0.18334501110E+04  0.50400001928E-02 0. -1.
    10030    2    1    2    0    0  0.00000000000E+00  0.00000000000E+00  0.20496315425E+03  0.38718633763E+04  0.38664345475E+04 0.  0.
        3    1    3    3  502    0 -0.12634198956E+04  0.46029849739E+03  0.14933970662E+04  0.20095619789E+04  0.10100000352E+00 0.  1.
       -3    1    3    3    0  502  0.12634198956E+04 -0.46029849739E+03 -0.12884339119E+04  0.18623013975E+04  0.10100000352E+00 0. -1.
</event>
<event>
 5   0  0.5161550E-07  0.3963707E+04  0.7818609E-02  0.8011908E-01
       -2   -1    0    0    0  501  0.00000000000E+00  0.00000000000E+00  0.17494567650E+04  0.17494567650E+04  0.25500000920E-02 0.  1.
        2   -1    0    0  501    0  0.00000000000E+00  0.00000000000E+00 -0.22451221981E+04  0.22451221981E+04  0.25500000920E-02 0. -1.
    10030    2    1    2    0    0  0.00000000000E+00  0.00000000000E+00 -0.49566543311E+03  0.39945789632E+04  0.39637074654E+04 0.  0.
        2    1    3    3  502    0  0.18690060882E+04 -0.40467436760E+03 -0.77226936974E+03  0.20623639546E+04  0.25500000920E-02 0.  1.
       -2    1    3    3    0  502 -0.18690060882E+04  0.40467436760E+03  0.27660393664E+03  0.19322150086E+04  0.25500000920E-02 0. -1.
</event>
<event>
 5   0  0.4449262E-07  0.4364831E+04  0.7818609E-02  0.7934738E-01
        2   -1    0    0  501    0  0.00000000000E+00  0.00000000000E+00  0.23039264254E+04  0.23039264254E+04  0.25500000920E-02 0. -1.
       -2   -1    0    0    0  501  0.00000000000E+00  0.00000000000E+00 -0.20673131966E+04  0.20673131966E+04  0.25500000920E-02 0.  1.
    10030    2    1    2    0    0  0.00000000000E+00  0.00000000000E+00  0.23661322879E+03  0.43712396220E+04  0.43648310406E+04 0.  0.
        1    1    3    3  502    0  0.76028847981E+03  0.20415592390E+04  0.24863147462E+03  0.21926742369E+04  0.50400001928E-02 0. -1.
       -1    1    3    3    0  502 -0.76028847981E+03 -0.20415592390E+04 -0.12018245827E+02  0.21785653851E+04  0.50400001928E-02 0.  1.
</event>
<event>
 5   0  0.2401125E-07  0.3942768E+04  0.7818609E-02  0.8016193E-01
       -1   -1    0    0    0  501  0.00000000000E+00  0.00000000000E+00  0.20595969706E+04  0.20595969706E+04  0.50400001928E-02 0. -1.
        1   -1    0    0  501    0  0.00000000000E+00  0.00000000000E+00 -0.18869494695E+04  0.18869494695E+04  0.50400001928E-02 0.  1.
    10030    2    1    2    0    0  0.00000000000E+00  0.00000000000E+00  0.17264750108E+03  0.39465464401E+04  0.39427682717E+04 0.  0.
        5    1    3    3  502    0  0.31187696363E+03 -0.13095179606E+04 -0.13552746564E+04  0.19102083692E+04  0.46999998093E+01 0.  1.
       -5    1    3    3    0  502 -0.31187696363E+03  0.13095179606E+04  0.15279221575E+04  0.20363380709E+04  0.46999998093E+01 0. -1.
</event>
<event>
 5   0  0.2713405E-07  0.4003041E+04  0.7818609E-02  0.8003933E-01
       -1   -1    0    0    0  501  0.00000000000E+00  0.00000000000E+00  0.19315851534E+04  0.19315851534E+04  0.50400001928E-02 0.  1.
        1   -1    0    0  501    0  0.00000000000E+00  0.00000000000E+00 -0.20739881334E+04  0.20739881334E+04  0.50400001928E-02 0. -1.
    10030    2    1    2    0    0  0.00000000000E+00  0.00000000000E+00 -0.14240298004E+03  0.40055732869E+04  0.40030411874E+04 0.  0.
        1    1    3    3  502    0  0.80272824901E+03  0.25873948137E+03  0.17450956808E+04  0.19382150800E+04  0.50400001928E-02 0.  1.
       -1    1    3    3    0  502 -0.80272824901E+03 -0.25873948137E+03 -0.18874986608E+04  0.20673582069E+04  0.50400001928E-02 0. -1.
</event>
<event>
 5   0  0.4449262E-07  0.4017950E+04  0.7818609E-02  0.8000935E-01
       -2   -1    0    0    0  501  0.00000000000E+00  0.00000000000E+00  0.18419983492E+04  0.18419983492E+04  0.25500000920E-02 0.  1.
        2   -1    0    0  501    0  0.00000000000E+00  0.00000000000E+00 -0.21910876206E+04  0.21910876206E+04  0.25500000920E-02 0. -1.
    10030    2    1    2    0    0  0.00000000000E+00  0.00000000000E+00 -0.34908927140E+03  0.40330859697E+04  0.40179496164E+04 0.  0.
        1    1    3    3  502    0  0.16993512048E+04 -0.10378258758E+04  0.93110809059E+02  0.19933757018E+04  0.50400001928E-02 0. -1.
       -1    1    3    3    0  502 -0.16993512048E+04  0.10378258758E+04 -0.44220008046E+03  0.20397102679E+04  0.50400001928E-02 0.  1.
</event>
<event>
 5   0  0.2713405E-07  0.3918616E+04  0.7818609E-02  0.8021169E-01
        1   -1    0    0  501    0  0.00000000000E+00  0.00000000000E+00  0.22062454998E+04  0.22062454998E+04  0.50400001928E-02 0. -1.
       -1   -1    0    0    0  501  0.00000000000E+00  0.00000000000E+00 -0.17400093311E+04  0.17400093311E+04  0.50400001928E-02 0.  1.
    10030    2    1    2    0    0  0.00000000000E+00  0.00000000000E+00  0.46623616867E+03  0.39462548309E+04  0.39186159579E+04 0.  0.
        1    1    3    3  502    0  0.47788424814E+03 -0.12783190974E+04  0.16488840245E+04  0.21403951961E+04  0.50400001928E-02 0. -1.
       -1    1    3    3    0  502 -0.47788424814E+03  0.12783190974E+04 -0.11826478559E+04  0.18058596347E+04  0.50400001928E-02 0.  1.
</event>
<event>
 5   0  0.2601252E-07  0.3755126E+04  0.7818609E-02  0.8055854E-01
        1   -1    0    0  501    0  0.00000000000E+00  0.00000000000E+00  0.22073050788E+04  0.22073050788E+04  0.50400001928E-02 0.  1.
       -1   -1    0    0    0  501  0.00000000000E+00  0.00000000000E+00 -0.15970799902E+04  0.15970799903E+04  0.50400001928E-02 0. -1.
    10030    2    1    2    0    0  0.00000000000E+00  0.00000000000E+00  0.61022508859E+03  0.38043850691E+04  0.37551259759E+04 0.  0.
        3    1    3    3  502    0  0.71913003806E+03  0.41026575178E+03  0.20123819510E+04  0.21760393208E+04  0.10100000352E+00 0.  1.
       -3    1    3    3    0  502 -0.71913003806E+03 -0.41026575178E+03 -0.14021568625E+04  0.16283457483E+04  0.10100000352E+00 0. -1.
</event>
<event>
 5   0  0.2401125E-07  0.3834543E+04  0.7818609E-02  0.8038782E-01
       -1   -1    0    0    0  501  0.00000000000E+00  0.00000000000E+00  0.12202773914E+04  0.12202773915E+04  0.50400001928E-02 0. -1.
        1   -1    0    0  501    0  0.00000000000E+00  0.00000000000E+00 -0.30123725943E+04  0.30123725943E+04  0.50400001928E-02 0.  1.
    10030    2    1    2    0    0  0.00000000000E+00  0.00000000000E+00 -0.17920952028E+04  0.42326499857E+04  0.38345430870E+04 0.  0.
        5    1    3    3  502    0  0.10055863002E+04  0.15105706814E+04 -0.21303242543E+03  0.18271377876E+04  0.46999998093E+01 0. -1.
       -5    1    3    3    0  502 -0.10055863002E+04 -0.15105706814E+04 -0.15790627774E+04  0.24055121982E+04  0.46999998093E+01 0.  1.
</event>
<event>
 5   0  0.3579559E-07  0.3829218E+04  0.7818609E-02  0.8039914E-01
        1   -1    0    0  501    0  0.00000000000E+00  0.00000000000E+00  0.19454056257E+04  0.19454056258E+04  0.50400001928E-02 0.  1.
       -1   -1    0    0    0  501  0.00000000000E+00  0.00000000000E+00 -0.18842996698E+04  0.18842996698E+04  0.50400001928E-02 0. -1.
    10030    2    1    2    0    0  0.00000000000E+00  0.00000000000E+00  0.61105955944E+02  0.38297052956E+04  0.38292177678E+04 0.  0.
        4    1    3    3  502    0 -0.15569724215E+04  0.66464692543E+03  0.92498608384E+03  0.19291240305E+04  0.12699999809E+01 0.  1.
       -4    1    3    3    0  502  0.15569724215E+04 -0.66464692543E+03 -0.86388012789E+03  0.19005812651E+04  0.12699999809E+01 0. -1.
</event>
<event>
 5   0  0.3579559E-07  0.4230024E+04  0.7818609E-02  0.7959685E-01
       -1   -1    0    0    0  501  0.00000000000E+00  0.00000000000E+00  0.19960735456E+04  0.19960735456E+04  0.50400001928E-02 0.  1.
        1   -1    0    0  501    0  0.00000000000E+00  0.00000000000E+00 -0.22410379385E+04  0.22410379386E+04  0.50400001928E-02 0. -1.
    10030    2    1    2    0    0  0.00000000000E+00  0.00000000000E+00 -0.24496439292E+03  0.42371114842E+04  0.42300243706E+04 0.  0.
        4    1    3    3  502    0 -0.86475596124E+03 -0.19301443757E+04 -0.11863552400E+03  0.21183333505E+04  0.12699999809E+01 0. -1.
       -4    1    3    3    0  502  0.86475596124E+03  0.19301443757E+04 -0.12632886891E+03  0.21187781336E+04  0.12699999809E+01 0.  1.
</event>
<event>
 5   0  0.2401125E-07  0.2582958E+04  0.7818609E-02  0.8374013E-01
       -1   -1    0    0    0  501  0.00000000000E+00  0.00000000000E+00  0.18421140371E+04  0.18421140372E+04  0.50400001928E-02 0.  1.
        1   -1    0    0  501    0  0.00000000000E+00  0.00000000000E+00 -0.90543721550E+03  0.90543721552E+03  0.50400001928E-02 0. -1.
    10030    2    1    2    0    0  0.00000000000E+00  0.00000000000E+00  0.93667682165E+03  0.27475512527E+04  0.25829584623E+04 0.  0.
        5    1    3    3  502    0 -0.10841688251E+04 -0.70158228656E+03  0.45129332944E+03  0.13679647310E+04  0.46999998093E+01 0.  1.
       -5    1    3    3    0  502  0.10841688251E+04  0.70158228656E+03  0.48538349220E+03  0.13795865216E+04  0.46999998093E+01 0. -1.
</event>
<event>
 5   0  0.4449262E-07  0.2584521E+04  0.7818609E-02  0.8373478E-01
        2   -1    0    0  501    0  0.00000000000E+00  0.00000000000E+00  0.19382062422E+04  0.19382062422E+04  0.25500000920E-02 0.  1.
       -2   -1    0    0    0  501  0.00000000000E+00  0.00000000000E+00 -0.86158921809E+03  0.86158921809E+03  0.25500000920E-02 0. -1.
    10030    2    1    2    0    0  0.00000000000E+00  0.00000000000E+00  0.10766170241E+04  0.27997954603E+04  0.25845213102E+04 0.  0.
        1    1    3    3  502    0 -0.53898630672E+03 -0.10961855564E+04  0.81512236950E+02  0.12242439535E+04  0.50400001928E-02 0. -1.
       -1    1    3    3    0  502  0.53898630672E+03  0.10961855564E+04  0.99510478716E+03  0.15755515068E+04  0.50400001928E-02 0.  1.
</event>
<event>
 5   0  0.2401125E-07  0.3715379E+04  0.7818609E-02  0.8064562E-01
       -1   -1    0    0    0  501  0.00000000000E+00  0.00000000000E+00  0.20202622526E+04  0.20202622526E+04  0.50400001928E-02 0. -1.
        1   -1    0    0  501    0  0.00000000000E+00  0.00000000000E+00 -0.17081990776E+04  0.17081990776E+04  0.50400001928E-02 0.  1.
    10030    2    1    2    0    0  0.00000000000E+00  0.00000000000E+00  0.31206317508E+03  0.37284613302E+04  0.37153789128E+04 0.  0.
        5    1    3    3  502    0  0.12904265866E+04  0.76451142627E+03 -0.94387041437E+03  0.17721715338E+04  0.46999998093E+01 0.  1.
       -5    1    3    3    0  502 -0.12904265866E+04 -0.76451142627E+03  0.12559335894E+04  0.19562897964E+04  0.46999998093E+01 0. -1.
</event>
<event>
 5   0  0.3579559E-07  0.3407506E+04  0.7818609E-02  0.8136066E-01
       -1   -1    0    0    0  501  0.00000000000E+00  0.00000000000E+00  0.17200863548E+04  0.17200863548E+04  0.50400001928E-02 0. -1.
        1   -1    0    0  501    0  0.00000000000E+00  0.00000000000E+00 -0.16875751097E+04  0.16875751098E+04  0.50400001928E-02 0.  1.
    10030    2    1    2    0    0  0.00000000000E+00  0.00000000000E+00  0.32511245020E+02  0.34076614645E+04  0.34075063721E+04 0.  0.
        4    1    3    3  502    0  0.11443345092E+04  0.11327311493E+04  0.57322978519E+03  0.17091446179E+04  0.12699999809E+01 0. -1.
       -4    1    3    3    0  502 -0.11443345092E+04 -0.11327311493E+04 -0.54071854017E+03  0.16985168466E+04  0.12699999809E+01 0.  1.
</event>
<event>
 5   0  0.7570277E-07  0.2437292E+04  0.7818609E-02  0.8425673E-01
       -2   -1    0    0    0  501  0.00000000000E+00  0.00000000000E+00  0.12076497596E+04  0.12076497596E+04  0.25500000920E-02 0. -1.
        2   -1    0    0  501    0  0.00000000000E+00  0.00000000000E+00 -0.12297418862E+04  0.12297418862E+04  0.25500000920E-02 0.  1.
    10030    2    1    2    0    0  0.00000000000E+00  0.00000000000E+00 -0.22092126589E+02  0.24373916458E+04  0.24372915240E+04 0.  0.
        5    1    3    3  502    0 -0.68900496035E+03  0.85106314988E+03 -0.54589425080E+03  0.12235436010E+04  0.46999998093E+01 0.  1.
       -5    1    3    3    0  502  0.68900496035E+03 -0.85106314988E+03  0.52380212421E+03  0.12138480448E+04  0.46999998093E+01 0. -1.
</event>
<event>
 5   0  0.2601252E-07  0.2629068E+04  0.7818609E-02  0.8358394E-01
       -1   -1    0    0    0  501  0.00000000000E+00  0.00000000000E+00  0.15865203290E+04  0.15865203290E+04  0.50400001928E-02 0.  1.
        1   -1    0    0  501    0  0.00000000000E+00  0.00000000000E+00 -0.10891758920E+04  0.10891758920E+04  0.50400001928E-02 0. -1.
    10030    2    1    2    0    0  0.00000000000E+00  0.00000000000E+00  0.49734443707E+03  0.26756962210E+04  0.26290680436E+04 0.  0.
        3    1    3    3  502    0 -0.89374248357E+03  0.54479133752E+03  0.10580289694E+04  0.14882871157E+04  0.10100000352E+00 0.  1.
       -3    1    3    3    0  502  0.89374248357E+03 -0.54479133752E+03 -0.56068453236E+03  0.11874091053E+04  0.10100000352E+00 0. -1.
</event>
<event>
 5   0  0.7256473E-07  0.3900424E+04  0.7818609E-02  0.8024941E-01
       -2   -1    0    0    0  501  0.00000000000E+00  0.00000000000E+00  0.12716319291E+04  0.12716319291E+04  0.25500000920E-02 0.  1.
        2   -1    0    0  501    0  0.00000000000E+00  0.00000000000E+00 -0.29909024187E+04  0.29909024187E+04  0.25500000920E-02 0. -1.
    10030    2    1    2    0    0  0.00000000000E+00  0.00000000000E+00 -0.17192704896E+04  0.42625343478E+04  0.39004240859E+04 0.  0.
        4    1    3    3  502    0 -0.34620961789E+02 -0.12495327428E+04 -0.24955365448E+04  0.27910992361E+04  0.12699999809E+01 0. -1.
       -4    1    3    3    0  502  0.34620961789E+02  0.12495327428E+04  0.77626605524E+03  0.14714351117E+04  0.12699999809E+01 0.  1.
</event>
<event>
 5   0  0.4449262E-07  0.3883588E+04  0.7818609E-02  0.8028451E-01
        2   -1    0    0  501    0  0.00000000000E+00  0.00000000000E+00  0.27067625701E+04  0.27067625701E+04  0.25500000920E-02 0. -1.
       -2   -1    0    0    0  501  0.00000000000E+00  0.00000000000E+00 -0.13930159443E+04  0.13930159443E+04  0.25500000920E-02 0.  1.
    10030    2    1    2    0    0  0.00000000000E+00  0.00000000000E+00  0.13137466258E+04  0.40997785144E+04  0.38835877318E+04 0.  0.
        1    1    3    3  502    0 -0.15381451369E+04 -0.11781182076E+04  0.79333831125E+03  0.20936185539E+04  0.50400001928E-02 0.  1.
       -1    1    3    3    0  502  0.15381451369E+04  0.11781182076E+04  0.52040831458E+03  0.20061599605E+04  0.50400001928E-02 0. -1.
</event>
<event>
 5   0  0.2401125E-07  0.2127328E+04  0.7818609E-02  0.8549300E-01
       -3   -1    0    0    0  501  0.00000000000E+00  0.00000000000E+00  0.11270863039E+04  0.11270863084E+04  0.10100000352E+00 0.  1.
        3   -1    0    0  501    0  0.00000000000E+00  0.00000000000E+00 -0.10038109258E+04  0.10038109309E+04  0.10100000352E+00 0. -1.
    10030    2    1    2    0    0  0.00000000000E+00  0.00000000000E+00  0.12327537804E+03  0.21308972393E+04  0.21273284245E+04 0.  0.
        2    1    3    3  502    0 -0.32289871752E+03  0.95899946641E+03  0.38996493011E+03  0.10844428086E+04  0.25500000920E-02 0.  1.
       -2    1    3    3    0  502  0.32289871752E+03 -0.95899946641E+03 -0.26668955207E+03  0.10464544307E+04  0.25500000920E-02 0. -1.
</event>
<event>
 5   0  0.2647879E-07  0.2210407E+04  0.7818609E-02  0.8514109E-01
       -1   -1    0    0    0  501  0.00000000000E+00  0.00000000000E+00  0.11838717680E+04  0.11838717680E+04  0.50400001928E-02 0. -1.
        1   -1    0    0  501    0  0.00000000000E+00  0.00000000000E+00 -0.10317628884E+04  0.10317628884E+04  0.50400001928E-02 0.  1.
    10030    2    1    2    0    0  0.00000000000E+00  0.00000000000E+00  0.15210887961E+03  0.22156346565E+04  0.22104071615E+04 0.  0.
        2    1    3    3  502    0 -0.95725590774E+03  0.38997427058E+03 -0.31609469709E+03  0.10808953058E+04  0.25500000920E-02 0.  1.
       -2    1    3    3    0  502  0.95725590774E+03 -0.38997427058E+03  0.46820357670E+03  0.11347393506E+04  0.25500000920E-02 0. -1.
</event>
<event>
 5   0  0.7570277E-07  0.3992096E+04  0.7818609E-02  0.8006143E-01
       -2   -1    0    0    0  501  0.00000000000E+00  0.00000000000E+00  0.15644984619E+04  0.15644984619E+04  0.25500000920E-02 0.  1.
        2   -1    0    0  501    0  0.00000000000E+00  0.00000000000E+00 -0.25466351596E+04  0.25466351596E+04  0.25500000920E-02 0. -1.
    10030    2    1    2    0    0  0.00000000000E+00  0.00000000000E+00 -0.98213669777E+03  0.41111336215E+04  0.39920955851E+04 0.  0.
        5    1    3    3  502    0  0.71206000293E+03 -0.41916474665E+03  0.13801024404E+04  0.16085500827E+04  0.46999998093E+01 0.  1.
       -5    1    3    3    0  502 -0.71206000293E+03  0.41916474665E+03 -0.23622391382E+04  0.25025835388E+04  0.46999998093E+01 0. -1.
</event>
<event>
 5   0  0.2401125E-07  0.2094327E+04  0.7818609E-02  0.8563747E-01
        4   -1    0    0  501    0  0.00000000000E+00  0.00000000000E+00  0.10725080041E+04  0.10725087561E+04  0.12699999809E+01 0.  1.
       -4   -1    0    0    0  501  0.00000000000E+00  0.00000000000E+00 -0.10224159493E+04  0.10224167381E+04  0.12699999809E+01 0. -1.
    10030    2    1    2    0    0  0.00000000000E+00  0.00000000000E+00  0.50092054799E+02  0.20949254942E+04  0.20943265295E+04 0.  0.
        1    1    3    3  502    0 -0.70545203814E+03  0.41653701403E+03  0.67744819697E+03  0.10630624261E+04  0.50400001928E-02 0.  1.
       -1    1    3    3    0  502  0.70545203814E+03 -0.41653701403E+03 -0.62735614217E+03  0.10318630681E+04  0.50400001928E-02 0. -1.
</event>
<event>
 5   0  0.2713405E-07  0.3215648E+04  0.7818609E-02  0.8184697E-01
       -1   -1    0    0    0  501  0.00000000000E+00  0.00000000000E+00  0.14330743125E+04  0.14330743126E+04  0.50400001928E-02 0.  1.
        1   -1    0    0  501    0  0.00000000000E+00  0.00000000000E+00 -0.18038831049E+04  0.18038831049E+04  0.50400001928E-02 0. -1.
    10030    2    1    2    0    0  0.00000000000E+00  0.00000000000E+00 -0.37080879234E+03  0.32369574174E+04  0.32156483268E+04 0.  0.
        1    1    3    3  502    0  0.78666874761E+03  0.13655221339E+04 -0.50626438066E+03  0.16552347385E+04  0.50400001928E-02 0. -1.
       -1    1    3    3    0  502 -0.78666874761E+03 -0.13655221339E+04  0.13545558832E+03  0.15817226789E+04  0.50400001928E-02 0.  1.
</event>
<event>
 5   0  0.2401125E-07  0.2220420E+04  0.7818609E-02  0.8509976E-01
       -1   -1    0    0    0  501  0.00000000000E+00  0.00000000000E+00  0.12190339197E+04  0.12190339197E+04  0.50400001928E-02 0.  1.
        1   -1    0    0  501    0  0.00000000000E+00  0.00000000000E+00 -0.10111012216E+04  0.10111012216E+04  0.50400001928E-02 0. -1.
    10030    2    1    2    0    0  0.00000000000E+00  0.00000000000E+00  0.20793269814E+03  0.22301351413E+04  0.22204203975E+04 0.  0.
        5    1    3    3  502    0 -0.67244516558E+03  0.20905543079E+03 -0.75807660117E+03  0.10346926583E+04  0.46999998093E+01 0. -1.
       -5    1    3    3    0  502  0.67244516558E+03 -0.20905543079E+03  0.96600929932E+03  0.11954424830E+04  0.46999998093E+01 0.  1.
</event>
<event>
 5   0  0.2401125E-07  0.2081284E+04  0.7818609E-02  0.8569533E-01
        3   -1    0    0  501    0  0.00000000000E+00  0.00000000000E+00  0.18824131625E+04  0.18824131653E+04  0.10100000352E+00 0. -1.
       -3   -1    0    0    0  501  0.00000000000E+00  0.00000000000E+00 -0.57529126585E+03  0.57529127472E+03  0.10100000352E+00 0.  1.
    10030    2    1    2    0    0  0.00000000000E+00  0.00000000000E+00  0.13071218967E+04  0.24577044400E+04  0.20812840896E+04 0.  0.
        5    1    3    3  502    0 -0.98544014597E+03 -0.51414660790E+02  0.26338013463E+03  0.10213358576E+04  0.46999998093E+01 0.  1.
       -5    1    3    3    0  502  0.98544014597E+03  0.51414660790E+02  0.10437417621E+04  0.14363685824E+04  0.46999998093E+01 0. -1.
</event>
<event>
 5   0  0.2647879E-07  0.2768028E+04  0.7818609E-02  0.8313264E-01
       -1   -1    0    0    0  501  0.00000000000E+00  0.00000000000E+00  0.95710715221E+03  0.95710715223E+03  0.50400001928E-02 0.  1.
        1   -1    0    0  501    0  0.00000000000E+00  0.00000000000E+00 -0.20013380342E+04  0.20013380342E+04  0.50400001928E-02 0. -1.
    10030    2    1    2    0    0  0.00000000000E+00  0.00000000000E+00 -0.10442308820E+04  0.29584451865E+04  0.27680281405E+04 0.  0.
        2    1    3    3  502    0  0.63585404987E+03  0.40726065331E+00 -0.18359835104E+04  0.19429734916E+04  0.25500000920E-02 0. -1.
       -2    1    3    3    0  502 -0.63585404987E+03 -0.40726065331E+00  0.79175262836E+03  0.10154716949E+04  0.25500000920E-02 0.  1.
</event>
<event>
 5   0  0.7256473E-07  0.2213620E+04  0.7818609E-02  0.8512780E-01
       -2   -1    0    0    0  501  0.00000000000E+00  0.00000000000E+00  0.76470905135E+03  0.76470905136E+03  0.25500000920E-02 0.  1.
        2   -1    0    0  501    0  0.00000000000E+00  0.00000000000E+00 -0.16019538508E+04  0.16019538508E+04  0.25500000920E-02 0. -1.
    10030    2    1    2    0    0  0.00000000000E+00  0.00000000000E+00 -0.83724479946E+03  0.23666629022E+04  0.22136202109E+04 0.  0.
        4    1    3    3  502    0 -0.77221463565E+03  0.30330735236E+03 -0.12018818529E+04  0.14604219920E+04  0.12699999809E+01 0. -1.
       -4    1    3    3    0  502  0.77221463565E+03 -0.30330735236E+03  0.36463705349E+03  0.90624091013E+03  0.12699999809E+01 0.  1.
</event>
<event>
 5   0  0.2401125E-07  0.3990983E+04  0.7818609E-02  0.8006368E-01
       -1   -1    0    0    0  501  0.00000000000E+00  0.00000000000E+00  0.19263322533E+04  0.19263322533E+04  0.50400001928E-02 0.  1.
        1   -1    0    0  501    0  0.00000000000E+00  0.00000000000E+00 -0.20671336103E+04  0.20671336103E+04  0.50400001928E-02 0. -1.
    10030    2    1    2    0    0  0.00000000000E+00  0.00000000000E+00 -0.14080135702E+03  0.39934658636E+04  0.39909829092E+04 0.  0.
        5    1    3    3  502    0  0.46485744942E+03  0.53788749968E+03 -0.19361112128E+04  0.20625140312E+04  0.46999998093E+01 0. -1.
       -5    1    3    3    0  502 -0.46485744942E+03 -0.53788749968E+03  0.17953098558E+04  0.19309518324E+04  0.46999998093E+01 0.  1.
</event>
<event>
 5   0  0.5161550E-07  0.4089302E+04  0.7818609E-02  0.7986770E-01
        2   -1    0    0  501    0  0.00000000000E+00  0.00000000000E+00  0.25201539223E+04  0.25201539223E+04  0.25500000920E-02 0.  1.
       -2   -1    0    0    0  501  0.00000000000E+00  0.00000000000E+00 -0.16588660145E+04  0.16588660145E+04  0.25500000920E-02 0. -1.
    10030    2    1    2    0    0  0.00000000000E+00  0.00000000000E+00  0.86128790775E+03  0.41790199368E+04  0.40893019908E+04 0.  0.
        2    1    3    3  502    0  0.11323542575E+04  0.14089945109E+04 -0.54588664614E+03  0.18882489048E+04  0.25500000920E-02 0. -1.
       -2    1    3    3    0  502 -0.11323542575E+04 -0.14089945109E+04  0.14071745539E+04  0.22907710320E+04  0.25500000920E-02 0.  1.
</event>
<event>
 5   0  0.3579559E-07  0.2380810E+04  0.7818609E-02  0.8446723E-01
        1   -1    0    0  501    0  0.00000000000E+00  0.00000000000E+00  0.19836561843E+04  0.19836561843E+04  0.50400001928E-02 0. -1.
       -1   -1    0    0    0  501  0.00000000000E+00  0.00000000000E+00 -0.71436969319E+03  0.71436969321E+03  0.50400001928E-02 0.  1.
    10030    2    1    2    0    0  0.00000000000E+00  0.00000000000E+00  0.12692864911E+04  0.26980258775E+04  0.23808098284E+04 0.  0.
        4    1    3    3  502    0  0.93549390752E+03  0.41398874685E+03  0.13244559143E+04  0.16735353642E+04  0.12699999809E+01 0. -1.
       -4    1    3    3    0  502 -0.93549390752E+03 -0.41398874685E+03 -0.55169423259E+02  0.10244905132E+04  0.12699999809E+01 0.  1.
</event>
<event>
 5   0  0.2647879E-07  0.3991171E+04  0.7818609E-02  0.8006330E-01
        1   -1    0    0  501    0  0.00000000000E+00  0.00000000000E+00  0.10633823019E+04  0.10633823019E+04  0.50400001928E-02 0. -1.
       -1   -1    0    0    0  501  0.00000000000E+00  0.00000000000E+00 -0.37449949150E+04  0.37449949150E+04  0.50400001928E-02 0.  1.
    10030    2    1    2    0    0  0.00000000000E+00  0.00000000000E+00 -0.26816126130E+04  0.48083772169E+04  0.39911709126E+04 0.  0.
        2    1    3    3  502    0  0.63717771201E+03  0.18066248741E+04 -0.20142543027E+04  0.27797678443E+04  0.25500000920E-02 0.  1.
       -2    1    3    3    0  502 -0.63717771201E+03 -0.18066248741E+04 -0.66735831036E+03  0.20286093726E+04  0.25500000920E-02 0. -1.
</event>
<event>
 5   0  0.7256473E-07  0.2850024E+04  0.7818609E-02  0.8287904E-01
        2   -1    0    0  501    0  0.00000000000E+00  0.00000000000E+00  0.24100918029E+04  0.24100918029E+04  0.25500000920E-02 0. -1.
       -2   -1    0    0    0  501  0.00000000000E+00  0.00000000000E+00 -0.84256524350E+03  0.84256524351E+03  0.25500000920E-02 0.  1.
    10030    2    1    2    0    0  0.00000000000E+00  0.00000000000E+00  0.15675265594E+04  0.32526570464E+04  0.28500242713E+04 0.  0.
        4    1    3    3  502    0  0.13747030947E+04 -0.19223503401E+03  0.11516271873E+04  0.18036101847E+04  0.12699999809E+01 0. -1.
       -4    1    3    3    0  502 -0.13747030947E+04  0.19223503401E+03  0.41589937209E+03  0.14490468617E+04  0.12699999809E+01 0.  1.
</event>
<event>
 5   0  0.7256473E-07  0.2275742E+04  0.7818609E-02  0.8487547E-01
       -2   -1    0    0    0  501  0.00000000000E+00  0.00000000000E+00  0.77558436071E+03  0.77558436071E+03  0.25500000920E-02 0.  1.
        2   -1    0    0  501    0  0.00000000000E+00  0.00000000000E+00 -0.16693873574E+04  0.16693873574E+04  0.25500000920E-02 0. -1.
    10030    2    1    2    0    0  0.00000000000E+00  0.00000000000E+00 -0.89380299671E+03  0.24449717181E+04  0.22757422757E+04 0.  0.
        4    1    3    3  502    0  0.11841148880E+03 -0.11306436390E+04 -0.39456787426E+03  0.12033543699E+04  0.12699999809E+01 0. -1.
       -4    1    3    3    0  502 -0.11841148880E+03  0.11306436390E+04 -0.49923512244E+03  0.12416173483E+04  0.12699999809E+01 0.  1.
</event>
<event>
 5   0  0.6043512E-07  0.3886997E+04  0.7818609E-02  0.8027739E-01
        2   -1    0    0  501    0  0.00000000000E+00  0.00000000000E+00  0.12676640273E+04  0.12676640273E+04  0.25500000920E-02 0.  1.
       -2   -1    0    0    0  501  0.00000000000E+00  0.00000000000E+00 -0.29796432834E+04  0.29796432834E+04  0.25500000920E-02 0. -1.
    10030    2    1    2    0    0  0.00000000000E+00  0.00000000000E+00 -0.17119792561E+04  0.42473073107E+04  0.38869970952E+04 0.  0.
        3    1    3    3  502    0  0.28931680755E+03  0.19215382008E+04 -0.81856064063E+03  0.21085670027E+04  0.10100000352E+00 0.  1.
       -3    1    3    3    0  502 -0.28931680755E+03 -0.19215382008E+04 -0.89341861548E+03  0.21387403080E+04  0.10100000352E+00 0. -1.
</event>
<event>
 5   0  0.4449262E-07  0.3986005E+04  0.7818609E-02  0.8007376E-01
        2   -1    0    0  501    0  0.00000000000E+00  0.00000000000E+00  0.30785891350E+04  0.30785891350E+04  0.25500000920E-02 0.  1.
       -2   -1    0    0    0  501  0.00000000000E+00  0.00000000000E+00 -0.12902207745E+04  0.12902207745E+04  0.25500000920E-02 0. -1.
    10030    2    1    2    0    0  0.00000000000E+00  0.00000000000E+00  0.17883683605E+04  0.43688099095E+04  0.39860053478E+04 0.  0.
        1    1    3    3  502    0 -0.43512045405E+03  0.49124663808E+03 -0.11684070510E+04  0.13400851114E+04  0.50400001928E-02 0. -1.
       -1    1    3    3    0  502  0.43512045405E+03 -0.49124663808E+03  0.29567754115E+04  0.30287247981E+04  0.50400001928E-02 0.  1.
</event>
<event>
 5   0  0.2401125E-07  0.3893125E+04  0.7818609E-02  0.8026461E-01
        1   -1    0    0  501    0  0.00000000000E+00  0.00000000000E+00  0.21560296737E+04  0.21560296737E+04  0.50400001928E-02 0. -1.
       -1   -1    0    0    0  501  0.00000000000E+00  0.00000000000E+00 -0.17574458009E+04  0.17574458009E+04  0.50400001928E-02 0.  1.
    10030    2    1    2    0    0  0.00000000000E+00  0.00000000000E+00  0.39858387281E+03  0.39134754747E+04  0.38931248615E+04 0.  0.
        5    1    3    3  502    0 -0.49920558775E+03 -0.10934855885E+04  0.17383623469E+04  0.21134906412E+04  0.46999998093E+01 0. -1.
       -5    1    3    3    0  502  0.49920558775E+03  0.10934855885E+04 -0.13397784741E+04  0.17999848335E+04  0.46999998093E+01 0.  1.
</event>
<event>
 5   0  0.6043512E-07  0.3319676E+04  0.7818609E-02  0.8157907E-01
       -2   -1    0    0    0  501  0.00000000000E+00  0.00000000000E+00  0.15265934902E+04  0.15265934902E+04  0.25500000920E-02 0.  1.
        2   -1    0    0  501    0  0.00000000000E+00  0.00000000000E+00 -0.18047128346E+04  0.18047128346E+04  0.25500000920E-02 0. -1.
    10030    2    1    2    0    0  0.00000000000E+00  0.00000000000E+00 -0.27811934436E+03  0.33313063248E+04  0.33196764089E+04 0.  0.
        3    1    3    3  502    0  0.94229638253E+03  0.46379578010E+03  0.11507578987E+04  0.15579707153E+04  0.10100000352E+00 0.  1.
       -3    1    3    3    0  502 -0.94229638253E+03 -0.46379578010E+03 -0.14288772430E+04  0.17733356095E+04  0.10100000352E+00 0. -1.
</event>
<event>
 5   0  0.6043512E-07  0.4025244E+04  0.7818609E-02  0.7999473E-01
        2   -1    0    0  501    0  0.00000000000E+00  0.00000000000E+00  0.19740446389E+04  0.19740446389E+04  0.25500000920E-02 0. -1.
       -2   -1    0    0    0  501  0.00000000000E+00  0.00000000000E+00 -0.20519534360E+04  0.20519534360E+04  0.25500000920E-02 0.  1.
    10030    2    1    2    0    0  0.00000000000E+00  0.00000000000E+00 -0.77908797156E+02  0.40259980749E+04  0.40252441812E+04 0.  0.
        3    1    3    3  502    0  0.13446463679E+04 -0.79571277456E+03  0.12299104133E+04  0.19884446961E+04  0.10100000352E+00 0. -1.
       -3    1    3    3    0  502 -0.13446463679E+04  0.79571277456E+03 -0.13078192105E+04  0.20375533789E+04  0.10100000352E+00 0.  1.
</event>
<event>
 5   0  0.6043512E-07  0.4025265E+04  0.7818609E-02  0.7999469E-01
        2   -1    0    0  501    0  0.00000000000E+00  0.00000000000E+00  0.26894543724E+04  0.26894543724E+04  0.25500000920E-02 0. -1.
       -2   -1    0    0    0  501  0.00000000000E+00  0.00000000000E+00 -0.15061381398E+04  0.15061381398E+04  0.25500000920E-02 0.  1.
    10030    2    1    2    0    0  0.00000000000E+00  0.00000000000E+00  0.11833162327E+04  0.41955925122E+04  0.40252651121E+04 0.  0.
        3    1    3    3  502    0 -0.12691466782E+04 -0.12922002319E+04  0.15063894157E+04  0.23557851795E+04  0.10100000352E+00 0. -1.
       -3    1    3    3    0  502  0.12691466782E+04  0.12922002319E+04 -0.32307318302E+03  0.18398073328E+04  0.10100000352E+00 0.  1.
</event>
<event>
 5   0  0.2713405E-07  0.3799201E+04  0.7818609E-02  0.8046326E-01
       -1   -1    0    0    0  501  0.00000000000E+00  0.00000000000E+00  0.23480499160E+04  0.23480499160E+04  0.50400001928E-02 0. -1.
        1   -1    0    0  501    0  0.00000000000E+00  0.00000000000E+00 -0.15367998843E+04  0.15367998843E+04  0.50400001928E-02 0.  1.
    10030    2    1    2    0    0  0.00000000000E+00  0.00000000000E+00  0.81125003168E+03  0.38848498003E+04  0.37992014104E+04 0.  0.
        1    1    3    3  502    0 -0.14142082383E+04 -0.12677524993E+04  0.44251459722E+03  0.19501283316E+04  0.50400001928E-02 0. -1.
       -1    1    3    3    0  502  0.14142082383E+04  0.12677524993E+04  0.36873543445E+03  0.19347214687E+04  0.50400001928E-02 0.  1.
</event>
<event>
 5   0  0.7570277E-07  0.3608123E+04  0.7818609E-02  0.8088633E-01
        2   -1    0    0  501    0  0.00000000000E+00  0.00000000000E+00  0.12320436551E+04  0.12320436551E+04  0.25500000920E-02 0.  1.
       -2   -1    0    0    0  501  0.00000000000E+00  0.00000000000E+00 -0.26416585846E+04  0.26416585846E+04  0.25500000920E-02 0. -1.
    10030    2    1    2    0    0  0.00000000000E+00  0.00000000000E+00 -0.14096149295E+04  0.38737022397E+04  0.36081234447E+04 0.  0.
        5    1    3    3  502    0  0.41164923688E+03  0.11662172556E+03 -0.25863949307E+04  0.26215485021E+04  0.46999998093E+01 0. -1.
       -5    1    3    3    0  502 -0.41164923688E+03 -0.11662172556E+03  0.11767800013E+04  0.12521537376E+04  0.46999998093E+01 0.  1.
</event>
<event>
 5   0  0.2601252E-07  0.3824785E+04  0.7818609E-02  0.8040857E-01
       -1   -1    0    0    0  501  0.00000000000E+00  0.00000000000E+00  0.15981101901E+04  0.15981101901E+04  0.50400001928E-02 0. -1.
        1   -1    0    0  501    0  0.00000000000E+00  0.00000000000E+00 -0.22884817306E+04  0.22884817306E+04  0.50400001928E-02 0.  1.
    10030    2    1    2    0    0  0.00000000000E+00  0.00000000000E+00 -0.69037154052E+03  0.38865919207E+04  0.38247854703E+04 0.  0.
        3    1    3    3  502    0  0.11653486313E+04  0.12638607866E+04  0.50612569665E+03  0.17920783329E+04  0.10100000352E+00 0. -1.
       -3    1    3    3    0  502 -0.11653486313E+04 -0.12638607866E+04 -0.11964972372E+04  0.20945135877E+04  0.10100000352E+00 0.  1.
</event>
<event>
 5   0  0.2401125E-07  0.3079969E+04  0.7818609E-02  0.8221257E-01
        1   -1    0    0  501    0  0.00000000000E+00  0.00000000000E+00  0.25404974479E+04  0.25404974479E+04  0.50400001928E-02 0. -1.
       -1   -1    0    0    0  501  0.00000000000E+00  0.00000000000E+00 -0.93349923111E+03  0.93349923113E+03  0.50400001928E-02 0.  1.
    10030    2    1    2    0    0  0.00000000000E+00  0.00000000000E+00  0.16069982167E+04  0.34739966790E+04  0.30799691000E+04 0.  0.
        5    1    3    3  502    0 -0.20046220020E+03 -0.10939373094E+04  0.20049701510E+04  0.22927737191E+04  0.46999998093E+01 0. -1.
       -5    1    3    3    0  502  0.20046220020E+03  0.10939373094E+04 -0.39797193426E+03  0.11812229599E+04  0.46999998093E+01 0.  1.
</event>
<event>
 5   0  0.2713405E-07  0.3797683E+04  0.7818609E-02  0.8046652E-01
       -1   -1    0    0    0  501  0.00000000000E+00  0.00000000000E+00  0.18905994774E+04  0.18905994774E+04  0.50400001928E-02 0. -1.
        1   -1    0    0  501    0  0.00000000000E+00  0.00000000000E+00 -0.19071192273E+04  0.19071192274E+04  0.50400001928E-02 0.  1.
    10030    2    1    2    0    0  0.00000000000E+00  0.00000000000E+00 -0.16519749954E+02  0.37977187048E+04  0.37976827748E+04 0.  0.
        1    1    3    3  502    0 -0.18639892681E+04 -0.20221883605E+03 -0.30867937037E+03  0.19001661514E+04  0.50400001928E-02 0.  1.
       -1    1    3    3    0  502  0.18639892681E+04  0.20221883605E+03  0.29215962042E+03  0.18975525534E+04  0.50400001928E-02 0. -1.
</event>
<event>
 5   0  0.5161550E-07  0.2344602E+04  0.7818609E-02  0.8460540E-01
       -2   -1    0    0    0  501  0.00000000000E+00  0.00000000000E+00  0.11962327759E+04  0.11962327759E+04  0.25500000920E-02 0. -1.
        2   -1    0    0  501    0  0.00000000000E+00  0.00000000000E+00 -0.11488476775E+04  0.11488476775E+04  0.25500000920E-02 0.  1.
    10030    2    1    2    0    0  0.00000000000E+00  0.00000000000E+00  0.47385098367E+02  0.23450804534E+04  0.23446016688E+04 0.  0.
        2    1    3    3  502    0  0.10574106011E+04 -0.37547127657E+03  0.36316337105E+03  0.11793996324E+04  0.25500000920E-02 0. -1.
       -2    1    3    3    0  502 -0.10574106011E+04  0.37547127657E+03 -0.31577827269E+03  0.11656808210E+04  0.25500000920E-02 0.  1.
</event>
<event>
 5   0  0.2601252E-07  0.2102171E+04  0.7818609E-02  0.8560288E-01
       -1   -1    0    0    0  501  0.00000000000E+00  0.00000000000E+00  0.58604334274E+03  0.58604334276E+03  0.50400001928E-02 0. -1.
        1   -1    0    0  501    0  0.00000000000E+00  0.00000000000E+00 -0.18851516004E+04  0.18851516004E+04  0.50400001928E-02 0.  1.
    10030    2    1    2    0    0  0.00000000000E+00  0.00000000000E+00 -0.12991082577E+04  0.24711949432E+04  0.21021708261E+04 0.  0.
        3    1    3    3  502    0 -0.69587902817E+03  0.16608710426E+03  0.25565161605E+03  0.75973041735E+03  0.10100000352E+00 0. -1.
       -3    1    3    3    0  502  0.69587902817E+03 -0.16608710426E+03 -0.15547598738E+04  0.17114645259E+04  0.10100000352E+00 0.  1.
</event>
<event>
 5   0  0.7570277E-07  0.2798632E+04  0.7818609E-02  0.8303693E-01
       -2   -1    0    0    0  501  0.00000000000E+00  0.00000000000E+00  0.11762143418E+04  0.11762143418E+04  0.25500000920E-02 0.  1.
        2   -1    0    0  501    0  0.00000000000E+00  0.00000000000E+00 -0.16647347298E+04  0.16647347298E+04  0.25500000920E-02 0. -1.
    10030    2    1    2    0    0  0.00000000000E+00  0.00000000000E+00 -0.48852038803E+03  0.28409490716E+04  0.27986317117E+04 0.  0.
        5    1    3    3  502    0  0.72646119462E+03  0.10263752968E+04 -0.86744070079E+03  0.15276346345E+04  0.46999998093E+01 0. -1.
       -5    1    3    3    0  502 -0.72646119462E+03 -0.10263752968E+04  0.37892031277E+03  0.13133144371E+04  0.46999998093E+01 0.  1.
</event>
<event>
 5   0  0.2713405E-07  0.2719972E+04  0.7818609E-02  0.8328554E-01
        1   -1    0    0  501    0  0.00000000000E+00  0.00000000000E+00  0.15341690585E+04  0.15341690585E+04  0.50400001928E-02 0. -1.
       -1   -1    0    0    0  501  0.00000000000E+00  0.00000000000E+00 -0.12055787534E+04  0.12055787534E+04  0.50400001928E-02 0.  1.
    10030    2    1    2    0    0  0.00000000000E+00  0.00000000000E+00  0.32859030511E+03  0.27397478119E+04  0.27199717800E+04 0.  0.
        1    1    3    3  502    0 -0.33185595839E+03  0.11003356373E+04  0.89669573480E+03  0.14577140092E+04  0.50400001928E-02 0. -1.
       -1    1    3    3    0  502  0.33185595839E+03 -0.11003356373E+04 -0.56810542969E+03  0.12820338027E+04  0.50400001928E-02 0.  1.
</event>
<event>
 5   0  0.7256473E-07  0.2577646E+04  0.7818609E-02  0.8375834E-01
       -2   -1    0    0    0  501  0.00000000000E+00  0.00000000000E+00  0.97826455498E+03  0.97826455498E+03  0.25500000920E-02 0. -1.
        2   -1    0    0  501    0  0.00000000000E+00  0.00000000000E+00 -0.16979702868E+04  0.16979702868E+04  0.25500000920E-02 0.  1.
    10030    2    1    2    0    0  0.00000000000E+00  0.00000000000E+00 -0.71970573185E+03  0.26762348418E+04  0.25776455513E+04 0.  0.
        4    1    3    3  502    0  0.57696535093E+03 -0.10280917854E+04 -0.90054058422E+03  0.14835217195E+04  0.12699999809E+01 0. -1.
       -4    1    3    3    0  502 -0.57696535093E+03  0.10280917854E+04  0.18083485237E+03  0.11927131223E+04  0.12699999809E+01 0.  1.
</event>
<event>
 5   0  0.5161550E-07  0.3904910E+04  0.7818609E-02  0.8024009E-01
       -2   -1    0    0    0  501  0.00000000000E+00  0.00000000000E+00  0.18734194633E+04  0.18734194633E+04  0.25500000920E-02 0. -1.
        2   -1    0    0  501    0  0.00000000000E+00  0.00000000000E+00 -0.20348246285E+04  0.20348246285E+04  0.25500000920E-02 0.  1.
    10030    2    1    2    0    0  0.00000000000E+00  0.00000000000E+00 -0.16140516511E+03  0.39082440918E+04  0.39049097626E+04 0.  0.
        2    1    3    3  502    0  0.50105547626E+03  0.14198094296E+04  0.11634053539E+04  0.19027420803E+04  0.25500000920E-02 0. -1.
       -2    1    3    3    0  502 -0.50105547626E+03 -0.14198094296E+04 -0.13248105190E+04  0.20055020115E+04  0.25500000920E-02 0.  1.
</event>
<event>
 5   0  0.2401125E-07  0.3824553E+04  0.7818609E-02  0.8040906E-01
        1   -1    0    0  501    0  0.00000000000E+00  0.00000000000E+00  0.12569319676E+04  0.12569319676E+04  0.50400001928E-02 0.  1.
       -1   -1    0    0    0  501  0.00000000000E+00  0.00000000000E+00 -0.29093070472E+04  0.29093070472E+04  0.50400001928E-02 0. -1.
    10030    2    1    2    0    0  0.00000000000E+00  0.00000000000E+00 -0.16523750796E+04  0.41662390149E+04  0.38245528007E+04 0.  0.
        5    1    3    3  502    0  0.89456462560E+03  0.30066929942E+03  0.98556924305E+03  0.13645573348E+04  0.46999998093E+01 0.  1.
       -5    1    3    3    0  502 -0.89456462560E+03 -0.30066929942E+03 -0.26379443227E+04  0.28016816801E+04  0.46999998093E+01 0. -1.
</event>
<event>
 5   0  0.2713405E-07  0.3988717E+04  0.7818609E-02  0.8006827E-01
        1   -1    0    0  501    0  0.00000000000E+00  0.00000000000E+00  0.17335908973E+04  0.17335908973E+04  0.50400001928E-02 0.  1.
       -1   -1    0    0    0  501  0.00000000000E+00  0.00000000000E+00 -0.22943509712E+04  0.22943509712E+04  0.50400001928E-02 0. -1.
    10030    2    1    2    0    0  0.00000000000E+00  0.00000000000E+00 -0.56076007390E+03  0.40279418686E+04  0.39887170665E+04 0.  0.
        1    1    3    3  502    0 -0.17866957550E+04  0.12396259644E+03 -0.11664007121E+04  0.21373205345E+04  0.50400001928E-02 0. -1.
       -1    1    3    3    0  502  0.17866957550E+04 -0.12396259644E+03  0.60564063815E+03  0.18906213341E+04  0.50400001928E-02 0.  1.
</event>
<event>
 5   0  0.4449262E-07  0.3926461E+04  0.7818609E-02  0.8019548E-01
        2   -1    0    0  501    0  0.00000000000E+00  0.00000000000E+00  0.22390505127E+04  0.22390505127E+04  0.25500000920E-02 0. -1.
       -2   -1    0    0    0  501  0.00000000000E+00  0.00000000000E+00 -0.17213880666E+04  0.17213880666E+04  0.25500000920E-02 0.  1.
    10030    2    1    2    0    0  0.00000000000E+00  0.00000000000E+00  0.51766244606E+03  0.39604385793E+04  0.39264614264E+04 0.  0.
        1    1    3    3  502    0  0.13494825560E+04  0.84252748051E+03 -0.90147932151E+03  0.18285569971E+04  0.50400001928E-02 0.  1.
       -1    1    3    3    0  502 -0.13494825560E+04 -0.84252748051E+03  0.14191417676E+04  0.21318815823E+04  0.50400001928E-02 0. -1.
</event>
<event>
 5   0  0.3579559E-07  0.4588097E+04  0.7818609E-02  0.7895393E-01
       -1   -1    0    0    0  501  0.00000000000E+00  0.00000000000E+00  0.32217088067E+04  0.32217088067E+04  0.50400001928E-02 0.  1.
        1   -1    0    0  501    0  0.00000000000E+00  0.00000000000E+00 -0.16334990662E+04  0.16334990662E+04  0.50400001928E-02 0. -1.
    10030    2    1    2    0    0  0.00000000000E+00  0.00000000000E+00  0.15882097405E+04  0.48552078729E+04  0.45880969159E+04 0.  0.
        4    1    3    3  502    0  0.24875277256E+03 -0.11680432581E+04  0.28668229107E+04  0.31056204225E+04  0.12699999809E+01 0.  1.
       -4    1    3    3    0  502 -0.24875277256E+03  0.11680432581E+04 -0.12786131702E+04  0.17495874504E+04  0.12699999809E+01 0. -1.
</event>
<event>
 5   0  0.2713405E-07  0.2896741E+04  0.7818609E-02  0.8273848E-01
       -1   -1    0    0    0  501  0.00000000000E+00  0.00000000000E+00  0.86987197309E+03  0.86987197311E+03  0.50400001928E-02 0.  1.
        1   -1    0    0  501    0  0.00000000000E+00  0.00000000000E+00 -0.24115926201E+04  0.24115926201E+04  0.50400001928E-02 0. -1.
    10030    2    1    2    0    0  0.00000000000E+00  0.00000000000E+00 -0.15417206470E+04  0.32814645932E+04  0.28967408105E+04 0.  0.
        1    1    3    3  502    0  0.10183495032E+04 -0.65628957154E+03  0.12829975599E+03  0.12182826190E+04  0.50400001928E-02 0.  1.
       -1    1    3    3    0  502 -0.10183495032E+04  0.65628957154E+03 -0.16700204030E+04  0.20631819742E+04  0.50400001928E-02 0. -1.
</event>
<event>
 5   0  0.7256473E-07  0.3646697E+04  0.7818609E-02  0.8079878E-01
        2   -1    0    0  501    0  0.00000000000E+00  0.00000000000E+00  0.14507306521E+04  0.14507306521E+04  0.25500000920E-02 0.  1.
       -2   -1    0    0    0  501  0.00000000000E+00  0.00000000000E+00 -0.22916727280E+04  0.22916727280E+04  0.25500000920E-02 0. -1.
    10030    2    1    2    0    0  0.00000000000E+00  0.00000000000E+00 -0.84094207596E+03  0.37424033801E+04  0.36466970650E+04 0.  0.
        4    1    3    3  502    0 -0.39365227395E+03 -0.17802257256E+04 -0.39912832552E+03  0.18664058455E+04  0.12699999809E+01 0.  1.
       -4    1    3    3    0  502  0.39365227395E+03  0.17802257256E+04 -0.44181375044E+03  0.18759975346E+04  0.12699999809E+01 0. -1.
</event>
<event>
 5   0  0.6043512E-07  0.3668797E+04  0.7818609E-02  0.8074912E-01
        2   -1    0    0  501    0  0.00000000000E+00  0.00000000000E+00  0.14392490505E+04  0.14392490505E+04  0.25500000920E-02 0. -1.
       -2   -1    0    0    0  501  0.00000000000E+00  0.00000000000E+00 -0.23380365963E+04  0.23380365963E+04  0.25500000920E-02 0.  1.
    10030    2    1    2    0    0  0.00000000000E+00  0.00000000000E+00 -0.89878754588E+03  0.37772856468E+04  0.36687965063E+04 0.  0.
        3    1    3    3  502    0  0.44534139646E+03 -0.12124015279E+04 -0.17905141436E+04  0.22077561761E+04  0.10100000352E+00 0.  1.
       -3    1    3    3    0  502 -0.44534139646E+03  0.12124015279E+04  0.89172659773E+03  0.15695294707E+04  0.10100000352E+00 0. -1.
</event>
<event>
 5   0  0.2401125E-07  0.3331030E+04  0.7818609E-02  0.8155044E-01
       -1   -1    0    0    0  501  0.00000000000E+00  0.00000000000E+00  0.13991923263E+04  0.13991923263E+04  0.50400001928E-02 0.  1.
        1   -1    0    0  501    0  0.00000000000E+00  0.00000000000E+00 -0.19825301893E+04  0.19825301893E+04  0.50400001928E-02 0. -1.
    10030    2    1    2    0    0  0.00000000000E+00  0.00000000000E+00 -0.58333786302E+03  0.33817225156E+04  0.33310304877E+04 0.  0.
        5    1    3    3  502    0 -0.11277839320E+04 -0.10548522145E+04  0.34177278988E+03  0.15815942974E+04  0.46999998093E+01 0.  1.
       -5    1    3    3    0  502  0.11277839320E+04  0.10548522145E+04 -0.92511065290E+03  0.18001282182E+04  0.46999998093E+01 0. -1.
</event>
<event>
 5   0  0.4449262E-07  0.3562623E+04  0.7818609E-02  0.8099107E-01
       -2   -1    0    0    0  501  0.00000000000E+00  0.00000000000E+00  0.16286611912E+04  0.16286611912E+04  0.25500000920E-02 0.  1.
        2   -1    0    0  501    0  0.00000000000E+00  0.00000000000E+00 -0.19482693661E+04  0.19482693661E+04  0.25500000920E-02 0. -1.
    10030    2    1    2    0    0  0.00000000000E+00  0.00000000000E+00 -0.31960817488E+03  0.35769305572E+04  0.35626230261E+04 0.  0.
        1    1    3    3  502    0  0.13289522393E+04 -0.37843507815E+02  0.10305052808E+04  0.16821079986E+04  0.50400001928E-02 0.  1.
       -1    1    3    3    0  502 -0.13289522393E+04  0.37843507815E+02 -0.13501134557E+04  0.18948225586E+04  0.50400001928E-02 0. -1.
</event>
<event>
 5   0  0.6043512E-07  0.3387009E+04  0.7818609E-02  0.8141102E-01
       -2   -1    0    0    0  501  0.00000000000E+00  0.00000000000E+00  0.11342196188E+04  0.11342196188E+04  0.25500000920E-02 0. -1.
        2   -1    0    0  501    0  0.00000000000E+00  0.00000000000E+00 -0.25285733479E+04  0.25285733479E+04  0.25500000920E-02 0.  1.
    10030    2    1    2    0    0  0.00000000000E+00  0.00000000000E+00 -0.13943537291E+04  0.36627929667E+04  0.33870090042E+04 0.  0.
        3    1    3    3  502    0 -0.15901110187E+04  0.57701172373E+03 -0.60957545945E+03  0.17980483397E+04  0.10100000352E+00 0.  1.
       -3    1    3    3    0  502  0.15901110187E+04 -0.57701172373E+03 -0.78477826966E+03  0.18647446269E+04  0.10100000352E+00 0. -1.
</event>
<event>
 5   0  0.5161550E-07  0.4048133E+04  0.7818609E-02  0.7994906E-01
        2   -1    0    0  501    0  0.00000000000E+00  0.00000000000E+00  0.14809513988E+04  0.14809513988E+04  0.25500000920E-02 0.  1.
       -2   -1    0    0    0  501  0.00000000000E+00  0.00000000000E+00 -0.27663605732E+04  0.27663605732E+04  0.25500000920E-02 0. -1.
    10030    2    1    2    0    0  0.00000000000E+00  0.00000000000E+00 -0.12854091744E+04  0.42473119720E+04  0.40481331799E+04 0.  0.
        2    1    3    3  502    0 -0.12370711890E+04 -0.15432912873E+04 -0.19172752089E+03  0.19871720022E+04  0.25500000920E-02 0. -1.
       -2    1    3    3    0  502  0.12370711890E+04  0.15432912873E+04 -0.10936816535E+04  0.22601399698E+04  0.25500000920E-02 0.  1.
</event>
<event>
 5   0  0.2713405E-07  0.2502540E+04  0.7818609E-02  0.8402081E-01
       -1   -1    0    0    0  501  0.00000000000E+00  0.00000000000E+00  0.12670453553E+04  0.12670453553E+04  0.50400001928E-02 0.  1.
        1   -1    0    0  501    0  0.00000000000E+00  0.00000000000E+00 -0.12356911388E+04  0.12356911388E+04  0.50400001928E-02 0. -1.
    10030    2    1    2    0    0  0.00000000000E+00  0.00000000000E+00  0.31354216466E+02  0.25027364941E+04  0.25025400840E+04 0.  0.
        1    1    3    3  502    0  0.10951743268E+04  0.49514503369E+03  0.36370055177E+03  0.12557282755E+04  0.50400001928E-02 0.  1.
       -1    1    3    3    0  502 -0.10951743268E+04 -0.49514503369E+03 -0.33234633531E+03  0.12470082186E+04  0.50400001928E-02 0. -1.
</event>
<event>
 5   0  0.2713405E-07  0.2804936E+04  0.7818609E-02  0.8301738E-01
        1   -1    0    0  501    0  0.00000000000E+00  0.00000000000E+00  0.10671846736E+04  0.10671846736E+04  0.50400001928E-02 0. -1.
       -1   -1    0    0    0  501  0.00000000000E+00  0.00000000000E+00 -0.18430893859E+04  0.18430893859E+04  0.50400001928E-02 0.  1.
    10030    2    1    2    0    0  0.00000000000E+00  0.00000000000E+00 -0.77590471228E+03  0.29102740594E+04  0.28049361808E+04 0.  0.
        1    1    3    3  502    0  0.56699505877E+03  0.12798869450E+04 -0.29916560038E+03  0.14314656982E+04  0.50400001928E-02 0. -1.
       -1    1    3    3    0  502 -0.56699505877E+03 -0.12798869450E+04 -0.47673911190E+03  0.14788083613E+04  0.50400001928E-02 0.  1.
</event>
<event>
 5   0  0.4449262E-07  0.2339032E+04  0.7818609E-02  0.8462689E-01
        2   -1    0    0  501    0  0.00000000000E+00  0.00000000000E+00  0.16790671213E+04  0.16790671213E+04  0.25500000920E-02 0.  1.
       -2   -1    0    0    0  501  0.00000000000E+00  0.00000000000E+00 -0.81459948394E+03  0.81459948394E+03  0.25500000920E-02 0. -1.
    10030    2    1    2    0    0  0.00000000000E+00  0.00000000000E+00  0.86446763732E+03  0.24936666052E+04  0.23390316034E+04 0.  0.
        1    1    3    3  502    0 -0.72553223316E+03 -0.41361548796E+03  0.13050734411E+04  0.15494164966E+04  0.50400001928E-02 0.  1.
       -1    1    3    3    0  502  0.72553223316E+03  0.41361548796E+03 -0.44060580379E+03  0.94425010860E+03  0.50400001928E-02 0. -1.
</event>
<event>
 5   0  0.7256473E-07  0.3846660E+04  0.7818609E-02  0.8036215E-01
        2   -1    0    0  501    0  0.00000000000E+00  0.00000000000E+00  0.21669356136E+04  0.21669356136E+04  0.25500000920E-02 0.  1.
       -2   -1    0    0    0  501  0.00000000000E+00  0.00000000000E+00 -0.17071100318E+04  0.17071100318E+04  0.25500000920E-02 0. -1.
    10030    2    1    2    0    0  0.00000000000E+00  0.00000000000E+00  0.45982558184E+03  0.38740456454E+04  0.38466596024E+04 0.  0.
        4    1    3    3  502    0 -0.11339185799E+04 -0.14919412885E+04  0.66604987956E+03  0.19887896342E+04  0.12699999809E+01 0.  1.
       -4    1    3    3    0  502  0.11339185799E+04  0.14919412885E+04 -0.20622429772E+03  0.18852560112E+04  0.12699999809E+01 0. -1.
</event>
<event>
 5   0  0.7570277E-07  0.3998423E+04  0.7818609E-02  0.8004865E-01
       -2   -1    0    0    0  501  0.00000000000E+00  0.00000000000E+00  0.25835789552E+04  0.25835789552E+04  0.25500000920E-02 0. -1.
        2   -1    0    0  501    0  0.00000000000E+00  0.00000000000E+00 -0.15470195239E+04  0.15470195239E+04  0.25500000920E-02 0.  1.
    10030    2    1    2    0    0  0.00000000000E+00  0.00000000000E+00  0.10365594313E+04  0.41305984791E+04  0.39984232318E+04 0.  0.
        5    1    3    3  502    0 -0.62607081107E+03 -0.92797305503E+03 -0.11928960274E+04  0.16358855931E+04  0.46999998093E+01 0.  1.
       -5    1    3    3    0  502  0.62607081107E+03  0.92797305503E+03  0.22294554587E+04  0.24947128860E+04  0.46999998093E+01 0. -1.
</event>
<event>
 5   0  0.3579559E-07  0.4084835E+04  0.7818609E-02  0.7987648E-01
       -1   -1    0    0    0  501  0.00000000000E+00  0.00000000000E+00  0.17944517366E+04  0.17944517366E+04  0.50400001928E-02 0.  1.
        1   -1    0    0  501    0  0.00000000000E+00  0.00000000000E+00 -0.23246484998E+04  0.23246484998E+04  0.50400001928E-02 0. -1.
    10030    2    1    2    0    0  0.00000000000E+00  0.00000000000E+00 -0.53019676320E+03  0.41191002365E+04  0.40848351436E+04 0.  0.
        4    1    3    3  502    0  0.16689925965E+04  0.53150834893E+03  0.79415612678E+03  0.19232064316E+04  0.12699999809E+01 0.  1.
       -4    1    3    3    0  502 -0.16689925965E+04 -0.53150834893E+03 -0.13243528900E+04  0.21958938048E+04  0.12699999809E+01 0. -1.
</event>
<event>
 5   0  0.7570277E-07  0.2848240E+04  0.7818609E-02  0.8288446E-01
       -2   -1    0    0    0  501  0.00000000000E+00  0.00000000000E+00  0.87022782729E+03  0.87022782729E+03  0.25500000920E-02 0. -1.
        2   -1    0    0  501    0  0.00000000000E+00  0.00000000000E+00 -0.23305593477E+04  0.23305593477E+04  0.25500000920E-02 0.  1.
    10030    2    1    2    0    0  0.00000000000E+00  0.00000000000E+00 -0.14603315204E+04  0.32007871750E+04  0.28482398758E+04 0.  0.
        5    1    3    3  502    0 -0.87759232647E+03 -0.86777807811E+03  0.68339795696E+02  0.12360823201E+04  0.46999998093E+01 0. -1.
       -5    1    3    3    0  502  0.87759232647E+03  0.86777807811E+03 -0.15286713161E+04  0.19647048549E+04  0.46999998093E+01 0.  1.
</event>
<event>
 5   0  0.2401125E-07  0.3127546E+04  0.7818609E-02  0.8208218E-01
        1   -1    0    0  501    0  0.00000000000E+00  0.00000000000E+00  0.16412989628E+04  0.16412989628E+04  0.50400001928E-02 0. -1.
       -1   -1    0    0    0  501  0.00000000000E+00  0.00000000000E+00 -0.14899092382E+04  0.14899092382E+04  0.50400001928E-02 0.  1.
    10030    2    1    2    0    0  0.00000000000E+00  0.00000000000E+00  0.15138972462E+03  0.31312082010E+04  0.31275463145E+04 0.  0.
        5    1    3    3  502    0 -0.78164621156E+03  0.13429362608E+04  0.25172961676E+03  0.15741151452E+04  0.46999998093E+01 0.  1.
       -5    1    3    3    0  502  0.78164621156E+03 -0.13429362608E+04 -0.10033989214E+03  0.15570930558E+04  0.46999998093E+01 0. -1.
</event>
<event>
 5   0  0.5161550E-07  0.3980359E+04  0.7818609E-02  0.8008521E-01
        2   -1    0    0  501    0  0.00000000000E+00  0.00000000000E+00  0.29350465491E+04  0.29350465491E+04  0.25500000920E-02 0.  1.
       -2   -1    0    0    0  501  0.00000000000E+00  0.00000000000E+00 -0.13494892120E+04  0.13494892120E+04  0.25500000920E-02 0. -1.
    10030    2    1    2    0    0  0.00000000000E+00  0.00000000000E+00  0.15855573370E+04  0.42845357611E+04  0.39803586043E+04 0.  0.
        2    1    3    3  502    0 -0.50714637844E+02 -0.37699267430E+03 -0.13099947594E+04  0.13641047323E+04  0.25500000920E-02 0. -1.
       -2    1    3    3    0  502  0.50714637844E+02  0.37699267430E+03  0.28955520964E+04  0.29204310288E+04  0.25500000920E-02 0.  1.
</event>
<event>
 5   0  0.7256473E-07  0.2886759E+04  0.7818609E-02  0.8276828E-01
        2   -1    0    0  501    0  0.00000000000E+00  0.00000000000E+00  0.20543291908E+04  0.20543291908E+04  0.25500000920E-02 0.  1.
       -2   -1    0    0    0  501  0.00000000000E+00  0.00000000000E+00 -0.10141238710E+04  0.10141238710E+04  0.25500000920E-02 0. -1.
    10030    2    1    2    0    0  0.00000000000E+00  0.00000000000E+00  0.10402053197E+04  0.30684530618E+04  0.28867589240E+04 0.  0.
        4    1    3    3  502    0 -0.12761106161E+04  0.55447515784E+02 -0.19437203501E+03  0.12920196718E+04  0.12699999809E+01 0. -1.
       -4    1    3    3    0  502  0.12761106161E+04 -0.55447515784E+02  0.12345773548E+04  0.17764333900E+04  0.12699999809E+01 0.  1.
</event>
<event>
 5   0  0.6043512E-07  0.3905692E+04  0.7818609E-02  0.8023846E-01
        2   -1    0    0  501    0  0.00000000000E+00  0.00000000000E+00  0.26869357589E+04  0.26869357589E+04  0.25500000920E-02 0. -1.
       -2   -1    0    0    0  501  0.00000000000E+00  0.00000000000E+00 -0.14193149171E+04  0.14193149171E+04  0.25500000920E-02 0.  1.
    10030    2    1    2    0    0  0.00000000000E+00  0.00000000000E+00  0.12676208418E+04  0.41062506759E+04  0.39056922581E+04 0.  0.
        3    1    3    3  502    0  0.70104330674E+03  0.44319510997E+03  0.24925681051E+04  0.26269334579E+04  0.10100000352E+00 0. -1.
       -3    1    3    3    0  502 -0.70104330674E+03 -0.44319510997E+03 -0.12249472633E+04  0.14793172180E+04  0.10100000352E+00 0.  1.
</event>
<event>
 5   0  0.2401125E-07  0.4035026E+04  0.7818609E-02  0.7997518E-01
       -1   -1    0    0    0  501  0.00000000000E+00  0.00000000000E+00  0.16020730635E+04  0.16020730635E+04  0.50400001928E-02 0.  1.
        1   -1    0    0  501    0  0.00000000000E+00  0.00000000000E+00 -0.25406820839E+04  0.25406820839E+04  0.50400001928E-02 0. -1.
    10030    2    1    2    0    0  0.00000000000E+00  0.00000000000E+00 -0.93860902037E+03  0.41427551475E+04  0.40350258139E+04 0.  0.
        5    1    3    3  502    0  0.60505953078E+03  0.14717888946E+04  0.80399900554E+03  0.17828898106E+04  0.46999998093E+01 0.  1.
       -5    1    3    3    0  502 -0.60505953078E+03 -0.14717888946E+04 -0.17426080259E+04  0.23598653368E+04  0.46999998093E+01 0. -1.
</event>
<event>
 5   0  0.2713405E-07  0.3597188E+04  0.7818609E-02  0.8091136E-01
        1   -1    0    0  501    0  0.00000000000E+00  0.00000000000E+00  0.21205890517E+04  0.21205890517E+04  0.50400001928E-02 0. -1.
       -1   -1    0    0    0  501  0.00000000000E+00  0.00000000000E+00 -0.15254913252E+04  0.15254913252E+04  0.50400001928E-02 0.  1.
    10030    2    1    2    0    0  0.00000000000E+00  0.00000000000E+00  0.59509772654E+03  0.36460803769E+04  0.35971879031E+04 0.  0.
        1    1    3    3  502    0 -0.16773617832E+04  0.55597839924E+03  0.63719390737E+03  0.18784756075E+04  0.50400001928E-02 0. -1.
       -1    1    3    3    0  502  0.16773617832E+04 -0.55597839924E+03 -0.42096180822E+02  0.17676047694E+04  0.50400001928E-02 0.  1.
</event>
<event>
 5   0  0.7570277E-07  0.4102092E+04  0.7818609E-02  0.7984262E-01
        2   -1    0    0  501    0  0.00000000000E+00  0.00000000000E+00  0.23375582815E+04  0.23375582815E+04  0.25500000920E-02 0. -1.
       -2   -1    0    0    0  501  0.00000000000E+00  0.00000000000E+00 -0.17996513287E+04  0.17996513287E+04  0.25500000920E-02 0.  1.
    10030    2    1    2    0    0  0.00000000000E+00  0.00000000000E+00  0.53790695284E+03  0.41372096103E+04  0.41020920844E+04 0.  0.
        5    1    3    3  502    0 -0.95589798191E+03 -0.18145402488E+04  0.24707651817E+03  0.20657604320E+04  0.46999998093E+01 0.  1.
       -5    1    3    3    0  502  0.95589798191E+03  0.18145402488E+04  0.29083043467E+03  0.20714491783E+04  0.46999998093E+01 0. -1.
</event>
<event>
 5   0  0.4449262E-07  0.4020294E+04  0.7818609E-02  0.8000465E-01
       -2   -1    0    0    0  501  0.00000000000E+00  0.00000000000E+00  0.28923051160E+04  0.28923051160E+04  0.25500000920E-02 0.  1.
        2   -1    0    0  501    0  0.00000000000E+00  0.00000000000E+00 -0.13970485624E+04  0.13970485625E+04  0.25500000920E-02 0. -1.
    10030    2    1    2    0    0  0.00000000000E+00  0.00000000000E+00  0.14952565535E+04  0.42893536784E+04  0.40202938721E+04 0.  0.
        1    1    3    3  502    0 -0.10326055820E+04 -0.68264589734E+03  0.24374208826E+04  0.27337337595E+04  0.50400001928E-02 0.  1.
       -1    1    3    3    0  502  0.10326055820E+04  0.68264589734E+03 -0.94216432906E+03  0.15556199189E+04  0.50400001928E-02 0. -1.
</event>
<event>
 5   0  0.7570277E-07  0.4079112E+04  0.7818609E-02  0.7988775E-01
       -2   -1    0    0    0  501  0.00000000000E+00  0.00000000000E+00  0.22757522044E+04  0.22757522044E+04  0.25500000920E-02 0.  1.
        2   -1    0    0  501    0  0.00000000000E+00  0.00000000000E+00 -0.18278743702E+04  0.18278743702E+04  0.25500000920E-02 0. -1.
    10030    2    1    2    0    0  0.00000000000E+00  0.00000000000E+00  0.44787783423E+03  0.41036265746E+04  0.40791122207E+04 0.  0.
        5    1    3    3  502    0 -0.17655778200E+04 -0.10190853935E+04  0.28730123705E+03  0.20587287749E+04  0.46999998093E+01 0.  1.
       -5    1    3    3    0  502  0.17655778200E+04  0.10190853935E+04  0.16057659718E+03  0.20448977997E+04  0.46999998093E+01 0. -1.
</event>
<event>
 5   0  0.7256473E-07  0.2042441E+04  0.7818609E-02  0.8587031E-01
        2   -1    0    0  501    0  0.00000000000E+00  0.00000000000E+00  0.91039023732E+03  0.91039023732E+03  0.25500000920E-02 0.  1.
       -2   -1    0    0    0  501  0.00000000000E+00  0.00000000000E+00 -0.11455433746E+04  0.11455433746E+04  0.25500000920E-02 0. -1.
    10030    2    1    2    0    0  0.00000000000E+00  0.00000000000E+00 -0.23515313725E+03  0.20559336119E+04  0.20424411910E+04 0.  0.
        4    1    3    3  502    0 -0.38404596456E+03 -0.34452720781E+02  0.83429789431E+03  0.91909351114E+03  0.12699999809E+01 0.  1.
       -4    1    3    3    0  502  0.38404596456E+03  0.34452720781E+02 -0.10694510316E+04  0.11368401007E+04  0.12699999809E+01 0. -1.
</event>
<event>
 5   0  0.2401125E-07  0.2688122E+04  0.7818609E-02  0.8338869E-01
       -1   -1    0    0    0  501  0.00000000000E+00  0.00000000000E+00  0.68011734689E+03  0.68011734691E+03  0.50400001928E-02 0. -1.
        1   -1    0    0  501    0  0.00000000000E+00  0.00000000000E+00 -0.26561595438E+04  0.26561595438E+04  0.50400001928E-02 0.  1.
    10030    2    1    2    0    0  0.00000000000E+00  0.00000000000E+00 -0.19760421969E+04  0.33362768907E+04  0.26881221564E+04 0.  0.
        5    1    3    3  502    0  0.95191026645E+03 -0.71282665993E+03 -0.17653049854E+04  0.21285156292E+04  0.46999998093E+01 0.  1.
       -5    1    3    3    0  502 -0.95191026645E+03  0.71282665993E+03 -0.21073721156E+03  0.12077612615E+04  0.46999998093E+01 0. -1.
</event>
<event>
 5   0  0.5161550E-07  0.3808404E+04  0.7818609E-02  0.8044354E-01
        2   -1    0    0  501    0  0.00000000000E+00  0.00000000000E+00  0.26071222547E+04  0.26071222547E+04  0.25500000920E-02 0.  1.
       -2   -1    0    0    0  501  0.00000000000E+00  0.00000000000E+00 -0.13907996428E+04  0.13907996428E+04  0.25500000920E-02 0. -1.
    10030    2    1    2    0    0  0.00000000000E+00  0.00000000000E+00  0.12163226119E+04  0.39979218975E+04  0.38084037079E+04 0.  0.
        2    1    3    3  502    0  0.15871163130E+03  0.24187208375E+03 -0.13675959239E+04  0.13978591123E+04  0.25500000920E-02 0. -1.
       -2    1    3    3    0  502 -0.15871163130E+03 -0.24187208375E+03  0.25839185358E+04  0.26000627851E+04  0.25500000920E-02 0.  1.
</event>
<event>
 5   0  0.2647879E-07  0.2584910E+04  0.7818609E-02  0.8373345E-01
       -1   -1    0    0    0  501  0.00000000000E+00  0.00000000000E+00  0.13419029905E+04  0.13419029905E+04  0.50400001928E-02 0. -1.
        1   -1    0    0  501    0  0.00000000000E+00  0.00000000000E+00 -0.12448291570E+04  0.12448291570E+04  0.50400001928E-02 0.  1.
    10030    2    1    2    0    0  0.00000000000E+00  0.00000000000E+00  0.97073833456E+02  0.25867321476E+04  0.25849100321E+04 0.  0.
        2    1    3    3  502    0  0.12823486347E+04 -0.95030376964E+02 -0.81905169416E+02  0.12884708961E+04  0.25500000920E-02 0.  1.
       -2    1    3    3    0  502 -0.12823486347E+04  0.95030376964E+02  0.17897900287E+03  0.12982612514E+04  0.25500000920E-02 0. -1.
</event>
<event>
 5   0  0.5161550E-07  0.2346599E+04  0.7818609E-02  0.8459771E-01
       -2   -1    0    0    0  501  0.00000000000E+00  0.00000000000E+00  0.12853609762E+04  0.12853609762E+04  0.25500000920E-02 0. -1.
        2   -1    0    0  501    0  0.00000000000E+00  0.00000000000E+00 -0.10710077634E+04  0.10710077634E+04  0.25500000920E-02 0.  1.
    10030    2    1    2    0    0  0.00000000000E+00  0.00000000000E+00  0.21435321276E+03  0.23563687396E+04  0.23465988871E+04 0.  0.
        2    1    3    3  502    0  0.84091761398E+03  0.65189157578E+03 -0.38937841671E+03  0.11330139503E+04  0.25500000920E-02 0.  1.
       -2    1    3    3    0  502 -0.84091761398E+03 -0.65189157578E+03  0.60373162947E+03  0.12233547893E+04  0.25500000920E-02 0. -1.
</event>
<event>
 5   0  0.2713405E-07  0.4109155E+04  0.7818609E-02  0.7982881E-01
       -1   -1    0    0    0  501  0.00000000000E+00  0.00000000000E+00  0.13434650477E+04  0.13434650477E+04  0.50400001928E-02 0. -1.
        1   -1    0    0  501    0  0.00000000000E+00  0.00000000000E+00 -0.31420910068E+04  0.31420910068E+04  0.50400001928E-02 0.  1.
    10030    2    1    2    0    0  0.00000000000E+00  0.00000000000E+00 -0.17986259591E+04  0.44855560545E+04  0.41091553606E+04 0.  0.
        1    1    3    3  502    0 -0.54132947716E+03  0.34719338256E+03 -0.30293913331E+04  0.30969004984E+04  0.50400001928E-02 0.  1.
       -1    1    3    3    0  502  0.54132947716E+03 -0.34719338256E+03  0.12307653740E+04  0.13886555561E+04  0.50400001928E-02 0. -1.
</event>
<event>
 5   0  0.6043512E-07  0.2800063E+04  0.7818609E-02  0.8303249E-01
        2   -1    0    0  501    0  0.00000000000E+00  0.00000000000E+00  0.16350474053E+04  0.16350474053E+04  0.25500000920E-02 0.  1.
       -2   -1    0    0    0  501  0.00000000000E+00  0.00000000000E+00 -0.11987957058E+04  0.11987957058E+04  0.25500000920E-02 0. -1.
    10030    2    1    2    0    0  0.00000000000E+00  0.00000000000E+00  0.43625169950E+03  0.28338431112E+04  0.28000627196E+04 0.  0.
        3    1    3    3  502    0 -0.22809063680E+03 -0.93223467351E+03 -0.81348528414E+03  0.12581117370E+04  0.10100000352E+00 0. -1.
       -3    1    3    3    0  502  0.22809063680E+03  0.93223467351E+03  0.12497369836E+04  0.15757313742E+04  0.10100000352E+00 0.  1.
</event>
<event>
 5   0  0.6043512E-07  0.4014261E+04  0.7818609E-02  0.8001676E-01
       -2   -1    0    0    0  501  0.00000000000E+00  0.00000000000E+00  0.20044193959E+04  0.20044193959E+04  0.25500000920E-02 0. -1.
        2   -1    0    0  501    0  0.00000000000E+00  0.00000000000E+00 -0.20098457418E+04  0.20098457418E+04  0.25500000920E-02 0.  1.
    10030    2    1    2    0    0  0.00000000000E+00  0.00000000000E+00 -0.54263459254E+01  0.40142651377E+04  0.40142614701E+04 0.  0.
        3    1    3    3  502    0 -0.10695522464E+04  0.12902009680E+04 -0.11072562735E+04  0.20086256523E+04  0.10100000352E+00 0.  1.
       -3    1    3    3    0  502  0.10695522464E+04 -0.12902009680E+04  0.11018299276E+04  0.20056394854E+04  0.10100000352E+00 0. -1.
</event>
<event>
 5   0  0.4449262E-07  0.2281739E+04  0.7818609E-02  0.8485156E-01
       -2   -1    0    0    0  501  0.00000000000E+00  0.00000000000E+00  0.93577763075E+03  0.93577763075E+03  0.25500000920E-02 0. -1.
        2   -1    0    0  501    0  0.00000000000E+00  0.00000000000E+00 -0.13909110020E+04  0.13909110020E+04  0.25500000920E-02 0.  1.
    10030    2    1    2    0    0  0.00000000000E+00  0.00000000000E+00 -0.45513337120E+03  0.23266886327E+04  0.22817391630E+04 0.  0.
        1    1    3    3  502    0  0.79816016081E+03  0.57668095597E+03  0.35994566908E+03  0.10484185481E+04  0.50400001928E-02 0. -1.
       -1    1    3    3    0  502 -0.79816016081E+03 -0.57668095597E+03 -0.81507904028E+03  0.12782700846E+04  0.50400001928E-02 0.  1.
</event>
<event>
 5   0  0.7570277E-07  0.3225729E+04  0.7818609E-02  0.8182055E-01
        2   -1    0    0  501    0  0.00000000000E+00  0.00000000000E+00  0.11932035335E+04  0.11932035335E+04  0.25500000920E-02 0.  1.
       -2   -1    0    0    0  501  0.00000000000E+00  0.00000000000E+00 -0.21801240722E+04  0.21801240722E+04  0.25500000920E-02 0. -1.
    10030    2    1    2    0    0  0.00000000000E+00  0.00000000000E+00 -0.98692053873E+03  0.33733276057E+04  0.32257289076E+04 0.  0.
        5    1    3    3  502    0  0.18174619958E+03  0.61482571835E+03  0.10542127621E+04  0.12338674900E+04  0.46999998093E+01 0.  1.
       -5    1    3    3    0  502 -0.18174619958E+03 -0.61482571835E+03 -0.20411333008E+04  0.21394601157E+04  0.46999998093E+01 0. -1.
</event>
<event>
 5   0  0.2713405E-07  0.2066664E+04  0.7818609E-02  0.8576072E-01
        1   -1    0    0  501    0  0.00000000000E+00  0.00000000000E+00  0.93823855350E+03  0.93823855351E+03  0.50400001928E-02 0.  1.
       -1   -1    0    0    0  501  0.00000000000E+00  0.00000000000E+00 -0.11380631442E+04  0.11380631442E+04  0.50400001928E-02 0. -1.
    10030    2    1    2    0    0  0.00000000000E+00  0.00000000000E+00 -0.19982459069E+03  0.20763016977E+04  0.20666637058E+04 0.  0.
        1    1    3    3  502    0 -0.18881527028E+03  0.68947814762E+03  0.64971981904E+03  0.96600577929E+03  0.50400001928E-02 0.  1.
       -1    1    3    3    0  502  0.18881527028E+03 -0.68947814762E+03 -0.84954440973E+03  0.11102959184E+04  0.50400001928E-02 0. -1.
</event>
<event>
 5   0  0.2713405E-07  0.3282094E+04  0.7818609E-02  0.8167467E-01
       -1   -1    0    0    0  501  0.00000000000E+00  0.00000000000E+00  0.18491204584E+04  0.18491204584E+04  0.50400001928E-02 0.  1.
        1   -1    0    0  501    0  0.00000000000E+00  0.00000000000E+00 -0.14563868143E+04  0.14563868144E+04  0.50400001928E-02 0. -1.
    10030    2    1    2    0    0  0.00000000000E+00  0.00000000000E+00  0.39273364404E+03  0.33055072728E+04  0.32820936329E+04 0.  0.
        1    1    3    3  502    0  0.10992243304E+04 -0.98260004359E+00 -0.10308245422E+04  0.15069486822E+04  0.50400001928E-02 0. -1.
       -1    1    3    3    0  502 -0.10992243304E+04  0.98260004359E+00  0.14235581862E+04  0.17985585905E+04  0.50400001928E-02 0.  1.
</event>
<event>
 5   0  0.7256473E-07  0.3999949E+04  0.7818609E-02  0.8004557E-01
       -2   -1    0    0    0  501  0.00000000000E+00  0.00000000000E+00  0.22550332198E+04  0.22550332198E+04  0.25500000920E-02 0. -1.
        2   -1    0    0  501    0  0.00000000000E+00  0.00000000000E+00 -0.17737648340E+04  0.17737648341E+04  0.25500000920E-02 0.  1.
    10030    2    1    2    0    0  0.00000000000E+00  0.00000000000E+00  0.48126838574E+03  0.40287980538E+04  0.39999493121E+04 0.  0.
        4    1    3    3  502    0 -0.50936912074E+03  0.83111710333E+03  0.19995638230E+04  0.22245155958E+04  0.12699999809E+01 0. -1.
       -4    1    3    3    0  502  0.50936912074E+03 -0.83111710333E+03 -0.15182954373E+04  0.18042824581E+04  0.12699999809E+01 0.  1.
</event>
<event>
 5   0  0.2601252E-07  0.2129988E+04  0.7818609E-02  0.8548147E-01
       -1   -1    0    0    0  501  0.00000000000E+00  0.00000000000E+00  0.53337588624E+03  0.53337588627E+03  0.50400001928E-02 0. -1.
        1   -1    0    0  501    0  0.00000000000E+00  0.00000000000E+00 -0.21264786688E+04  0.21264786688E+04  0.50400001928E-02 0.  1.
    10030    2    1    2    0    0  0.00000000000E+00  0.00000000000E+00 -0.15931027825E+04  0.26598545550E+04  0.21299882108E+04 0.  0.
        3    1    3    3  502    0 -0.77748092490E+03 -0.71280960377E+02  0.10796729674E+03  0.78817162552E+03  0.10100000352E+00 0. -1.
       -3    1    3    3    0  502  0.77748092490E+03  0.71280960377E+02 -0.17010700793E+04  0.18716829295E+04  0.10100000352E+00 0.  1.
</event>
<event>
 5   0  0.2647879E-07  0.3789588E+04  0.7818609E-02  0.8048393E-01
       -1   -1    0    0    0  501  0.00000000000E+00  0.00000000000E+00  0.18478218318E+04  0.18478218318E+04  0.50400001928E-02 0.  1.
        1   -1    0    0  501    0  0.00000000000E+00  0.00000000000E+00 -0.19429597371E+04  0.19429597371E+04  0.50400001928E-02 0. -1.
    10030    2    1    2    0    0  0.00000000000E+00  0.00000000000E+00 -0.95137905293E+02  0.37907815689E+04  0.37895875345E+04 0.  0.
        2    1    3    3  502    0  0.11910347650E+04 -0.92087105733E+02  0.14236764257E+04  0.18584666829E+04  0.25500000920E-02 0.  1.
       -2    1    3    3    0  502 -0.11910347650E+04  0.92087105733E+02 -0.15188143310E+04  0.19323148859E+04  0.25500000920E-02 0. -1.
</event>
<event>
 5   0  0.7570277E-07  0.2275154E+04  0.7818609E-02  0.8487782E-01
       -2   -1    0    0    0  501  0.00000000000E+00  0.00000000000E+00  0.10066607011E+04  0.10066607011E+04  0.25500000920E-02 0. -1.
        2   -1    0    0  501    0  0.00000000000E+00  0.00000000000E+00 -0.12855189831E+04  0.12855189832E+04  0.25500000920E-02 0.  1.
    10030    2    1    2    0    0  0.00000000000E+00  0.00000000000E+00 -0.27885828205E+03  0.22921796842E+04  0.22751540087E+04 0.  0.
        5    1    3    3  502    0  0.39461606705E+03  0.10665967357E+04 -0.11260445621E+03  0.11428264481E+04  0.46999998093E+01 0.  1.
       -5    1    3    3    0  502 -0.39461606705E+03 -0.10665967357E+04 -0.16625382584E+03  0.11493532362E+04  0.46999998093E+01 0. -1.
</event>
<event>
 5   0  0.4449262E-07  0.3463774E+04  0.7818609E-02  0.8122429E-01
        2   -1    0    0  501    0  0.00000000000E+00  0.00000000000E+00  0.21354536742E+04  0.21354536742E+04  0.25500000920E-02 0. -1.
       -2   -1    0    0    0  501  0.00000000000E+00  0.00000000000E+00 -0.14045877119E+04  0.14045877119E+04  0.25500000920E-02 0.  1.
    10030    2    1    2    0    0  0.00000000000E+00  0.00000000000E+00  0.73086596230E+03  0.35400413861E+04  0.34637736590E+04 0.  0.
        1    1    3    3  502    0 -0.94137394263E+03 -0.13608927128E+04 -0.15691567205E+03  0.16621782106E+04  0.50400001928E-02 0.  1.
       -1    1    3    3    0  502  0.94137394263E+03  0.13608927128E+04  0.88778163434E+03  0.18778631755E+04  0.50400001928E-02 0. -1.
</event>
<event>
 5   0  0.5161550E-07  0.2141633E+04  0.7818609E-02  0.8543122E-01
        2   -1    0    0  501    0  0.00000000000E+00  0.00000000000E+00  0.66629719248E+03  0.66629719249E+03  0.25500000920E-02 0. -1.
       -2   -1    0    0    0  501  0.00000000000E+00  0.00000000000E+00 -0.17209261952E+04  0.17209261952E+04  0.25500000920E-02 0.  1.
    10030    2    1    2    0    0  0.00000000000E+00  0.00000000000E+00 -0.10546290028E+04  0.23872233877E+04  0.21416332948E+04 0.  0.
        2    1    3    3  502    0  0.18900610348E+03 -0.15482295690E+03 -0.16894417932E+04  0.17070169969E+04  0.25500000920E-02 0.  1.
       -2    1    3    3    0  502 -0.18900610348E+03  0.15482295690E+03  0.63481279046E+03  0.68020639079E+03  0.25500000920E-02 0. -1.
</event>
<event>
 5   0  0.4449262E-07  0.4198501E+04  0.7818609E-02  0.7965657E-01
        2   -1    0    0  501    0  0.00000000000E+00  0.00000000000E+00  0.20809882966E+04  0.20809882966E+04  0.25500000920E-02 0. -1.
       -2   -1    0    0    0  501  0.00000000000E+00  0.00000000000E+00 -0.21176729664E+04  0.21176729664E+04  0.25500000920E-02 0.  1.
    10030    2    1    2    0    0  0.00000000000E+00  0.00000000000E+00 -0.36684669837E+02  0.41986612630E+04  0.41985009987E+04 0.  0.
        1    1    3    3  502    0 -0.60358621016E+03 -0.14348963375E+04  0.13901179184E+04  0.20870245901E+04  0.50400001928E-02 0. -1.
       -1    1    3    3    0  502  0.60358621016E+03  0.14348963375E+04 -0.14268025882E+04  0.21116366729E+04  0.50400001928E-02 0.  1.
</event>
<event>
 5   0  0.4449262E-07  0.3923737E+04  0.7818609E-02  0.8020110E-01
       -2   -1    0    0    0  501  0.00000000000E+00  0.00000000000E+00  0.14405232895E+04  0.14405232895E+04  0.25500000920E-02 0. -1.
        2   -1    0    0  501    0  0.00000000000E+00  0.00000000000E+00 -0.26718951043E+04  0.26718951043E+04  0.25500000920E-02 0.  1.
    10030    2    1    2    0    0  0.00000000000E+00  0.00000000000E+00 -0.12313718148E+04  0.41124183938E+04  0.39237365482E+04 0.  0.
        1    1    3    3  502    0  0.65680140774E+02 -0.89742704505E+03 -0.24428594767E+04  0.26033155024E+04  0.50400001928E-02 0.  1.
       -1    1    3    3    0  502 -0.65680140774E+02  0.89742704505E+03  0.12114876619E+04  0.15091028915E+04  0.50400001928E-02 0. -1.
</event>
<event>
 5   0  0.2601252E-07  0.2147142E+04  0.7818609E-02  0.8540757E-01
        1   -1    0    0  501    0  0.00000000000E+00  0.00000000000E+00  0.13769053597E+04  0.13769053597E+04  0.50400001928E-02 0. -1.
       -1   -1    0    0    0  501  0.00000000000E+00  0.00000000000E+00 -0.83706155958E+03  0.83706155959E+03  0.50400001928E-02 0.  1.
    10030    2    1    2    0    0  0.00000000000E+00  0.00000000000E+00  0.53984380012E+03  0.22139669193E+04  0.21471418656E+04 0.  0.
        3    1    3    3  502    0  0.31666745141E+03  0.74903248217E+03  0.99261070452E+03  0.12832006683E+04  0.10100000352E+00 0. -1.
       -3    1    3    3    0  502 -0.31666745141E+03 -0.74903248217E+03 -0.45276690440E+03  0.93076625103E+03  0.10100000352E+00 0.  1.
</event>
<event>
 5   0  0.2647879E-07  0.3971431E+04  0.7818609E-02  0.8010335E-01
        1   -1    0    0  501    0  0.00000000000E+00  0.00000000000E+00  0.16022001448E+04  0.16022001448E+04  0.50400001928E-02 0. -1.
       -1   -1    0    0    0  501  0.00000000000E+00  0.00000000000E+00 -0.24610323046E+04  0.24610323046E+04  0.50400001928E-02 0.  1.
    10030    2    1    2    0    0  0.00000000000E+00  0.00000000000E+00 -0.85883215977E+03  0.40632324494E+04  0.39714311349E+04 0.  0.
        2    1    3    3  502    0  0.56221447547E+03 -0.18732352658E+04 -0.78082433770E+03  0.21058922394E+04  0.25500000920E-02 0.  1.
       -2    1    3    3    0  502 -0.56221447547E+03  0.18732352658E+04 -0.78007822071E+02  0.19573402100E+04  0.25500000920E-02 0. -1.
</event>
<event>
 5   0  0.2401125E-07  0.4033449E+04  0.7818609E-02  0.7997833E-01
       -3   -1    0    0    0  501  0.00000000000E+00  0.00000000000E+00  0.15352383776E+04  0.15352383809E+04  0.10100000352E+00 0.  1.
        3   -1    0    0  501    0  0.00000000000E+00  0.00000000000E+00 -0.26492163836E+04  0.26492163856E+04  0.10100000352E+00 0. -1.
    10030    2    1    2    0    0  0.00000000000E+00  0.00000000000E+00 -0.11139780061E+04  0.41844547665E+04  0.40334494784E+04 0.  0.
        2    1    3    3  502    0 -0.21668897726E+03  0.12618913060E+04 -0.21734812249E+04  0.25225670290E+04  0.25500000920E-02 0. -1.
       -2    1    3    3    0  502  0.21668897726E+03 -0.12618913060E+04  0.10595032188E+04  0.16618877374E+04  0.25500000920E-02 0.  1.
</event>
<event>
 5   0  0.2601252E-07  0.3949157E+04  0.7818609E-02  0.8014882E-01
       -1   -1    0    0    0  501  0.00000000000E+00  0.00000000000E+00  0.26461135043E+04  0.26461135043E+04  0.50400001928E-02 0.  1.
        1   -1    0    0  501    0  0.00000000000E+00  0.00000000000E+00 -0.14734668542E+04  0.14734668542E+04  0.50400001928E-02 0. -1.
    10030    2    1    2    0    0  0.00000000000E+00  0.00000000000E+00  0.11726466501E+04  0.41195803584E+04  0.39491571460E+04 0.  0.
        3    1    3    3  502    0  0.12247901967E+03  0.17574270632E+04 -0.34402153037E+03  0.17949656866E+04  0.10100000352E+00 0. -1.
       -3    1    3    3    0  502 -0.12247901967E+03 -0.17574270632E+04  0.15166681805E+04  0.23246146718E+04  0.10100000352E+00 0.  1.
</event>
<event>
 5   0  0.2713405E-07  0.3415879E+04  0.7818609E-02  0.8134020E-01
        1   -1    0    0  501    0  0.00000000000E+00  0.00000000000E+00  0.25303135569E+04  0.25303135569E+04  0.50400001928E-02 0.  1.
       -1   -1    0    0    0  501  0.00000000000E+00  0.00000000000E+00 -0.11528440479E+04  0.11528440479E+04  0.50400001928E-02 0. -1.
    10030    2    1    2    0    0  0.00000000000E+00  0.00000000000E+00  0.13774695090E+04  0.36831576048E+04  0.34158787586E+04 0.  0.
        1    1    3    3  502    0  0.13188008777E+03  0.15211360926E+04  0.15140047969E+04  0.21502227547E+04  0.50400001928E-02 0.  1.
       -1    1    3    3    0  502 -0.13188008777E+03 -0.15211360926E+04 -0.13653528790E+03  0.15329348501E+04  0.50400001928E-02 0. -1.
</event>
<event>
 5   0  0.5161550E-07  0.2873873E+04  0.7818609E-02  0.8280694E-01
        2   -1    0    0  501    0  0.00000000000E+00  0.00000000000E+00  0.10490499203E+04  0.10490499203E+04  0.25500000920E-02 0. -1.
       -2   -1    0    0    0  501  0.00000000000E+00  0.00000000000E+00 -0.19682442604E+04  0.19682442604E+04  0.25500000920E-02 0.  1.
    10030    2    1    2    0    0  0.00000000000E+00  0.00000000000E+00 -0.91919434015E+03  0.30172941807E+04  0.28738729857E+04 0.  0.
        2    1    3    3  502    0  0.10325956179E+03 -0.98068536433E+03 -0.15569265009E+04  0.18429396219E+04  0.25500000920E-02 0.  1.
       -2    1    3    3    0  502 -0.10325956179E+03  0.98068536433E+03  0.63773216073E+03  0.11743545588E+04  0.25500000920E-02 0. -1.
</event>
<event>
 5   0  0.4449262E-07  0.2325404E+04  0.7818609E-02  0.8467971E-01
        2   -1    0    0  501    0  0.00000000000E+00  0.00000000000E+00  0.12354196216E+04  0.12354196217E+04  0.25500000920E-02 0.  1.
       -2   -1    0    0    0  501  0.00000000000E+00  0.00000000000E+00 -0.10942648776E+04  0.10942648776E+04  0.25500000920E-02 0. -1.
    10030    2    1    2    0    0  0.00000000000E+00  0.00000000000E+00  0.14115474403E+03  0.23296844993E+04  0.23254043099E+04 0.  0.
        1    1    3    3  502    0 -0.81733873047E+02 -0.10954389466E+04 -0.31118751933E+03  0.11417112525E+04  0.50400001928E-02 0. -1.
       -1    1    3    3    0  502  0.81733873047E+02  0.10954389466E+04  0.45234226336E+03  0.11879732468E+04  0.50400001928E-02 0.  1.
</event>
<event>
 5   0  0.5161550E-07  0.3917737E+04  0.7818609E-02  0.8021350E-01
        2   -1    0    0  501    0  0.00000000000E+00  0.00000000000E+00  0.14205391553E+04  0.14205391553E+04  0.25500000920E-02 0. -1.
       -2   -1    0    0    0  501  0.00000000000E+00  0.00000000000E+00 -0.27012035003E+04  0.27012035003E+04  0.25500000920E-02 0.  1.
    10030    2    1    2    0    0  0.00000000000E+00  0.00000000000E+00 -0.12806643450E+04  0.41217426556E+04  0.39177367643E+04 0.  0.
        2    1    3    3  502    0  0.82126408456E+03 -0.69540374159E+03 -0.23623610483E+04  0.25959219524E+04  0.25500000920E-02 0.  1.
       -2    1    3    3    0  502 -0.82126408456E+03  0.69540374159E+03  0.10816967033E+04  0.15258207032E+04  0.25500000920E-02 0. -1.
</event>
<event>
 5   0  0.2713405E-07  0.2397809E+04  0.7818609E-02  0.8440324E-01
        1   -1    0    0  501    0  0.00000000000E+00  0.00000000000E+00  0.76878375642E+03  0.76878375644E+03  0.50400001928E-02 0. -1.
       -1   -1    0    0    0  501  0.00000000000E+00  0.00000000000E+00 -0.18696697881E+04  0.18696697881E+04  0.50400001928E-02 0.  1.
    10030    2    1    2    0    0  0.00000000000E+00  0.00000000000E+00 -0.11008860317E+04  0.26384535445E+04  0.23978088022E+04 0.  0.
        1    1    3    3  502    0 -0.12320140726E+03 -0.31310481186E+03 -0.18166505602E+04  0.18475476903E+04  0.50400001928E-02 0.  1.
       -1    1    3    3    0  502  0.12320140726E+03  0.31310481186E+03  0.71576452853E+03  0.79090585425E+03  0.50400001928E-02 0. -1.
</event>
<event>
 5   0  0.4449262E-07  0.3911570E+04  0.7818609E-02  0.8022627E-01
        2   -1    0    0  501    0  0.00000000000E+00  0.00000000000E+00  0.21700384789E+04  0.21700384789E+04  0.25500000920E-02 0.  1.
       -2   -1    0    0    0  501  0.00000000000E+00  0.00000000000E+00 -0.17626856538E+04  0.17626856538E+04  0.25500000920E-02 0. -1.
    10030    2    1    2    0    0  0.00000000000E+00  0.00000000000E+00  0.40735282510E+03  0.39327241328E+04  0.39115703727E+04 0.  0.
        1    1    3    3  502    0  0.37388857700E+03  0.49642579982E+03 -0.16607698224E+04  0.17732421283E+04  0.50400001928E-02 0. -1.
       -1    1    3    3    0  502 -0.37388857700E+03 -0.49642579982E+03  0.20681226475E+04  0.21594820045E+04  0.50400001928E-02 0.  1.
</event>
<event>
 5   0  0.6043512E-07  0.2217097E+04  0.7818609E-02  0.8511345E-01
       -2   -1    0    0    0  501  0.00000000000E+00  0.00000000000E+00  0.74582205591E+03  0.74582205591E+03  0.25500000920E-02 0.  1.
        2   -1    0    0  501    0  0.00000000000E+00  0.00000000000E+00 -0.16476854492E+04  0.16476854492E+04  0.25500000920E-02 0. -1.
    10030    2    1    2    0    0  0.00000000000E+00  0.00000000000E+00 -0.90186339334E+03  0.23935075052E+04  0.22170973359E+04 0.  0.
        3    1    3    3  502    0 -0.75167873717E+03 -0.33184582869E+03 -0.12542765677E+04  0.14994506649E+04  0.10100000352E+00 0. -1.
       -3    1    3    3    0  502  0.75167873717E+03  0.33184582869E+03  0.35241317438E+03  0.89405684026E+03  0.10100000352E+00 0.  1.
</event>
<event>
 5   0  0.7256473E-07  0.3981889E+04  0.7818609E-02  0.8008210E-01
        2   -1    0    0  501    0  0.00000000000E+00  0.00000000000E+00  0.22156163376E+04  0.22156163376E+04  0.25500000920E-02 0.  1.
       -2   -1    0    0    0  501  0.00000000000E+00  0.00000000000E+00 -0.17890556493E+04  0.17890556493E+04  0.25500000920E-02 0. -1.
    10030    2    1    2    0    0  0.00000000000E+00  0.00000000000E+00  0.42656068830E+03  0.40046719870E+04  0.39818894639E+04 0.  0.
        4    1    3    3  502    0 -0.36915028040E+03  0.17197130301E+04  0.11514490028E+04  0.21022657431E+04  0.12699999809E+01 0.  1.
       -4    1    3    3    0  502  0.36915028040E+03 -0.17197130301E+04 -0.72488831449E+03  0.19024062439E+04  0.12699999809E+01 0. -1.
</event>
<event>
 5   0  0.2713405E-07  0.2143384E+04  0.7818609E-02  0.8542370E-01
        1   -1    0    0  501    0  0.00000000000E+00  0.00000000000E+00  0.94407598665E+03  0.94407598667E+03  0.50400001928E-02 0.  1.
       -1   -1    0    0    0  501  0.00000000000E+00  0.00000000000E+00 -0.12165580839E+04  0.12165580839E+04  0.50400001928E-02 0. -1.
    10030    2    1    2    0    0  0.00000000000E+00  0.00000000000E+00 -0.27248209725E+03  0.21606340706E+04  0.21433835619E+04 0.  0.
        1    1    3    3  502    0  0.96063700983E+03  0.35948463336E+03 -0.44933799371E+03  0.11198023481E+04  0.50400001928E-02 0. -1.
       -1    1    3    3    0  502 -0.96063700983E+03 -0.35948463336E+03  0.17685589646E+03  0.10408317224E+04  0.50400001928E-02 0.  1.
</event>
<event>
 5   0  0.2647879E-07  0.3788313E+04  0.7818609E-02  0.8048668E-01
        1   -1    0    0  501    0  0.00000000000E+00  0.00000000000E+00  0.18354249132E+04  0.18354249132E+04  0.50400001928E-02 0.  1.
       -1   -1    0    0    0  501  0.00000000000E+00  0.00000000000E+00 -0.19547674450E+04  0.19547674450E+04  0.50400001928E-02 0. -1.
    10030    2    1    2    0    0  0.00000000000E+00  0.00000000000E+00 -0.11934253182E+03  0.37901923582E+04  0.37883130114E+04 0.  0.
        2    1    3    3  502    0 -0.57543522402E+03  0.46345173935E+03  0.16853028133E+04  0.18401518372E+04  0.25500000920E-02 0.  1.
       -2    1    3    3    0  502  0.57543522402E+03 -0.46345173935E+03 -0.18046453451E+04  0.19500405209E+04  0.25500000920E-02 0. -1.
</event>
<event>
 5   0  0.2401125E-07  0.3704875E+04  0.7818609E-02  0.8066882E-01
       -3   -1    0    0    0  501  0.00000000000E+00  0.00000000000E+00  0.16946735292E+04  0.16946735322E+04  0.10100000352E+00 0.  1.
        3   -1    0    0  501    0  0.00000000000E+00  0.00000000000E+00 -0.20248882402E+04  0.20248882428E+04  0.10100000352E+00 0. -1.
    10030    2    1    2    0    0  0.00000000000E+00  0.00000000000E+00 -0.33021471100E+03  0.37195617750E+04  0.37048749024E+04 0.  0.
        1    1    3    3  502    0  0.11256526438E+04  0.50217555866E+03 -0.15534306207E+04  0.19830332472E+04  0.50400001928E-02 0. -1.
       -1    1    3    3    0  502 -0.11256526438E+04 -0.50217555866E+03  0.12232159097E+04  0.17365285278E+04  0.50400001928E-02 0.  1.
</event>
<event>
 5   0  0.2601252E-07  0.2087481E+04  0.7818609E-02  0.8566778E-01
        1   -1    0    0  501    0  0.00000000000E+00  0.00000000000E+00  0.96569668144E+03  0.96569668146E+03  0.50400001928E-02 0.  1.
       -1   -1    0    0    0  501  0.00000000000E+00  0.00000000000E+00 -0.11280919036E+04  0.11280919036E+04  0.50400001928E-02 0. -1.
    10030    2    1    2    0    0  0.00000000000E+00  0.00000000000E+00 -0.16239522219E+03  0.20937885851E+04  0.20874813606E+04 0.  0.
        3    1    3    3  502    0 -0.40328843268E+03  0.95093276199E+03 -0.23158367749E+03  0.10585583062E+04  0.10100000352E+00 0. -1.
       -3    1    3    3    0  502  0.40328843268E+03 -0.95093276199E+03  0.69188455303E+02  0.10352302789E+04  0.10100000352E+00 0.  1.
</event>
<event>
 5   0  0.7256473E-07  0.2134083E+04  0.7818609E-02  0.8546376E-01
        2   -1    0    0  501    0  0.00000000000E+00  0.00000000000E+00  0.12378782916E+04  0.12378782916E+04  0.25500000920E-02 0.  1.
       -2   -1    0    0    0  501  0.00000000000E+00  0.00000000000E+00 -0.91978167488E+03  0.91978167488E+03  0.25500000920E-02 0. -1.
    10030    2    1    2    0    0  0.00000000000E+00  0.00000000000E+00  0.31809661670E+03  0.21576599665E+04  0.21340831927E+04 0.  0.
        4    1    3    3  502    0 -0.61810947636E+03  0.86273084915E+03  0.47318098570E+02  0.10623579708E+04  0.12699999809E+01 0. -1.
       -4    1    3    3    0  502  0.61810947636E+03 -0.86273084915E+03  0.27077851813E+03  0.10953019956E+04  0.12699999809E+01 0.  1.
</event>
<event>
 5   0  0.6043512E-07  0.2938180E+04  0.7818609E-02  0.8261608E-01
        2   -1    0    0  501    0  0.00000000000E+00  0.00000000000E+00  0.14134787912E+04  0.14134787912E+04  0.25500000920E-02 0.  1.
       -2   -1    0    0    0  501  0.00000000000E+00  0.00000000000E+00 -0.15268894497E+04  0.15268894497E+04  0.25500000920E-02 0. -1.
    10030    2    1    2    0    0  0.00000000000E+00  0.00000000000E+00 -0.11341065857E+03  0.29403682409E+04  0.29381802897E+04 0.  0.
        3    1    3    3  502    0  0.14589224768E+04  0.25257435654E+01 -0.22935820769E+03  0.14768433805E+04  0.10100000352E+00 0. -1.
       -3    1    3    3    0  502 -0.14589224768E+04 -0.25257435654E+01  0.11594754912E+03  0.14635248604E+04  0.10100000352E+00 0.  1.
</event>
<event>
 5   0  0.5161550E-07  0.3231867E+04  0.7818609E-02  0.8180452E-01
        2   -1    0    0  501    0  0.00000000000E+00  0.00000000000E+00  0.22560256937E+04  0.22560256937E+04  0.25500000920E-02 0. -1.
       -2   -1    0    0    0  501  0.00000000000E+00  0.00000000000E+00 -0.11574516827E+04  0.11574516827E+04  0.25500000920E-02 0.  1.
    10030    2    1    2    0    0  0.00000000000E+00  0.00000000000E+00  0.10985740110E+04  0.34134773764E+04  0.32318667890E+04 0.  0.
        2    1    3    3  502    0  0.44523945738E+03  0.79045834471E+02  0.21878360944E+04  0.22340799436E+04  0.25500000920E-02 0. -1.
       -2    1    3    3    0  502 -0.44523945738E+03 -0.79045834471E+02 -0.10892620834E+04  0.11793974329E+04  0.25500000920E-02 0.  1.
</event>
<event>
 5   0  0.4449262E-07  0.3675843E+04  0.7818609E-02  0.8073337E-01
       -2   -1    0    0    0  501  0.00000000000E+00  0.00000000000E+00  0.32217919308E+04  0.32217919308E+04  0.25500000920E-02 0.  1.
        2   -1    0    0  501    0  0.00000000000E+00  0.00000000000E+00 -0.10484707630E+04  0.10484707630E+04  0.25500000920E-02 0. -1.
    10030    2    1    2    0    0  0.00000000000E+00  0.00000000000E+00  0.21733211678E+04  0.42702626938E+04  0.36758425668E+04 0.  0.
        1    1    3    3  502    0 -0.93136701964E+03  0.12062870087E+03 -0.74867886268E+03  0.12010478126E+04  0.50400001928E-02 0. -1.
       -1    1    3    3    0  502  0.93136701964E+03 -0.12062870087E+03  0.29220000305E+04  0.30692148812E+04  0.50400001928E-02 0.  1.
</event>
<event>
 5   0  0.5161550E-07  0.2426991E+04  0.7818609E-02  0.8429467E-01
        2   -1    0    0  501    0  0.00000000000E+00  0.00000000000E+00  0.12676278570E+04  0.12676278570E+04  0.25500000920E-02 0. -1.
       -2   -1    0    0    0  501  0.00000000000E+00  0.00000000000E+00 -0.11616744227E+04  0.11616744227E+04  0.25500000920E-02 0.  1.
    10030    2    1    2    0    0  0.00000000000E+00  0.00000000000E+00  0.10595343433E+03  0.24293022797E+04  0.24269906131E+04 0.  0.
        2    1    3    3  502    0  0.10247697895E+04 -0.21802805335E+03  0.66583557681E+03  0.12413808315E+04  0.25500000920E-02 0. -1.
       -2    1    3    3    0  502 -0.10247697895E+04  0.21802805335E+03 -0.55988214248E+03  0.11879214482E+04  0.25500000920E-02 0.  1.
</event>
<event>
 5   0  0.4449262E-07  0.3699148E+04  0.7818609E-02  0.8068151E-01
       -2   -1    0    0    0  501  0.00000000000E+00  0.00000000000E+00  0.16082225337E+04  0.16082225337E+04  0.25500000920E-02 0.  1.
        2   -1    0    0  501    0  0.00000000000E+00  0.00000000000E+00 -0.21271461106E+04  0.21271461106E+04  0.25500000920E-02 0. -1.
    10030    2    1    2    0    0  0.00000000000E+00  0.00000000000E+00 -0.51892357686E+03  0.37353686443E+04  0.36991481763E+04 0.  0.
        1    1    3    3  502    0 -0.15893168975E+03 -0.55140783562E+03 -0.20349770235E+04  0.21143418289E+04  0.50400001928E-02 0. -1.
       -1    1    3    3    0  502  0.15893168975E+03  0.55140783562E+03  0.15160534466E+04  0.16210268154E+04  0.50400001928E-02 0.  1.
</event>
<event>
 5   0  0.4449262E-07  0.3783398E+04  0.7818609E-02  0.8049727E-01
       -2   -1    0    0    0  501  0.00000000000E+00  0.00000000000E+00  0.16870907510E+04  0.16870907510E+04  0.25500000920E-02 0.  1.
        2   -1    0    0  501    0  0.00000000000E+00  0.00000000000E+00 -0.21211217738E+04  0.21211217738E+04  0.25500000920E-02 0. -1.
    10030    2    1    2    0    0  0.00000000000E+00  0.00000000000E+00 -0.43403102284E+03  0.38082125249E+04  0.37833979047E+04 0.  0.
        1    1    3    3  502    0  0.44469455156E+03  0.10112503396E+04 -0.17627124928E+04  0.20802730172E+04  0.50400001928E-02 0. -1.
       -1    1    3    3    0  502 -0.44469455156E+03 -0.10112503396E+04  0.13286814700E+04  0.17279395077E+04  0.50400001928E-02 0.  1.
</event>
<event>
 5   0  0.5161550E-07  0.3381381E+04  0.7818609E-02  0.8142491E-01
        2   -1    0    0  501    0  0.00000000000E+00  0.00000000000E+00  0.18387181319E+04  0.18387181319E+04  0.25500000920E-02 0. -1.
       -2   -1    0    0    0  501  0.00000000000E+00  0.00000000000E+00 -0.15545800121E+04  0.15545800121E+04  0.25500000920E-02 0.  1.
    10030    2    1    2    0    0  0.00000000000E+00  0.00000000000E+00  0.28413811979E+03  0.33932981440E+04  0.33813810526E+04 0.  0.
        2    1    3    3  502    0  0.51197951874E+03  0.60071075995E+03  0.16424832513E+04  0.18222863868E+04  0.25500000920E-02 0. -1.
       -2    1    3    3    0  502 -0.51197951874E+03 -0.60071075995E+03 -0.13583451316E+04  0.15710117572E+04  0.25500000920E-02 0.  1.
</event>
<event>
 5   0  0.3141950E-07  0.1984842E+04  0.7818609E-02  0.8613741E-01
       -1   -1    0    0    0  501  0.00000000000E+00  0.00000000000E+00  0.67136863519E+03  0.67136863521E+03  0.50400001928E-02 0.  1.
        1   -1    0    0  501    0  0.00000000000E+00  0.00000000000E+00 -0.14670021803E+04  0.14670021803E+04  0.50400001928E-02 0. -1.
    10030    2    1    2    0    0  0.00000000000E+00  0.00000000000E+00 -0.79563354513E+03  0.21383708155E+04  0.19848418090E+04 0.  0.
        3    1    3    3  502    0  0.37453041061E+03  0.50662056611E+03 -0.12239149806E+04  0.13765555987E+04  0.10100000352E+00 0. -1.
       -3    1    3    3    0  502 -0.37453041061E+03 -0.50662056611E+03  0.42828143543E+03  0.76181521684E+03  0.10100000352E+00 0.  1.
</event>
<event>
 5   0  0.7570277E-07  0.4130877E+04  0.7818609E-02  0.7978653E-01
       -2   -1    0    0    0  501  0.00000000000E+00  0.00000000000E+00  0.22036958872E+04  0.22036958872E+04  0.25500000920E-02 0. -1.
        2   -1    0    0  501    0  0.00000000000E+00  0.00000000000E+00 -0.19358553718E+04  0.19358553718E+04  0.25500000920E-02 0.  1.
    10030    2    1    2    0    0  0.00000000000E+00  0.00000000000E+00  0.26784051536E+03  0.41395512590E+04  0.41308771567E+04 0.  0.
        5    1    3    3  502    0 -0.20321565036E+04 -0.32315974105E+02  0.50253781597E+03  0.20936262139E+04  0.46999998093E+01 0.  1.
       -5    1    3    3    0  502  0.20321565036E+04  0.32315974105E+02 -0.23469730061E+03  0.20459250451E+04  0.46999998093E+01 0. -1.
</event>
<event>
 5   0  0.2401125E-07  0.3852602E+04  0.7818609E-02  0.8034960E-01
       -3   -1    0    0    0  501  0.00000000000E+00  0.00000000000E+00  0.22237786365E+04  0.22237786388E+04  0.10100000352E+00 0.  1.
        3   -1    0    0  501    0  0.00000000000E+00  0.00000000000E+00 -0.16686173076E+04  0.16686173106E+04  0.10100000352E+00 0. -1.
    10030    2    1    2    0    0  0.00000000000E+00  0.00000000000E+00  0.55516132893E+03  0.38923959494E+04  0.38526019942E+04 0.  0.
        2    1    3    3  502    0  0.17863691119E+04  0.52468650406E+03  0.77687647929E+03  0.20174111122E+04  0.25500000920E-02 0.  1.
       -2    1    3    3    0  502 -0.17863691119E+04 -0.52468650406E+03 -0.22171515036E+03  0.18749848372E+04  0.25500000920E-02 0. -1.
</event>
<event>
 5   0  0.2401125E-07  0.4079323E+04  0.7818609E-02  0.7988733E-01
        3   -1    0    0  501    0  0.00000000000E+00  0.00000000000E+00  0.21519808584E+04  0.21519808608E+04  0.10100000352E+00 0. -1.
       -3   -1    0    0    0  501  0.00000000000E+00  0.00000000000E+00 -0.19332045914E+04  0.19332045941E+04  0.10100000352E+00 0.  1.
    10030    2    1    2    0    0  0.00000000000E+00  0.00000000000E+00  0.21877626699E+03  0.40851854549E+04  0.40793231235E+04 0.  0.
        1    1    3    3  502    0  0.18662045556E+04  0.41323663581E+03  0.82226457098E+03  0.20807698059E+04  0.50400001928E-02 0. -1.
       -1    1    3    3    0  502 -0.18662045556E+04 -0.41323663581E+03 -0.60348830399E+03  0.20044156489E+04  0.50400001928E-02 0.  1.
</event>
<event>
 5   0  0.7570277E-07  0.3874726E+04  0.7818609E-02  0.8030306E-01
       -2   -1    0    0    0  501  0.00000000000E+00  0.00000000000E+00  0.22660928643E+04  0.22660928643E+04  0.25500000920E-02 0. -1.
        2   -1    0    0  501    0  0.00000000000E+00  0.00000000000E+00 -0.16563202965E+04  0.16563202965E+04  0.25500000920E-02 0.  1.
    10030    2    1    2    0    0  0.00000000000E+00  0.00000000000E+00  0.60977256787E+03  0.39224131608E+04  0.38747261090E+04 0.  0.
        5    1    3    3  502    0  0.26738970296E+03  0.17126507059E+04 -0.57102788665E+03  0.18250382546E+04  0.46999998093E+01 0.  1.
       -5    1    3    3    0  502 -0.26738970296E+03 -0.17126507059E+04  0.11808004545E+04  0.20973749062E+04  0.46999998093E+01 0. -1.
</event>
<event>
 5   0  0.2713405E-07  0.2616212E+04  0.7818609E-02  0.8362715E-01
       -1   -1    0    0    0  501  0.00000000000E+00  0.00000000000E+00  0.90981653854E+03  0.90981653855E+03  0.50400001928E-02 0. -1.
        1   -1    0    0  501    0  0.00000000000E+00  0.00000000000E+00 -0.18807537467E+04  0.18807537467E+04  0.50400001928E-02 0.  1.
    10030    2    1    2    0    0  0.00000000000E+00  0.00000000000E+00 -0.97093720811E+03  0.27905702852E+04  0.26162116609E+04 0.  0.
        1    1    3    3  502    0 -0.17551514126E+03 -0.38571362973E+03 -0.18055087449E+04  0.18545733733E+04  0.50400001928E-02 0.  1.
       -1    1    3    3    0  502  0.17551514126E+03  0.38571362973E+03  0.83457153682E+03  0.93599691189E+03  0.50400001928E-02 0. -1.
</event>
<event>
 5   0  0.4449262E-07  0.4012119E+04  0.7818609E-02  0.8002106E-01
        2   -1    0    0  501    0  0.00000000000E+00  0.00000000000E+00  0.17114069728E+04  0.17114069728E+04  0.25500000920E-02 0.  1.
       -2   -1    0    0    0  501  0.00000000000E+00  0.00000000000E+00 -0.23514428157E+04  0.23514428157E+04  0.25500000920E-02 0. -1.
    10030    2    1    2    0    0  0.00000000000E+00  0.00000000000E+00 -0.64003584289E+03  0.40628497884E+04  0.40121194553E+04 0.  0.
        1    1    3    3  502    0  0.10777120001E+04 -0.11002205406E+04 -0.16217000488E+04  0.22364837226E+04  0.50400001928E-02 0. -1.
       -1    1    3    3    0  502 -0.10777120001E+04  0.11002205406E+04  0.98166420592E+03  0.18263660658E+04  0.50400001928E-02 0.  1.
</event>
<event>
 5   0  0.2713405E-07  0.3162714E+04  0.7818609E-02  0.8198734E-01
        1   -1    0    0  501    0  0.00000000000E+00  0.00000000000E+00  0.15810784349E+04  0.15810784349E+04  0.50400001928E-02 0.  1.
       -1   -1    0    0    0  501  0.00000000000E+00  0.00000000000E+00 -0.15816360382E+04  0.15816360382E+04  0.50400001928E-02 0. -1.
    10030    2    1    2    0    0  0.00000000000E+00  0.00000000000E+00 -0.55760328748E+00  0.31627144731E+04  0.31627144239E+04 0.  0.
        1    1    3    3  502    0 -0.36110081184E+03  0.37784064194E+03  0.14922135280E+04  0.15810941022E+04  0.50400001928E-02 0.  1.
       -1    1    3    3    0  502  0.36110081184E+03 -0.37784064194E+03 -0.14927711313E+04  0.15816203708E+04  0.50400001928E-02 0. -1.
</event>
<event>
 5   0  0.4449262E-07  0.3882703E+04  0.7818609E-02  0.8028636E-01
        2   -1    0    0  501    0  0.00000000000E+00  0.00000000000E+00  0.23000602652E+04  0.23000602652E+04  0.25500000920E-02 0.  1.
       -2   -1    0    0    0  501  0.00000000000E+00  0.00000000000E+00 -0.16385855494E+04  0.16385855494E+04  0.25500000920E-02 0. -1.
    10030    2    1    2    0    0  0.00000000000E+00  0.00000000000E+00  0.66147471587E+03  0.39386458146E+04  0.38827029314E+04 0.  0.
        1    1    3    3  502    0  0.15505279784E+04 -0.74044244742E+03  0.12473344771E+04  0.21232605416E+04  0.50400001928E-02 0.  1.
       -1    1    3    3    0  502 -0.15505279784E+04  0.74044244742E+03 -0.58585976120E+03  0.18153852730E+04  0.50400001928E-02 0. -1.
</event>
<event>
 5   0  0.3579559E-07  0.4070527E+04  0.7818609E-02  0.7990468E-01
       -1   -1    0    0    0  501  0.00000000000E+00  0.00000000000E+00  0.16536568351E+04  0.16536568351E+04  0.50400001928E-02 0.  1.
        1   -1    0    0  501    0  0.00000000000E+00  0.00000000000E+00 -0.25049319708E+04  0.25049319709E+04  0.50400001928E-02 0. -1.
    10030    2    1    2    0    0  0.00000000000E+00  0.00000000000E+00 -0.85127513572E+03  0.41585888060E+04  0.40705271772E+04 0.  0.
        4    1    3    3  502    0  0.22410800454E+03 -0.17004418653E+04  0.69377181632E+03  0.18501480700E+04  0.12699999809E+01 0.  1.
       -4    1    3    3    0  502 -0.22410800454E+03  0.17004418653E+04 -0.15450469520E+04  0.23084407360E+04  0.12699999809E+01 0. -1.
</event>
<event>
 5   0  0.5161550E-07  0.3874687E+04  0.7818609E-02  0.8030315E-01
        2   -1    0    0  501    0  0.00000000000E+00  0.00000000000E+00  0.20837078759E+04  0.20837078759E+04  0.25500000920E-02 0. -1.
       -2   -1    0    0    0  501  0.00000000000E+00  0.00000000000E+00 -0.18012599120E+04  0.18012599120E+04  0.25500000920E-02 0.  1.
    10030    2    1    2    0    0  0.00000000000E+00  0.00000000000E+00  0.28244796387E+03  0.38849677879E+04  0.38746868081E+04 0.  0.
        2    1    3    3  502    0  0.31311556273E+03 -0.12645390328E+04  0.15789740774E+04  0.20470123249E+04  0.25500000920E-02 0. -1.
       -2    1    3    3    0  502 -0.31311556273E+03  0.12645390328E+04 -0.12965261135E+04  0.18379554631E+04  0.25500000920E-02 0.  1.
</event>
<event>
 5   0  0.5161550E-07  0.2842546E+04  0.7818609E-02  0.8290180E-01
       -2   -1    0    0    0  501  0.00000000000E+00  0.00000000000E+00  0.11594865060E+04  0.11594865060E+04  0.25500000920E-02 0. -1.
        2   -1    0    0  501    0  0.00000000000E+00  0.00000000000E+00 -0.17421654835E+04  0.17421654835E+04  0.25500000920E-02 0.  1.
    10030    2    1    2    0    0  0.00000000000E+00  0.00000000000E+00 -0.58267897744E+03  0.29016519895E+04  0.28425463017E+04 0.  0.
        2    1    3    3  502    0 -0.12156982849E+03  0.11094861879E+03 -0.17324047226E+04  0.17402054310E+04  0.25500000920E-02 0.  1.
       -2    1    3    3    0  502  0.12156982849E+03 -0.11094861879E+03  0.11497257451E+04  0.11614465585E+04  0.25500000920E-02 0. -1.
</event>
<event>
 5   0  0.2601252E-07  0.2695454E+04  0.7818609E-02  0.8336482E-01
        1   -1    0    0  501    0  0.00000000000E+00  0.00000000000E+00  0.13205421492E+04  0.13205421492E+04  0.50400001928E-02 0.  1.
       -1   -1    0    0    0  501  0.00000000000E+00  0.00000000000E+00 -0.13754710766E+04  0.13754710767E+04  0.50400001928E-02 0. -1.
    10030    2    1    2    0    0  0.00000000000E+00  0.00000000000E+00 -0.54928927482E+02  0.26960132258E+04  0.26954536031E+04 0.  0.
        3    1    3    3  502    0  0.12103584378E+03  0.53752654653E+03 -0.12576722847E+04  0.13730710286E+04  0.10100000352E+00 0. -1.
       -3    1    3    3    0  502 -0.12103584378E+03 -0.53752654653E+03  0.12027433572E+04  0.13229421972E+04  0.10100000352E+00 0.  1.
</event>
<event>
 5   0  0.2713405E-07  0.4053648E+04  0.7818609E-02  0.7993811E-01
        1   -1    0    0  501    0  0.00000000000E+00  0.00000000000E+00  0.16463864640E+04  0.16463864640E+04  0.50400001928E-02 0. -1.
       -1   -1    0    0    0  501  0.00000000000E+00  0.00000000000E+00 -0.24951710611E+04  0.24951710611E+04  0.50400001928E-02 0.  1.
    10030    2    1    2    0    0  0.00000000000E+00  0.00000000000E+00 -0.84878459719E+03  0.41415575251E+04  0.40536481645E+04 0.  0.
        1    1    3    3  502    0 -0.19209303722E+04  0.53394943226E+03 -0.51875307203E+02  0.19944338893E+04  0.50400001928E-02 0. -1.
       -1    1    3    3    0  502  0.19209303722E+04 -0.53394943226E+03 -0.79690928998E+03  0.21471236358E+04  0.50400001928E-02 0.  1.
</event>
<event>
 5   0  0.7570277E-07  0.3992406E+04  0.7818609E-02  0.8006080E-01
       -2   -1    0    0    0  501  0.00000000000E+00  0.00000000000E+00  0.13503447714E+04  0.13503447714E+04  0.25500000920E-02 0.  1.
        2   -1    0    0  501    0  0.00000000000E+00  0.00000000000E+00 -0.29509696944E+04  0.29509696944E+04  0.25500000920E-02 0. -1.
    10030    2    1    2    0    0  0.00000000000E+00  0.00000000000E+00 -0.16006249230E+04  0.43013144659E+04  0.39924060402E+04 0.  0.
        5    1    3    3  502    0 -0.53823288822E+03 -0.19206327344E+04 -0.71493667269E+03  0.21188868017E+04  0.46999998093E+01 0. -1.
       -5    1    3    3    0  502  0.53823288822E+03  0.19206327344E+04 -0.88568825034E+03  0.21824276642E+04  0.46999998093E+01 0.  1.
</event>
<event>
 5   0  0.5161550E-07  0.4012433E+04  0.7818609E-02  0.8002043E-01
        2   -1    0    0  501    0  0.00000000000E+00  0.00000000000E+00  0.18214782835E+04  0.18214782835E+04  0.25500000920E-02 0. -1.
       -2   -1    0    0    0  501  0.00000000000E+00  0.00000000000E+00 -0.22096914373E+04  0.22096914373E+04  0.25500000920E-02 0.  1.
    10030    2    1    2    0    0  0.00000000000E+00  0.00000000000E+00 -0.38821315382E+03  0.40311697207E+04  0.40124331601E+04 0.  0.
        2    1    3    3  502    0  0.18163878303E+04  0.56811419328E+03  0.44359078290E+03  0.19541727839E+04  0.25500000920E-02 0. -1.
       -2    1    3    3    0  502 -0.18163878303E+04 -0.56811419328E+03 -0.83180393672E+03  0.20769969369E+04  0.25500000920E-02 0.  1.
</event>
<event>
 5   0  0.2713405E-07  0.4070652E+04  0.7818609E-02  0.7990444E-01
        1   -1    0    0  501    0  0.00000000000E+00  0.00000000000E+00  0.25850066787E+04  0.25850066787E+04  0.50400001928E-02 0. -1.
       -1   -1    0    0    0  501  0.00000000000E+00  0.00000000000E+00 -0.16025303472E+04  0.16025303472E+04  0.50400001928E-02 0.  1.
    10030    2    1    2    0    0  0.00000000000E+00  0.00000000000E+00  0.98247633148E+03  0.41875370259E+04  0.40706518645E+04 0.  0.
        1    1    3    3  502    0 -0.74833749103E+03 -0.18827038153E+04  0.29078669728E+03  0.20467387620E+04  0.50400001928E-02 0. -1.
       -1    1    3    3    0  502  0.74833749103E+03  0.18827038153E+04  0.69168963420E+03  0.21407982639E+04  0.50400001928E-02 0.  1.
</event>
<event>
 5   0  0.5161550E-07  0.2082417E+04  0.7818609E-02  0.8569029E-01
        2   -1    0    0  501    0  0.00000000000E+00  0.00000000000E+00  0.22222345328E+04  0.22222345328E+04  0.25500000920E-02 0.  1.
       -2   -1    0    0    0  501  0.00000000000E+00  0.00000000000E+00 -0.48784896350E+03  0.48784896350E+03  0.25500000920E-02 0. -1.
    10030    2    1    2    0    0  0.00000000000E+00  0.00000000000E+00  0.17343855693E+04  0.27100834963E+04  0.20824166859E+04 0.  0.
        2    1    3    3  502    0 -0.54152109403E+03  0.10296850011E+03 -0.28238063529E+03  0.61934354803E+03  0.25500000920E-02 0. -1.
       -2    1    3    3    0  502  0.54152109403E+03 -0.10296850011E+03  0.20167662046E+04  0.20907399482E+04  0.25500000920E-02 0.  1.
</event>
<event>
 5   0  0.7256473E-07  0.4021989E+04  0.7818609E-02  0.8000125E-01
        2   -1    0    0  501    0  0.00000000000E+00  0.00000000000E+00  0.31956512987E+04  0.31956512987E+04  0.25500000920E-02 0. -1.
       -2   -1    0    0    0  501  0.00000000000E+00  0.00000000000E+00 -0.12655008428E+04  0.12655008428E+04  0.25500000920E-02 0.  1.
    10030    2    1    2    0    0  0.00000000000E+00  0.00000000000E+00  0.19301504559E+04  0.44611521415E+04  0.40219892649E+04 0.  0.
        4    1    3    3  502    0 -0.17575608931E+04  0.38676268440E+03 -0.30414490016E+02  0.17998700845E+04  0.12699999809E+01 0.  1.
       -4    1    3    3    0  502  0.17575608931E+04 -0.38676268440E+03  0.19605649460E+04  0.26612820570E+04  0.12699999809E+01 0. -1.
</event>
<event>
 5   0  0.2601252E-07  0.2258214E+04  0.7818609E-02  0.8494581E-01
        1   -1    0    0  501    0  0.00000000000E+00  0.00000000000E+00  0.12294745590E+04  0.12294745590E+04  0.50400001928E-02 0. -1.
       -1   -1    0    0    0  501  0.00000000000E+00  0.00000000000E+00 -0.10369329068E+04  0.10369329068E+04  0.50400001928E-02 0.  1.
    10030    2    1    2    0    0  0.00000000000E+00  0.00000000000E+00  0.19254165220E+03  0.22664074659E+04  0.22582140097E+04 0.  0.
        3    1    3    3  502    0 -0.93596737671E+03  0.62494156447E+03  0.48594660734E+01  0.11254379209E+04  0.10100000352E+00 0. -1.
       -3    1    3    3    0  502  0.93596737671E+03 -0.62494156447E+03  0.18768218612E+03  0.11409695449E+04  0.10100000352E+00 0.  1.
</event>
<event>
 5   0  0.6043512E-07  0.3972315E+04  0.7818609E-02  0.8010155E-01
        2   -1    0    0  501    0  0.00000000000E+00  0.00000000000E+00  0.16335945923E+04  0.16335945923E+04  0.25500000920E-02 0.  1.
       -2   -1    0    0    0  501  0.00000000000E+00  0.00000000000E+00 -0.24148108468E+04  0.24148108468E+04  0.25500000920E-02 0. -1.
    10030    2    1    2    0    0  0.00000000000E+00  0.00000000000E+00 -0.78121625450E+03  0.40484054391E+04  0.39723151641E+04 0.  0.
        3    1    3    3  502    0  0.19551069866E+04 -0.74286419355E+02 -0.73900438653E+03  0.20914323547E+04  0.10100000352E+00 0.  1.
       -3    1    3    3    0  502 -0.19551069866E+04  0.74286419355E+02 -0.42211867972E+02  0.19569730844E+04  0.10100000352E+00 0. -1.
</event>
<event>
 5   0  0.5161550E-07  0.3852000E+04  0.7818609E-02  0.8035087E-01
       -2   -1    0    0    0  501  0.00000000000E+00  0.00000000000E+00  0.12839894244E+04  0.12839894244E+04  0.25500000920E-02 0. -1.
        2   -1    0    0  501    0  0.00000000000E+00  0.00000000000E+00 -0.28890234030E+04  0.28890234030E+04  0.25500000920E-02 0.  1.
    10030    2    1    2    0    0  0.00000000000E+00  0.00000000000E+00 -0.16050339786E+04  0.41730128274E+04  0.38519997385E+04 0.  0.
        2    1    3    3  502    0  0.12525059724E+04  0.30663491013E+03  0.74732838389E+03  0.14904012522E+04  0.25500000920E-02 0. -1.
       -2    1    3    3    0  502 -0.12525059724E+04 -0.30663491013E+03 -0.23523623625E+04  0.26826115753E+04  0.25500000920E-02 0.  1.
</event>
<event>
 5   0  0.4449262E-07  0.3977567E+04  0.7818609E-02  0.8009087E-01
        2   -1    0    0  501    0  0.00000000000E+00  0.00000000000E+00  0.24050670396E+04  0.24050670396E+04  0.25500000920E-02 0. -1.
       -2   -1    0    0    0  501  0.00000000000E+00  0.00000000000E+00 -0.16445531185E+04  0.16445531185E+04  0.25500000920E-02 0.  1.
    10030    2    1    2    0    0  0.00000000000E+00  0.00000000000E+00  0.76051392115E+03  0.40496201581E+04  0.39775673470E+04 0.  0.
        1    1    3    3  502    0  0.39917137064E+03 -0.11114365022E+04 -0.12489276529E+04  0.17188511174E+04  0.50400001928E-02 0.  1.
       -1    1    3    3    0  502 -0.39917137064E+03  0.11114365022E+04  0.20094415740E+04  0.23307690407E+04  0.50400001928E-02 0. -1.
</event>
<event>
 5   0  0.6043512E-07  0.2952646E+04  0.7818609E-02  0.8257384E-01
       -2   -1    0    0    0  501  0.00000000000E+00  0.00000000000E+00  0.12090349119E+04  0.12090349119E+04  0.25500000920E-02 0. -1.
        2   -1    0    0  501    0  0.00000000000E+00  0.00000000000E+00 -0.18027016985E+04  0.18027016985E+04  0.25500000920E-02 0.  1.
    10030    2    1    2    0    0  0.00000000000E+00  0.00000000000E+00 -0.59366678663E+03  0.30117366104E+04  0.29526457893E+04 0.  0.
        3    1    3    3  502    0 -0.97867268433E+03  0.36787720675E+02 -0.14236478675E+04  0.17279834549E+04  0.10100000352E+00 0.  1.
       -3    1    3    3    0  502  0.97867268433E+03 -0.36787720675E+02  0.82998108089E+03  0.12837531555E+04  0.10100000352E+00 0. -1.
</event>
<event>
 5   0  0.7570277E-07  0.3887885E+04  0.7818609E-02  0.8027554E-01
       -2   -1    0    0    0  501  0.00000000000E+00  0.00000000000E+00  0.15737714880E+04  0.15737714880E+04  0.25500000920E-02 0.  1.
        2   -1    0    0  501    0  0.00000000000E+00  0.00000000000E+00 -0.24011825939E+04  0.24011825939E+04  0.25500000920E-02 0. -1.
    10030    2    1    2    0    0  0.00000000000E+00  0.00000000000E+00 -0.82741110591E+03  0.39749540820E+04  0.38878851341E+04 0.  0.
        5    1    3    3  502    0 -0.12957448114E+04 -0.49251926023E+01 -0.18952654416E+04  0.22958728314E+04  0.46999998093E+01 0. -1.
       -5    1    3    3    0  502  0.12957448114E+04  0.49251926023E+01  0.10678543357E+04  0.16790812506E+04  0.46999998093E+01 0.  1.
</event>
<event>
 5   0  0.5161550E-07  0.2437652E+04  0.7818609E-02  0.8425540E-01
       -2   -1    0    0    0  501  0.00000000000E+00  0.00000000000E+00  0.60121466143E+03  0.60121466144E+03  0.25500000920E-02 0. -1.
        2   -1    0    0  501    0  0.00000000000E+00  0.00000000000E+00 -0.24708917392E+04  0.24708917392E+04  0.25500000920E-02 0.  1.
    10030    2    1    2    0    0  0.00000000000E+00  0.00000000000E+00 -0.18696770777E+04  0.30721064006E+04  0.24376516079E+04 0.  0.
        2    1    3    3  502    0  0.32049013712E+03  0.11697738296E+04 -0.78333506753E+03  0.14438485268E+04  0.25500000920E-02 0.  1.
       -2    1    3    3    0  502 -0.32049013712E+03 -0.11697738296E+04 -0.10863420102E+04  0.16282578738E+04  0.25500000920E-02 0. -1.
</event>
<event>
 5   0  0.6043512E-07  0.2133798E+04  0.7818609E-02  0.8546500E-01
        2   -1    0    0  501    0  0.00000000000E+00  0.00000000000E+00  0.91685104000E+03  0.91685104000E+03  0.25500000920E-02 0. -1.
       -2   -1    0    0    0  501  0.00000000000E+00  0.00000000000E+00 -0.12415031283E+04  0.12415031284E+04  0.25500000920E-02 0.  1.
    10030    2    1    2    0    0  0.00000000000E+00  0.00000000000E+00 -0.32465208835E+03  0.21583541684E+04  0.21337979608E+04 0.  0.
        3    1    3    3  502    0 -0.54370928059E+02  0.35186113101E+03 -0.11796393232E+04  0.12321977911E+04  0.10100000352E+00 0.  1.
       -3    1    3    3    0  502  0.54370928059E+02 -0.35186113101E+03  0.85498723481E+03  0.92615637730E+03  0.10100000352E+00 0. -1.
</event>
<event>
 5   0  0.6043512E-07  0.4116871E+04  0.7818609E-02  0.7981376E-01
       -2   -1    0    0    0  501  0.00000000000E+00  0.00000000000E+00  0.33389724135E+04  0.33389724135E+04  0.25500000920E-02 0.  1.
        2   -1    0    0  501    0  0.00000000000E+00  0.00000000000E+00 -0.12690002196E+04  0.12690002196E+04  0.25500000920E-02 0. -1.
    10030    2    1    2    0    0  0.00000000000E+00  0.00000000000E+00  0.20699721938E+04  0.46079726331E+04  0.41168710089E+04 0.  0.
        3    1    3    3  502    0 -0.15117915989E+04 -0.12335405066E+04  0.17689713092E+04  0.26337037652E+04  0.10100000352E+00 0. -1.
       -3    1    3    3    0  502  0.15117915989E+04  0.12335405066E+04  0.30100088463E+03  0.19742688679E+04  0.10100000352E+00 0.  1.
</event>
<event>
 5   0  0.2647879E-07  0.3903456E+04  0.7818609E-02  0.8024311E-01
        1   -1    0    0  501    0  0.00000000000E+00  0.00000000000E+00  0.29345470029E+04  0.29345470029E+04  0.50400001928E-02 0. -1.
       -1   -1    0    0    0  501  0.00000000000E+00  0.00000000000E+00 -0.12980684495E+04  0.12980684495E+04  0.50400001928E-02 0.  1.
    10030    2    1    2    0    0  0.00000000000E+00  0.00000000000E+00  0.16364785533E+04  0.42326154524E+04  0.39034563546E+04 0.  0.
        2    1    3    3  502    0 -0.34293388534E+03  0.15616249558E+04  0.20319893084E+04  0.25855863362E+04  0.25500000920E-02 0. -1.
       -2    1    3    3    0  502  0.34293388534E+03 -0.15616249558E+04 -0.39551075507E+03  0.16470291162E+04  0.25500000920E-02 0.  1.
</event>
<event>
 5   0  0.1038316E-06  0.2009761E+04  0.7818609E-02  0.8602071E-01
       -2   -1    0    0    0  501  0.00000000000E+00  0.00000000000E+00  0.68752617205E+03  0.68752617205E+03  0.25500000920E-02 0.  1.
        2   -1    0    0  501    0  0.00000000000E+00  0.00000000000E+00 -0.14687222355E+04  0.14687222355E+04  0.25500000920E-02 0. -1.
    10030    2    1    2    0    0  0.00000000000E+00  0.00000000000E+00 -0.78119606340E+03  0.21562484075E+04  0.20097611563E+04 0.  0.
        5    1    3    3  502    0 -0.73963916675E+03  0.33720947452E+03 -0.10244074585E+04  0.13077496159E+04  0.46999998093E+01 0. -1.
       -5    1    3    3    0  502  0.73963916675E+03 -0.33720947452E+03  0.24321139513E+03  0.84849879164E+03  0.46999998093E+01 0.  1.
</event>
<event>
 5   0  0.3579559E-07  0.3044701E+04  0.7818609E-02  0.8231080E-01
       -1   -1    0    0    0  501  0.00000000000E+00  0.00000000000E+00  0.12091771591E+04  0.12091771591E+04  0.50400001928E-02 0. -1.
        1   -1    0    0  501    0  0.00000000000E+00  0.00000000000E+00 -0.19166353299E+04  0.19166353299E+04  0.50400001928E-02 0.  1.
    10030    2    1    2    0    0  0.00000000000E+00  0.00000000000E+00 -0.70745817079E+03  0.31258124890E+04  0.30447014063E+04 0.  0.
        4    1    3    3  502    0 -0.50541311526E+03 -0.32313398841E+03 -0.17901787221E+04  0.18880146878E+04  0.12699999809E+01 0.  1.
       -4    1    3    3    0  502  0.50541311526E+03  0.32313398841E+03  0.10827205513E+04  0.12377978012E+04  0.12699999809E+01 0. -1.
</event>
<event>
 5   0  0.6043512E-07  0.3024893E+04  0.7818609E-02  0.8236658E-01
       -2   -1    0    0    0  501  0.00000000000E+00  0.00000000000E+00  0.10945426394E+04  0.10945426394E+04  0.25500000920E-02 0. -1.
        2   -1    0    0  501    0  0.00000000000E+00  0.00000000000E+00 -0.20899090058E+04  0.20899090058E+04  0.25500000920E-02 0.  1.
    10030    2    1    2    0    0  0.00000000000E+00  0.00000000000E+00 -0.99536636639E+03  0.31844516452E+04  0.30248930687E+04 0.  0.
        3    1    3    3  502    0  0.73120069849E+03  0.81082469109E+03 -0.15995057621E+04  0.19366233073E+04  0.10100000352E+00 0.  1.
       -3    1    3    3    0  502 -0.73120069849E+03 -0.81082469109E+03  0.60413939570E+03  0.12478283379E+04  0.10100000352E+00 0. -1.
</event>
<event>
 5   0  0.2601252E-07  0.4040412E+04  0.7818609E-02  0.7996443E-01
        1   -1    0    0  501    0  0.00000000000E+00  0.00000000000E+00  0.21533614476E+04  0.21533614476E+04  0.50400001928E-02 0. -1.
       -1   -1    0    0    0  501  0.00000000000E+00  0.00000000000E+00 -0.18952845524E+04  0.18952845524E+04  0.50400001928E-02 0.  1.
    10030    2    1    2    0    0  0.00000000000E+00  0.00000000000E+00  0.25807689525E+03  0.40486460000E+04  0.40404122004E+04 0.  0.
        3    1    3    3  502    0 -0.24080362487E+03 -0.73588385499E+03  0.19987780638E+04  0.21435076842E+04  0.10100000352E+00 0. -1.
       -3    1    3    3    0  502  0.24080362487E+03  0.73588385499E+03 -0.17407011685E+04  0.19051383158E+04  0.10100000352E+00 0.  1.
</event>
<event>
 5   0  0.2713405E-07  0.2393449E+04  0.7818609E-02  0.8441960E-01
       -1   -1    0    0    0  501  0.00000000000E+00  0.00000000000E+00  0.64596680780E+03  0.64596680782E+03  0.50400001928E-02 0.  1.
        1   -1    0    0  501    0  0.00000000000E+00  0.00000000000E+00 -0.22170644033E+04  0.22170644033E+04  0.50400001928E-02 0. -1.
    10030    2    1    2    0    0  0.00000000000E+00  0.00000000000E+00 -0.15710975955E+04  0.28630312111E+04  0.23934494065E+04 0.  0.
        1    1    3    3  502    0 -0.11490695150E+04  0.31953743355E+03 -0.66782785225E+03  0.13669158577E+04  0.50400001928E-02 0.  1.
       -1    1    3    3    0  502  0.11490695150E+04 -0.31953743355E+03 -0.90326974325E+03  0.14961153534E+04  0.50400001928E-02 0. -1.
</event>
<event>
 5   0  0.4449262E-07  0.4038763E+04  0.7818609E-02  0.7996772E-01
       -2   -1    0    0    0  501  0.00000000000E+00  0.00000000000E+00  0.17914654604E+04  0.17914654604E+04  0.25500000920E-02 0.  1.
        2   -1    0    0  501    0  0.00000000000E+00  0.00000000000E+00 -0.22762932953E+04  0.22762932953E+04  0.25500000920E-02 0. -1.
    10030    2    1    2    0    0  0.00000000000E+00  0.00000000000E+00 -0.48482783493E+03  0.40677587557E+04  0.40387625908E+04 0.  0.
        1    1    3    3  502    0 -0.11042772682E+04 -0.11074100734E+04 -0.15291287372E+04  0.21872402819E+04  0.50400001928E-02 0. -1.
       -1    1    3    3    0  502  0.11042772682E+04  0.11074100734E+04  0.10443009023E+04  0.18805184738E+04  0.50400001928E-02 0.  1.
</event>
<event>
 5   0  0.2713405E-07  0.2447257E+04  0.7818609E-02  0.8422020E-01
       -1   -1    0    0    0  501  0.00000000000E+00  0.00000000000E+00  0.92751647260E+03  0.92751647261E+03  0.50400001928E-02 0.  1.
        1   -1    0    0  501    0  0.00000000000E+00  0.00000000000E+00 -0.16142744946E+04  0.16142744946E+04  0.50400001928E-02 0. -1.
    10030    2    1    2    0    0  0.00000000000E+00  0.00000000000E+00 -0.68675802199E+03  0.25417909672E+04  0.24472565743E+04 0.  0.
        1    1    3    3  502    0  0.91747591557E+03  0.75888266391E+03 -0.63641450143E+03  0.13500697652E+04  0.50400001928E-02 0. -1.
       -1    1    3    3    0  502 -0.91747591557E+03 -0.75888266391E+03 -0.50343520565E+02  0.11917212020E+04  0.50400001928E-02 0.  1.
</event>
<event>
 5   0  0.4449262E-07  0.2287083E+04  0.7818609E-02  0.8483032E-01
       -2   -1    0    0    0  501  0.00000000000E+00  0.00000000000E+00  0.10911425273E+04  0.10911425273E+04  0.25500000920E-02 0.  1.
        2   -1    0    0  501    0  0.00000000000E+00  0.00000000000E+00 -0.11984567231E+04  0.11984567231E+04  0.25500000920E-02 0. -1.
    10030    2    1    2    0    0  0.00000000000E+00  0.00000000000E+00 -0.10731419582E+03  0.22895992504E+04  0.22870829436E+04 0.  0.
        1    1    3    3  502    0 -0.75747711918E+03 -0.62423747181E+03  0.53371075712E+03  0.11172695197E+04  0.50400001928E-02 0.  1.
       -1    1    3    3    0  502  0.75747711918E+03  0.62423747181E+03 -0.64102495293E+03  0.11723297308E+04  0.50400001928E-02 0. -1.
</event>
<event>
 5   0  0.3579559E-07  0.3568760E+04  0.7818609E-02  0.8097685E-01
        1   -1    0    0  501    0  0.00000000000E+00  0.00000000000E+00  0.23110291932E+04  0.23110291933E+04  0.50400001928E-02 0.  1.
       -1   -1    0    0    0  501  0.00000000000E+00  0.00000000000E+00 -0.13777463614E+04  0.13777463614E+04  0.50400001928E-02 0. -1.
    10030    2    1    2    0    0  0.00000000000E+00  0.00000000000E+00  0.93328283186E+03  0.36887755546E+04  0.35687600435E+04 0.  0.
        4    1    3    3  502    0  0.10308374979E+04 -0.40316693444E+03  0.19132947351E+04  0.22103999368E+04  0.12699999809E+01 0.  1.
       -4    1    3    3    0  502 -0.10308374979E+04  0.40316693444E+03 -0.98001190323E+03  0.14783756179E+04  0.12699999809E+01 0. -1.
</event>
<event>
 5   0  0.2647879E-07  0.2460114E+04  0.7818609E-02  0.8417335E-01
        1   -1    0    0  501    0  0.00000000000E+00  0.00000000000E+00  0.90186791126E+03  0.90186791127E+03  0.50400001928E-02 0. -1.
       -1   -1    0    0    0  501  0.00000000000E+00  0.00000000000E+00 -0.16776734136E+04  0.16776734136E+04  0.50400001928E-02 0.  1.
    10030    2    1    2    0    0  0.00000000000E+00  0.00000000000E+00 -0.77580550235E+03  0.25795413249E+04  0.24601136700E+04 0.  0.
        2    1    3    3  502    0  0.11142677775E+02 -0.12292262184E+04 -0.43383050750E+03  0.13035835856E+04  0.25500000920E-02 0.  1.
       -2    1    3    3    0  502 -0.11142677775E+02  0.12292262184E+04 -0.34197499484E+03  0.12759577393E+04  0.25500000920E-02 0. -1.
</event>
<event>
 5   0  0.7256473E-07  0.3741786E+04  0.7818609E-02  0.8058764E-01
       -2   -1    0    0    0  501  0.00000000000E+00  0.00000000000E+00  0.14415766055E+04  0.14415766055E+04  0.25500000920E-02 0.  1.
        2   -1    0    0  501    0  0.00000000000E+00  0.00000000000E+00 -0.24280637120E+04  0.24280637120E+04  0.25500000920E-02 0. -1.
    10030    2    1    2    0    0  0.00000000000E+00  0.00000000000E+00 -0.98648710643E+03  0.38696403175E+04  0.37417855866E+04 0.  0.
        4    1    3    3  502    0  0.55243315223E+03 -0.79308165147E+03  0.11633904535E+04  0.15124945797E+04  0.12699999809E+01 0.  1.
       -4    1    3    3    0  502 -0.55243315223E+03  0.79308165147E+03 -0.21498775599E+04  0.23571457378E+04  0.12699999809E+01 0. -1.
</event>
<event>
 5   0  0.2713405E-07  0.3732960E+04  0.7818609E-02  0.8060696E-01
       -1   -1    0    0    0  501  0.00000000000E+00  0.00000000000E+00  0.19121914453E+04  0.19121914453E+04  0.50400001928E-02 0.  1.
        1   -1    0    0  501    0  0.00000000000E+00  0.00000000000E+00 -0.18218613092E+04  0.18218613093E+04  0.50400001928E-02 0. -1.
    10030    2    1    2    0    0  0.00000000000E+00  0.00000000000E+00  0.90330136008E+02  0.37340527545E+04  0.37329600105E+04 0.  0.
        1    1    3    3  502    0  0.22332546472E+03 -0.47669598970E+03  0.18363970189E+04  0.19103579091E+04  0.50400001928E-02 0.  1.
       -1    1    3    3    0  502 -0.22332546472E+03  0.47669598970E+03 -0.17460668829E+04  0.18236948454E+04  0.50400001928E-02 0. -1.
</event>
<event>
 5   0  0.2713405E-07  0.3806308E+04  0.7818609E-02  0.8044803E-01
        1   -1    0    0  501    0  0.00000000000E+00  0.00000000000E+00  0.21467027948E+04  0.21467027948E+04  0.50400001928E-02 0. -1.
       -1   -1    0    0    0  501  0.00000000000E+00  0.00000000000E+00 -0.16872363390E+04  0.16872363390E+04  0.50400001928E-02 0.  1.
    10030    2    1    2    0    0  0.00000000000E+00  0.00000000000E+00  0.45946645584E+03  0.38339391338E+04  0.38063079037E+04 0.  0.
        1    1    3    3  502    0  0.11183207190E+04  0.52674845243E+03  0.16872655955E+04  0.20916429792E+04  0.50400001928E-02 0. -1.
       -1    1    3    3    0  502 -0.11183207190E+04 -0.52674845243E+03 -0.12277991397E+04  0.17422961545E+04  0.50400001928E-02 0.  1.
</event>
<event>
 5   0  0.4449262E-07  0.4021252E+04  0.7818609E-02  0.8000273E-01
        2   -1    0    0  501    0  0.00000000000E+00  0.00000000000E+00  0.24953266399E+04  0.24953266399E+04  0.25500000920E-02 0. -1.
       -2   -1    0    0    0  501  0.00000000000E+00  0.00000000000E+00 -0.16200750438E+04  0.16200750438E+04  0.25500000920E-02 0.  1.
    10030    2    1    2    0    0  0.00000000000E+00  0.00000000000E+00  0.87525159614E+03  0.41154016837E+04  0.40212517530E+04 0.  0.
        1    1    3    3  502    0 -0.64203940028E+02 -0.80924584349E+03 -0.14449022968E+04  0.16573302714E+04  0.50400001928E-02 0.  1.
       -1    1    3    3    0  502  0.64203940028E+02  0.80924584349E+03  0.23201538929E+04  0.24580714123E+04  0.50400001928E-02 0. -1.
</event>
<event>
 5   0  0.6043512E-07  0.2579130E+04  0.7818609E-02  0.8375325E-01
        2   -1    0    0  501    0  0.00000000000E+00  0.00000000000E+00  0.13182425953E+04  0.13182425953E+04  0.25500000920E-02 0.  1.
       -2   -1    0    0    0  501  0.00000000000E+00  0.00000000000E+00 -0.12615112820E+04  0.12615112820E+04  0.25500000920E-02 0. -1.
    10030    2    1    2    0    0  0.00000000000E+00  0.00000000000E+00  0.56731313242E+02  0.25797538773E+04  0.25791300133E+04 0.  0.
        3    1    3    3  502    0 -0.56826660587E+03 -0.28380520222E+03 -0.10941827671E+04  0.12651909999E+04  0.10100000352E+00 0. -1.
       -3    1    3    3    0  502  0.56826660587E+03  0.28380520222E+03  0.11509140804E+04  0.13145628774E+04  0.10100000352E+00 0.  1.
</event>
<event>
 5   0  0.2401125E-07  0.3972486E+04  0.7818609E-02  0.8010120E-01
        1   -1    0    0  501    0  0.00000000000E+00  0.00000000000E+00  0.21940622228E+04  0.21940622228E+04  0.50400001928E-02 0. -1.
       -1   -1    0    0    0  501  0.00000000000E+00  0.00000000000E+00 -0.17981085764E+04  0.17981085765E+04  0.50400001928E-02 0.  1.
    10030    2    1    2    0    0  0.00000000000E+00  0.00000000000E+00  0.39595364636E+03  0.39921707993E+04  0.39724864255E+04 0.  0.
        5    1    3    3  502    0  0.44958962565E+03 -0.15427072994E+04  0.13712650555E+04  0.21124551085E+04  0.46999998093E+01 0. -1.
       -5    1    3    3    0  502 -0.44958962565E+03  0.15427072994E+04 -0.97531140914E+03  0.18797156907E+04  0.46999998093E+01 0.  1.
</event>
<event>
 5   0  0.5161550E-07  0.3825590E+04  0.7818609E-02  0.8040685E-01
        2   -1    0    0  501    0  0.00000000000E+00  0.00000000000E+00  0.15867989567E+04  0.15867989567E+04  0.25500000920E-02 0. -1.
       -2   -1    0    0    0  501  0.00000000000E+00  0.00000000000E+00 -0.23057647577E+04  0.23057647577E+04  0.25500000920E-02 0.  1.
    10030    2    1    2    0    0  0.00000000000E+00  0.00000000000E+00 -0.71896580100E+03  0.38925637144E+04  0.38255902090E+04 0.  0.
        2    1    3    3  502    0  0.15948563518E+04  0.10455555711E+04 -0.51051283379E+03  0.19741774460E+04  0.25500000920E-02 0. -1.
       -2    1    3    3    0  502 -0.15948563518E+04 -0.10455555711E+04 -0.20845296721E+03  0.19183862683E+04  0.25500000920E-02 0.  1.
</event>
<event>
 5   0  0.5161550E-07  0.2975554E+04  0.7818609E-02  0.8250746E-01
       -2   -1    0    0    0  501  0.00000000000E+00  0.00000000000E+00  0.24098046717E+04  0.24098046717E+04  0.25500000920E-02 0.  1.
        2   -1    0    0  501    0  0.00000000000E+00  0.00000000000E+00 -0.91853092502E+03  0.91853092502E+03  0.25500000920E-02 0. -1.
    10030    2    1    2    0    0  0.00000000000E+00  0.00000000000E+00  0.14912737467E+04  0.33283355968E+04  0.29755538068E+04 0.  0.
        2    1    3    3  502    0  0.87384831135E+00 -0.11702492979E+04 -0.28197586306E+03  0.12037419035E+04  0.25500000920E-02 0. -1.
       -2    1    3    3    0  502 -0.87384831135E+00  0.11702492979E+04  0.17732496098E+04  0.21245936933E+04  0.25500000920E-02 0.  1.
</event>
<event>
 5   0  0.4449262E-07  0.4068664E+04  0.7818609E-02  0.7990836E-01
       -2   -1    0    0    0  501  0.00000000000E+00  0.00000000000E+00  0.24570874413E+04  0.24570874413E+04  0.25500000920E-02 0. -1.
        2   -1    0    0  501    0  0.00000000000E+00  0.00000000000E+00 -0.16843140754E+04  0.16843140754E+04  0.25500000920E-02 0.  1.
    10030    2    1    2    0    0  0.00000000000E+00  0.00000000000E+00  0.77277336589E+03  0.41414015167E+04  0.40686641355E+04 0.  0.
        1    1    3    3  502    0 -0.22737376246E+03  0.13575987864E+04  0.19110752719E+04  0.23552031733E+04  0.50400001928E-02 0. -1.
       -1    1    3    3    0  502  0.22737376246E+03 -0.13575987864E+04 -0.11383019060E+04  0.17861983434E+04  0.50400001928E-02 0.  1.
</event>
<event>
 5   0  0.7570277E-07  0.4011712E+04  0.7818609E-02  0.8002188E-01
       -2   -1    0    0    0  501  0.00000000000E+00  0.00000000000E+00  0.18257438337E+04  0.18257438337E+04  0.25500000920E-02 0. -1.
        2   -1    0    0  501    0  0.00000000000E+00  0.00000000000E+00 -0.22037364551E+04  0.22037364551E+04  0.25500000920E-02 0.  1.
    10030    2    1    2    0    0  0.00000000000E+00  0.00000000000E+00 -0.37799262136E+03  0.40294802889E+04  0.40117119758E+04 0.  0.
        5    1    3    3  502    0  0.17043470931E+03 -0.17687826712E+04  0.74560650441E+03  0.19270680521E+04  0.46999998093E+01 0. -1.
       -5    1    3    3    0  502 -0.17043470931E+03  0.17687826712E+04 -0.11235991258E+04  0.21024122368E+04  0.46999998093E+01 0.  1.
</event>
<event>
 5   0  0.7256473E-07  0.3939030E+04  0.7818609E-02  0.8016960E-01
        2   -1    0    0  501    0  0.00000000000E+00  0.00000000000E+00  0.16235215194E+04  0.16235215194E+04  0.25500000920E-02 0. -1.
       -2   -1    0    0    0  501  0.00000000000E+00  0.00000000000E+00 -0.23892443454E+04  0.23892443454E+04  0.25500000920E-02 0.  1.
    10030    2    1    2    0    0  0.00000000000E+00  0.00000000000E+00 -0.76572282600E+03  0.40127658647E+04  0.39390301394E+04 0.  0.
        4    1    3    3  502    0  0.18131870853E+04 -0.74137293493E+03 -0.17481618774E+03  0.19666833877E+04  0.12699999809E+01 0. -1.
       -4    1    3    3    0  502 -0.18131870853E+04  0.74137293493E+03 -0.59090663826E+03  0.20460824771E+04  0.12699999809E+01 0.  1.
</event>
<event>
 5   0  0.2713405E-07  0.2390801E+04  0.7818609E-02  0.8442956E-01
       -1   -1    0    0    0  501  0.00000000000E+00  0.00000000000E+00  0.93288446314E+03  0.93288446316E+03  0.50400001928E-02 0. -1.
        1   -1    0    0  501    0  0.00000000000E+00  0.00000000000E+00 -0.15317888006E+04  0.15317888006E+04  0.50400001928E-02 0.  1.
    10030    2    1    2    0    0  0.00000000000E+00  0.00000000000E+00 -0.59890433741E+03  0.24646732637E+04  0.23908006800E+04 0.  0.
        1    1    3    3  502    0 -0.79038281427E+03 -0.71948499373E+03  0.25245744489E+03  0.10982251185E+04  0.50400001928E-02 0. -1.
       -1    1    3    3    0  502  0.79038281427E+03  0.71948499373E+03 -0.85136178231E+03  0.13664481453E+04  0.50400001928E-02 0.  1.
</event>
<event>
 5   0  0.2713405E-07  0.4120276E+04  0.7818609E-02  0.7980713E-01
        1   -1    0    0  501    0  0.00000000000E+00  0.00000000000E+00  0.22885199166E+04  0.22885199166E+04  0.50400001928E-02 0.  1.
       -1   -1    0    0    0  501  0.00000000000E+00  0.00000000000E+00 -0.18545477025E+04  0.18545477025E+04  0.50400001928E-02 0. -1.
    10030    2    1    2    0    0  0.00000000000E+00  0.00000000000E+00  0.43397221412E+03  0.41430676191E+04  0.41202763759E+04 0.  0.
        1    1    3    3  502    0  0.16190249489E+04 -0.86450405212E+03 -0.72390357718E+03  0.19729788215E+04  0.50400001928E-02 0. -1.
       -1    1    3    3    0  502 -0.16190249489E+04  0.86450405212E+03  0.11578757913E+04  0.21700887976E+04  0.50400001928E-02 0.  1.
</event>
<event>
 5   0  0.2647879E-07  0.4057164E+04  0.7818609E-02  0.7993113E-01
       -1   -1    0    0    0  501  0.00000000000E+00  0.00000000000E+00  0.21876485668E+04  0.21876485668E+04  0.50400001928E-02 0.  1.
        1   -1    0    0  501    0  0.00000000000E+00  0.00000000000E+00 -0.18810810991E+04  0.18810810991E+04  0.50400001928E-02 0. -1.
    10030    2    1    2    0    0  0.00000000000E+00  0.00000000000E+00  0.30656746769E+03  0.40687296659E+04  0.40571637239E+04 0.  0.
        2    1    3    3  502    0  0.11232173194E+04  0.21736148045E+03  0.18332551637E+04  0.21609460092E+04  0.25500000920E-02 0.  1.
       -2    1    3    3    0  502 -0.11232173194E+04 -0.21736148045E+03 -0.15266876960E+04  0.19077836567E+04  0.25500000920E-02 0. -1.
</event>
<event>
 5   0  0.7256473E-07  0.3912221E+04  0.7818609E-02  0.8022492E-01
        2   -1    0    0  501    0  0.00000000000E+00  0.00000000000E+00  0.26032824472E+04  0.26032824472E+04  0.25500000920E-02 0.  1.
       -2   -1    0    0    0  501  0.00000000000E+00  0.00000000000E+00 -0.14698244403E+04  0.14698244403E+04  0.25500000920E-02 0. -1.
    10030    2    1    2    0    0  0.00000000000E+00  0.00000000000E+00  0.11334580069E+04  0.40731068876E+04  0.39122209376E+04 0.  0.
        4    1    3    3  502    0 -0.57547687566E+03  0.71708902078E+03  0.23642819547E+04  0.25367737527E+04  0.12699999809E+01 0.  1.
       -4    1    3    3    0  502  0.57547687566E+03 -0.71708902078E+03 -0.12308239478E+04  0.15363331349E+04  0.12699999809E+01 0. -1.
</event>
<event>
 5   0  0.2713405E-07  0.3733995E+04  0.7818609E-02  0.8060470E-01
       -1   -1    0    0    0  501  0.00000000000E+00  0.00000000000E+00  0.18920098011E+04  0.18920098011E+04  0.50400001928E-02 0.  1.
        1   -1    0    0  501    0  0.00000000000E+00  0.00000000000E+00 -0.18423158756E+04  0.18423158756E+04  0.50400001928E-02 0. -1.
    10030    2    1    2    0    0  0.00000000000E+00  0.00000000000E+00  0.49693925522E+02  0.37343256768E+04  0.37339950153E+04 0.  0.
        1    1    3    3  502    0  0.16274925370E+04  0.88333256238E+03  0.26292543119E+03  0.18703310285E+04  0.50400001928E-02 0. -1.
       -1    1    3    3    0  502 -0.16274925370E+04 -0.88333256238E+03 -0.21323150567E+03  0.18639946483E+04  0.50400001928E-02 0.  1.
</event>
<event>
 5   0  0.6043512E-07  0.4122295E+04  0.7818609E-02  0.7980320E-01
       -2   -1    0    0    0  501  0.00000000000E+00  0.00000000000E+00  0.22105716298E+04  0.22105716298E+04  0.25500000920E-02 0.  1.
        2   -1    0    0  501    0  0.00000000000E+00  0.00000000000E+00 -0.19218234183E+04  0.19218234183E+04  0.25500000920E-02 0. -1.
    10030    2    1    2    0    0  0.00000000000E+00  0.00000000000E+00  0.28874821159E+03  0.41323950481E+04  0.41222946649E+04 0.  0.
        3    1    3    3  502    0  0.18424954703E+04  0.86272659935E+03 -0.18695285109E+03  0.20430462848E+04  0.10100000352E+00 0. -1.
       -3    1    3    3    0  502 -0.18424954703E+04 -0.86272659935E+03  0.47570106268E+03  0.20893487633E+04  0.10100000352E+00 0.  1.
</event>
<event>
 5   0  0.2713405E-07  0.4032431E+04  0.7818609E-02  0.7998036E-01
        1   -1    0    0  501    0  0.00000000000E+00  0.00000000000E+00  0.23099175873E+04  0.23099175873E+04  0.50400001928E-02 0.  1.
       -1   -1    0    0    0  501  0.00000000000E+00  0.00000000000E+00 -0.17598574724E+04  0.17598574724E+04  0.50400001928E-02 0. -1.
    10030    2    1    2    0    0  0.00000000000E+00  0.00000000000E+00  0.55006011497E+03  0.40697750597E+04  0.40324313889E+04 0.  0.
        1    1    3    3  502    0  0.12435190056E+04 -0.12305116726E+04 -0.73656312231E+03  0.18981632508E+04  0.50400001928E-02 0. -1.
       -1    1    3    3    0  502 -0.12435190056E+04  0.12305116726E+04  0.12866232373E+04  0.21716118089E+04  0.50400001928E-02 0.  1.
</event>
<event>
 5   0  0.7256473E-07  0.4336422E+04  0.7818609E-02  0.7939918E-01
       -2   -1    0    0    0  501  0.00000000000E+00  0.00000000000E+00  0.23485107572E+04  0.23485107572E+04  0.25500000920E-02 0.  1.
        2   -1    0    0  501    0  0.00000000000E+00  0.00000000000E+00 -0.20017528479E+04  0.20017528479E+04  0.25500000920E-02 0. -1.
    10030    2    1    2    0    0  0.00000000000E+00  0.00000000000E+00  0.34675790929E+03  0.43502636051E+04  0.43364216107E+04 0.  0.
        4    1    3    3  502    0 -0.11756038635E+04  0.29747465840E+03  0.19765035048E+04  0.23188581961E+04  0.12699999809E+01 0.  1.
       -4    1    3    3    0  502  0.11756038635E+04 -0.29747465840E+03 -0.16297455956E+04  0.20314054089E+04  0.12699999809E+01 0. -1.
</event>
<event>
 5   0  0.2713405E-07  0.3093164E+04  0.7818609E-02  0.8217616E-01
        1   -1    0    0  501    0  0.00000000000E+00  0.00000000000E+00  0.24516066167E+04  0.24516066167E+04  0.50400001928E-02 0.  1.
       -1   -1    0    0    0  501  0.00000000000E+00  0.00000000000E+00 -0.97565245951E+03  0.97565245952E+03  0.50400001928E-02 0. -1.
    10030    2    1    2    0    0  0.00000000000E+00  0.00000000000E+00  0.14759541572E+04  0.34272590763E+04  0.30931640923E+04 0.  0.
        1    1    3    3  502    0  0.54745566615E+03  0.12290058549E+04  0.15830871242E+04  0.20775774211E+04  0.50400001928E-02 0.  1.
       -1    1    3    3    0  502 -0.54745566615E+03 -0.12290058549E+04 -0.10713296701E+03  0.13496816552E+04  0.50400001928E-02 0. -1.
</event>
<event>
 5   0  0.6043512E-07  0.2731200E+04  0.7818609E-02  0.8324952E-01
       -2   -1    0    0    0  501  0.00000000000E+00  0.00000000000E+00  0.73514964100E+03  0.73514964101E+03  0.25500000920E-02 0. -1.
        2   -1    0    0  501    0  0.00000000000E+00  0.00000000000E+00 -0.25367118666E+04  0.25367118666E+04  0.25500000920E-02 0.  1.
    10030    2    1    2    0    0  0.00000000000E+00  0.00000000000E+00 -0.18015622256E+04  0.32718615076E+04  0.27311996031E+04 0.  0.
        3    1    3    3  502    0 -0.39712483410E+03 -0.13002348909E+04 -0.74669608119E+03  0.15510879902E+04  0.10100000352E+00 0. -1.
       -3    1    3    3    0  502  0.39712483410E+03  0.13002348909E+04 -0.10548661444E+04  0.17207735174E+04  0.10100000352E+00 0.  1.
</event>
<event>
 5   0  0.4449262E-07  0.3989491E+04  0.7818609E-02  0.8006670E-01
       -2   -1    0    0    0  501  0.00000000000E+00  0.00000000000E+00  0.21716568404E+04  0.21716568404E+04  0.25500000920E-02 0.  1.
        2   -1    0    0  501    0  0.00000000000E+00  0.00000000000E+00 -0.18322461500E+04  0.18322461500E+04  0.25500000920E-02 0. -1.
    10030    2    1    2    0    0  0.00000000000E+00  0.00000000000E+00  0.33941069039E+03  0.40039029904E+04  0.39894911380E+04 0.  0.
        1    1    3    3  502    0 -0.16456614107E+04  0.69508954466E+03  0.10604129140E+04  0.20774567389E+04  0.50400001928E-02 0.  1.
       -1    1    3    3    0  502  0.16456614107E+04 -0.69508954466E+03 -0.72100222364E+03  0.19264462516E+04  0.50400001928E-02 0. -1.
</event>
<event>
 5   0  0.2401125E-07  0.4059708E+04  0.7818609E-02  0.7992609E-01
       -1   -1    0    0    0  501  0.00000000000E+00  0.00000000000E+00  0.16618969232E+04  0.16618969232E+04  0.50400001928E-02 0.  1.
        1   -1    0    0  501    0  0.00000000000E+00  0.00000000000E+00 -0.24792796322E+04  0.24792796322E+04  0.50400001928E-02 0. -1.
    10030    2    1    2    0    0  0.00000000000E+00  0.00000000000E+00 -0.81738270901E+03  0.41411765554E+04  0.40597079661E+04 0.  0.
        5    1    3    3  502    0 -0.98871437817E+02  0.19325262820E+04 -0.10340616062E+04  0.21940234473E+04  0.46999998093E+01 0. -1.
       -5    1    3    3    0  502  0.98871437817E+02 -0.19325262820E+04  0.21667889717E+03  0.19471531081E+04  0.46999998093E+01 0.  1.
</event>
<event>
 5   0  0.4449262E-07  0.3844361E+04  0.7818609E-02  0.8036702E-01
       -2   -1    0    0    0  501  0.00000000000E+00  0.00000000000E+00  0.29234238143E+04  0.29234238143E+04  0.25500000920E-02 0.  1.
        2   -1    0    0  501    0  0.00000000000E+00  0.00000000000E+00 -0.12638530627E+04  0.12638530627E+04  0.25500000920E-02 0. -1.
    10030    2    1    2    0    0  0.00000000000E+00  0.00000000000E+00  0.16595707517E+04  0.41872768770E+04  0.38443611387E+04 0.  0.
        1    1    3    3  502    0 -0.80574255715E+03 -0.34376552910E+03 -0.10337911195E+04  0.13550350129E+04  0.50400001928E-02 0. -1.
       -1    1    3    3    0  502  0.80574255715E+03  0.34376552910E+03  0.26933618712E+04  0.28322418641E+04  0.50400001928E-02 0.  1.
</event>
<event>
 5   0  0.2647879E-07  0.2303998E+04  0.7818609E-02  0.8476347E-01
        1   -1    0    0  501    0  0.00000000000E+00  0.00000000000E+00  0.18145234426E+04  0.18145234426E+04  0.50400001928E-02 0.  1.
       -1   -1    0    0    0  501  0.00000000000E+00  0.00000000000E+00 -0.73137732491E+03  0.73137732492E+03  0.50400001928E-02 0. -1.
    10030    2    1    2    0    0  0.00000000000E+00  0.00000000000E+00  0.10831461177E+04  0.25459007675E+04  0.23039976575E+04 0.  0.
        2    1    3    3  502    0 -0.37321468818E+03  0.10593163293E+03  0.17401671259E+04  0.17828887627E+04  0.25500000920E-02 0.  1.
       -2    1    3    3    0  502  0.37321468818E+03 -0.10593163293E+03 -0.65702100816E+03  0.76301200482E+03  0.25500000920E-02 0. -1.
</event>
<event>
 5   0  0.2647879E-07  0.3887556E+04  0.7818609E-02  0.8027622E-01
        1   -1    0    0  501    0  0.00000000000E+00  0.00000000000E+00  0.22259843839E+04  0.22259843840E+04  0.50400001928E-02 0. -1.
       -1   -1    0    0    0  501  0.00000000000E+00  0.00000000000E+00 -0.16973491972E+04  0.16973491972E+04  0.50400001928E-02 0.  1.
    10030    2    1    2    0    0  0.00000000000E+00  0.00000000000E+00  0.52863518673E+03  0.39233335812E+04  0.38875559454E+04 0.  0.
        2    1    3    3  502    0  0.15871038847E+04 -0.36428997374E+03 -0.80689667254E+03  0.18173299551E+04  0.25500000920E-02 0.  1.
       -2    1    3    3    0  502 -0.15871038847E+04  0.36428997374E+03  0.13355318593E+04  0.21060036260E+04  0.25500000920E-02 0. -1.
</event>
<event>
 5   0  0.3579559E-07  0.3958204E+04  0.7818609E-02  0.8013032E-01
        1   -1    0    0  501    0  0.00000000000E+00  0.00000000000E+00  0.23420010942E+04  0.23420010942E+04  0.50400001928E-02 0.  1.
       -1   -1    0    0    0  501  0.00000000000E+00  0.00000000000E+00 -0.16724348837E+04  0.16724348838E+04  0.50400001928E-02 0. -1.
    10030    2    1    2    0    0  0.00000000000E+00  0.00000000000E+00  0.66956621043E+03  0.40144359779E+04  0.39582037985E+04 0.  0.
        4    1    3    3  502    0 -0.11413720952E+04 -0.14410229843E+04  0.10783875272E+04  0.21312434804E+04  0.12699999809E+01 0.  1.
       -4    1    3    3    0  502  0.11413720952E+04  0.14410229843E+04 -0.40882131677E+03  0.18831924976E+04  0.12699999809E+01 0. -1.
</event>
<event>
 5   0  0.2401125E-07  0.2237971E+04  0.7818609E-02  0.8502788E-01
       -1   -1    0    0    0  501  0.00000000000E+00  0.00000000000E+00  0.52806399656E+03  0.52806399658E+03  0.50400001928E-02 0. -1.
        1   -1    0    0  501    0  0.00000000000E+00  0.00000000000E+00 -0.23711674729E+04  0.23711674729E+04  0.50400001928E-02 0.  1.
    10030    2    1    2    0    0  0.00000000000E+00  0.00000000000E+00 -0.18431034764E+04  0.28992314695E+04  0.22379706632E+04 0.  0.
        5    1    3    3  502    0  0.10912906283E+04  0.24714906051E+03 -0.93502646064E+03  0.14581819041E+04  0.46999998093E+01 0. -1.
       -5    1    3    3    0  502 -0.10912906283E+04 -0.24714906051E+03 -0.90807701573E+03  0.14410495654E+04  0.46999998093E+01 0.  1.
</event>
<event>
 5   0  0.2601252E-07  0.3830032E+04  0.7818609E-02  0.8039741E-01
       -1   -1    0    0    0  501  0.00000000000E+00  0.00000000000E+00  0.16592645577E+04  0.16592645577E+04  0.50400001928E-02 0. -1.
        1   -1    0    0  501    0  0.00000000000E+00  0.00000000000E+00 -0.22101876900E+04  0.22101876900E+04  0.50400001928E-02 0.  1.
    10030    2    1    2    0    0  0.00000000000E+00  0.00000000000E+00 -0.55092313237E+03  0.38694522477E+04  0.38300319058E+04 0.  0.
        3    1    3    3  502    0  0.17000816500E+04  0.80236117968E+02 -0.11623180143E+04  0.20609945725E+04  0.10100000352E+00 0. -1.
       -3    1    3    3    0  502 -0.17000816500E+04 -0.80236117968E+02  0.61139488189E+03  0.18084576752E+04  0.10100000352E+00 0.  1.
</event>
<event>
 5   0  0.7570277E-07  0.4208520E+04  0.7818609E-02  0.7963754E-01
        2   -1    0    0  501    0  0.00000000000E+00  0.00000000000E+00  0.18621516635E+04  0.18621516635E+04  0.25500000920E-02 0.  1.
       -2   -1    0    0    0  501  0.00000000000E+00  0.00000000000E+00 -0.23778463450E+04  0.23778463450E+04  0.25500000920E-02 0. -1.
    10030    2    1    2    0    0  0.00000000000E+00  0.00000000000E+00 -0.51569468153E+03  0.42399980085E+04  0.42085201803E+04 0.  0.
        5    1    3    3  502    0 -0.20943517974E+04 -0.50726211604E+02 -0.45682349858E+03  0.21441997105E+04  0.46999998093E+01 0. -1.
       -5    1    3    3    0  502  0.20943517974E+04  0.50726211604E+02 -0.58871182946E+02  0.20957982980E+04  0.46999998093E+01 0.  1.
</event>
<event>
 5   0  0.7570277E-07  0.2054304E+04  0.7818609E-02  0.8581644E-01
        2   -1    0    0  501    0  0.00000000000E+00  0.00000000000E+00  0.12386174166E+04  0.12386174166E+04  0.25500000920E-02 0.  1.
       -2   -1    0    0    0  501  0.00000000000E+00  0.00000000000E+00 -0.85178920226E+03  0.85178920226E+03  0.25500000920E-02 0. -1.
    10030    2    1    2    0    0  0.00000000000E+00  0.00000000000E+00  0.38682821436E+03  0.20904066189E+04  0.20543037178E+04 0.  0.
        5    1    3    3  502    0  0.96887619555E+03 -0.31980778844E+03  0.31390430069E+03  0.10674999315E+04  0.46999998093E+01 0.  1.
       -5    1    3    3    0  502 -0.96887619555E+03  0.31980778844E+03  0.72923913672E+02  0.10229066874E+04  0.46999998093E+01 0. -1.
</event>
<event>
 5   0  0.5161550E-07  0.3940681E+04  0.7818609E-02  0.8016621E-01
        2   -1    0    0  501    0  0.00000000000E+00  0.00000000000E+00  0.19019251393E+04  0.19019251393E+04  0.25500000920E-02 0. -1.
       -2   -1    0    0    0  501  0.00000000000E+00  0.00000000000E+00 -0.20412164260E+04  0.20412164260E+04  0.25500000920E-02 0.  1.
    10030    2    1    2    0    0  0.00000000000E+00  0.00000000000E+00 -0.13929128670E+03  0.39431415652E+04  0.39406805682E+04 0.  0.
        2    1    3    3  502    0 -0.11745389331E+04  0.15798220195E+04 -0.15253164428E+03  0.19744987266E+04  0.25500000920E-02 0.  1.
       -2    1    3    3    0  502  0.11745389331E+04 -0.15798220195E+04  0.13240357574E+02  0.19686428386E+04  0.25500000920E-02 0. -1.
</event>
<event>
 5   0  0.2601252E-07  0.3969860E+04  0.7818609E-02  0.8010655E-01
       -1   -1    0    0    0  501  0.00000000000E+00  0.00000000000E+00  0.16513310854E+04  0.16513310854E+04  0.50400001928E-02 0.  1.
        1   -1    0    0  501    0  0.00000000000E+00  0.00000000000E+00 -0.23859216926E+04  0.23859216926E+04  0.50400001928E-02 0. -1.
    10030    2    1    2    0    0  0.00000000000E+00  0.00000000000E+00 -0.73459060720E+03  0.40372527781E+04  0.39698597751E+04 0.  0.
        3    1    3    3  502    0  0.70597662356E+03  0.15454075530E+04 -0.14110018218E+04  0.22085320122E+04  0.10100000352E+00 0. -1.
       -3    1    3    3    0  502 -0.70597662356E+03 -0.15454075530E+04  0.67641121456E+03  0.18287207658E+04  0.10100000352E+00 0.  1.
</event>
<event>
 5   0  0.2713405E-07  0.4024913E+04  0.7818609E-02  0.7999540E-01
        1   -1    0    0  501    0  0.00000000000E+00  0.00000000000E+00  0.20572806971E+04  0.20572806971E+04  0.50400001928E-02 0.  1.
       -1   -1    0    0    0  501  0.00000000000E+00  0.00000000000E+00 -0.19686089893E+04  0.19686089893E+04  0.50400001928E-02 0. -1.
    10030    2    1    2    0    0  0.00000000000E+00  0.00000000000E+00  0.88671707851E+02  0.40258896864E+04  0.40249130544E+04 0.  0.
        1    1    3    3  502    0 -0.28229179827E+03 -0.85270391884E+03  0.18456583488E+04  0.20526196367E+04  0.50400001928E-02 0.  1.
       -1    1    3    3    0  502  0.28229179827E+03  0.85270391884E+03 -0.17569866409E+04  0.19732700497E+04  0.50400001928E-02 0. -1.
</event>
<event>
 5   0  0.5161550E-07  0.2322616E+04  0.7818609E-02  0.8469057E-01
        2   -1    0    0  501    0  0.00000000000E+00  0.00000000000E+00  0.17243233306E+04  0.17243233306E+04  0.25500000920E-02 0.  1.
       -2   -1    0    0    0  501  0.00000000000E+00  0.00000000000E+00 -0.78212489396E+03  0.78212489396E+03  0.25500000920E-02 0. -1.
    10030    2    1    2    0    0  0.00000000000E+00  0.00000000000E+00  0.94219843665E+03  0.25064482246E+04  0.23226159408E+04 0.  0.
        2    1    3    3  502    0  0.14729066661E+03  0.85235561120E+03  0.13073048656E+04  0.15675620052E+04  0.25500000920E-02 0.  1.
       -2    1    3    3    0  502 -0.14729066661E+03 -0.85235561120E+03 -0.36510642900E+03  0.93888621937E+03  0.25500000920E-02 0. -1.
</event>
<event>
 5   0  0.7570277E-07  0.4009115E+04  0.7818609E-02  0.8002710E-01
        2   -1    0    0  501    0  0.00000000000E+00  0.00000000000E+00  0.34755483291E+04  0.34755483291E+04  0.25500000920E-02 0. -1.
       -2   -1    0    0    0  501  0.00000000000E+00  0.00000000000E+00 -0.11561486463E+04  0.11561486463E+04  0.25500000920E-02 0.  1.
    10030    2    1    2    0    0  0.00000000000E+00  0.00000000000E+00  0.23193996828E+04  0.46316969754E+04  0.40091148629E+04 0.  0.
        5    1    3    3  502    0 -0.83443240265E+02 -0.16757380900E+04 -0.10752793203E+03  0.16812629975E+04  0.46999998093E+01 0.  1.
       -5    1    3    3    0  502  0.83443240265E+02  0.16757380900E+04  0.24269276148E+04  0.29504339779E+04  0.46999998093E+01 0. -1.
</event>
<event>
 5   0  0.2601252E-07  0.3981914E+04  0.7818609E-02  0.8008205E-01
       -1   -1    0    0    0  501  0.00000000000E+00  0.00000000000E+00  0.14009324751E+04  0.14009324751E+04  0.50400001928E-02 0. -1.
        1   -1    0    0  501    0  0.00000000000E+00  0.00000000000E+00 -0.28294796317E+04  0.28294796318E+04  0.50400001928E-02 0.  1.
    10030    2    1    2    0    0  0.00000000000E+00  0.00000000000E+00 -0.14285471566E+04  0.42304121069E+04  0.39819140643E+04 0.  0.
        3    1    3    3  502    0 -0.10948396846E+04  0.11617505609E+04 -0.19783016319E+04  0.25420494995E+04  0.10100000352E+00 0.  1.
       -3    1    3    3    0  502  0.10948396846E+04 -0.11617505609E+04  0.54975447531E+03  0.16883626074E+04  0.10100000352E+00 0. -1.
</event>
<event>
 5   0  0.7256473E-07  0.2313211E+04  0.7818609E-02  0.8472730E-01
       -2   -1    0    0    0  501  0.00000000000E+00  0.00000000000E+00  0.53450367116E+03  0.53450367117E+03  0.25500000920E-02 0.  1.
        2   -1    0    0  501    0  0.00000000000E+00  0.00000000000E+00 -0.25027633093E+04  0.25027633093E+04  0.25500000920E-02 0. -1.
    10030    2    1    2    0    0  0.00000000000E+00  0.00000000000E+00 -0.19682596382E+04  0.30372669805E+04  0.23132109086E+04 0.  0.
        4    1    3    3  502    0 -0.32943967692E+03 -0.20827223609E+02 -0.24395992491E+04  0.24618306975E+04  0.12699999809E+01 0. -1.
       -4    1    3    3    0  502  0.32943967692E+03  0.20827223609E+02  0.47133961098E+03  0.57543628297E+03  0.12699999809E+01 0.  1.
</event>
<event>
 5   0  0.5161550E-07  0.4049051E+04  0.7818609E-02  0.7994724E-01
       -2   -1    0    0    0  501  0.00000000000E+00  0.00000000000E+00  0.13753486066E+04  0.13753486066E+04  0.25500000920E-02 0.  1.
        2   -1    0    0  501    0  0.00000000000E+00  0.00000000000E+00 -0.29801201190E+04  0.29801201190E+04  0.25500000920E-02 0. -1.
    10030    2    1    2    0    0  0.00000000000E+00  0.00000000000E+00 -0.16047715125E+04  0.43554687256E+04  0.40490512732E+04 0.  0.
        2    1    3    3  502    0  0.49618798451E+03  0.96732627418E+03  0.10347174940E+04  0.15008540666E+04  0.25500000920E-02 0.  1.
       -2    1    3    3    0  502 -0.49618798451E+03 -0.96732627418E+03 -0.26394890065E+04  0.28546146591E+04  0.25500000920E-02 0. -1.
</event>
<event>
 5   0  0.7256473E-07  0.2798975E+04  0.7818609E-02  0.8303587E-01
       -2   -1    0    0    0  501  0.00000000000E+00  0.00000000000E+00  0.11675034187E+04  0.11675034187E+04  0.25500000920E-02 0.  1.
        2   -1    0    0  501    0  0.00000000000E+00  0.00000000000E+00 -0.16775669854E+04  0.16775669854E+04  0.25500000920E-02 0. -1.
    10030    2    1    2    0    0  0.00000000000E+00  0.00000000000E+00 -0.51006356666E+03  0.28450704040E+04  0.27989749484E+04 0.  0.
        4    1    3    3  502    0 -0.92510172901E+03  0.10566677557E+03 -0.13170275031E+04  0.16129295500E+04  0.12699999809E+01 0. -1.
       -4    1    3    3    0  502  0.92510172901E+03 -0.10566677557E+03  0.80696393647E+03  0.12321408540E+04  0.12699999809E+01 0.  1.
</event>
<event>
 5   0  0.6043512E-07  0.4036311E+04  0.7818609E-02  0.7997261E-01
       -2   -1    0    0    0  501  0.00000000000E+00  0.00000000000E+00  0.31417087883E+04  0.31417087883E+04  0.25500000920E-02 0. -1.
        2   -1    0    0  501    0  0.00000000000E+00  0.00000000000E+00 -0.12964129640E+04  0.12964129641E+04  0.25500000920E-02 0.  1.
    10030    2    1    2    0    0  0.00000000000E+00  0.00000000000E+00  0.18452958243E+04  0.44381217524E+04  0.40363111884E+04 0.  0.
        3    1    3    3  502    0  0.12295014768E+04  0.15035113289E+03  0.26745826432E+04  0.29474856522E+04  0.10100000352E+00 0. -1.
       -3    1    3    3    0  502 -0.12295014768E+04 -0.15035113289E+03 -0.82928681893E+03  0.14906361001E+04  0.10100000352E+00 0.  1.
</event>
<event>
 5   0  0.5161550E-07  0.2785870E+04  0.7818609E-02  0.8307669E-01
       -2   -1    0    0    0  501  0.00000000000E+00  0.00000000000E+00  0.76677167874E+03  0.76677167875E+03  0.25500000920E-02 0. -1.
        2   -1    0    0  501    0  0.00000000000E+00  0.00000000000E+00 -0.25304377722E+04  0.25304377722E+04  0.25500000920E-02 0.  1.
    10030    2    1    2    0    0  0.00000000000E+00  0.00000000000E+00 -0.17636660934E+04  0.32972094509E+04  0.27858700749E+04 0.  0.
        2    1    3    3  502    0 -0.10052385543E+04  0.79658166311E+03 -0.15249047360E+04  0.19925815795E+04  0.25500000920E-02 0. -1.
       -2    1    3    3    0  502  0.10052385543E+04 -0.79658166311E+03 -0.23876135749E+03  0.13046278715E+04  0.25500000920E-02 0.  1.
</event>
<event>
 5   0  0.4449262E-07  0.2335217E+04  0.7818609E-02  0.8464164E-01
       -2   -1    0    0    0  501  0.00000000000E+00  0.00000000000E+00  0.10547515452E+04  0.10547515452E+04  0.25500000920E-02 0.  1.
        2   -1    0    0  501    0  0.00000000000E+00  0.00000000000E+00 -0.12925405118E+04  0.12925405118E+04  0.25500000920E-02 0. -1.
    10030    2    1    2    0    0  0.00000000000E+00  0.00000000000E+00 -0.23778896654E+03  0.23472920570E+04  0.23352165656E+04 0.  0.
        1    1    3    3  502    0 -0.33445934622E+02  0.11091018828E+04 -0.48420672520E+03  0.12106534474E+04  0.50400001928E-02 0.  1.
       -1    1    3    3    0  502  0.33445934622E+02 -0.11091018828E+04  0.24641775865E+03  0.11366386096E+04  0.50400001928E-02 0. -1.
</event>
<event>
 5   0  0.7570277E-07  0.2095081E+04  0.7818609E-02  0.8563413E-01
       -2   -1    0    0    0  501  0.00000000000E+00  0.00000000000E+00  0.13419014256E+04  0.13419014256E+04  0.25500000920E-02 0. -1.
        2   -1    0    0  501    0  0.00000000000E+00  0.00000000000E+00 -0.81775120602E+03  0.81775120602E+03  0.25500000920E-02 0.  1.
    10030    2    1    2    0    0  0.00000000000E+00  0.00000000000E+00  0.52415021958E+03  0.21596526316E+04  0.20950813914E+04 0.  0.
        5    1    3    3  502    0 -0.14757200970E+03  0.94843745041E+02 -0.80249169071E+03  0.82145470824E+03  0.46999998093E+01 0.  1.
       -5    1    3    3    0  502  0.14757200970E+03 -0.94843745041E+02  0.13266419103E+04  0.13381979234E+04  0.46999998093E+01 0. -1.
</event>
<event>
 5   0  0.5161550E-07  0.2535794E+04  0.7818609E-02  0.8390344E-01
        2   -1    0    0  501    0  0.00000000000E+00  0.00000000000E+00  0.18319236883E+04  0.18319236883E+04  0.25500000920E-02 0.  1.
       -2   -1    0    0    0  501  0.00000000000E+00  0.00000000000E+00 -0.87752732457E+03  0.87752732458E+03  0.25500000920E-02 0. -1.
    10030    2    1    2    0    0  0.00000000000E+00  0.00000000000E+00  0.95439636374E+03  0.27094510129E+04  0.25357942291E+04 0.  0.
        2    1    3    3  502    0 -0.73255258844E+02 -0.59369912397E+03  0.16716628993E+04  0.17754722841E+04  0.25500000920E-02 0.  1.
       -2    1    3    3    0  502  0.73255258844E+02  0.59369912397E+03 -0.71726653557E+03  0.93397872877E+03  0.25500000920E-02 0. -1.
</event>
<event>
 5   0  0.4449262E-07  0.4037274E+04  0.7818609E-02  0.7997069E-01
        2   -1    0    0  501    0  0.00000000000E+00  0.00000000000E+00  0.13868414707E+04  0.13868414707E+04  0.25500000920E-02 0.  1.
       -2   -1    0    0    0  501  0.00000000000E+00  0.00000000000E+00 -0.29382556048E+04  0.29382556048E+04  0.25500000920E-02 0. -1.
    10030    2    1    2    0    0  0.00000000000E+00  0.00000000000E+00 -0.15514141341E+04  0.43250970755E+04  0.40372736960E+04 0.  0.
        1    1    3    3  502    0 -0.76992116569E+03 -0.17575492234E+04 -0.10400057755E+03  0.19216071384E+04  0.50400001928E-02 0.  1.
       -1    1    3    3    0  502  0.76992116569E+03  0.17575492234E+04 -0.14474135566E+04  0.24034899371E+04  0.50400001928E-02 0. -1.
</event>
<event>
 5   0  0.6043512E-07  0.4023532E+04  0.7818609E-02  0.7999816E-01
        2   -1    0    0  501    0  0.00000000000E+00  0.00000000000E+00  0.21361205992E+04  0.21361205992E+04  0.25500000920E-02 0. -1.
       -2   -1    0    0    0  501  0.00000000000E+00  0.00000000000E+00 -0.18946505344E+04  0.18946505344E+04  0.25500000920E-02 0.  1.
    10030    2    1    2    0    0  0.00000000000E+00  0.00000000000E+00  0.24147006478E+03  0.40307711336E+04  0.40235317992E+04 0.  0.
        3    1    3    3  502    0  0.55623341626E+03  0.14738976971E+04 -0.11326883839E+04  0.19402971474E+04  0.10100000352E+00 0.  1.
       -3    1    3    3    0  502 -0.55623341626E+03 -0.14738976971E+04  0.13741584487E+04  0.20904739862E+04  0.10100000352E+00 0. -1.
</event>
<event>
 5   0  0.4449262E-07  0.3895861E+04  0.7818609E-02  0.8025891E-01
       -2   -1    0    0    0  501  0.00000000000E+00  0.00000000000E+00  0.24885746952E+04  0.24885746952E+04  0.25500000920E-02 0. -1.
        2   -1    0    0  501    0  0.00000000000E+00  0.00000000000E+00 -0.15247414812E+04  0.15247414812E+04  0.25500000920E-02 0.  1.
    10030    2    1    2    0    0  0.00000000000E+00  0.00000000000E+00  0.96383321406E+03  0.40133161764E+04  0.38958609148E+04 0.  0.
        1    1    3    3  502    0  0.11328629950E+04  0.92170571926E+03 -0.84594193746E+03  0.16877611679E+04  0.50400001928E-02 0.  1.
       -1    1    3    3    0  502 -0.11328629950E+04 -0.92170571926E+03  0.18097751515E+04  0.23255550085E+04  0.50400001928E-02 0. -1.
</event>
<event>
 5   0  0.3579559E-07  0.2038928E+04  0.7818609E-02  0.8588634E-01
       -1   -1    0    0    0  501  0.00000000000E+00  0.00000000000E+00  0.11547556587E+04  0.11547556587E+04  0.50400001928E-02 0. -1.
        1   -1    0    0  501    0  0.00000000000E+00  0.00000000000E+00 -0.90002283112E+03  0.90002283113E+03  0.50400001928E-02 0.  1.
    10030    2    1    2    0    0  0.00000000000E+00  0.00000000000E+00  0.25473282754E+03  0.20547784898E+04  0.20389276173E+04 0.  0.
        4    1    3    3  502    0 -0.44051723565E+03  0.63125070122E+03 -0.54623991250E+03  0.94388163326E+03  0.12699999809E+01 0.  1.
       -4    1    3    3    0  502  0.44051723565E+03 -0.63125070122E+03  0.80097274004E+03  0.11108968565E+04  0.12699999809E+01 0. -1.
</event>
<event>
 5   0  0.5161550E-07  0.4046899E+04  0.7818609E-02  0.7995152E-01
       -2   -1    0    0    0  501  0.00000000000E+00  0.00000000000E+00  0.27455680833E+04  0.27455680833E+04  0.25500000920E-02 0. -1.
        2   -1    0    0  501    0  0.00000000000E+00  0.00000000000E+00 -0.14912572744E+04  0.14912572744E+04  0.25500000920E-02 0.  1.
    10030    2    1    2    0    0  0.00000000000E+00  0.00000000000E+00  0.12543108089E+04  0.42368253578E+04  0.40468992460E+04 0.  0.
        2    1    3    3  502    0 -0.19109533071E+04 -0.12185328305E+03 -0.57570950456E+02  0.19156996578E+04  0.25500000920E-02 0.  1.
       -2    1    3    3    0  502  0.19109533071E+04  0.12185328305E+03  0.13118817593E+04  0.23211257000E+04  0.25500000920E-02 0. -1.
</event>
<event>
 5   0  0.2601252E-07  0.3654233E+04  0.7818609E-02  0.8078181E-01
        1   -1    0    0  501    0  0.00000000000E+00  0.00000000000E+00  0.16213785913E+04  0.16213785913E+04  0.50400001928E-02 0.  1.
       -1   -1    0    0    0  501  0.00000000000E+00  0.00000000000E+00 -0.20589611666E+04  0.20589611666E+04  0.50400001928E-02 0. -1.
    10030    2    1    2    0    0  0.00000000000E+00  0.00000000000E+00 -0.43758257529E+03  0.36803397579E+04  0.36542334659E+04 0.  0.
        3    1    3    3  502    0 -0.10655488126E+04  0.38521902469E+03 -0.16624077894E+04  0.20118120284E+04  0.10100000352E+00 0. -1.
       -3    1    3    3    0  502  0.10655488126E+04 -0.38521902469E+03  0.12248252141E+04  0.16685277296E+04  0.10100000352E+00 0.  1.
</event>
<event>
 5   0  0.6043512E-07  0.3988805E+04  0.7818609E-02  0.8006809E-01
        2   -1    0    0  501    0  0.00000000000E+00  0.00000000000E+00  0.16117721403E+04  0.16117721403E+04  0.25500000920E-02 0.  1.
       -2   -1    0    0    0  501  0.00000000000E+00  0.00000000000E+00 -0.24678688939E+04  0.24678688939E+04  0.25500000920E-02 0. -1.
    10030    2    1    2    0    0  0.00000000000E+00  0.00000000000E+00 -0.85609675353E+03  0.40796410342E+04  0.39888054999E+04 0.  0.
        3    1    3    3  502    0  0.16338098009E+04  0.44158266418E+03 -0.15072128864E+04  0.22662789789E+04  0.10100000352E+00 0. -1.
       -3    1    3    3    0  502 -0.16338098009E+04 -0.44158266418E+03  0.65111613288E+03  0.18133620553E+04  0.10100000352E+00 0.  1.
</event>
<event>
 5   0  0.7570277E-07  0.2747810E+04  0.7818609E-02  0.8319657E-01
        2   -1    0    0  501    0  0.00000000000E+00  0.00000000000E+00  0.12147900823E+04  0.12147900823E+04  0.25500000920E-02 0.  1.
       -2   -1    0    0    0  501  0.00000000000E+00  0.00000000000E+00 -0.15538607987E+04  0.15538607987E+04  0.25500000920E-02 0. -1.
    10030    2    1    2    0    0  0.00000000000E+00  0.00000000000E+00 -0.33907071634E+03  0.27686508810E+04  0.27478098097E+04 0.  0.
        5    1    3    3  502    0 -0.53673863002E+03  0.12120400119E+04 -0.53347186571E+03  0.14288959615E+04  0.46999998093E+01 0. -1.
       -5    1    3    3    0  502  0.53673863002E+03 -0.12120400119E+04  0.19440114937E+03  0.13397549195E+04  0.46999998093E+01 0.  1.
</event>
<event>
 5   0  0.7256473E-07  0.4027750E+04  0.7818609E-02  0.7998972E-01
        2   -1    0    0  501    0  0.00000000000E+00  0.00000000000E+00  0.26684143833E+04  0.26684143833E+04  0.25500000920E-02 0. -1.
       -2   -1    0    0    0  501  0.00000000000E+00  0.00000000000E+00 -0.15198888663E+04  0.15198888663E+04  0.25500000920E-02 0.  1.
    10030    2    1    2    0    0  0.00000000000E+00  0.00000000000E+00  0.11485255170E+04  0.41883032496E+04  0.40277503953E+04 0.  0.
        4    1    3    3  502    0  0.17738005945E+04  0.90581881706E+03  0.88416146088E+03  0.21791327129E+04  0.12699999809E+01 0. -1.
       -4    1    3    3    0  502 -0.17738005945E+04 -0.90581881706E+03  0.26436405612E+03  0.20091705367E+04  0.12699999809E+01 0.  1.
</event>
<event>
 5   0  0.3579559E-07  0.2084794E+04  0.7818609E-02  0.8567972E-01
       -1   -1    0    0    0  501  0.00000000000E+00  0.00000000000E+00  0.13775684981E+04  0.13775684981E+04  0.50400001928E-02 0. -1.
        1   -1    0    0  501    0  0.00000000000E+00  0.00000000000E+00 -0.78877457786E+03  0.78877457788E+03  0.50400001928E-02 0.  1.
    10030    2    1    2    0    0  0.00000000000E+00  0.00000000000E+00  0.58879392023E+03  0.21663430760E+04  0.20847935251E+04 0.  0.
        4    1    3    3  502    0 -0.76534195991E+03  0.49391620412E+03  0.82106380700E+03  0.12263151799E+04  0.12699999809E+01 0. -1.
       -4    1    3    3    0  502  0.76534195991E+03 -0.49391620412E+03 -0.23226988677E+03  0.94002789612E+03  0.12699999809E+01 0.  1.
</event>
<event>
 5   0  0.4449262E-07  0.3001670E+04  0.7818609E-02  0.8243254E-01
        2   -1    0    0  501    0  0.00000000000E+00  0.00000000000E+00  0.28592285881E+04  0.28592285881E+04  0.25500000920E-02 0.  1.
       -2   -1    0    0    0  501  0.00000000000E+00  0.00000000000E+00 -0.78780167590E+03  0.78780167591E+03  0.25500000920E-02 0. -1.
    10030    2    1    2    0    0  0.00000000000E+00  0.00000000000E+00  0.20714269122E+04  0.36470302640E+04  0.30016695844E+04 0.  0.
        1    1    3    3  502    0  0.77747203929E+03 -0.12257366448E+04  0.57207971431E+03  0.15601821348E+04  0.50400001928E-02 0.  1.
       -1    1    3    3    0  502 -0.77747203929E+03  0.12257366448E+04  0.14993471979E+04  0.20868481291E+04  0.50400001928E-02 0. -1.
</event>
<event>
 5   0  0.2647879E-07  0.3931531E+04  0.7818609E-02  0.8018503E-01
        1   -1    0    0  501    0  0.00000000000E+00  0.00000000000E+00  0.21734918137E+04  0.21734918137E+04  0.50400001928E-02 0. -1.
       -1   -1    0    0    0  501  0.00000000000E+00  0.00000000000E+00 -0.17778921848E+04  0.17778921848E+04  0.50400001928E-02 0.  1.
    10030    2    1    2    0    0  0.00000000000E+00  0.00000000000E+00  0.39559962890E+03  0.39513839985E+04  0.39315310551E+04 0.  0.
        2    1    3    3  502    0 -0.17915639921E+04 -0.66031650712E+03 -0.27201622284E+03  0.19286555558E+04  0.25500000920E-02 0.  1.
       -2    1    3    3    0  502  0.17915639921E+04  0.66031650712E+03  0.66761585174E+03  0.20227284427E+04  0.25500000920E-02 0. -1.
</event>
<event>
 5   0  0.2401125E-07  0.2696682E+04  0.7818609E-02  0.8336082E-01
       -1   -1    0    0    0  501  0.00000000000E+00  0.00000000000E+00  0.14340886192E+04  0.14340886192E+04  0.50400001928E-02 0. -1.
        1   -1    0    0  501    0  0.00000000000E+00  0.00000000000E+00 -0.12677201764E+04  0.12677201764E+04  0.50400001928E-02 0.  1.
    10030    2    1    2    0    0  0.00000000000E+00  0.00000000000E+00  0.16636844285E+03  0.27018087956E+04  0.26966817219E+04 0.  0.
        5    1    3    3  502    0 -0.53332435681E+03 -0.26328412838E+03 -0.11291773946E+04  0.12762511823E+04  0.46999998093E+01 0.  1.
       -5    1    3    3    0  502  0.53332435681E+03  0.26328412838E+03  0.12955458375E+04  0.14255576133E+04  0.46999998093E+01 0. -1.
</event>
<event>
 5   0  0.4449262E-07  0.2371765E+04  0.7818609E-02  0.8450151E-01
        2   -1    0    0  501    0  0.00000000000E+00  0.00000000000E+00  0.17498988535E+04  0.17498988535E+04  0.25500000920E-02 0.  1.
       -2   -1    0    0    0  501  0.00000000000E+00  0.00000000000E+00 -0.80365603158E+03  0.80365603158E+03  0.25500000920E-02 0. -1.
    10030    2    1    2    0    0  0.00000000000E+00  0.00000000000E+00  0.94624282187E+03  0.25535548850E+04  0.23717645484E+04 0.  0.
        1    1    3    3  502    0 -0.10451930211E+04  0.54193356033E+03  0.32011490914E+03  0.12200795016E+04  0.50400001928E-02 0.  1.
       -1    1    3    3    0  502  0.10451930211E+04 -0.54193356033E+03  0.62612791273E+03  0.13334753834E+04  0.50400001928E-02 0. -1.
</event>
<event>
 5   0  0.2713405E-07  0.2732767E+04  0.7818609E-02  0.8324451E-01
       -1   -1    0    0    0  501  0.00000000000E+00  0.00000000000E+00  0.88289174640E+03  0.88289174642E+03  0.50400001928E-02 0. -1.
        1   -1    0    0  501    0  0.00000000000E+00  0.00000000000E+00 -0.21146465068E+04  0.21146465068E+04  0.50400001928E-02 0.  1.
    10030    2    1    2    0    0  0.00000000000E+00  0.00000000000E+00 -0.12317547604E+04  0.29975382532E+04  0.27327670574E+04 0.  0.
        1    1    3    3  502    0  0.79433985129E+03  0.87077058412E+03  0.14231456390E+03  0.11872112890E+04  0.50400001928E-02 0. -1.
       -1    1    3    3    0  502 -0.79433985129E+03 -0.87077058412E+03 -0.13740693243E+04  0.18103269643E+04  0.50400001928E-02 0.  1.
</event>
<event>
 5   0  0.5035825E-07  0.2010598E+04  0.7818609E-02  0.8601682E-01
       -2   -1    0    0    0  501  0.00000000000E+00  0.00000000000E+00  0.12855558523E+04  0.12855558523E+04  0.25500000920E-02 0.  1.
        2   -1    0    0  501    0  0.00000000000E+00  0.00000000000E+00 -0.78613957049E+03  0.78613957049E+03  0.25500000920E-02 0. -1.
    10030    2    1    2    0    0  0.00000000000E+00  0.00000000000E+00  0.49941628178E+03  0.20716954228E+04  0.20105982449E+04 0.  0.
        1    1    3    3  502    0  0.40605863265E+02  0.18272705102E+03  0.12674412474E+04  0.12811890286E+04  0.50400001928E-02 0.  1.
       -1    1    3    3    0  502 -0.40605863265E+02 -0.18272705102E+03 -0.76802496565E+03  0.79050639415E+03  0.50400001928E-02 0. -1.
</event>
<event>
 5   0  0.2647879E-07  0.2237346E+04  0.7818609E-02  0.8503043E-01
        1   -1    0    0  501    0  0.00000000000E+00  0.00000000000E+00  0.21331954971E+04  0.21331954971E+04  0.50400001928E-02 0.  1.
       -1   -1    0    0    0  501  0.00000000000E+00  0.00000000000E+00 -0.58664532642E+03  0.58664532644E+03  0.50400001928E-02 0. -1.
    10030    2    1    2    0    0  0.00000000000E+00  0.00000000000E+00  0.15465501707E+04  0.27198408235E+04  0.22373458997E+04 0.  0.
        2    1    3    3  502    0  0.75125377609E+03 -0.46316460440E+03 -0.62372134228E+02  0.88475644671E+03  0.25500000920E-02 0. -1.
       -2    1    3    3    0  502 -0.75125377609E+03  0.46316460440E+03  0.16089223049E+04  0.18350843768E+04  0.25500000920E-02 0.  1.
</event>
<event>
 5   0  0.4449262E-07  0.4042292E+04  0.7818609E-02  0.7996069E-01
        2   -1    0    0  501    0  0.00000000000E+00  0.00000000000E+00  0.32816950671E+04  0.32816950671E+04  0.25500000920E-02 0.  1.
       -2   -1    0    0    0  501  0.00000000000E+00  0.00000000000E+00 -0.12447932143E+04  0.12447932143E+04  0.25500000920E-02 0. -1.
    10030    2    1    2    0    0  0.00000000000E+00  0.00000000000E+00  0.20369018528E+04  0.45264882813E+04  0.40422922956E+04 0.  0.
        1    1    3    3  502    0  0.17868225214E+04 -0.92633907888E+03  0.12255136395E+04  0.23564215439E+04  0.50400001928E-02 0.  1.
       -1    1    3    3    0  502 -0.17868225214E+04  0.92633907888E+03  0.81138821330E+03  0.21700667374E+04  0.50400001928E-02 0. -1.
</event>
<event>
 5   0  0.2647879E-07  0.2952339E+04  0.7818609E-02  0.8257473E-01
       -1   -1    0    0    0  501  0.00000000000E+00  0.00000000000E+00  0.11483068567E+04  0.11483068567E+04  0.50400001928E-02 0. -1.
        1   -1    0    0  501    0  0.00000000000E+00  0.00000000000E+00 -0.18976425568E+04  0.18976425568E+04  0.50400001928E-02 0.  1.
    10030    2    1    2    0    0  0.00000000000E+00  0.00000000000E+00 -0.74933570003E+03  0.30459494135E+04  0.29523387066E+04 0.  0.
        2    1    3    3  502    0 -0.25992642465E+03 -0.13297407021E+04  0.22983153175E+03  0.13742614795E+04  0.25500000920E-02 0. -1.
       -2    1    3    3    0  502  0.25992642465E+03  0.13297407021E+04 -0.97916723178E+03  0.16716879340E+04  0.25500000920E-02 0.  1.
</event>
<event>
 5   0  0.2401125E-07  0.3919679E+04  0.7818609E-02  0.8020949E-01
        1   -1    0    0  501    0  0.00000000000E+00  0.00000000000E+00  0.25266944778E+04  0.25266944778E+04  0.50400001928E-02 0.  1.
       -1   -1    0    0    0  501  0.00000000000E+00  0.00000000000E+00 -0.15201561231E+04  0.15201561231E+04  0.50400001928E-02 0. -1.
    10030    2    1    2    0    0  0.00000000000E+00  0.00000000000E+00  0.10065383547E+04  0.40468506009E+04  0.39196785998E+04 0.  0.
        5    1    3    3  502    0  0.13488127845E+04  0.14396186713E+03 -0.95716618743E+03  0.16601837691E+04  0.46999998093E+01 0. -1.
       -5    1    3    3    0  502 -0.13488127845E+04 -0.14396186713E+03  0.19637045422E+04  0.23866668317E+04  0.46999998093E+01 0.  1.
</event>
<event>
 5   0  0.2647879E-07  0.4039676E+04  0.7818609E-02  0.7996590E-01
       -1   -1    0    0    0  501  0.00000000000E+00  0.00000000000E+00  0.31507544067E+04  0.31507544067E+04  0.50400001928E-02 0. -1.
        1   -1    0    0  501    0  0.00000000000E+00  0.00000000000E+00 -0.12948473625E+04  0.12948473625E+04  0.50400001928E-02 0.  1.
    10030    2    1    2    0    0  0.00000000000E+00  0.00000000000E+00  0.18559070442E+04  0.44456017692E+04  0.40396762412E+04 0.  0.
        2    1    3    3  502    0  0.19825479065E+04  0.34541977766E+03  0.73755056244E+03  0.21433132894E+04  0.25500000920E-02 0. -1.
       -2    1    3    3    0  502 -0.19825479065E+04 -0.34541977766E+03  0.11183564817E+04  0.23022884799E+04  0.25500000920E-02 0.  1.
</event>
<event>
 5   0  0.3615181E-07  0.2220277E+04  0.7818609E-02  0.8510036E-01
        1   -1    0    0  501    0  0.00000000000E+00  0.00000000000E+00  0.94133662390E+03  0.94133662391E+03  0.50400001928E-02 0. -1.
       -1   -1    0    0    0  501  0.00000000000E+00  0.00000000000E+00 -0.13092097921E+04  0.13092097921E+04  0.50400001928E-02 0.  1.
    10030    2    1    2    0    0  0.00000000000E+00  0.00000000000E+00 -0.36787316819E+03  0.22505464160E+04  0.22202766726E+04 0.  0.
        3    1    3    3  502    0  0.33844356090E+02  0.37548931535E+03 -0.12423316334E+04  0.12982779224E+04  0.10100000352E+00 0.  1.
       -3    1    3    3    0  502 -0.33844356090E+02 -0.37548931535E+03  0.87445846517E+03  0.95226849359E+03  0.10100000352E+00 0. -1.
</event>
<event>
 5   0  0.5161550E-07  0.4312580E+04  0.7818609E-02  0.7944296E-01
       -2   -1    0    0    0  501  0.00000000000E+00  0.00000000000E+00  0.28227382389E+04  0.28227382389E+04  0.25500000920E-02 0.  1.
        2   -1    0    0  501    0  0.00000000000E+00  0.00000000000E+00 -0.16471899981E+04  0.16471899981E+04  0.25500000920E-02 0. -1.
    10030    2    1    2    0    0  0.00000000000E+00  0.00000000000E+00  0.11755482408E+04  0.44699282370E+04  0.43125798285E+04 0.  0.
        2    1    3    3  502    0  0.92991638298E+03  0.17503221300E+04  0.14680028208E+04  0.24664558216E+04  0.25500000920E-02 0. -1.
       -2    1    3    3    0  502 -0.92991638298E+03 -0.17503221300E+04 -0.29245457998E+03  0.20034724154E+04  0.25500000920E-02 0.  1.
</event>
<event>
 5   0  0.7256473E-07  0.3963156E+04  0.7818609E-02  0.8012021E-01
       -2   -1    0    0    0  501  0.00000000000E+00  0.00000000000E+00  0.19103464372E+04  0.19103464372E+04  0.25500000920E-02 0. -1.
        2   -1    0    0  501    0  0.00000000000E+00  0.00000000000E+00 -0.20554659405E+04  0.20554659405E+04  0.25500000920E-02 0.  1.
    10030    2    1    2    0    0  0.00000000000E+00  0.00000000000E+00 -0.14511950327E+03  0.39658123777E+04  0.39631563362E+04 0.  0.
        4    1    3    3  502    0  0.10869014049E+04  0.35668043750E+03 -0.16916907474E+04  0.20421544496E+04  0.12699999809E+01 0.  1.
       -4    1    3    3    0  502 -0.10869014049E+04 -0.35668043750E+03  0.15465712441E+04  0.19236579281E+04  0.12699999809E+01 0. -1.
</event>
<event>
 5   0  0.4754228E-07  0.2155960E+04  0.7818609E-02  0.8536985E-01
       -2   -1    0    0    0  501  0.00000000000E+00  0.00000000000E+00  0.74228248726E+03  0.74228248726E+03  0.25500000920E-02 0. -1.
        2   -1    0    0  501    0  0.00000000000E+00  0.00000000000E+00 -0.15654975370E+04  0.15654975370E+04  0.25500000920E-02 0.  1.
    10030    2    1    2    0    0  0.00000000000E+00  0.00000000000E+00 -0.82321504975E+03  0.23077800243E+04  0.21559604872E+04 0.  0.
        1    1    3    3  502    0  0.78230788333E+03  0.79123979661E+02 -0.12009460538E+04  0.14354572974E+04  0.50400001928E-02 0.  1.
       -1    1    3    3    0  502 -0.78230788333E+03 -0.79123979661E+02  0.37773100401E+03  0.87232272692E+03  0.50400001928E-02 0. -1.
</event>
<event>
 5   0  0.6043512E-07  0.4003000E+04  0.7818609E-02  0.8003942E-01
        2   -1    0    0  501    0  0.00000000000E+00  0.00000000000E+00  0.24554244587E+04  0.24554244587E+04  0.25500000920E-02 0.  1.
       -2   -1    0    0    0  501  0.00000000000E+00  0.00000000000E+00 -0.16314907973E+04  0.16314907973E+04  0.25500000920E-02 0. -1.
    10030    2    1    2    0    0  0.00000000000E+00  0.00000000000E+00  0.82393366141E+03  0.40869152560E+04  0.40030000789E+04 0.  0.
        3    1    3    3  502    0  0.34974183099E+03 -0.19167557544E+04  0.87953049626E+03  0.21377197839E+04  0.10100000352E+00 0.  1.
       -3    1    3    3    0  502 -0.34974183099E+03  0.19167557544E+04 -0.55596834845E+02  0.19491954721E+04  0.10100000352E+00 0. -1.
</event>
<event>
 5   0  0.8450216E-07  0.2039145E+04  0.7818609E-02  0.8588535E-01
        2   -1    0    0  501    0  0.00000000000E+00  0.00000000000E+00  0.19548535762E+04  0.19548535762E+04  0.25500000920E-02 0. -1.
       -2   -1    0    0    0  501  0.00000000000E+00  0.00000000000E+00 -0.53176765745E+03  0.53176765746E+03  0.25500000920E-02 0.  1.
    10030    2    1    2    0    0  0.00000000000E+00  0.00000000000E+00  0.14230859188E+04  0.24866212337E+04  0.20391448275E+04 0.  0.
        5    1    3    3  502    0 -0.45121087318E+03 -0.22750686094E+03 -0.36830491377E+03  0.62531689834E+03  0.46999998093E+01 0.  1.
       -5    1    3    3    0  502  0.45121087318E+03  0.22750686094E+03  0.17913908325E+04  0.18613043353E+04  0.46999998093E+01 0. -1.
</event>
<event>
 5   0  0.3579559E-07  0.3828795E+04  0.7818609E-02  0.8040004E-01
        1   -1    0    0  501    0  0.00000000000E+00  0.00000000000E+00  0.17636334296E+04  0.17636334296E+04  0.50400001928E-02 0. -1.
       -1   -1    0    0    0  501  0.00000000000E+00  0.00000000000E+00 -0.20780491939E+04  0.20780491939E+04  0.50400001928E-02 0.  1.
    10030    2    1    2    0    0  0.00000000000E+00  0.00000000000E+00 -0.31441576431E+03  0.38416826234E+04  0.38287946023E+04 0.  0.
        4    1    3    3  502    0 -0.15014720901E+04 -0.97016441013E+03  0.53013669189E+03  0.18645868028E+04  0.12699999809E+01 0. -1.
       -4    1    3    3    0  502  0.15014720901E+04  0.97016441013E+03 -0.84455245620E+03  0.19770958207E+04  0.12699999809E+01 0.  1.
</event>
<event>
 5   0  0.4449262E-07  0.3931859E+04  0.7818609E-02  0.8018436E-01
       -2   -1    0    0    0  501  0.00000000000E+00  0.00000000000E+00  0.25839986279E+04  0.25839986279E+04  0.25500000920E-02 0. -1.
        2   -1    0    0  501    0  0.00000000000E+00  0.00000000000E+00 -0.14956967079E+04  0.14956967079E+04  0.25500000920E-02 0.  1.
    10030    2    1    2    0    0  0.00000000000E+00  0.00000000000E+00  0.10883019199E+04  0.40796953358E+04  0.39318587162E+04 0.  0.
        1    1    3    3  502    0  0.18915978645E+04  0.36510375324E+03  0.13771506139E+03  0.19314265893E+04  0.50400001928E-02 0. -1.
       -1    1    3    3    0  502 -0.18915978645E+04 -0.36510375324E+03  0.95058685855E+03  0.21482687465E+04  0.50400001928E-02 0.  1.
</event>
<event>
 5   0  0.4449262E-07  0.2256008E+04  0.7818609E-02  0.8495471E-01
        2   -1    0    0  501    0  0.00000000000E+00  0.00000000000E+00  0.15821475763E+04  0.15821475763E+04  0.25500000920E-02 0. -1.
       -2   -1    0    0    0  501  0.00000000000E+00  0.00000000000E+00 -0.80421898164E+03  0.80421898164E+03  0.25500000920E-02 0.  1.
    10030    2    1    2    0    0  0.00000000000E+00  0.00000000000E+00  0.77792859468E+03  0.23863665580E+04  0.22560080786E+04 0.  0.
        1    1    3    3  502    0  0.45921199607E+03 -0.48191157306E+03 -0.57430286788E+03  0.87916904272E+03  0.50400001928E-02 0.  1.
       -1    1    3    3    0  502 -0.45921199607E+03  0.48191157306E+03  0.13522314626E+04  0.15071975152E+04  0.50400001928E-02 0. -1.
</event>
<event>
 5   0  0.2401125E-07  0.2946098E+04  0.7818609E-02  0.8259293E-01
       -1   -1    0    0    0  501  0.00000000000E+00  0.00000000000E+00  0.83094275820E+03  0.83094275822E+03  0.50400001928E-02 0. -1.
        1   -1    0    0  501    0  0.00000000000E+00  0.00000000000E+00 -0.26113385900E+04  0.26113385901E+04  0.50400001928E-02 0.  1.
    10030    2    1    2    0    0  0.00000000000E+00  0.00000000000E+00 -0.17803958318E+04  0.34422813483E+04  0.29460976838E+04 0.  0.
        5    1    3    3  502    0 -0.11787203106E+03 -0.74253101719E+03  0.58987546320E+03  0.95562611899E+03  0.46999998093E+01 0. -1.
       -5    1    3    3    0  502  0.11787203106E+03  0.74253101719E+03 -0.23702712950E+04  0.24866552293E+04  0.46999998093E+01 0.  1.
</event>
<event>
 5   0  0.4449262E-07  0.3957654E+04  0.7818609E-02  0.8013144E-01
        2   -1    0    0  501    0  0.00000000000E+00  0.00000000000E+00  0.20113637858E+04  0.20113637858E+04  0.25500000920E-02 0.  1.
       -2   -1    0    0    0  501  0.00000000000E+00  0.00000000000E+00 -0.19468162948E+04  0.19468162948E+04  0.25500000920E-02 0. -1.
    10030    2    1    2    0    0  0.00000000000E+00  0.00000000000E+00  0.64547490973E+02  0.39581800806E+04  0.39576537459E+04 0.  0.
        1    1    3    3  502    0 -0.25220261253E+03  0.15859504026E+03 -0.19242576837E+04  0.19471841664E+04  0.50400001928E-02 0. -1.
       -1    1    3    3    0  502  0.25220261253E+03 -0.15859504026E+03  0.19888051746E+04  0.20109959143E+04  0.50400001928E-02 0.  1.
</event>
<event>
 5   0  0.2601252E-07  0.3974459E+04  0.7818609E-02  0.8009719E-01
        1   -1    0    0  501    0  0.00000000000E+00  0.00000000000E+00  0.14162383839E+04  0.14162383840E+04  0.50400001928E-02 0. -1.
       -1   -1    0    0    0  501  0.00000000000E+00  0.00000000000E+00 -0.27884291917E+04  0.27884291917E+04  0.50400001928E-02 0.  1.
    10030    2    1    2    0    0  0.00000000000E+00  0.00000000000E+00 -0.13721908078E+04  0.42046675757E+04  0.39744586813E+04 0.  0.
        3    1    3    3  502    0 -0.12484095094E+04 -0.11992394261E+03  0.94467436453E+03  0.15701330263E+04  0.10100000352E+00 0. -1.
       -3    1    3    3    0  502  0.12484095094E+04  0.11992394261E+03 -0.23168651723E+04  0.26345345494E+04  0.10100000352E+00 0.  1.
</event>
<event>
 5   0  0.2401125E-07  0.2089207E+04  0.7818609E-02  0.8566013E-01
       -1   -1    0    0    0  501  0.00000000000E+00  0.00000000000E+00  0.86391286918E+03  0.86391286919E+03  0.50400001928E-02 0. -1.
        1   -1    0    0  501    0  0.00000000000E+00  0.00000000000E+00 -0.12630861093E+04  0.12630861093E+04  0.50400001928E-02 0.  1.
    10030    2    1    2    0    0  0.00000000000E+00  0.00000000000E+00 -0.39917324015E+03  0.21269989785E+04  0.20892068780E+04 0.  0.
        5    1    3    3  502    0 -0.67756814986E+03  0.75611181780E+03  0.50562220494E+02  0.10165541338E+04  0.46999998093E+01 0. -1.
       -5    1    3    3    0  502  0.67756814986E+03 -0.75611181780E+03 -0.44973546065E+03  0.11104448448E+04  0.46999998093E+01 0.  1.
</event>
<event>
 5   0  0.5161550E-07  0.3924103E+04  0.7818609E-02  0.8020035E-01
        2   -1    0    0  501    0  0.00000000000E+00  0.00000000000E+00  0.31578845552E+04  0.31578845552E+04  0.25500000920E-02 0.  1.
       -2   -1    0    0    0  501  0.00000000000E+00  0.00000000000E+00 -0.12190587721E+04  0.12190587721E+04  0.25500000920E-02 0. -1.
    10030    2    1    2    0    0  0.00000000000E+00  0.00000000000E+00  0.19388257832E+04  0.43769433273E+04  0.39241033973E+04 0.  0.
        2    1    3    3  502    0  0.11545455737E+04  0.10908770142E+04  0.22541376398E+04  0.27575577312E+04  0.25500000920E-02 0.  1.
       -2    1    3    3    0  502 -0.11545455737E+04 -0.10908770142E+04 -0.31531185660E+03  0.16193855961E+04  0.25500000920E-02 0. -1.
</event>
<event>
 5   0  0.3579559E-07  0.4077923E+04  0.7818609E-02  0.7989009E-01
        1   -1    0    0  501    0  0.00000000000E+00  0.00000000000E+00  0.24844203362E+04  0.24844203362E+04  0.50400001928E-02 0.  1.
       -1   -1    0    0    0  501  0.00000000000E+00  0.00000000000E+00 -0.16733739209E+04  0.16733739209E+04  0.50400001928E-02 0. -1.
    10030    2    1    2    0    0  0.00000000000E+00  0.00000000000E+00  0.81104641535E+03  0.41577942571E+04  0.40779230984E+04 0.  0.
        4    1    3    3  502    0 -0.17523710233E+03 -0.20198777414E+04  0.62597193248E+03  0.21218992920E+04  0.12699999809E+01 0.  1.
       -4    1    3    3    0  502  0.17523710233E+03  0.20198777414E+04  0.18507448287E+03  0.20358949652E+04  0.12699999809E+01 0. -1.
</event>
<event>
 5   0  0.4449262E-07  0.3029104E+04  0.7818609E-02  0.8235469E-01
       -2   -1    0    0    0  501  0.00000000000E+00  0.00000000000E+00  0.12478154299E+04  0.12478154299E+04  0.25500000920E-02 0. -1.
        2   -1    0    0  501    0  0.00000000000E+00  0.00000000000E+00 -0.18383071922E+04  0.18383071922E+04  0.25500000920E-02 0.  1.
    10030    2    1    2    0    0  0.00000000000E+00  0.00000000000E+00 -0.59049176226E+03  0.30861226221E+04  0.30291042103E+04 0.  0.
        1    1    3    3  502    0 -0.45818330542E+03 -0.61913878620E+03  0.10333731602E+04  0.12888463315E+04  0.50400001928E-02 0. -1.
       -1    1    3    3    0  502  0.45818330542E+03  0.61913878620E+03 -0.16238649225E+04  0.17972762905E+04  0.50400001928E-02 0.  1.
</event>
<event>
 5   0  0.5161550E-07  0.1993995E+04  0.7818609E-02  0.8609433E-01
       -2   -1    0    0    0  501  0.00000000000E+00  0.00000000000E+00  0.14796293349E+04  0.14796293349E+04  0.25500000920E-02 0.  1.
        2   -1    0    0  501    0  0.00000000000E+00  0.00000000000E+00 -0.67179270838E+03  0.67179270839E+03  0.25500000920E-02 0. -1.
    10030    2    1    2    0    0  0.00000000000E+00  0.00000000000E+00  0.80783662647E+03  0.21514220432E+04  0.19939951838E+04 0.  0.
        2    1    3    3  502    0  0.16352086929E+03  0.65128642504E+03 -0.39121117196E+03  0.77714816040E+03  0.25500000920E-02 0. -1.
       -2    1    3    3    0  502 -0.16352086929E+03 -0.65128642504E+03  0.11990477984E+04  0.13742738828E+04  0.25500000920E-02 0.  1.
</event>
<event>
 5   0  0.2713405E-07  0.4270355E+04  0.7818609E-02  0.7952123E-01
        1   -1    0    0  501    0  0.00000000000E+00  0.00000000000E+00  0.31248683764E+04  0.31248683764E+04  0.50400001928E-02 0. -1.
       -1   -1    0    0    0  501  0.00000000000E+00  0.00000000000E+00 -0.14589362688E+04  0.14589362688E+04  0.50400001928E-02 0.  1.
    10030    2    1    2    0    0  0.00000000000E+00  0.00000000000E+00  0.16659321076E+04  0.45838046452E+04  0.42703553995E+04 0.  0.
        1    1    3    3  502    0  0.14456471948E+04 -0.15555848477E+04  0.59476824174E+03  0.22053320139E+04  0.50400001928E-02 0.  1.
       -1    1    3    3    0  502 -0.14456471948E+04  0.15555848477E+04  0.10711638659E+04  0.23784726313E+04  0.50400001928E-02 0. -1.
</event>
<event>
 5   0  0.6043512E-07  0.3944480E+04  0.7818609E-02  0.8015841E-01
        2   -1    0    0  501    0  0.00000000000E+00  0.00000000000E+00  0.25518835388E+04  0.25518835388E+04  0.25500000920E-02 0.  1.
       -2   -1    0    0    0  501  0.00000000000E+00  0.00000000000E+00 -0.15242583776E+04  0.15242583776E+04  0.25500000920E-02 0. -1.
    10030    2    1    2    0    0  0.00000000000E+00  0.00000000000E+00  0.10276251613E+04  0.40761419164E+04  0.39444796172E+04 0.  0.
        3    1    3    3  502    0  0.12311862724E+04 -0.10194566597E+04 -0.68000542062E+03  0.17371007169E+04  0.10100000352E+00 0. -1.
       -3    1    3    3    0  502 -0.12311862724E+04  0.10194566597E+04  0.17076305819E+04  0.23390411995E+04  0.10100000352E+00 0.  1.
</event>
<event>
 5   0  0.6723100E-07  0.2039349E+04  0.7818609E-02  0.8588441E-01
        2   -1    0    0  501    0  0.00000000000E+00  0.00000000000E+00  0.86870568697E+03  0.86870568697E+03  0.25500000920E-02 0.  1.
       -2   -1    0    0    0  501  0.00000000000E+00  0.00000000000E+00 -0.11968800844E+04  0.11968800844E+04  0.25500000920E-02 0. -1.
    10030    2    1    2    0    0  0.00000000000E+00  0.00000000000E+00 -0.32817439739E+03  0.20655857713E+04  0.20393494413E+04 0.  0.
        2    1    3    3  502    0 -0.71358894970E+03 -0.20786283940E+03  0.54297704450E+03  0.92045652803E+03  0.25500000920E-02 0.  1.
       -2    1    3    3    0  502  0.71358894970E+03  0.20786283940E+03 -0.87115144188E+03  0.11451292433E+04  0.25500000920E-02 0. -1.
</event>
<event>
 5   0  0.6043512E-07  0.3179562E+04  0.7818609E-02  0.8194236E-01
       -2   -1    0    0    0  501  0.00000000000E+00  0.00000000000E+00  0.17488135576E+04  0.17488135577E+04  0.25500000920E-02 0. -1.
        2   -1    0    0  501    0  0.00000000000E+00  0.00000000000E+00 -0.14452101633E+04  0.14452101633E+04  0.25500000920E-02 0.  1.
    10030    2    1    2    0    0  0.00000000000E+00  0.00000000000E+00  0.30360339432E+03  0.31940237210E+04  0.31795616851E+04 0.  0.
        3    1    3    3  502    0  0.13593230197E+04  0.24096126152E+03  0.94379224353E+03  0.16722933985E+04  0.10100000352E+00 0. -1.
       -3    1    3    3    0  502 -0.13593230197E+04 -0.24096126152E+03 -0.64018884921E+03  0.15217303225E+04  0.10100000352E+00 0.  1.
</event>
<event>
 5   0  0.2647879E-07  0.2692764E+04  0.7818609E-02  0.8337357E-01
        1   -1    0    0  501    0  0.00000000000E+00  0.00000000000E+00  0.27061152079E+04  0.27061152079E+04  0.50400001928E-02 0. -1.
       -1   -1    0    0    0  501  0.00000000000E+00  0.00000000000E+00 -0.66986944325E+03  0.66986944327E+03  0.50400001928E-02 0.  1.
    10030    2    1    2    0    0  0.00000000000E+00  0.00000000000E+00  0.20362457647E+04  0.33759846512E+04  0.26927635527E+04 0.  0.
        2    1    3    3  502    0  0.85636547868E+02 -0.12884977264E+04  0.54041606407E+03  0.13998605401E+04  0.25500000920E-02 0.  1.
       -2    1    3    3    0  502 -0.85636547868E+02  0.12884977264E+04  0.14958297006E+04  0.19761241111E+04  0.25500000920E-02 0. -1.
</event>
<event>
 5   0  0.7256473E-07  0.3986161E+04  0.7818609E-02  0.8007344E-01
        2   -1    0    0  501    0  0.00000000000E+00  0.00000000000E+00  0.27788037485E+04  0.27788037485E+04  0.25500000920E-02 0.  1.
       -2   -1    0    0    0  501  0.00000000000E+00  0.00000000000E+00 -0.14295248864E+04  0.14295248864E+04  0.25500000920E-02 0. -1.
    10030    2    1    2    0    0  0.00000000000E+00  0.00000000000E+00  0.13492788621E+04  0.42083286350E+04  0.39861606154E+04 0.  0.
        4    1    3    3  502    0 -0.18802802086E+04 -0.62409242262E+03  0.90454368580E+03  0.21778764674E+04  0.12699999809E+01 0.  1.
       -4    1    3    3    0  502  0.18802802086E+04  0.62409242262E+03  0.44473517633E+03  0.20304521676E+04  0.12699999809E+01 0. -1.
</event>
<event>
 5   0  0.4449262E-07  0.2596887E+04  0.7818609E-02  0.8369259E-01
       -2   -1    0    0    0  501  0.00000000000E+00  0.00000000000E+00  0.10399530883E+04  0.10399530883E+04  0.25500000920E-02 0.  1.
        2   -1    0    0  501    0  0.00000000000E+00  0.00000000000E+00 -0.16211845952E+04  0.16211845952E+04  0.25500000920E-02 0. -1.
    10030    2    1    2    0    0  0.00000000000E+00  0.00000000000E+00 -0.58123150694E+03  0.26611376835E+04  0.25968873110E+04 0.  0.
        1    1    3    3  502    0  0.29889215936E+02 -0.12740213316E+04 -0.35596763242E+02  0.12748689533E+04  0.50400001928E-02 0.  1.
       -1    1    3    3    0  502 -0.29889215936E+02  0.12740213316E+04 -0.54563474370E+03  0.13862687301E+04  0.50400001928E-02 0. -1.
</event>
<event>
 5   0  0.6043512E-07  0.4036100E+04  0.7818609E-02  0.7997303E-01
       -2   -1    0    0    0  501  0.00000000000E+00  0.00000000000E+00  0.16292412069E+04  0.16292412069E+04  0.25500000920E-02 0.  1.
        2   -1    0    0  501    0  0.00000000000E+00  0.00000000000E+00 -0.24996454751E+04  0.24996454751E+04  0.25500000920E-02 0. -1.
    10030    2    1    2    0    0  0.00000000000E+00  0.00000000000E+00 -0.87040426828E+03  0.41288866820E+04  0.40360998058E+04 0.  0.
        3    1    3    3  502    0  0.13215972959E+04  0.81315135691E+03 -0.17550925158E+04  0.23426874078E+04  0.10100000352E+00 0. -1.
       -3    1    3    3    0  502 -0.13215972959E+04 -0.81315135691E+03  0.88468824747E+03  0.17861992742E+04  0.10100000352E+00 0.  1.
</event>
<event>
 5   0  0.4449262E-07  0.3446886E+04  0.7818609E-02  0.8126494E-01
       -2   -1    0    0    0  501  0.00000000000E+00  0.00000000000E+00  0.12544520887E+04  0.12544520887E+04  0.25500000920E-02 0.  1.
        2   -1    0    0  501    0  0.00000000000E+00  0.00000000000E+00 -0.23677712501E+04  0.23677712501E+04  0.25500000920E-02 0. -1.
    10030    2    1    2    0    0  0.00000000000E+00  0.00000000000E+00 -0.11133191613E+04  0.36222233388E+04  0.34468858932E+04 0.  0.
        1    1    3    3  502    0 -0.11309428260E+04 -0.11507909182E+04 -0.11931980361E+04  0.20067568279E+04  0.50400001928E-02 0. -1.
       -1    1    3    3    0  502  0.11309428260E+04  0.11507909182E+04  0.79878874799E+02  0.16154665108E+04  0.50400001928E-02 0.  1.
</event>
<event>
 5   0  0.2713405E-07  0.2099393E+04  0.7818609E-02  0.8561511E-01
        1   -1    0    0  501    0  0.00000000000E+00  0.00000000000E+00  0.15360890764E+04  0.15360890764E+04  0.50400001928E-02 0.  1.
       -1   -1    0    0    0  501  0.00000000000E+00  0.00000000000E+00 -0.71731665308E+03  0.71731665310E+03  0.50400001928E-02 0. -1.
    10030    2    1    2    0    0  0.00000000000E+00  0.00000000000E+00  0.81877242331E+03  0.22534057295E+04  0.20993925551E+04 0.  0.
        1    1    3    3  502    0  0.87958126358E+02 -0.78806050138E+03 -0.32888498055E+03  0.85845286201E+03  0.50400001928E-02 0. -1.
       -1    1    3    3    0  502 -0.87958126358E+02  0.78806050138E+03  0.11476574039E+04  0.13949528675E+04  0.50400001928E-02 0.  1.
</event>
<event>
 5   0  0.2601252E-07  0.3998943E+04  0.7818609E-02  0.8004760E-01
        1   -1    0    0  501    0  0.00000000000E+00  0.00000000000E+00  0.25940538066E+04  0.25940538066E+04  0.50400001928E-02 0.  1.
       -1   -1    0    0    0  501  0.00000000000E+00  0.00000000000E+00 -0.15411735117E+04  0.15411735117E+04  0.50400001928E-02 0. -1.
    10030    2    1    2    0    0  0.00000000000E+00  0.00000000000E+00  0.10528802949E+04  0.41352273183E+04  0.39989433678E+04 0.  0.
        3    1    3    3  502    0 -0.10447610775E+04  0.40743732354E+03  0.22382583378E+04  0.25034638561E+04  0.10100000352E+00 0.  1.
       -3    1    3    3    0  502  0.10447610775E+04 -0.40743732354E+03 -0.11853780429E+04  0.16317634622E+04  0.10100000352E+00 0. -1.
</event>
<event>
 5   0  0.7256473E-07  0.3840659E+04  0.7818609E-02  0.8037485E-01
        2   -1    0    0  501    0  0.00000000000E+00  0.00000000000E+00  0.15945299080E+04  0.15945299080E+04  0.25500000920E-02 0.  1.
       -2   -1    0    0    0  501  0.00000000000E+00  0.00000000000E+00 -0.23126974767E+04  0.23126974767E+04  0.25500000920E-02 0. -1.
    10030    2    1    2    0    0  0.00000000000E+00  0.00000000000E+00 -0.71816756871E+03  0.39072273847E+04  0.38406589511E+04 0.  0.
        4    1    3    3  502    0 -0.44143024077E+03 -0.44150475404E+02 -0.22598502889E+04  0.23029839042E+04  0.12699999809E+01 0. -1.
       -4    1    3    3    0  502  0.44143024077E+03  0.44150475404E+02  0.15416827202E+04  0.16042434805E+04  0.12699999809E+01 0.  1.
</event>
<event>
 5   0  0.2601252E-07  0.3008691E+04  0.7818609E-02  0.8241253E-01
        1   -1    0    0  501    0  0.00000000000E+00  0.00000000000E+00  0.20093250588E+04  0.20093250589E+04  0.50400001928E-02 0. -1.
       -1   -1    0    0    0  501  0.00000000000E+00  0.00000000000E+00 -0.11262767295E+04  0.11262767295E+04  0.50400001928E-02 0.  1.
    10030    2    1    2    0    0  0.00000000000E+00  0.00000000000E+00  0.88304832934E+03  0.31356017884E+04  0.30086914470E+04 0.  0.
        3    1    3    3  502    0  0.76022822909E+03 -0.10149969961E+04 -0.40186398065E+03  0.13302858834E+04  0.10100000352E+00 0.  1.
       -3    1    3    3    0  502 -0.76022822909E+03  0.10149969961E+04  0.12849123100E+04  0.18053159050E+04  0.10100000352E+00 0. -1.
</event>
<event>
 5   0  0.2401125E-07  0.4096825E+04  0.7818609E-02  0.7985294E-01
        1   -1    0    0  501    0  0.00000000000E+00  0.00000000000E+00  0.21291083795E+04  0.21291083795E+04  0.50400001928E-02 0.  1.
       -1   -1    0    0    0  501  0.00000000000E+00  0.00000000000E+00 -0.19707750935E+04  0.19707750935E+04  0.50400001928E-02 0. -1.
    10030    2    1    2    0    0  0.00000000000E+00  0.00000000000E+00  0.15833328606E+03  0.40998834730E+04  0.40968249978E+04 0.  0.
        5    1    3    3  502    0 -0.81219326255E+03  0.17233601855E+04 -0.67395311608E+03  0.20208570254E+04  0.46999998093E+01 0. -1.
       -5    1    3    3    0  502  0.81219326255E+03 -0.17233601855E+04  0.83228640214E+03  0.20790264476E+04  0.46999998093E+01 0.  1.
</event>
<event>
 5   0  0.2601252E-07  0.2314980E+04  0.7818609E-02  0.8472038E-01
        1   -1    0    0  501    0  0.00000000000E+00  0.00000000000E+00  0.71907760952E+03  0.71907760954E+03  0.50400001928E-02 0. -1.
       -1   -1    0    0    0  501  0.00000000000E+00  0.00000000000E+00 -0.18631960657E+04  0.18631960657E+04  0.50400001928E-02 0.  1.
    10030    2    1    2    0    0  0.00000000000E+00  0.00000000000E+00 -0.11441184561E+04  0.25822736752E+04  0.23149795446E+04 0.  0.
        3    1    3    3  502    0  0.26755537940E+03  0.54209592639E+03  0.52899283519E+03  0.80329776817E+03  0.10100000352E+00 0. -1.
       -3    1    3    3    0  502 -0.26755537940E+03 -0.54209592639E+03 -0.16731112913E+04  0.17789759070E+04  0.10100000352E+00 0.  1.
</event>
<event>
 5   0  0.2401125E-07  0.3883946E+04  0.7818609E-02  0.8028376E-01
        3   -1    0    0  501    0  0.00000000000E+00  0.00000000000E+00  0.22057437490E+04  0.22057437513E+04  0.10100000352E+00 0.  1.
       -3   -1    0    0    0  501  0.00000000000E+00  0.00000000000E+00 -0.17097450677E+04  0.17097450706E+04  0.10100000352E+00 0. -1.
    10030    2    1    2    0    0  0.00000000000E+00  0.00000000000E+00  0.49599868137E+03  0.39154888220E+04  0.38839461921E+04 0.  0.
        2    1    3    3  502    0 -0.53531135410E+03  0.28009980723E+02  0.21296832241E+04  0.21961087040E+04  0.25500000920E-02 0.  1.
       -2    1    3    3    0  502  0.53531135410E+03 -0.28009980723E+02 -0.16336845427E+04  0.17193801179E+04  0.25500000920E-02 0. -1.
</event>
<event>
 5   0  0.2401125E-07  0.2128582E+04  0.7818609E-02  0.8548756E-01
        1   -1    0    0  501    0  0.00000000000E+00  0.00000000000E+00  0.86332748396E+03  0.86332748398E+03  0.50400001928E-02 0.  1.
       -1   -1    0    0    0  501  0.00000000000E+00  0.00000000000E+00 -0.13120340009E+04  0.13120340009E+04  0.50400001928E-02 0. -1.
    10030    2    1    2    0    0  0.00000000000E+00  0.00000000000E+00 -0.44870651689E+03  0.21753614848E+04  0.21285816995E+04 0.  0.
        5    1    3    3  502    0 -0.50650222557E+03  0.69187432876E+03 -0.86865145183E+03  0.12205785620E+04  0.46999998093E+01 0. -1.
       -5    1    3    3    0  502  0.50650222557E+03 -0.69187432876E+03  0.41994493494E+03  0.95478292281E+03  0.46999998093E+01 0.  1.
</event>
<event>
 5   0  0.2713405E-07  0.2941900E+04  0.7818609E-02  0.8260519E-01
       -1   -1    0    0    0  501  0.00000000000E+00  0.00000000000E+00  0.15825637673E+04  0.15825637673E+04  0.50400001928E-02 0.  1.
        1   -1    0    0  501    0  0.00000000000E+00  0.00000000000E+00 -0.13672077867E+04  0.13672077867E+04  0.50400001928E-02 0. -1.
    10030    2    1    2    0    0  0.00000000000E+00  0.00000000000E+00  0.21535598063E+03  0.29497715540E+04  0.29418997302E+04 0.  0.
        1    1    3    3  502    0  0.27913856242E+03  0.70543067319E+03  0.13712653790E+04  0.15671373620E+04  0.50400001928E-02 0.  1.
       -1    1    3    3    0  502 -0.27913856242E+03 -0.70543067319E+03 -0.11559093984E+04  0.13826341920E+04  0.50400001928E-02 0. -1.
</event>
<event>
 5   0  0.4449262E-07  0.3673603E+04  0.7818609E-02  0.8073837E-01
        2   -1    0    0  501    0  0.00000000000E+00  0.00000000000E+00  0.23288066327E+04  0.23288066327E+04  0.25500000920E-02 0. -1.
       -2   -1    0    0    0  501  0.00000000000E+00  0.00000000000E+00 -0.14487416551E+04  0.14487416551E+04  0.25500000920E-02 0.  1.
    10030    2    1    2    0    0  0.00000000000E+00  0.00000000000E+00  0.88006497755E+03  0.37775482878E+04  0.36736026870E+04 0.  0.
        1    1    3    3  502    0 -0.93990414693E+03 -0.14769915722E+04  0.10115605070E+04  0.20219244716E+04  0.50400001928E-02 0. -1.
       -1    1    3    3    0  502  0.93990414693E+03  0.14769915722E+04 -0.13149552942E+03  0.17556238162E+04  0.50400001928E-02 0.  1.
</event>
<event>
 5   0  0.9640634E-07  0.2272288E+04  0.7818609E-02  0.8488928E-01
       -2   -1    0    0    0  501  0.00000000000E+00  0.00000000000E+00  0.81791910149E+03  0.81791910150E+03  0.25500000920E-02 0.  1.
        2   -1    0    0  501    0  0.00000000000E+00  0.00000000000E+00 -0.15781791792E+04  0.15781791792E+04  0.25500000920E-02 0. -1.
    10030    2    1    2    0    0  0.00000000000E+00  0.00000000000E+00 -0.76026007768E+03  0.23960982807E+04  0.22722877425E+04 0.  0.
        5    1    3    3  502    0 -0.84323084220E+03  0.27546378628E+03  0.36839414103E+03  0.96054926159E+03  0.46999998093E+01 0.  1.
       -5    1    3    3    0  502  0.84323084220E+03 -0.27546378628E+03 -0.11286542187E+04  0.14355490191E+04  0.46999998093E+01 0. -1.
</event>
<event>
 5   0  0.2713405E-07  0.3395198E+04  0.7818609E-02  0.8139086E-01
       -1   -1    0    0    0  501  0.00000000000E+00  0.00000000000E+00  0.14256675893E+04  0.14256675893E+04  0.50400001928E-02 0.  1.
        1   -1    0    0  501    0  0.00000000000E+00  0.00000000000E+00 -0.20213990238E+04  0.20213990238E+04  0.50400001928E-02 0. -1.
    10030    2    1    2    0    0  0.00000000000E+00  0.00000000000E+00 -0.59573143451E+03  0.34470666131E+04  0.33951984174E+04 0.  0.
        1    1    3    3  502    0 -0.93670161587E+03 -0.14117976272E+04 -0.19012854128E+03  0.17049138746E+04  0.50400001928E-02 0.  1.
       -1    1    3    3    0  502  0.93670161587E+03  0.14117976272E+04 -0.40560289323E+03  0.17421527386E+04  0.50400001928E-02 0. -1.
</event>
<event>
 5   0  0.2401125E-07  0.2436675E+04  0.7818609E-02  0.8425899E-01
        1   -1    0    0  501    0  0.00000000000E+00  0.00000000000E+00  0.12252557748E+04  0.12252557748E+04  0.50400001928E-02 0. -1.
       -1   -1    0    0    0  501  0.00000000000E+00  0.00000000000E+00 -0.12114585846E+04  0.12114585846E+04  0.50400001928E-02 0.  1.
    10030    2    1    2    0    0  0.00000000000E+00  0.00000000000E+00  0.13797190174E+02  0.24367143594E+04  0.24366752978E+04 0.  0.
        5    1    3    3  502    0 -0.60765309773E+03  0.91239941198E+03 -0.52472027549E+03  0.12153470417E+04  0.46999998093E+01 0.  1.
       -5    1    3    3    0  502  0.60765309773E+03 -0.91239941198E+03  0.53851746566E+03  0.12213673178E+04  0.46999998093E+01 0. -1.
</event>
<event>
 5   0  0.7570277E-07  0.3285474E+04  0.7818609E-02  0.8166601E-01
        2   -1    0    0  501    0  0.00000000000E+00  0.00000000000E+00  0.18479759771E+04  0.18479759771E+04  0.25500000920E-02 0.  1.
       -2   -1    0    0    0  501  0.00000000000E+00  0.00000000000E+00 -0.14602921799E+04  0.14602921799E+04  0.25500000920E-02 0. -1.
    10030    2    1    2    0    0  0.00000000000E+00  0.00000000000E+00  0.38768379721E+03  0.33082681571E+04  0.32854740103E+04 0.  0.
        5    1    3    3  502    0 -0.66151404380E+03  0.11031742949E+04 -0.83499457001E+03  0.15335685107E+04  0.46999998093E+01 0. -1.
       -5    1    3    3    0  502  0.66151404380E+03 -0.11031742949E+04  0.12226783672E+04  0.17746996464E+04  0.46999998093E+01 0.  1.
</event>
<event>
 5   0  0.2713405E-07  0.3963818E+04  0.7818609E-02  0.8011886E-01
       -1   -1    0    0    0  501  0.00000000000E+00  0.00000000000E+00  0.14988694018E+04  0.14988694018E+04  0.50400001928E-02 0.  1.
        1   -1    0    0  501    0  0.00000000000E+00  0.00000000000E+00 -0.26206174531E+04  0.26206174531E+04  0.50400001928E-02 0. -1.
    10030    2    1    2    0    0  0.00000000000E+00  0.00000000000E+00 -0.11217480513E+04  0.41194868549E+04  0.39638180151E+04 0.  0.
        1    1    3    3  502    0 -0.14600331124E+03 -0.61550562051E+03 -0.25128808947E+04  0.25912804801E+04  0.50400001928E-02 0. -1.
       -1    1    3    3    0  502  0.14600331124E+03  0.61550562051E+03  0.13911328434E+04  0.15282063748E+04  0.50400001928E-02 0.  1.
</event>
<event>
 5   0  0.6043512E-07  0.2661565E+04  0.7818609E-02  0.8347585E-01
       -2   -1    0    0    0  501  0.00000000000E+00  0.00000000000E+00  0.88567068551E+03  0.88567068552E+03  0.25500000920E-02 0.  1.
        2   -1    0    0  501    0  0.00000000000E+00  0.00000000000E+00 -0.19995937876E+04  0.19995937876E+04  0.25500000920E-02 0. -1.
    10030    2    1    2    0    0  0.00000000000E+00  0.00000000000E+00 -0.11139231021E+04  0.28852644731E+04  0.26615646531E+04 0.  0.
        3    1    3    3  502    0  0.95801269515E+03 -0.92144517864E+03 -0.48727782832E+03  0.14157292232E+04  0.10100000352E+00 0.  1.
       -3    1    3    3    0  502 -0.95801269515E+03  0.92144517864E+03 -0.62664527375E+03  0.14695352499E+04  0.10100000352E+00 0. -1.
</event>
<event>
 5   0  0.4449262E-07  0.4016154E+04  0.7818609E-02  0.8001296E-01
        2   -1    0    0  501    0  0.00000000000E+00  0.00000000000E+00  0.23202517879E+04  0.23202517879E+04  0.25500000920E-02 0.  1.
       -2   -1    0    0    0  501  0.00000000000E+00  0.00000000000E+00 -0.17379033994E+04  0.17379033994E+04  0.25500000920E-02 0. -1.
    10030    2    1    2    0    0  0.00000000000E+00  0.00000000000E+00  0.58234838857E+03  0.40581551873E+04  0.40161541154E+04 0.  0.
        1    1    3    3  502    0  0.14512929662E+04 -0.72254196363E+03  0.14884946118E+04  0.22008939939E+04  0.50400001928E-02 0.  1.
       -1    1    3    3    0  502 -0.14512929662E+04  0.72254196363E+03 -0.90614622323E+03  0.18572611935E+04  0.50400001928E-02 0. -1.
</event>
<event>
 5   0  0.3579559E-07  0.4023111E+04  0.7818609E-02  0.7999900E-01
        1   -1    0    0  501    0  0.00000000000E+00  0.00000000000E+00  0.16971240901E+04  0.16971240901E+04  0.50400001928E-02 0. -1.
       -1   -1    0    0    0  501  0.00000000000E+00  0.00000000000E+00 -0.23842427429E+04  0.23842427429E+04  0.50400001928E-02 0.  1.
    10030    2    1    2    0    0  0.00000000000E+00  0.00000000000E+00 -0.68711865287E+03  0.40813668330E+04  0.40231111323E+04 0.  0.
        4    1    3    3  502    0  0.16029188293E+04  0.12102719641E+04 -0.45582880153E+03  0.20595845478E+04  0.12699999809E+01 0. -1.
       -4    1    3    3    0  502 -0.16029188293E+04 -0.12102719641E+04 -0.23128985134E+03  0.20217822852E+04  0.12699999809E+01 0.  1.
</event>
<event>
 5   0  0.5192783E-07  0.2042283E+04  0.7818609E-02  0.8587103E-01
       -2   -1    0    0    0  501  0.00000000000E+00  0.00000000000E+00  0.75184821901E+03  0.75184821902E+03  0.25500000920E-02 0.  1.
        2   -1    0    0  501    0  0.00000000000E+00  0.00000000000E+00 -0.13868891784E+04  0.13868891784E+04  0.25500000920E-02 0. -1.
    10030    2    1    2    0    0  0.00000000000E+00  0.00000000000E+00 -0.63504095937E+03  0.21387373974E+04  0.20422831917E+04 0.  0.
        2    1    3    3  502    0  0.61880545687E+03 -0.81114108536E+03 -0.27235462620E+03  0.10559579046E+04  0.25500000920E-02 0.  1.
       -2    1    3    3    0  502 -0.61880545687E+03  0.81114108536E+03 -0.36268633316E+03  0.10827794928E+04  0.25500000920E-02 0. -1.
</event>
<event>
 5   0  0.6043512E-07  0.3753437E+04  0.7818609E-02  0.8056222E-01
       -2   -1    0    0    0  501  0.00000000000E+00  0.00000000000E+00  0.18937956125E+04  0.18937956125E+04  0.25500000920E-02 0. -1.
        2   -1    0    0  501    0  0.00000000000E+00  0.00000000000E+00 -0.18597952127E+04  0.18597952127E+04  0.25500000920E-02 0.  1.
    10030    2    1    2    0    0  0.00000000000E+00  0.00000000000E+00  0.34000399757E+02  0.37535908252E+04  0.37534368326E+04 0.  0.
        3    1    3    3  502    0 -0.24431631541E+03 -0.63546944547E+03 -0.17319455107E+04  0.18609532881E+04  0.10100000352E+00 0.  1.
       -3    1    3    3    0  502  0.24431631541E+03  0.63546944547E+03  0.17659459105E+04  0.18926375371E+04  0.10100000352E+00 0. -1.
</event>
<event>
 5   0  0.7570277E-07  0.3883123E+04  0.7818609E-02  0.8028549E-01
       -2   -1    0    0    0  501  0.00000000000E+00  0.00000000000E+00  0.29737507167E+04  0.29737507167E+04  0.25500000920E-02 0.  1.
        2   -1    0    0  501    0  0.00000000000E+00  0.00000000000E+00 -0.12676450764E+04  0.12676450764E+04  0.25500000920E-02 0. -1.
    10030    2    1    2    0    0  0.00000000000E+00  0.00000000000E+00  0.17061056403E+04  0.42413957931E+04  0.38831226891E+04 0.  0.
        5    1    3    3  502    0 -0.76454232760E+03 -0.16857232132E+04  0.14931705482E+04  0.23781858839E+04  0.46999998093E+01 0. -1.
       -5    1    3    3    0  502  0.76454232760E+03  0.16857232132E+04  0.21293509204E+03  0.18632099092E+04  0.46999998093E+01 0.  1.
</event>
<event>
 5   0  0.5161550E-07  0.3952858E+04  0.7818609E-02  0.8014125E-01
       -2   -1    0    0    0  501  0.00000000000E+00  0.00000000000E+00  0.13612722458E+04  0.13612722458E+04  0.25500000920E-02 0. -1.
        2   -1    0    0  501    0  0.00000000000E+00  0.00000000000E+00 -0.28695737392E+04  0.28695737392E+04  0.25500000920E-02 0.  1.
    10030    2    1    2    0    0  0.00000000000E+00  0.00000000000E+00 -0.15083014935E+04  0.42308459850E+04  0.39528577452E+04 0.  0.
        2    1    3    3  502    0 -0.29787575963E+03  0.64914680949E+03  0.12183148324E+04  0.14122367292E+04  0.25500000920E-02 0. -1.
       -2    1    3    3    0  502  0.29787575963E+03 -0.64914680949E+03 -0.27266163259E+04  0.28186092558E+04  0.25500000920E-02 0.  1.
</event>
<event>
 5   0  0.4449262E-07  0.2309984E+04  0.7818609E-02  0.8473995E-01
       -2   -1    0    0    0  501  0.00000000000E+00  0.00000000000E+00  0.86475360228E+03  0.86475360229E+03  0.25500000920E-02 0. -1.
        2   -1    0    0  501    0  0.00000000000E+00  0.00000000000E+00 -0.15426440553E+04  0.15426440553E+04  0.25500000920E-02 0.  1.
    10030    2    1    2    0    0  0.00000000000E+00  0.00000000000E+00 -0.67789045306E+03  0.24073976576E+04  0.23099844189E+04 0.  0.
        1    1    3    3  502    0 -0.35888963490E+03  0.10261821686E+04  0.67575277117E+02  0.10892281814E+04  0.50400001928E-02 0.  1.
       -1    1    3    3    0  502  0.35888963490E+03 -0.10261821686E+04 -0.74546573018E+03  0.13181694762E+04  0.50400001928E-02 0. -1.
</event>
<event>
 5   0  0.2401125E-07  0.3275366E+04  0.7818609E-02  0.8169192E-01
       -1   -1    0    0    0  501  0.00000000000E+00  0.00000000000E+00  0.13290957994E+04  0.13290957994E+04  0.50400001928E-02 0.  1.
        1   -1    0    0  501    0  0.00000000000E+00  0.00000000000E+00 -0.20179173429E+04  0.20179173429E+04  0.50400001928E-02 0. -1.
    10030    2    1    2    0    0  0.00000000000E+00  0.00000000000E+00 -0.68882154349E+03  0.33470131422E+04  0.32753659117E+04 0.  0.
        5    1    3    3  502    0  0.15077240340E+04  0.63931935746E+03 -0.34924395764E+03  0.16745012498E+04  0.46999998093E+01 0. -1.
       -5    1    3    3    0  502 -0.15077240340E+04 -0.63931935746E+03 -0.33957758585E+03  0.16725118925E+04  0.46999998093E+01 0.  1.
</event>
<event>
 5   0  0.2601252E-07  0.2461760E+04  0.7818609E-02  0.8416737E-01
       -1   -1    0    0    0  501  0.00000000000E+00  0.00000000000E+00  0.10116571063E+04  0.10116571063E+04  0.50400001928E-02 0. -1.
        1   -1    0    0  501    0  0.00000000000E+00  0.00000000000E+00 -0.14976076324E+04  0.14976076324E+04  0.50400001928E-02 0.  1.
    10030    2    1    2    0    0  0.00000000000E+00  0.00000000000E+00 -0.48595052615E+03  0.25092647387E+04  0.24617598614E+04 0.  0.
        3    1    3    3  502    0  0.14024668909E+03 -0.11589132101E+04  0.15483334392E+03  0.11775917531E+04  0.10100000352E+00 0. -1.
       -3    1    3    3    0  502 -0.14024668909E+03  0.11589132101E+04 -0.64078387006E+03  0.13316729856E+04  0.10100000352E+00 0.  1.
</event>
<event>
 5   0  0.4449262E-07  0.4020815E+04  0.7818609E-02  0.8000361E-01
       -2   -1    0    0    0  501  0.00000000000E+00  0.00000000000E+00  0.22353096478E+04  0.22353096478E+04  0.25500000920E-02 0. -1.
        2   -1    0    0  501    0  0.00000000000E+00  0.00000000000E+00 -0.18081332706E+04  0.18081332706E+04  0.25500000920E-02 0.  1.
    10030    2    1    2    0    0  0.00000000000E+00  0.00000000000E+00  0.42717637720E+03  0.40434429184E+04  0.40208147156E+04 0.  0.
        1    1    3    3  502    0  0.57265153059E+03  0.61729586253E+03 -0.16222689015E+04  0.18277692267E+04  0.50400001928E-02 0.  1.
       -1    1    3    3    0  502 -0.57265153059E+03 -0.61729586253E+03  0.20494452787E+04  0.22156736916E+04  0.50400001928E-02 0. -1.
</event>
<event>
 5   0  0.2647879E-07  0.3192620E+04  0.7818609E-02  0.8190769E-01
       -1   -1    0    0    0  501  0.00000000000E+00  0.00000000000E+00  0.11461037282E+04  0.11461037282E+04  0.50400001928E-02 0. -1.
        1   -1    0    0  501    0  0.00000000000E+00  0.00000000000E+00 -0.22233633285E+04  0.22233633285E+04  0.50400001928E-02 0.  1.
    10030    2    1    2    0    0  0.00000000000E+00  0.00000000000E+00 -0.10772596003E+04  0.33694670567E+04  0.31926196140E+04 0.  0.
        2    1    3    3  502    0  0.13201969693E+04  0.52404113764E+03  0.23019008328E+03  0.14389324606E+04  0.25500000920E-02 0. -1.
       -2    1    3    3    0  502 -0.13201969693E+04 -0.52404113764E+03 -0.13074496836E+04  0.19305345961E+04  0.25500000920E-02 0.  1.
</event>
<event>
 5   0  0.7570277E-07  0.3925048E+04  0.7818609E-02  0.8019840E-01
        2   -1    0    0  501    0  0.00000000000E+00  0.00000000000E+00  0.14836637679E+04  0.14836637679E+04  0.25500000920E-02 0. -1.
       -2   -1    0    0    0  501  0.00000000000E+00  0.00000000000E+00 -0.25959384530E+04  0.25959384530E+04  0.25500000920E-02 0.  1.
    10030    2    1    2    0    0  0.00000000000E+00  0.00000000000E+00 -0.11122746851E+04  0.40796022210E+04  0.39250476820E+04 0.  0.
        5    1    3    3  502    0  0.57107943678E+03  0.17970332944E+04 -0.11216358556E+04  0.21939802796E+04  0.46999998093E+01 0.  1.
       -5    1    3    3    0  502 -0.57107943678E+03 -0.17970332944E+04  0.93611705247E+01  0.18856219414E+04  0.46999998093E+01 0. -1.
</event>
<event>
 5   0  0.5161550E-07  0.2747618E+04  0.7818609E-02  0.8319718E-01
       -2   -1    0    0    0  501  0.00000000000E+00  0.00000000000E+00  0.12078897879E+04  0.12078897879E+04  0.25500000920E-02 0. -1.
        2   -1    0    0  501    0  0.00000000000E+00  0.00000000000E+00 -0.15625198372E+04  0.15625198372E+04  0.25500000920E-02 0.  1.
    10030    2    1    2    0    0  0.00000000000E+00  0.00000000000E+00 -0.35463004923E+03  0.27704096251E+04  0.27476184267E+04 0.  0.
        2    1    3    3  502    0 -0.79598347350E+03 -0.32341122836E+03 -0.12581992679E+04  0.15235648691E+04  0.25500000920E-02 0.  1.
       -2    1    3    3    0  502  0.79598347350E+03  0.32341122836E+03  0.90356921862E+03  0.12468447560E+04  0.25500000920E-02 0. -1.
</event>
<event>
 5   0  0.5161550E-07  0.3920587E+04  0.7818609E-02  0.8020761E-01
       -2   -1    0    0    0  501  0.00000000000E+00  0.00000000000E+00  0.19681407917E+04  0.19681407917E+04  0.25500000920E-02 0.  1.
        2   -1    0    0  501    0  0.00000000000E+00  0.00000000000E+00 -0.19524771059E+04  0.19524771059E+04  0.25500000920E-02 0. -1.
    10030    2    1    2    0    0  0.00000000000E+00  0.00000000000E+00  0.15663685871E+02  0.39206178976E+04  0.39205866076E+04 0.  0.
        2    1    3    3  502    0 -0.12893361462E+04 -0.13443423944E+04 -0.60299679216E+03  0.19578685611E+04  0.25500000920E-02 0. -1.
       -2    1    3    3    0  502  0.12893361462E+04  0.13443423944E+04  0.61866047803E+03  0.19627493366E+04  0.25500000920E-02 0.  1.
</event>
<event>
 5   0  0.4449262E-07  0.3603549E+04  0.7818609E-02  0.8089679E-01
       -2   -1    0    0    0  501  0.00000000000E+00  0.00000000000E+00  0.18263809074E+04  0.18263809074E+04  0.25500000920E-02 0. -1.
        2   -1    0    0  501    0  0.00000000000E+00  0.00000000000E+00 -0.17774995533E+04  0.17774995533E+04  0.25500000920E-02 0.  1.
    10030    2    1    2    0    0  0.00000000000E+00  0.00000000000E+00  0.48881354131E+02  0.36038804606E+04  0.36035489434E+04 0.  0.
        1    1    3    3  502    0 -0.73233643425E+03  0.14309050807E+04 -0.78962760132E+03  0.17908985878E+04  0.50400001928E-02 0.  1.
       -1    1    3    3    0  502  0.73233643425E+03 -0.14309050807E+04  0.83850895545E+03  0.18129818729E+04  0.50400001928E-02 0. -1.
</event>
<event>
 5   0  0.6043512E-07  0.3890395E+04  0.7818609E-02  0.8027030E-01
       -2   -1    0    0    0  501  0.00000000000E+00  0.00000000000E+00  0.11495873490E+04  0.11495873490E+04  0.25500000920E-02 0.  1.
        2   -1    0    0  501    0  0.00000000000E+00  0.00000000000E+00 -0.32914365235E+04  0.32914365235E+04  0.25500000920E-02 0. -1.
    10030    2    1    2    0    0  0.00000000000E+00  0.00000000000E+00 -0.21418491745E+04  0.44410238725E+04  0.38903952433E+04 0.  0.
        3    1    3    3  502    0  0.17437503498E+03  0.17005519219E+04 -0.11379077061E+02  0.17095066497E+04  0.10100000352E+00 0.  1.
       -3    1    3    3    0  502 -0.17437503498E+03 -0.17005519219E+04 -0.21304700975E+04  0.27315172228E+04  0.10100000352E+00 0. -1.
</event>
<event>
 5   0  0.5161550E-07  0.2201529E+04  0.7818609E-02  0.8517792E-01
        2   -1    0    0  501    0  0.00000000000E+00  0.00000000000E+00  0.12727178141E+04  0.12727178141E+04  0.25500000920E-02 0. -1.
       -2   -1    0    0    0  501  0.00000000000E+00  0.00000000000E+00 -0.95204337182E+03  0.95204337182E+03  0.25500000920E-02 0.  1.
    10030    2    1    2    0    0  0.00000000000E+00  0.00000000000E+00  0.32067444228E+03  0.22247611859E+04  0.22015290678E+04 0.  0.
        2    1    3    3  502    0 -0.75642614531E+03  0.79222621913E+03  0.27048127200E+03  0.11282566260E+04  0.25500000920E-02 0.  1.
       -2    1    3    3    0  502  0.75642614531E+03 -0.79222621913E+03  0.50193170275E+02  0.10965045599E+04  0.25500000920E-02 0. -1.
</event>
<event>
 5   0  0.4449262E-07  0.2313899E+04  0.7818609E-02  0.8472461E-01
       -2   -1    0    0    0  501  0.00000000000E+00  0.00000000000E+00  0.12696298761E+04  0.12696298761E+04  0.25500000920E-02 0.  1.
        2   -1    0    0  501    0  0.00000000000E+00  0.00000000000E+00 -0.10542695727E+04  0.10542695727E+04  0.25500000920E-02 0. -1.
    10030    2    1    2    0    0  0.00000000000E+00  0.00000000000E+00  0.21536030341E+03  0.23238994489E+04  0.23138990013E+04 0.  0.
        1    1    3    3  502    0 -0.30177811392E+03 -0.54762843912E+03 -0.86995652896E+03  0.10713502227E+04  0.50400001928E-02 0. -1.
       -1    1    3    3    0  502  0.30177811392E+03  0.54762843912E+03  0.10853168324E+04  0.12525492262E+04  0.50400001928E-02 0.  1.
</event>
<event>
 5   0  0.2601252E-07  0.2142651E+04  0.7818609E-02  0.8542684E-01
        1   -1    0    0  501    0  0.00000000000E+00  0.00000000000E+00  0.82487070911E+03  0.82487070913E+03  0.50400001928E-02 0.  1.
       -1   -1    0    0    0  501  0.00000000000E+00  0.00000000000E+00 -0.13914165071E+04  0.13914165071E+04  0.50400001928E-02 0. -1.
    10030    2    1    2    0    0  0.00000000000E+00  0.00000000000E+00 -0.56654579801E+03  0.22162872163E+04  0.21426513677E+04 0.  0.
        3    1    3    3  502    0  0.10436918939E+04  0.13551808115E+03 -0.49035505155E+03  0.11610796728E+04  0.10100000352E+00 0. -1.
       -3    1    3    3    0  502 -0.10436918939E+04 -0.13551808115E+03 -0.76190746460E+02  0.10552075435E+04  0.10100000352E+00 0.  1.
</event>
<event>
 5   0  0.4449262E-07  0.3953459E+04  0.7818609E-02  0.8014002E-01
       -2   -1    0    0    0  501  0.00000000000E+00  0.00000000000E+00  0.18860100590E+04  0.18860100590E+04  0.25500000920E-02 0. -1.
        2   -1    0    0  501    0  0.00000000000E+00  0.00000000000E+00 -0.20718127629E+04  0.20718127629E+04  0.25500000920E-02 0.  1.
    10030    2    1    2    0    0  0.00000000000E+00  0.00000000000E+00 -0.18580270386E+03  0.39578228219E+04  0.39534590987E+04 0.  0.
        1    1    3    3  502    0  0.15394371739E+04  0.82967755312E+02 -0.13314853127E+04  0.20370575836E+04  0.50400001928E-02 0.  1.
       -1    1    3    3    0  502 -0.15394371739E+04 -0.82967755312E+02  0.11456826089E+04  0.19207652384E+04  0.50400001928E-02 0. -1.
</event>
<event>
 5   0  0.7570277E-07  0.4050818E+04  0.7818609E-02  0.7994373E-01
        2   -1    0    0  501    0  0.00000000000E+00  0.00000000000E+00  0.14930214864E+04  0.14930214864E+04  0.25500000920E-02 0. -1.
       -2   -1    0    0    0  501  0.00000000000E+00  0.00000000000E+00 -0.27476374617E+04  0.27476374617E+04  0.25500000920E-02 0.  1.
    10030    2    1    2    0    0  0.00000000000E+00  0.00000000000E+00 -0.12546159753E+04  0.42406589480E+04  0.40508180739E+04 0.  0.
        5    1    3    3  502    0  0.82000611060E+03  0.10134052765E+04  0.99545385340E+03  0.16402288682E+04  0.46999998093E+01 0. -1.
       -5    1    3    3    0  502 -0.82000611060E+03 -0.10134052765E+04 -0.22500698287E+04  0.26004300798E+04  0.46999998093E+01 0.  1.
</event>
<event>
 5   0  0.2401125E-07  0.2075622E+04  0.7818609E-02  0.8572059E-01
        3   -1    0    0  501    0  0.00000000000E+00  0.00000000000E+00  0.49646827006E+03  0.49646828033E+03  0.10100000352E+00 0. -1.
       -3   -1    0    0    0  501  0.00000000000E+00  0.00000000000E+00 -0.21694271615E+04  0.21694271638E+04  0.10100000352E+00 0.  1.
    10030    2    1    2    0    0  0.00000000000E+00  0.00000000000E+00 -0.16729588914E+04  0.26658954442E+04  0.20756220915E+04 0.  0.
        5    1    3    3  502    0  0.54356075497E+02  0.10740073589E+03 -0.21604170207E+04  0.21637729304E+04  0.46999998093E+01 0.  1.
       -5    1    3    3    0  502 -0.54356075497E+02 -0.10740073589E+03  0.48745812929E+03  0.50212251375E+03  0.46999998093E+01 0. -1.
</event>
<event>
 5   0  0.3579559E-07  0.3125876E+04  0.7818609E-02  0.8208672E-01
        1   -1    0    0  501    0  0.00000000000E+00  0.00000000000E+00  0.12710498579E+04  0.12710498579E+04  0.50400001928E-02 0. -1.
       -1   -1    0    0    0  501  0.00000000000E+00  0.00000000000E+00 -0.19218559705E+04  0.19218559705E+04  0.50400001928E-02 0.  1.
    10030    2    1    2    0    0  0.00000000000E+00  0.00000000000E+00 -0.65080611264E+03  0.31929058284E+04  0.31258757226E+04 0.  0.
        4    1    3    3  502    0 -0.13434352446E+03 -0.11338161469E+04 -0.14156169293E+04  0.18186698823E+04  0.12699999809E+01 0.  1.
       -4    1    3    3    0  502  0.13434352446E+03  0.11338161469E+04  0.76481081665E+03  0.13742359461E+04  0.12699999809E+01 0. -1.
</event>
<event>
 5   0  0.7256473E-07  0.3125655E+04  0.7818609E-02  0.8208732E-01
        2   -1    0    0  501    0  0.00000000000E+00  0.00000000000E+00  0.17587509505E+04  0.17587509505E+04  0.25500000920E-02 0. -1.
       -2   -1    0    0    0  501  0.00000000000E+00  0.00000000000E+00 -0.13887298016E+04  0.13887298016E+04  0.25500000920E-02 0.  1.
    10030    2    1    2    0    0  0.00000000000E+00  0.00000000000E+00  0.37002114898E+03  0.31474807521E+04  0.31256550408E+04 0.  0.
        4    1    3    3  502    0  0.71157024793E+02  0.14010820953E+04 -0.50851760573E+03  0.14922084735E+04  0.12699999809E+01 0.  1.
       -4    1    3    3    0  502 -0.71157024793E+02 -0.14010820953E+04  0.87853875471E+03  0.16552722786E+04  0.12699999809E+01 0. -1.
</event>
<event>
 5   0  0.7256473E-07  0.2619754E+04  0.7818609E-02  0.8361522E-01
        2   -1    0    0  501    0  0.00000000000E+00  0.00000000000E+00  0.24184753839E+04  0.24184753839E+04  0.25500000920E-02 0. -1.
       -2   -1    0    0    0  501  0.00000000000E+00  0.00000000000E+00 -0.70944607794E+03  0.70944607795E+03  0.25500000920E-02 0.  1.
    10030    2    1    2    0    0  0.00000000000E+00  0.00000000000E+00  0.17090293059E+04  0.31279214618E+04  0.26197540920E+04 0.  0.
        4    1    3    3  502    0  0.96195046418E+03  0.82678998316E+03  0.46423651432E+03  0.13507211133E+04  0.12699999809E+01 0. -1.
       -4    1    3    3    0  502 -0.96195046418E+03 -0.82678998316E+03  0.12447927916E+04  0.17772003485E+04  0.12699999809E+01 0.  1.
</event>
<event>
 5   0  0.7256473E-07  0.3961702E+04  0.7818609E-02  0.8012317E-01
        2   -1    0    0  501    0  0.00000000000E+00  0.00000000000E+00  0.27621018796E+04  0.27621018796E+04  0.25500000920E-02 0.  1.
       -2   -1    0    0    0  501  0.00000000000E+00  0.00000000000E+00 -0.14205743474E+04  0.14205743474E+04  0.25500000920E-02 0. -1.
    10030    2    1    2    0    0  0.00000000000E+00  0.00000000000E+00  0.13415275322E+04  0.41826762270E+04  0.39617021973E+04 0.  0.
        4    1    3    3  502    0  0.74540407816E+03  0.10368746787E+03 -0.12637569780E+04  0.14708710491E+04  0.12699999809E+01 0. -1.
       -4    1    3    3    0  502 -0.74540407816E+03 -0.10368746787E+03  0.26052845102E+04  0.27118051779E+04  0.12699999809E+01 0.  1.
</event>
<event>
 5   0  0.2401125E-07  0.2494401E+04  0.7818609E-02  0.8404983E-01
        1   -1    0    0  501    0  0.00000000000E+00  0.00000000000E+00  0.11890059844E+04  0.11890059844E+04  0.50400001928E-02 0. -1.
       -1   -1    0    0    0  501  0.00000000000E+00  0.00000000000E+00 -0.13082433149E+04  0.13082433149E+04  0.50400001928E-02 0.  1.
    10030    2    1    2    0    0  0.00000000000E+00  0.00000000000E+00 -0.11923733052E+03  0.24972492993E+04  0.24944010347E+04 0.  0.
        5    1    3    3  502    0  0.37854652248E+03 -0.32488848007E+03  0.10847688353E+04  0.11939830443E+04  0.46999998093E+01 0. -1.
       -5    1    3    3    0  502 -0.37854652248E+03  0.32488848007E+03 -0.12040061658E+04  0.13032662550E+04  0.46999998093E+01 0.  1.
</event>
<event>
 5   0  0.2713405E-07  0.4113744E+04  0.7818609E-02  0.7981986E-01
        1   -1    0    0  501    0  0.00000000000E+00  0.00000000000E+00  0.24561698302E+04  0.24561698302E+04  0.50400001928E-02 0. -1.
       -1   -1    0    0    0  501  0.00000000000E+00  0.00000000000E+00 -0.17224877944E+04  0.17224877944E+04  0.50400001928E-02 0.  1.
    10030    2    1    2    0    0  0.00000000000E+00  0.00000000000E+00  0.73368203580E+03  0.41786576247E+04  0.41137440628E+04 0.  0.
        1    1    3    3  502    0  0.17763268686E+04 -0.10183410275E+04  0.16787531441E+03  0.20543947317E+04  0.50400001928E-02 0.  1.
       -1    1    3    3    0  502 -0.17763268686E+04  0.10183410275E+04  0.56580672139E+03  0.21242628930E+04  0.50400001928E-02 0. -1.
</event>
<event>
 5   0  0.2401125E-07  0.2768837E+04  0.7818609E-02  0.8313009E-01
       -1   -1    0    0    0  501  0.00000000000E+00  0.00000000000E+00  0.72317554655E+03  0.72317554657E+03  0.50400001928E-02 0. -1.
        1   -1    0    0  501    0  0.00000000000E+00  0.00000000000E+00 -0.26502761891E+04  0.26502761891E+04  0.50400001928E-02 0.  1.
    10030    2    1    2    0    0  0.00000000000E+00  0.00000000000E+00 -0.19271006425E+04  0.33734517357E+04  0.27688372517E+04 0.  0.
        5    1    3    3  502    0 -0.11467619865E+04 -0.12509874457E+01 -0.18608487639E+02  0.11469232688E+04  0.46999998093E+01 0. -1.
       -5    1    3    3    0  502  0.11467619865E+04  0.12509874457E+01 -0.19084921549E+04  0.22265284669E+04  0.46999998093E+01 0.  1.
</event>
<event>
 5   0  0.4449262E-07  0.3653272E+04  0.7818609E-02  0.8078397E-01
        2   -1    0    0  501    0  0.00000000000E+00  0.00000000000E+00  0.23926443115E+04  0.23926443115E+04  0.25500000920E-02 0. -1.
       -2   -1    0    0    0  501  0.00000000000E+00  0.00000000000E+00 -0.13945237423E+04  0.13945237423E+04  0.25500000920E-02 0.  1.
    10030    2    1    2    0    0  0.00000000000E+00  0.00000000000E+00  0.99812056921E+03  0.37871680538E+04  0.36532721219E+04 0.  0.
        1    1    3    3  502    0  0.60875892865E+03 -0.50206179091E+03 -0.12087245057E+04  0.14434917408E+04  0.50400001928E-02 0.  1.
       -1    1    3    3    0  502 -0.60875892865E+03  0.50206179091E+03  0.22068450749E+04  0.23436763129E+04  0.50400001928E-02 0. -1.
</event>
<event>
 5   0  0.2401125E-07  0.4027737E+04  0.7818609E-02  0.7998974E-01
       -3   -1    0    0    0  501  0.00000000000E+00  0.00000000000E+00  0.17761486369E+04  0.17761486398E+04  0.10100000352E+00 0. -1.
        3   -1    0    0  501    0  0.00000000000E+00  0.00000000000E+00 -0.22834045428E+04  0.22834045450E+04  0.10100000352E+00 0.  1.
    10030    2    1    2    0    0  0.00000000000E+00  0.00000000000E+00 -0.50725590583E+03  0.40595531848E+04  0.40277367722E+04 0.  0.
        4    1    3    3  502    0 -0.13222803198E+04  0.87718839472E+03 -0.15034960841E+04  0.21859521522E+04  0.12699999809E+01 0.  1.
       -4    1    3    3    0  502  0.13222803198E+04 -0.87718839472E+03  0.99624017822E+03  0.18736010326E+04  0.12699999809E+01 0. -1.
</event>
<event>
 5   0  0.2401125E-07  0.3713937E+04  0.7818609E-02  0.8064880E-01
       -1   -1    0    0    0  501  0.00000000000E+00  0.00000000000E+00  0.12582755176E+04  0.12582755176E+04  0.50400001928E-02 0.  1.
        1   -1    0    0  501    0  0.00000000000E+00  0.00000000000E+00 -0.27405228859E+04  0.27405228859E+04  0.50400001928E-02 0. -1.
    10030    2    1    2    0    0  0.00000000000E+00  0.00000000000E+00 -0.14822473683E+04  0.39987984035E+04  0.37139374538E+04 0.  0.
        5    1    3    3  502    0  0.80522929999E+03  0.44806793548E+03 -0.24769678548E+04  0.26428301013E+04  0.46999998093E+01 0. -1.
       -5    1    3    3    0  502 -0.80522929999E+03 -0.44806793548E+03  0.99472048649E+03  0.13559683022E+04  0.46999998093E+01 0.  1.
</event>
<event>
 5   0  0.4449262E-07  0.3521426E+04  0.7818609E-02  0.8108731E-01
       -2   -1    0    0    0  501  0.00000000000E+00  0.00000000000E+00  0.16708032091E+04  0.16708032091E+04  0.25500000920E-02 0.  1.
        2   -1    0    0  501    0  0.00000000000E+00  0.00000000000E+00 -0.18554607765E+04  0.18554607765E+04  0.25500000920E-02 0. -1.
    10030    2    1    2    0    0  0.00000000000E+00  0.00000000000E+00 -0.18465756736E+03  0.35262639856E+04  0.35214257452E+04 0.  0.
        1    1    3    3  502    0  0.59304728437E+03  0.67599373073E+03  0.14235004121E+04  0.16837535535E+04  0.50400001928E-02 0.  1.
       -1    1    3    3    0  502 -0.59304728437E+03 -0.67599373073E+03 -0.16081579795E+04  0.18425104321E+04  0.50400001928E-02 0. -1.
</event>
<event>
 5   0  0.6043512E-07  0.3958655E+04  0.7818609E-02  0.8012940E-01
        2   -1    0    0  501    0  0.00000000000E+00  0.00000000000E+00  0.23274754874E+04  0.23274754875E+04  0.25500000920E-02 0. -1.
       -2   -1    0    0    0  501  0.00000000000E+00  0.00000000000E+00 -0.16832559020E+04  0.16832559021E+04  0.25500000920E-02 0.  1.
    10030    2    1    2    0    0  0.00000000000E+00  0.00000000000E+00  0.64421958540E+03  0.40107313895E+04  0.39586547468E+04 0.  0.
        3    1    3    3  502    0 -0.82619904830E+03  0.13727251623E+04  0.14996199464E+04  0.21945020465E+04  0.10100000352E+00 0. -1.
       -3    1    3    3    0  502  0.82619904830E+03 -0.13727251623E+04 -0.85540036097E+03  0.18162293430E+04  0.10100000352E+00 0.  1.
</event>
<event>
 5   0  0.3579559E-07  0.2657217E+04  0.7818609E-02  0.8349021E-01
       -1   -1    0    0    0  501  0.00000000000E+00  0.00000000000E+00  0.77691393932E+03  0.77691393933E+03  0.50400001928E-02 0. -1.
        1   -1    0    0  501    0  0.00000000000E+00  0.00000000000E+00 -0.22720678545E+04  0.22720678545E+04  0.50400001928E-02 0.  1.
    10030    2    1    2    0    0  0.00000000000E+00  0.00000000000E+00 -0.14951539152E+04  0.30489817938E+04  0.26572174824E+04 0.  0.
        4    1    3    3  502    0  0.28931575299E+03 -0.12294334903E+04 -0.12206611914E+04  0.17564810471E+04  0.12699999809E+01 0. -1.
       -4    1    3    3    0  502 -0.28931575299E+03  0.12294334903E+04 -0.27449272382E+03  0.12925007467E+04  0.12699999809E+01 0.  1.
</event>
<event>
 5   0  0.7570277E-07  0.2131450E+04  0.7818609E-02  0.8547514E-01
        2   -1    0    0  501    0  0.00000000000E+00  0.00000000000E+00  0.11912704840E+04  0.11912704840E+04  0.25500000920E-02 0. -1.
       -2   -1    0    0    0  501  0.00000000000E+00  0.00000000000E+00 -0.95341078015E+03  0.95341078016E+03  0.25500000920E-02 0.  1.
    10030    2    1    2    0    0  0.00000000000E+00  0.00000000000E+00  0.23785970380E+03  0.21446812641E+04  0.21314503245E+04 0.  0.
        5    1    3    3  502    0  0.19517336043E+03  0.57023302624E+03  0.10032996188E+04  0.11704232396E+04  0.46999998093E+01 0. -1.
       -5    1    3    3    0  502 -0.19517336043E+03 -0.57023302624E+03 -0.76543991497E+03  0.97425802448E+03  0.46999998093E+01 0.  1.
</event>
<event>
 5   0  0.4449262E-07  0.3385456E+04  0.7818609E-02  0.8141485E-01
       -2   -1    0    0    0  501  0.00000000000E+00  0.00000000000E+00  0.11593022673E+04  0.11593022673E+04  0.25500000920E-02 0.  1.
        2   -1    0    0  501    0  0.00000000000E+00  0.00000000000E+00 -0.24715968429E+04  0.24715968429E+04  0.25500000920E-02 0. -1.
    10030    2    1    2    0    0  0.00000000000E+00  0.00000000000E+00 -0.13122945756E+04  0.36308991102E+04  0.33854558475E+04 0.  0.
        1    1    3    3  502    0 -0.63861653932E+03  0.15642277027E+04 -0.54526707251E+03  0.17753747690E+04  0.50400001928E-02 0.  1.
       -1    1    3    3    0  502  0.63861653932E+03 -0.15642277027E+04 -0.76702750308E+03  0.18555243411E+04  0.50400001928E-02 0. -1.
</event>
<event>
 5   0  0.7570277E-07  0.4154946E+04  0.7818609E-02  0.7973998E-01
        2   -1    0    0  501    0  0.00000000000E+00  0.00000000000E+00  0.24963350035E+04  0.24963350035E+04  0.25500000920E-02 0.  1.
       -2   -1    0    0    0  501  0.00000000000E+00  0.00000000000E+00 -0.17288923962E+04  0.17288923962E+04  0.25500000920E-02 0. -1.
    10030    2    1    2    0    0  0.00000000000E+00  0.00000000000E+00  0.76744260730E+03  0.42252273997E+04  0.41549462600E+04 0.  0.
        5    1    3    3  502    0  0.23380144946E+03 -0.24097869694E+03  0.24685555650E+04  0.24912893284E+04  0.46999998093E+01 0.  1.
       -5    1    3    3    0  502 -0.23380144946E+03  0.24097869694E+03 -0.17011129577E+04  0.17339380713E+04  0.46999998093E+01 0. -1.
</event>
<event>
 5   0  0.5161550E-07  0.4129170E+04  0.7818609E-02  0.7978984E-01
       -2   -1    0    0    0  501  0.00000000000E+00  0.00000000000E+00  0.19736700754E+04  0.19736700754E+04  0.25500000920E-02 0.  1.
        2   -1    0    0  501    0  0.00000000000E+00  0.00000000000E+00 -0.21596877438E+04  0.21596877438E+04  0.25500000920E-02 0. -1.
    10030    2    1    2    0    0  0.00000000000E+00  0.00000000000E+00 -0.18601766836E+03  0.41333578192E+04  0.41291699273E+04 0.  0.
        2    1    3    3  502    0 -0.19499956890E+04 -0.55209590238E+03 -0.48738557056E+03  0.20844274434E+04  0.25500000920E-02 0. -1.
       -2    1    3    3    0  502  0.19499956890E+04  0.55209590238E+03  0.30136790220E+03  0.20489303758E+04  0.25500000920E-02 0.  1.
</event>
<event>
 5   0  0.2713405E-07  0.3914039E+04  0.7818609E-02  0.8022116E-01
        1   -1    0    0  501    0  0.00000000000E+00  0.00000000000E+00  0.29363416951E+04  0.29363416951E+04  0.50400001928E-02 0.  1.
       -1   -1    0    0    0  501  0.00000000000E+00  0.00000000000E+00 -0.13043188020E+04  0.13043188020E+04  0.50400001928E-02 0. -1.
    10030    2    1    2    0    0  0.00000000000E+00  0.00000000000E+00  0.16320228931E+04  0.42406604970E+04  0.39140391832E+04 0.  0.
        1    1    3    3  502    0  0.73338330270E+03  0.50712144350E+03  0.27034842565E+04  0.28467262517E+04  0.50400001928E-02 0.  1.
       -1    1    3    3    0  502 -0.73338330270E+03 -0.50712144350E+03 -0.10714613634E+04  0.13939342453E+04  0.50400001928E-02 0. -1.
</event>
<event>
 5   0  0.3579559E-07  0.3943666E+04  0.7818609E-02  0.8016008E-01
       -1   -1    0    0    0  501  0.00000000000E+00  0.00000000000E+00  0.19277227520E+04  0.19277227521E+04  0.50400001928E-02 0.  1.
        1   -1    0    0  501    0  0.00000000000E+00  0.00000000000E+00 -0.20169525522E+04  0.20169525522E+04  0.50400001928E-02 0. -1.
    10030    2    1    2    0    0  0.00000000000E+00  0.00000000000E+00 -0.89229800171E+02  0.39446753043E+04  0.39436659720E+04 0.  0.
        4    1    3    3  502    0 -0.79331273207E+02  0.14484820555E+04  0.12912904707E+04  0.19421190511E+04  0.12699999809E+01 0.  1.
       -4    1    3    3    0  502  0.79331273207E+02 -0.14484820555E+04 -0.13805202708E+04  0.20025562532E+04  0.12699999809E+01 0. -1.
</event>
<event>
 5   0  0.5161550E-07  0.4092815E+04  0.7818609E-02  0.7986080E-01
       -2   -1    0    0    0  501  0.00000000000E+00  0.00000000000E+00  0.19268134436E+04  0.19268134436E+04  0.25500000920E-02 0.  1.
        2   -1    0    0  501    0  0.00000000000E+00  0.00000000000E+00 -0.21734247727E+04  0.21734247727E+04  0.25500000920E-02 0. -1.
    10030    2    1    2    0    0  0.00000000000E+00  0.00000000000E+00 -0.24661132910E+03  0.41002382163E+04  0.40928152027E+04 0.  0.
        2    1    3    3  502    0  0.12202335280E+04  0.55242288926E+03 -0.16732519822E+04  0.21433415751E+04  0.25500000920E-02 0. -1.
       -2    1    3    3    0  502 -0.12202335280E+04 -0.55242288926E+03  0.14266406531E+04  0.19568966413E+04  0.25500000920E-02 0.  1.
</event>
<event>
 5   0  0.6043512E-07  0.3541736E+04  0.7818609E-02  0.8103970E-01
        2   -1    0    0  501    0  0.00000000000E+00  0.00000000000E+00  0.11061454870E+04  0.11061454870E+04  0.25500000920E-02 0. -1.
       -2   -1    0    0    0  501  0.00000000000E+00  0.00000000000E+00 -0.28350468806E+04  0.28350468806E+04  0.25500000920E-02 0.  1.
    10030    2    1    2    0    0  0.00000000000E+00  0.00000000000E+00 -0.17289013936E+04  0.39411923677E+04  0.35417364739E+04 0.  0.
        3    1    3    3  502    0 -0.12884334591E+01  0.10885554321E+04 -0.24187770768E+04  0.26524398478E+04  0.10100000352E+00 0.  1.
       -3    1    3    3    0  502  0.12884334591E+01 -0.10885554321E+04  0.68987568323E+03  0.12887525198E+04  0.10100000352E+00 0. -1.
</event>
<event>
 5   0  0.6043512E-07  0.4078836E+04  0.7818609E-02  0.7988829E-01
        2   -1    0    0  501    0  0.00000000000E+00  0.00000000000E+00  0.26703151117E+04  0.26703151117E+04  0.25500000920E-02 0.  1.
       -2   -1    0    0    0  501  0.00000000000E+00  0.00000000000E+00 -0.15575788128E+04  0.15575788128E+04  0.25500000920E-02 0. -1.
    10030    2    1    2    0    0  0.00000000000E+00  0.00000000000E+00  0.11127362989E+04  0.42278939245E+04  0.40788362269E+04 0.  0.
        3    1    3    3  502    0  0.13096737954E+04 -0.14509088169E+04  0.11597440527E+04  0.22727490234E+04  0.10100000352E+00 0.  1.
       -3    1    3    3    0  502 -0.13096737954E+04  0.14509088169E+04 -0.47007753851E+02  0.19551449011E+04  0.10100000352E+00 0. -1.
</event>
<event>
 5   0  0.7570277E-07  0.4023047E+04  0.7818609E-02  0.7999913E-01
       -2   -1    0    0    0  501  0.00000000000E+00  0.00000000000E+00  0.27954818470E+04  0.27954818470E+04  0.25500000920E-02 0. -1.
        2   -1    0    0  501    0  0.00000000000E+00  0.00000000000E+00 -0.14474167501E+04  0.14474167501E+04  0.25500000920E-02 0.  1.
    10030    2    1    2    0    0  0.00000000000E+00  0.00000000000E+00  0.13480650969E+04  0.42428985971E+04  0.40230472281E+04 0.  0.
        5    1    3    3  502    0  0.13134644026E+04 -0.11723975688E+04 -0.35201600915E+03  0.17954504050E+04  0.46999998093E+01 0.  1.
       -5    1    3    3    0  502 -0.13134644026E+04  0.11723975688E+04  0.17000811060E+04  0.24474481921E+04  0.46999998093E+01 0. -1.
</event>
<event>
 5   0  0.3579559E-07  0.3804811E+04  0.7818609E-02  0.8045123E-01
        1   -1    0    0  501    0  0.00000000000E+00  0.00000000000E+00  0.12062459583E+04  0.12062459583E+04  0.50400001928E-02 0.  1.
       -1   -1    0    0    0  501  0.00000000000E+00  0.00000000000E+00 -0.30003393722E+04  0.30003393722E+04  0.50400001928E-02 0. -1.
    10030    2    1    2    0    0  0.00000000000E+00  0.00000000000E+00 -0.17940934139E+04  0.42065853305E+04  0.38048112917E+04 0.  0.
        4    1    3    3  502    0  0.66788353699E+03 -0.96579011371E+03  0.75777898635E+03  0.13975154982E+04  0.12699999809E+01 0.  1.
       -4    1    3    3    0  502 -0.66788353699E+03  0.96579011371E+03 -0.25518724002E+04  0.28090698323E+04  0.12699999809E+01 0. -1.
</event>
<event>
 5   0  0.2601252E-07  0.3969174E+04  0.7818609E-02  0.8010794E-01
       -1   -1    0    0    0  501  0.00000000000E+00  0.00000000000E+00  0.14968684534E+04  0.14968684534E+04  0.50400001928E-02 0.  1.
        1   -1    0    0  501    0  0.00000000000E+00  0.00000000000E+00 -0.26312170414E+04  0.26312170414E+04  0.50400001928E-02 0. -1.
    10030    2    1    2    0    0  0.00000000000E+00  0.00000000000E+00 -0.11343485880E+04  0.41280854948E+04  0.39691741123E+04 0.  0.
        3    1    3    3  502    0 -0.15486128596E+04  0.63206095679E+03  0.54371063366E+03  0.17587848377E+04  0.10100000352E+00 0.  1.
       -3    1    3    3    0  502  0.15486128596E+04 -0.63206095679E+03 -0.16780592216E+04  0.23693006571E+04  0.10100000352E+00 0. -1.
</event>
<event>
 5   0  0.2713405E-07  0.2807425E+04  0.7818609E-02  0.8300967E-01
       -1   -1    0    0    0  501  0.00000000000E+00  0.00000000000E+00  0.13785736299E+04  0.13785736300E+04  0.50400001928E-02 0. -1.
        1   -1    0    0  501    0  0.00000000000E+00  0.00000000000E+00 -0.14293100094E+04  0.14293100094E+04  0.50400001928E-02 0.  1.
    10030    2    1    2    0    0  0.00000000000E+00  0.00000000000E+00 -0.50736379432E+02  0.28078836393E+04  0.28074252175E+04 0.  0.
        1    1    3    3  502    0  0.65982852332E+02 -0.21456919086E+03  0.13605042791E+04  0.13789001298E+04  0.50400001928E-02 0. -1.
       -1    1    3    3    0  502 -0.65982852332E+02  0.21456919086E+03 -0.14112406585E+04  0.14289835096E+04  0.50400001928E-02 0.  1.
</event>
<event>
 5   0  0.7256473E-07  0.3264360E+04  0.7818609E-02  0.8172024E-01
       -2   -1    0    0    0  501  0.00000000000E+00  0.00000000000E+00  0.10944816754E+04  0.10944816754E+04  0.25500000920E-02 0.  1.
        2   -1    0    0  501    0  0.00000000000E+00  0.00000000000E+00 -0.24340395122E+04  0.24340395122E+04  0.25500000920E-02 0. -1.
    10030    2    1    2    0    0  0.00000000000E+00  0.00000000000E+00 -0.13395578368E+04  0.35285211876E+04  0.32643600557E+04 0.  0.
        4    1    3    3  502    0 -0.93854312270E+03  0.52495098409E+03  0.65741350408E+03  0.12604090039E+04  0.12699999809E+01 0.  1.
       -4    1    3    3    0  502  0.93854312270E+03 -0.52495098409E+03 -0.19969713409E+04  0.22681121837E+04  0.12699999809E+01 0. -1.
</event>
<event>
 5   0  0.3504979E-07  0.2029172E+04  0.7818609E-02  0.8593102E-01
       -1   -1    0    0    0  501  0.00000000000E+00  0.00000000000E+00  0.79621113946E+03  0.79621113947E+03  0.50400001928E-02 0. -1.
        1   -1    0    0  501    0  0.00000000000E+00  0.00000000000E+00 -0.12928545656E+04  0.12928545656E+04  0.50400001928E-02 0.  1.
    10030    2    1    2    0    0  0.00000000000E+00  0.00000000000E+00 -0.49664342609E+03  0.20890657050E+04  0.20291724489E+04 0.  0.
        3    1    3    3  502    0  0.48654522629E+03  0.29794066298E+02 -0.11644008814E+04  0.12623166664E+04  0.10100000352E+00 0.  1.
       -3    1    3    3    0  502 -0.48654522629E+03 -0.29794066298E+02  0.66775745526E+03  0.82674903862E+03  0.10100000352E+00 0. -1.
</event>
<event>
 5   0  0.3579559E-07  0.2327734E+04  0.7818609E-02  0.8467066E-01
       -1   -1    0    0    0  501  0.00000000000E+00  0.00000000000E+00  0.12351181474E+04  0.12351181475E+04  0.50400001928E-02 0.  1.
        1   -1    0    0  501    0  0.00000000000E+00  0.00000000000E+00 -0.10967258063E+04  0.10967258063E+04  0.50400001928E-02 0. -1.
    10030    2    1    2    0    0  0.00000000000E+00  0.00000000000E+00  0.13839234116E+03  0.23318439537E+04  0.23277336155E+04 0.  0.
        4    1    3    3  502    0 -0.68639006417E+03 -0.67524598832E+03 -0.58579005472E+03  0.11270492740E+04  0.12699999809E+01 0. -1.
       -4    1    3    3    0  502  0.68639006417E+03  0.67524598832E+03  0.72418239588E+03  0.12047946797E+04  0.12699999809E+01 0.  1.
</event>
<event>
 5   0  0.2713405E-07  0.4177445E+04  0.7818609E-02  0.7969677E-01
        1   -1    0    0  501    0  0.00000000000E+00  0.00000000000E+00  0.18485674815E+04  0.18485674815E+04  0.50400001928E-02 0. -1.
       -1   -1    0    0    0  501  0.00000000000E+00  0.00000000000E+00 -0.23600774492E+04  0.23600774492E+04  0.50400001928E-02 0.  1.
    10030    2    1    2    0    0  0.00000000000E+00  0.00000000000E+00 -0.51150996768E+03  0.42086449307E+04  0.41774453564E+04 0.  0.
        1    1    3    3  502    0 -0.17799440071E+04  0.25822247518E+03  0.81419510187E+03  0.19742829531E+04  0.50400001928E-02 0. -1.
       -1    1    3    3    0  502  0.17799440071E+04 -0.25822247518E+03 -0.13257050696E+04  0.22343619775E+04  0.50400001928E-02 0.  1.
</event>
<event>
 5   0  0.7570277E-07  0.3907430E+04  0.7818609E-02  0.8023486E-01
       -2   -1    0    0    0  501  0.00000000000E+00  0.00000000000E+00  0.16448430207E+04  0.16448430207E+04  0.25500000920E-02 0.  1.
        2   -1    0    0  501    0  0.00000000000E+00  0.00000000000E+00 -0.23205872207E+04  0.23205872208E+04  0.25500000920E-02 0. -1.
    10030    2    1    2    0    0  0.00000000000E+00  0.00000000000E+00 -0.67574420005E+03  0.39654302415E+04  0.39074296892E+04 0.  0.
        5    1    3    3  502    0  0.15064069347E+04 -0.11833109889E+04 -0.72762076205E+03  0.20491317217E+04  0.46999998093E+01 0. -1.
       -5    1    3    3    0  502 -0.15064069347E+04  0.11833109889E+04  0.51876562001E+02  0.19162985198E+04  0.46999998093E+01 0.  1.
</event>
<event>
 5   0  0.2713405E-07  0.4010634E+04  0.7818609E-02  0.8002405E-01
       -1   -1    0    0    0  501  0.00000000000E+00  0.00000000000E+00  0.18176041004E+04  0.18176041004E+04  0.50400001928E-02 0.  1.
        1   -1    0    0  501    0  0.00000000000E+00  0.00000000000E+00 -0.22124161221E+04  0.22124161221E+04  0.50400001928E-02 0. -1.
    10030    2    1    2    0    0  0.00000000000E+00  0.00000000000E+00 -0.39481202164E+03  0.40300202225E+04  0.40106341720E+04 0.  0.
        1    1    3    3  502    0  0.11886395040E+04  0.14542220507E+04 -0.90341945527E+03  0.20841766613E+04  0.50400001928E-02 0.  1.
       -1    1    3    3    0  502 -0.11886395040E+04 -0.14542220507E+04  0.50860743363E+03  0.19458435612E+04  0.50400001928E-02 0. -1.
</event>
<event>
 5   0  0.1114027E-06  0.1978917E+04  0.7818609E-02  0.8616542E-01
        2   -1    0    0  501    0  0.00000000000E+00  0.00000000000E+00  0.14445367687E+04  0.14445367687E+04  0.25500000920E-02 0. -1.
       -2   -1    0    0    0  501  0.00000000000E+00  0.00000000000E+00 -0.67774507746E+03  0.67774507747E+03  0.25500000920E-02 0.  1.
    10030    2    1    2    0    0  0.00000000000E+00  0.00000000000E+00  0.76679169124E+03  0.21222818462E+04  0.19789165563E+04 0.  0.
        4    1    3    3  502    0 -0.27840658726E+03  0.94486555346E+03  0.48368494473E+03  0.10973759067E+04  0.12699999809E+01 0. -1.
       -4    1    3    3    0  502  0.27840658726E+03 -0.94486555346E+03  0.28310674651E+03  0.10249059395E+04  0.12699999809E+01 0.  1.
</event>
<event>
 5   0  0.4449262E-07  0.3814314E+04  0.7818609E-02  0.8043090E-01
       -2   -1    0    0    0  501  0.00000000000E+00  0.00000000000E+00  0.15177626275E+04  0.15177626275E+04  0.25500000920E-02 0. -1.
        2   -1    0    0  501    0  0.00000000000E+00  0.00000000000E+00 -0.23964540017E+04  0.23964540017E+04  0.25500000920E-02 0.  1.
    10030    2    1    2    0    0  0.00000000000E+00  0.00000000000E+00 -0.87869137418E+03  0.39142166292E+04  0.38143142620E+04 0.  0.
        1    1    3    3  502    0 -0.21294142222E+03  0.61939821235E+03 -0.22774175883E+04  0.23697318553E+04  0.50400001928E-02 0.  1.
       -1    1    3    3    0  502  0.21294142222E+03 -0.61939821235E+03  0.13987262141E+04  0.15444847739E+04  0.50400001928E-02 0. -1.
</event>
<event>
 5   0  0.2713405E-07  0.2293627E+04  0.7818609E-02  0.8480438E-01
       -1   -1    0    0    0  501  0.00000000000E+00  0.00000000000E+00  0.81544791607E+03  0.81544791608E+03  0.50400001928E-02 0. -1.
        1   -1    0    0  501    0  0.00000000000E+00  0.00000000000E+00 -0.16128326537E+04  0.16128326537E+04  0.50400001928E-02 0.  1.
    10030    2    1    2    0    0  0.00000000000E+00  0.00000000000E+00 -0.79738473759E+03  0.24282805697E+04  0.22936268453E+04 0.  0.
        1    1    3    3  502    0 -0.40834154842E+03  0.85138554711E+03  0.29034736075E+03  0.98787740126E+03  0.50400001928E-02 0. -1.
       -1    1    3    3    0  502  0.40834154842E+03 -0.85138554711E+03 -0.10877320983E+04  0.14404031685E+04  0.50400001928E-02 0.  1.
</event>
<event>
 5   0  0.6043512E-07  0.3959553E+04  0.7818609E-02  0.8012756E-01
        2   -1    0    0  501    0  0.00000000000E+00  0.00000000000E+00  0.25856247106E+04  0.25856247106E+04  0.25500000920E-02 0.  1.
       -2   -1    0    0    0  501  0.00000000000E+00  0.00000000000E+00 -0.15158871796E+04  0.15158871796E+04  0.25500000920E-02 0. -1.
    10030    2    1    2    0    0  0.00000000000E+00  0.00000000000E+00  0.10697375310E+04  0.41015118901E+04  0.39595531818E+04 0.  0.
        3    1    3    3  502    0 -0.12073248955E+04 -0.42061448115E+03  0.21006735220E+04  0.24591419645E+04  0.10100000352E+00 0.  1.
       -3    1    3    3    0  502  0.12073248955E+04  0.42061448115E+03 -0.10309359910E+04  0.16423699257E+04  0.10100000352E+00 0. -1.
</event>
<event>
 5   0  0.2401125E-07  0.1984167E+04  0.7818609E-02  0.8614059E-01
        4   -1    0    0  501    0  0.00000000000E+00  0.00000000000E+00  0.11347498609E+04  0.11347505716E+04  0.12699999809E+01 0. -1.
       -4   -1    0    0    0  501  0.00000000000E+00  0.00000000000E+00 -0.86735222547E+03  0.86735315525E+03  0.12699999809E+01 0.  1.
    10030    2    1    2    0    0  0.00000000000E+00  0.00000000000E+00  0.26739763545E+03  0.20021037269E+04  0.19841667868E+04 0.  0.
        2    1    3    3  502    0  0.61261279898E+03 -0.78094181277E+02  0.91714307643E+03  0.11056873723E+04  0.25500000920E-02 0. -1.
       -2    1    3    3    0  502 -0.61261279898E+03  0.78094181277E+02 -0.64974544098E+03  0.89641635455E+03  0.25500000920E-02 0.  1.
</event>
<event>
 5   0  0.7570277E-07  0.3947566E+04  0.7818609E-02  0.8015208E-01
       -2   -1    0    0    0  501  0.00000000000E+00  0.00000000000E+00  0.15056635301E+04  0.15056635301E+04  0.25500000920E-02 0. -1.
        2   -1    0    0  501    0  0.00000000000E+00  0.00000000000E+00 -0.25874434364E+04  0.25874434364E+04  0.25500000920E-02 0.  1.
    10030    2    1    2    0    0  0.00000000000E+00  0.00000000000E+00 -0.10817799063E+04  0.40931069666E+04  0.39475659430E+04 0.  0.
        5    1    3    3  502    0  0.53254617081E+03 -0.13506110942E+04 -0.19273663579E+04  0.24129896227E+04  0.46999998093E+01 0.  1.
       -5    1    3    3    0  502 -0.53254617081E+03  0.13506110942E+04  0.84558645162E+03  0.16801173438E+04  0.46999998093E+01 0. -1.
</event>
<event>
 5   0  0.3579559E-07  0.3258028E+04  0.7818609E-02  0.8173658E-01
       -1   -1    0    0    0  501  0.00000000000E+00  0.00000000000E+00  0.15126469320E+04  0.15126469320E+04  0.50400001928E-02 0. -1.
        1   -1    0    0  501    0  0.00000000000E+00  0.00000000000E+00 -0.17543329878E+04  0.17543329878E+04  0.50400001928E-02 0.  1.
    10030    2    1    2    0    0  0.00000000000E+00  0.00000000000E+00 -0.24168605578E+03  0.32669799197E+04  0.32580278769E+04 0.  0.
        4    1    3    3  502    0 -0.13556852186E+04  0.72643205463E+03 -0.65906625595E+03  0.16733068710E+04  0.12699999809E+01 0. -1.
       -4    1    3    3    0  502  0.13556852186E+04 -0.72643205463E+03  0.41738020017E+03  0.15936730487E+04  0.12699999809E+01 0.  1.
</event>
<event>
 5   0  0.2601252E-07  0.2388951E+04  0.7818609E-02  0.8443652E-01
       -1   -1    0    0    0  501  0.00000000000E+00  0.00000000000E+00  0.78271711465E+03  0.78271711466E+03  0.50400001928E-02 0.  1.
        1   -1    0    0  501    0  0.00000000000E+00  0.00000000000E+00 -0.18228447909E+04  0.18228447909E+04  0.50400001928E-02 0. -1.
    10030    2    1    2    0    0  0.00000000000E+00  0.00000000000E+00 -0.10401276763E+04  0.26055619056E+04  0.23889510796E+04 0.  0.
        3    1    3    3  502    0  0.66650141248E+03  0.19148733927E+03 -0.15808118419E+04  0.17262264115E+04  0.10100000352E+00 0. -1.
       -3    1    3    3    0  502 -0.66650141248E+03 -0.19148733927E+03  0.54068416567E+03  0.87933549408E+03  0.10100000352E+00 0.  1.
</event>
<event>
 5   0  0.6043512E-07  0.4064926E+04  0.7818609E-02  0.7991576E-01
        2   -1    0    0  501    0  0.00000000000E+00  0.00000000000E+00  0.16891988151E+04  0.16891988151E+04  0.25500000920E-02 0. -1.
       -2   -1    0    0    0  501  0.00000000000E+00  0.00000000000E+00 -0.24454818649E+04  0.24454818649E+04  0.25500000920E-02 0.  1.
    10030    2    1    2    0    0  0.00000000000E+00  0.00000000000E+00 -0.75628304984E+03  0.41346806800E+04  0.40649256173E+04 0.  0.
        3    1    3    3  502    0  0.64978785303E+03 -0.11726794848E+04  0.11756530909E+04  0.17831325325E+04  0.10100000352E+00 0. -1.
       -3    1    3    3    0  502 -0.64978785303E+03  0.11726794848E+04 -0.19319361408E+04  0.23515481475E+04  0.10100000352E+00 0.  1.
</event>
<event>
 5   0  0.5161550E-07  0.4123576E+04  0.7818609E-02  0.7980071E-01
       -2   -1    0    0    0  501  0.00000000000E+00  0.00000000000E+00  0.15999864081E+04  0.15999864081E+04  0.25500000920E-02 0. -1.
        2   -1    0    0  501    0  0.00000000000E+00  0.00000000000E+00 -0.26568789150E+04  0.26568789150E+04  0.25500000920E-02 0.  1.
    10030    2    1    2    0    0  0.00000000000E+00  0.00000000000E+00 -0.10568925069E+04  0.42568653232E+04  0.41235761917E+04 0.  0.
        2    1    3    3  502    0  0.16774977866E+02  0.92345102655E+03 -0.24313766621E+04  0.26008913224E+04  0.25500000920E-02 0.  1.
       -2    1    3    3    0  502 -0.16774977866E+02 -0.92345102655E+03  0.13744841552E+04  0.16559740007E+04  0.25500000920E-02 0. -1.
</event>
<event>
 5   0  0.2601252E-07  0.4027815E+04  0.7818609E-02  0.7998959E-01
        1   -1    0    0  501    0  0.00000000000E+00  0.00000000000E+00  0.19176805522E+04  0.19176805522E+04  0.50400001928E-02 0. -1.
       -1   -1    0    0    0  501  0.00000000000E+00  0.00000000000E+00 -0.21149625748E+04  0.21149625749E+04  0.50400001928E-02 0.  1.
    10030    2    1    2    0    0  0.00000000000E+00  0.00000000000E+00 -0.19728202268E+03  0.40326431270E+04  0.40278145927E+04 0.  0.
        3    1    3    3  502    0  0.19646799093E+04  0.12806553751E+03 -0.52276973914E+03  0.20370704795E+04  0.10100000352E+00 0.  1.
       -3    1    3    3    0  502 -0.19646799093E+04 -0.12806553751E+03  0.32548771646E+03  0.19955726476E+04  0.10100000352E+00 0. -1.
</event>
<event>
 5   0  0.2401125E-07  0.2615639E+04  0.7818609E-02  0.8362908E-01
       -1   -1    0    0    0  501  0.00000000000E+00  0.00000000000E+00  0.11239352650E+04  0.11239352650E+04  0.50400001928E-02 0.  1.
        1   -1    0    0  501    0  0.00000000000E+00  0.00000000000E+00 -0.15217890249E+04  0.15217890249E+04  0.50400001928E-02 0. -1.
    10030    2    1    2    0    0  0.00000000000E+00  0.00000000000E+00 -0.39785375982E+03  0.26457242899E+04  0.26156393872E+04 0.  0.
        5    1    3    3  502    0  0.12245950337E+04  0.19403704408E+03 -0.61974923583E+03  0.13861437791E+04  0.46999998093E+01 0.  1.
       -5    1    3    3    0  502 -0.12245950337E+04 -0.19403704408E+03  0.22189547600E+03  0.12595805108E+04  0.46999998093E+01 0. -1.
</event>
<event>
 5   0  0.4449262E-07  0.3926176E+04  0.7818609E-02  0.8019607E-01
       -2   -1    0    0    0  501  0.00000000000E+00  0.00000000000E+00  0.14129660644E+04  0.14129660644E+04  0.25500000920E-02 0. -1.
        2   -1    0    0  501    0  0.00000000000E+00  0.00000000000E+00 -0.27273934787E+04  0.27273934787E+04  0.25500000920E-02 0.  1.
    10030    2    1    2    0    0  0.00000000000E+00  0.00000000000E+00 -0.13144274143E+04  0.41403595431E+04  0.39261759663E+04 0.  0.
        1    1    3    3  502    0  0.13330546395E+04  0.79536722779E+03 -0.19244643751E+04  0.24724900061E+04  0.50400001928E-02 0.  1.
       -1    1    3    3    0  502 -0.13330546395E+04 -0.79536722779E+03  0.61003696080E+03  0.16678695370E+04  0.50400001928E-02 0. -1.
</event>
<event>
 5   0  0.7256473E-07  0.2283327E+04  0.7818609E-02  0.8484524E-01
        2   -1    0    0  501    0  0.00000000000E+00  0.00000000000E+00  0.22116930633E+04  0.22116930633E+04  0.25500000920E-02 0.  1.
       -2   -1    0    0    0  501  0.00000000000E+00  0.00000000000E+00 -0.58932039197E+03  0.58932039197E+03  0.25500000920E-02 0. -1.
    10030    2    1    2    0    0  0.00000000000E+00  0.00000000000E+00  0.16223726713E+04  0.28010134553E+04  0.22833272415E+04 0.  0.
        4    1    3    3  502    0 -0.72439513791E+03  0.57606328061E+03  0.16311642533E+04  0.18754454546E+04  0.12699999809E+01 0.  1.
       -4    1    3    3    0  502  0.72439513791E+03 -0.57606328061E+03 -0.87915819322E+01  0.92556800069E+03  0.12699999809E+01 0. -1.
</event>
<event>
 5   0  0.7256473E-07  0.3925047E+04  0.7818609E-02  0.8019840E-01
        2   -1    0    0  501    0  0.00000000000E+00  0.00000000000E+00  0.32748513281E+04  0.32748513281E+04  0.25500000920E-02 0.  1.
       -2   -1    0    0    0  501  0.00000000000E+00  0.00000000000E+00 -0.11760836496E+04  0.11760836496E+04  0.25500000920E-02 0. -1.
    10030    2    1    2    0    0  0.00000000000E+00  0.00000000000E+00  0.20987676786E+04  0.44509349777E+04  0.39250473128E+04 0.  0.
        4    1    3    3  502    0  0.39858231433E+03 -0.11883163150E+04 -0.66309268237E+03  0.14179763905E+04  0.12699999809E+01 0. -1.
       -4    1    3    3    0  502 -0.39858231433E+03  0.11883163150E+04  0.27618603609E+04  0.30329585872E+04  0.12699999809E+01 0.  1.
</event>
<event>
 5   0  0.2697209E-07  0.1989796E+04  0.7818609E-02  0.8611406E-01
        1   -1    0    0  501    0  0.00000000000E+00  0.00000000000E+00  0.10947532175E+04  0.10947532175E+04  0.50400001928E-02 0. -1.
       -1   -1    0    0    0  501  0.00000000000E+00  0.00000000000E+00 -0.90415095044E+03  0.90415095045E+03  0.50400001928E-02 0.  1.
    10030    2    1    2    0    0  0.00000000000E+00  0.00000000000E+00  0.19060226707E+03  0.19989041680E+04  0.19897961324E+04 0.  0.
        2    1    3    3  502    0  0.94957868479E+03  0.22053953909E+03  0.29491850664E+03  0.10184862751E+04  0.25500000920E-02 0. -1.
       -2    1    3    3    0  502 -0.94957868479E+03 -0.22053953909E+03 -0.10431623958E+03  0.98041789292E+03  0.25500000920E-02 0.  1.
</event>
<event>
 5   0  0.2601252E-07  0.2116495E+04  0.7818609E-02  0.8554012E-01
        1   -1    0    0  501    0  0.00000000000E+00  0.00000000000E+00  0.23711846683E+04  0.23711846683E+04  0.50400001928E-02 0.  1.
       -1   -1    0    0    0  501  0.00000000000E+00  0.00000000000E+00 -0.47229031195E+03  0.47229031197E+03  0.50400001928E-02 0. -1.
    10030    2    1    2    0    0  0.00000000000E+00  0.00000000000E+00  0.18988943564E+04  0.28434749803E+04  0.21164947878E+04 0.  0.
        3    1    3    3  502    0 -0.52214785954E+03 -0.79139586559E+03  0.15809438795E+04  0.18434558209E+04  0.10100000352E+00 0. -1.
       -3    1    3    3    0  502  0.52214785954E+03  0.79139586559E+03  0.31795047693E+03  0.10000191595E+04  0.10100000352E+00 0.  1.
</event>
<event>
 5   0  0.2713405E-07  0.3096333E+04  0.7818609E-02  0.8216745E-01
       -1   -1    0    0    0  501  0.00000000000E+00  0.00000000000E+00  0.21125210245E+04  0.21125210245E+04  0.50400001928E-02 0. -1.
        1   -1    0    0  501    0  0.00000000000E+00  0.00000000000E+00 -0.11345781852E+04  0.11345781852E+04  0.50400001928E-02 0.  1.
    10030    2    1    2    0    0  0.00000000000E+00  0.00000000000E+00  0.97794283929E+03  0.32470992098E+04  0.30963334900E+04 0.  0.
        1    1    3    3  502    0 -0.15382667933E+04  0.35257351792E+01  0.67224694372E+03  0.16787474830E+04  0.50400001928E-02 0.  1.
       -1    1    3    3    0  502  0.15382667933E+04 -0.35257351792E+01  0.30569589557E+03  0.15683517268E+04  0.50400001928E-02 0. -1.
</event>
<event>
 5   0  0.7256473E-07  0.4072540E+04  0.7818609E-02  0.7990071E-01
       -2   -1    0    0    0  501  0.00000000000E+00  0.00000000000E+00  0.13938363081E+04  0.13938363082E+04  0.25500000920E-02 0. -1.
        2   -1    0    0  501    0  0.00000000000E+00  0.00000000000E+00 -0.29748085038E+04  0.29748085038E+04  0.25500000920E-02 0.  1.
    10030    2    1    2    0    0  0.00000000000E+00  0.00000000000E+00 -0.15809721956E+04  0.43686448119E+04  0.40725402895E+04 0.  0.
        4    1    3    3  502    0  0.99301892762E+02  0.15629004814E+04  0.60563187130E+03  0.16790802116E+04  0.12699999809E+01 0. -1.
       -4    1    3    3    0  502 -0.99301892762E+02 -0.15629004814E+04 -0.21866040669E+04  0.26895646003E+04  0.12699999809E+01 0.  1.
</event>
<event>
 5   0  0.2647879E-07  0.3934515E+04  0.7818609E-02  0.8017889E-01
       -1   -1    0    0    0  501  0.00000000000E+00  0.00000000000E+00  0.21566683159E+04  0.21566683159E+04  0.50400001928E-02 0.  1.
        1   -1    0    0  501    0  0.00000000000E+00  0.00000000000E+00 -0.17944822287E+04  0.17944822287E+04  0.50400001928E-02 0. -1.
    10030    2    1    2    0    0  0.00000000000E+00  0.00000000000E+00  0.36218608722E+03  0.39511505446E+04  0.39345154548E+04 0.  0.
        2    1    3    3  502    0 -0.13213593382E+03  0.13577709619E+04  0.16045135391E+04  0.21060545071E+04  0.25500000920E-02 0.  1.
       -2    1    3    3    0  502  0.13213593382E+03 -0.13577709619E+04 -0.12423274518E+04  0.18450960375E+04  0.25500000920E-02 0. -1.
</event>
<event>
 5   0  0.2401125E-07  0.4035228E+04  0.7818609E-02  0.7997477E-01
       -1   -1    0    0    0  501  0.00000000000E+00  0.00000000000E+00  0.20989595736E+04  0.20989595736E+04  0.50400001928E-02 0.  1.
        1   -1    0    0  501    0  0.00000000000E+00  0.00000000000E+00 -0.19394210642E+04  0.19394210642E+04  0.50400001928E-02 0. -1.
    10030    2    1    2    0    0  0.00000000000E+00  0.00000000000E+00  0.15953850941E+03  0.40383806379E+04  0.40352280779E+04 0.  0.
        5    1    3    3  502    0 -0.13221154736E+04 -0.88091829744E+03 -0.11648815796E+04  0.19700196843E+04  0.46999998093E+01 0. -1.
       -5    1    3    3    0  502  0.13221154736E+04  0.88091829744E+03  0.13244200890E+04  0.20683609536E+04  0.46999998093E+01 0.  1.
</event>
<event>
 5   0  0.4449262E-07  0.2449318E+04  0.7818609E-02  0.8421267E-01
        2   -1    0    0  501    0  0.00000000000E+00  0.00000000000E+00  0.15923159943E+04  0.15923159943E+04  0.25500000920E-02 0. -1.
       -2   -1    0    0    0  501  0.00000000000E+00  0.00000000000E+00 -0.94189175315E+03  0.94189175315E+03  0.25500000920E-02 0.  1.
    10030    2    1    2    0    0  0.00000000000E+00  0.00000000000E+00  0.65042424118E+03  0.25342077475E+04  0.24493177038E+04 0.  0.
        1    1    3    3  502    0 -0.66307029590E+03  0.28274860508E+03 -0.69914190920E+03  0.10041953994E+04  0.50400001928E-02 0.  1.
       -1    1    3    3    0  502  0.66307029590E+03 -0.28274860508E+03  0.13495661504E+04  0.15300123481E+04  0.50400001928E-02 0. -1.
</event>
<event>
 5   0  0.2601252E-07  0.3912199E+04  0.7818609E-02  0.8022497E-01
        1   -1    0    0  501    0  0.00000000000E+00  0.00000000000E+00  0.20227921954E+04  0.20227921954E+04  0.50400001928E-02 0.  1.
       -1   -1    0    0    0  501  0.00000000000E+00  0.00000000000E+00 -0.18916057929E+04  0.18916057929E+04  0.50400001928E-02 0. -1.
    10030    2    1    2    0    0  0.00000000000E+00  0.00000000000E+00  0.13118640249E+03  0.39143979883E+04  0.39121990924E+04 0.  0.
        3    1    3    3  502    0 -0.10895276699E+04  0.14943526396E+04  0.70326221981E+03  0.19785697144E+04  0.10100000352E+00 0.  1.
       -3    1    3    3    0  502  0.10895276699E+04 -0.14943526396E+04 -0.57207581732E+03  0.19358282739E+04  0.10100000352E+00 0. -1.
</event>
<event>
 5   0  0.4449262E-07  0.3699528E+04  0.7818609E-02  0.8068066E-01
        2   -1    0    0  501    0  0.00000000000E+00  0.00000000000E+00  0.17659929300E+04  0.17659929300E+04  0.25500000920E-02 0. -1.
       -2   -1    0    0    0  501  0.00000000000E+00  0.00000000000E+00 -0.19375091826E+04  0.19375091826E+04  0.25500000920E-02 0.  1.
    10030    2    1    2    0    0  0.00000000000E+00  0.00000000000E+00 -0.17151625260E+03  0.37035021126E+04  0.36995283582E+04 0.  0.
        1    1    3    3  502    0 -0.24348526804E+03  0.98965555507E+03  0.14595723203E+04  0.17801838533E+04  0.50400001928E-02 0. -1.
       -1    1    3    3    0  502  0.24348526804E+03 -0.98965555507E+03 -0.16310885729E+04  0.19233182592E+04  0.50400001928E-02 0.  1.
</event>
<event>
 5   0  0.4449262E-07  0.3707616E+04  0.7818609E-02  0.8066276E-01
        2   -1    0    0  501    0  0.00000000000E+00  0.00000000000E+00  0.25229028292E+04  0.25229028292E+04  0.25500000920E-02 0.  1.
       -2   -1    0    0    0  501  0.00000000000E+00  0.00000000000E+00 -0.13621629371E+04  0.13621629371E+04  0.25500000920E-02 0. -1.
    10030    2    1    2    0    0  0.00000000000E+00  0.00000000000E+00  0.11607398921E+04  0.38850657663E+04  0.37076163382E+04 0.  0.
        1    1    3    3  502    0 -0.45672738139E+03 -0.17901182256E+04  0.74094094547E+03  0.19905066308E+04  0.50400001928E-02 0.  1.
       -1    1    3    3    0  502  0.45672738139E+03  0.17901182256E+04  0.41979894667E+03  0.18945591356E+04  0.50400001928E-02 0. -1.
</event>
<event>
 5   0  0.2979788E-07  0.2157219E+04  0.7818609E-02  0.8536448E-01
        1   -1    0    0  501    0  0.00000000000E+00  0.00000000000E+00  0.13680593485E+04  0.13680593485E+04  0.50400001928E-02 0.  1.
       -1   -1    0    0    0  501  0.00000000000E+00  0.00000000000E+00 -0.85040064012E+03  0.85040064013E+03  0.50400001928E-02 0. -1.
    10030    2    1    2    0    0  0.00000000000E+00  0.00000000000E+00  0.51765870840E+03  0.22184599887E+04  0.21572190855E+04 0.  0.
        3    1    3    3  502    0 -0.56326694249E+02 -0.51332779466E+02  0.13652872105E+04  0.13674124938E+04  0.10100000352E+00 0.  1.
       -3    1    3    3    0  502  0.56326694249E+02  0.51332779466E+02 -0.84762850212E+03  0.85104749488E+03  0.10100000352E+00 0. -1.
</event>
<event>
 5   0  0.7570277E-07  0.3991614E+04  0.7818609E-02  0.8006240E-01
       -2   -1    0    0    0  501  0.00000000000E+00  0.00000000000E+00  0.24511225775E+04  0.24511225775E+04  0.25500000920E-02 0.  1.
        2   -1    0    0  501    0  0.00000000000E+00  0.00000000000E+00 -0.16250700381E+04  0.16250700381E+04  0.25500000920E-02 0. -1.
    10030    2    1    2    0    0  0.00000000000E+00  0.00000000000E+00  0.82605253941E+03  0.40761926155E+04  0.39916141398E+04 0.  0.
        5    1    3    3  502    0  0.17571262286E+04  0.94327371811E+03  0.49190200008E+03  0.20540807088E+04  0.46999998093E+01 0.  1.
       -5    1    3    3    0  502 -0.17571262286E+04 -0.94327371811E+03  0.33415053934E+03  0.20221119068E+04  0.46999998093E+01 0. -1.
</event>
<event>
 5   0  0.5161550E-07  0.3049330E+04  0.7818609E-02  0.8229783E-01
       -2   -1    0    0    0  501  0.00000000000E+00  0.00000000000E+00  0.20084041842E+04  0.20084041842E+04  0.25500000920E-02 0.  1.
        2   -1    0    0  501    0  0.00000000000E+00  0.00000000000E+00 -0.11574376816E+04  0.11574376816E+04  0.25500000920E-02 0. -1.
    10030    2    1    2    0    0  0.00000000000E+00  0.00000000000E+00  0.85096650255E+03  0.31658418658E+04  0.30493295543E+04 0.  0.
        2    1    3    3  502    0 -0.13106482745E+04  0.74901299920E+03  0.64762922703E+03  0.16426329438E+04  0.25500000920E-02 0. -1.
       -2    1    3    3    0  502  0.13106482745E+04 -0.74901299920E+03  0.20333727552E+03  0.15232089220E+04  0.25500000920E-02 0.  1.
</event>
<event>
 5   0  0.5161550E-07  0.4048571E+04  0.7818609E-02  0.7994819E-01
       -2   -1    0    0    0  501  0.00000000000E+00  0.00000000000E+00  0.30140063109E+04  0.30140063109E+04  0.25500000920E-02 0.  1.
        2   -1    0    0  501    0  0.00000000000E+00  0.00000000000E+00 -0.13595629097E+04  0.13595629097E+04  0.25500000920E-02 0. -1.
    10030    2    1    2    0    0  0.00000000000E+00  0.00000000000E+00  0.16544434012E+04  0.43735692206E+04  0.40485707058E+04 0.  0.
        2    1    3    3  502    0 -0.11688954039E+04  0.15752082612E+04  0.28693989353E+03  0.19824056179E+04  0.25500000920E-02 0. -1.
       -2    1    3    3    0  502  0.11688954039E+04 -0.15752082612E+04  0.13675035076E+04  0.23911636027E+04  0.25500000920E-02 0.  1.
</event>
<event>
 5   0  0.2713405E-07  0.2007179E+04  0.7818609E-02  0.8603271E-01
        1   -1    0    0  501    0  0.00000000000E+00  0.00000000000E+00  0.14869553776E+04  0.14869553777E+04  0.50400001928E-02 0.  1.
       -1   -1    0    0    0  501  0.00000000000E+00  0.00000000000E+00 -0.67735195215E+03  0.67735195217E+03  0.50400001928E-02 0. -1.
    10030    2    1    2    0    0  0.00000000000E+00  0.00000000000E+00  0.80960342549E+03  0.21643073298E+04  0.20071792425E+04 0.  0.
        1    1    3    3  502    0 -0.83125606705E+02 -0.94736405667E+03  0.59105439913E+02  0.95283890318E+03  0.50400001928E-02 0. -1.
       -1    1    3    3    0  502  0.83125606705E+02  0.94736405667E+03  0.75049798558E+03  0.12114684266E+04  0.50400001928E-02 0.  1.
</event>
<event>
 5   0  0.7570277E-07  0.3981281E+04  0.7818609E-02  0.8008334E-01
       -2   -1    0    0    0  501  0.00000000000E+00  0.00000000000E+00  0.19399087038E+04  0.19399087038E+04  0.25500000920E-02 0.  1.
        2   -1    0    0  501    0  0.00000000000E+00  0.00000000000E+00 -0.20426985580E+04  0.20426985580E+04  0.25500000920E-02 0. -1.
    10030    2    1    2    0    0  0.00000000000E+00  0.00000000000E+00 -0.10278985418E+03  0.39826072618E+04  0.39812805538E+04 0.  0.
        5    1    3    3  502    0 -0.16443005146E+04  0.52728365444E+03  0.93932613490E+03  0.19657334286E+04  0.46999998093E+01 0.  1.
       -5    1    3    3    0  502  0.16443005146E+04 -0.52728365444E+03 -0.10421159891E+04  0.20168738332E+04  0.46999998093E+01 0. -1.
</event>
<event>
 5   0  0.7711969E-07  0.1970811E+04  0.7818609E-02  0.8620390E-01
        2   -1    0    0  501    0  0.00000000000E+00  0.00000000000E+00  0.17114977732E+04  0.17114977732E+04  0.25500000920E-02 0. -1.
       -2   -1    0    0    0  501  0.00000000000E+00  0.00000000000E+00 -0.56735330713E+03  0.56735330713E+03  0.25500000920E-02 0.  1.
    10030    2    1    2    0    0  0.00000000000E+00  0.00000000000E+00  0.11441444661E+04  0.22788510803E+04  0.19708109212E+04 0.  0.
        1    1    3    3  502    0 -0.27707945297E+02 -0.79798336902E+03  0.12398086426E+04  0.14746764586E+04  0.50400001928E-02 0. -1.
       -1    1    3    3    0  502  0.27707945297E+02  0.79798336902E+03 -0.95664176502E+02  0.80417462168E+03  0.50400001928E-02 0.  1.
</event>
<event>
 5   0  0.2647879E-07  0.3204495E+04  0.7818609E-02  0.8187631E-01
        1   -1    0    0  501    0  0.00000000000E+00  0.00000000000E+00  0.25000165845E+04  0.25000165845E+04  0.50400001928E-02 0.  1.
       -1   -1    0    0    0  501  0.00000000000E+00  0.00000000000E+00 -0.10268717055E+04  0.10268717055E+04  0.50400001928E-02 0. -1.
    10030    2    1    2    0    0  0.00000000000E+00  0.00000000000E+00  0.14731448790E+04  0.35268882900E+04  0.32044945273E+04 0.  0.
        2    1    3    3  502    0 -0.10649598830E+04  0.99673025215E+03  0.68564344774E+01  0.14586492926E+04  0.25500000920E-02 0. -1.
       -2    1    3    3    0  502  0.10649598830E+04 -0.99673025215E+03  0.14662884446E+04  0.20682389975E+04  0.25500000920E-02 0.  1.
</event>
<event>
 5   0  0.4449262E-07  0.3673064E+04  0.7818609E-02  0.8073958E-01
        2   -1    0    0  501    0  0.00000000000E+00  0.00000000000E+00  0.13576131690E+04  0.13576131690E+04  0.25500000920E-02 0. -1.
       -2   -1    0    0    0  501  0.00000000000E+00  0.00000000000E+00 -0.24843963564E+04  0.24843963564E+04  0.25500000920E-02 0.  1.
    10030    2    1    2    0    0  0.00000000000E+00  0.00000000000E+00 -0.11267831875E+04  0.38420095254E+04  0.36730636861E+04 0.  0.
        1    1    3    3  502    0 -0.29587863114E+03 -0.53403000550E+02  0.13316958228E+04  0.13652141991E+04  0.50400001928E-02 0. -1.
       -1    1    3    3    0  502  0.29587863114E+03  0.53403000550E+02 -0.24584790102E+04  0.24767953264E+04  0.50400001928E-02 0.  1.
</event>
<event>
 5   0  0.3579559E-07  0.2125501E+04  0.7818609E-02  0.8550092E-01
       -1   -1    0    0    0  501  0.00000000000E+00  0.00000000000E+00  0.64532670368E+03  0.64532670370E+03  0.50400001928E-02 0.  1.
        1   -1    0    0  501    0  0.00000000000E+00  0.00000000000E+00 -0.17501810684E+04  0.17501810684E+04  0.50400001928E-02 0. -1.
    10030    2    1    2    0    0  0.00000000000E+00  0.00000000000E+00 -0.11048543647E+04  0.23955077721E+04  0.21255009572E+04 0.  0.
        4    1    3    3  502    0  0.68151471014E+03 -0.75611160620E+03 -0.89662415647E+03  0.13565041659E+04  0.12699999809E+01 0.  1.
       -4    1    3    3    0  502 -0.68151471014E+03  0.75611160620E+03 -0.20823020821E+03  0.10390036062E+04  0.12699999809E+01 0. -1.
</event>
<event>
 5   0  0.7256473E-07  0.4078024E+04  0.7818609E-02  0.7988989E-01
        2   -1    0    0  501    0  0.00000000000E+00  0.00000000000E+00  0.12617814516E+04  0.12617814516E+04  0.25500000920E-02 0.  1.
       -2   -1    0    0    0  501  0.00000000000E+00  0.00000000000E+00 -0.32949993671E+04  0.32949993671E+04  0.25500000920E-02 0. -1.
    10030    2    1    2    0    0  0.00000000000E+00  0.00000000000E+00 -0.20332179155E+04  0.45567808187E+04  0.40780235823E+04 0.  0.
        4    1    3    3  502    0  0.36808722555E+03  0.73750072523E+03  0.10673248993E+04  0.13485472105E+04  0.12699999809E+01 0.  1.
       -4    1    3    3    0  502 -0.36808722555E+03 -0.73750072523E+03 -0.31005428148E+04  0.32082336082E+04  0.12699999809E+01 0. -1.
</event>
<event>
 5   0  0.2401125E-07  0.3334535E+04  0.7818609E-02  0.8154163E-01
        1   -1    0    0  501    0  0.00000000000E+00  0.00000000000E+00  0.15535515235E+04  0.15535515235E+04  0.50400001928E-02 0. -1.
       -1   -1    0    0    0  501  0.00000000000E+00  0.00000000000E+00 -0.17893072236E+04  0.17893072236E+04  0.50400001928E-02 0.  1.
    10030    2    1    2    0    0  0.00000000000E+00  0.00000000000E+00 -0.23575570005E+03  0.33428587471E+04  0.33345350280E+04 0.  0.
        5    1    3    3  502    0 -0.84578860450E+03 -0.20358575344E+03 -0.15437338779E+04  0.17719881203E+04  0.46999998093E+01 0.  1.
       -5    1    3    3    0  502  0.84578860450E+03  0.20358575344E+03  0.13079781779E+04  0.15708706269E+04  0.46999998093E+01 0. -1.
</event>
<event>
 5   0  0.4449262E-07  0.2056794E+04  0.7818609E-02  0.8580518E-01
       -2   -1    0    0    0  501  0.00000000000E+00  0.00000000000E+00  0.75338300218E+03  0.75338300218E+03  0.25500000920E-02 0. -1.
        2   -1    0    0  501    0  0.00000000000E+00  0.00000000000E+00 -0.14038020164E+04  0.14038020164E+04  0.25500000920E-02 0.  1.
    10030    2    1    2    0    0  0.00000000000E+00  0.00000000000E+00 -0.65041901424E+03  0.21571850186E+04  0.20567941828E+04 0.  0.
        1    1    3    3  502    0  0.93419254714E+03  0.18036118600E+03  0.84168488706E+02  0.95515978091E+03  0.50400001928E-02 0. -1.
       -1    1    3    3    0  502 -0.93419254714E+03 -0.18036118600E+03 -0.73458750295E+03  0.12020252377E+04  0.50400001928E-02 0.  1.
</event>
<event>
 5   0  0.5161550E-07  0.3966651E+04  0.7818609E-02  0.8011308E-01
       -2   -1    0    0    0  501  0.00000000000E+00  0.00000000000E+00  0.16286033384E+04  0.16286033384E+04  0.25500000920E-02 0. -1.
        2   -1    0    0  501    0  0.00000000000E+00  0.00000000000E+00 -0.24153091997E+04  0.24153091997E+04  0.25500000920E-02 0.  1.
    10030    2    1    2    0    0  0.00000000000E+00  0.00000000000E+00 -0.78670586131E+03  0.40439125381E+04  0.39666512959E+04 0.  0.
        2    1    3    3  502    0 -0.73315059463E+03  0.36536229226E+03  0.14480905632E+04  0.16637204328E+04  0.25500000920E-02 0. -1.
       -2    1    3    3    0  502  0.73315059463E+03 -0.36536229226E+03 -0.22347964246E+04  0.23801921053E+04  0.25500000920E-02 0.  1.
</event>
<event>
 5   0  0.7256473E-07  0.3245395E+04  0.7818609E-02  0.8176930E-01
        2   -1    0    0  501    0  0.00000000000E+00  0.00000000000E+00  0.19582880728E+04  0.19582880728E+04  0.25500000920E-02 0.  1.
       -2   -1    0    0    0  501  0.00000000000E+00  0.00000000000E+00 -0.13446169685E+04  0.13446169685E+04  0.25500000920E-02 0. -1.
    10030    2    1    2    0    0  0.00000000000E+00  0.00000000000E+00  0.61367110438E+03  0.33029050413E+04  0.32453951204E+04 0.  0.
        4    1    3    3  502    0 -0.53553050341E+02  0.14514276846E+04 -0.42961408496E+03  0.15146221073E+04  0.12699999809E+01 0. -1.
       -4    1    3    3    0  502  0.53553050341E+02 -0.14514276846E+04  0.10432851893E+04  0.17882829340E+04  0.12699999809E+01 0.  1.
</event>
<event>
 5   0  0.7570277E-07  0.3957329E+04  0.7818609E-02  0.8013210E-01
        2   -1    0    0  501    0  0.00000000000E+00  0.00000000000E+00  0.27453073129E+04  0.27453073129E+04  0.25500000920E-02 0. -1.
       -2   -1    0    0    0  501  0.00000000000E+00  0.00000000000E+00 -0.14261111027E+04  0.14261111027E+04  0.25500000920E-02 0.  1.
    10030    2    1    2    0    0  0.00000000000E+00  0.00000000000E+00  0.13191962102E+04  0.41714184157E+04  0.39573290181E+04 0.  0.
        5    1    3    3  502    0  0.92627315602E+03 -0.41237452072E+03  0.24506543812E+04  0.26521243732E+04  0.46999998093E+01 0. -1.
       -5    1    3    3    0  502 -0.92627315602E+03  0.41237452072E+03 -0.11314581710E+04  0.15192940425E+04  0.46999998093E+01 0.  1.
</event>
<event>
 5   0  0.5161550E-07  0.4110628E+04  0.7818609E-02  0.7982594E-01
        2   -1    0    0  501    0  0.00000000000E+00  0.00000000000E+00  0.16072979976E+04  0.16072979976E+04  0.25500000920E-02 0.  1.
       -2   -1    0    0    0  501  0.00000000000E+00  0.00000000000E+00 -0.26282088682E+04  0.26282088682E+04  0.25500000920E-02 0. -1.
    10030    2    1    2    0    0  0.00000000000E+00  0.00000000000E+00 -0.10209108707E+04  0.42355068658E+04  0.41106276169E+04 0.  0.
        2    1    3    3  502    0  0.86534312364E+03 -0.15527457487E+04  0.55262309762E+03  0.18615129250E+04  0.25500000920E-02 0. -1.
       -2    1    3    3    0  502 -0.86534312364E+03  0.15527457487E+04 -0.15735339683E+04  0.23739939408E+04  0.25500000920E-02 0.  1.
</event>
<event>
 5   0  0.2601252E-07  0.3695150E+04  0.7818609E-02  0.8069037E-01
       -1   -1    0    0    0  501  0.00000000000E+00  0.00000000000E+00  0.15351898167E+04  0.15351898167E+04  0.50400001928E-02 0. -1.
        1   -1    0    0  501    0  0.00000000000E+00  0.00000000000E+00 -0.22235252575E+04  0.22235252575E+04  0.50400001928E-02 0.  1.
    10030    2    1    2    0    0  0.00000000000E+00  0.00000000000E+00 -0.68833544074E+03  0.37587150742E+04  0.36951499740E+04 0.  0.
        3    1    3    3  502    0  0.17100590655E+04  0.31823233136E+03  0.28941092413E+03  0.17633299514E+04  0.10100000352E+00 0. -1.
       -3    1    3    3    0  502 -0.17100590655E+04 -0.31823233136E+03 -0.97774636487E+03  0.19953851228E+04  0.10100000352E+00 0.  1.
</event>
<event>
 5   0  0.2401125E-07  0.2867743E+04  0.7818609E-02  0.8282540E-01
       -4   -1    0    0    0  501  0.00000000000E+00  0.00000000000E+00  0.13237972518E+04  0.13237978610E+04  0.12699999809E+01 0.  1.
        4   -1    0    0  501    0  0.00000000000E+00  0.00000000000E+00 -0.15530967680E+04  0.15530972872E+04  0.12699999809E+01 0. -1.
    10030    2    1    2    0    0  0.00000000000E+00  0.00000000000E+00 -0.22929951621E+03  0.28768951482E+04  0.28677425661E+04 0.  0.
        4    1    3    3  502    0  0.12559629857E+03  0.10502593552E+04  0.85651330548E+03  0.13610421738E+04  0.12699999809E+01 0.  1.
       -4    1    3    3    0  502 -0.12559629857E+03 -0.10502593552E+04 -0.10858128217E+04  0.15158529744E+04  0.12699999809E+01 0. -1.
</event>
<event>
 5   0  0.7570277E-07  0.3859285E+04  0.7818609E-02  0.8033551E-01
        2   -1    0    0  501    0  0.00000000000E+00  0.00000000000E+00  0.20796075805E+04  0.20796075805E+04  0.25500000920E-02 0. -1.
       -2   -1    0    0    0  501  0.00000000000E+00  0.00000000000E+00 -0.17904915524E+04  0.17904915524E+04  0.25500000920E-02 0.  1.
    10030    2    1    2    0    0  0.00000000000E+00  0.00000000000E+00  0.28911602813E+03  0.38700991329E+04  0.38592848069E+04 0.  0.
        5    1    3    3  502    0  0.13899483644E+04 -0.78826040312E+03 -0.94022495107E+03  0.18540107787E+04  0.46999998093E+01 0.  1.
       -5    1    3    3    0  502 -0.13899483644E+04  0.78826040312E+03  0.12293409792E+04  0.20160883542E+04  0.46999998093E+01 0. -1.
</event>
<event>
 5   0  0.2601252E-07  0.2038097E+04  0.7818609E-02  0.8589013E-01
       -1   -1    0    0    0  501  0.00000000000E+00  0.00000000000E+00  0.79520399983E+03  0.79520399985E+03  0.50400001928E-02 0.  1.
        1   -1    0    0  501    0  0.00000000000E+00  0.00000000000E+00 -0.13059037257E+04  0.13059037257E+04  0.50400001928E-02 0. -1.
    10030    2    1    2    0    0  0.00000000000E+00  0.00000000000E+00 -0.51069972583E+03  0.21011077255E+04  0.20380970203E+04 0.  0.
        3    1    3    3  502    0  0.48474720282E+03 -0.41161518395E+03 -0.10762422495E+04  0.12500817174E+04  0.10100000352E+00 0. -1.
       -3    1    3    3    0  502 -0.48474720282E+03  0.41161518395E+03  0.56554252366E+03  0.85102600816E+03  0.10100000352E+00 0.  1.
</event>
<event>
 5   0  0.4449262E-07  0.3829089E+04  0.7818609E-02  0.8039941E-01
       -2   -1    0    0    0  501  0.00000000000E+00  0.00000000000E+00  0.17697315530E+04  0.17697315530E+04  0.25500000920E-02 0.  1.
        2   -1    0    0  501    0  0.00000000000E+00  0.00000000000E+00 -0.20712069521E+04  0.20712069521E+04  0.25500000920E-02 0. -1.
    10030    2    1    2    0    0  0.00000000000E+00  0.00000000000E+00 -0.30147539903E+03  0.38409385051E+04  0.38290888190E+04 0.  0.
        1    1    3    3  502    0 -0.59906722138E+03  0.15805018706E+03  0.16663922473E+04  0.17778426588E+04  0.50400001928E-02 0.  1.
       -1    1    3    3    0  502  0.59906722138E+03 -0.15805018706E+03 -0.19678676464E+04  0.20630958463E+04  0.50400001928E-02 0. -1.
</event>
<event>
 5   0  0.7256473E-07  0.3855783E+04  0.7818609E-02  0.8034289E-01
       -2   -1    0    0    0  501  0.00000000000E+00  0.00000000000E+00  0.13989421659E+04  0.13989421659E+04  0.25500000920E-02 0. -1.
        2   -1    0    0  501    0  0.00000000000E+00  0.00000000000E+00 -0.26568400896E+04  0.26568400896E+04  0.25500000920E-02 0.  1.
    10030    2    1    2    0    0  0.00000000000E+00  0.00000000000E+00 -0.12578979237E+04  0.40557822556E+04  0.38557829968E+04 0.  0.
        4    1    3    3  502    0 -0.68004435864E+03 -0.84114733588E+03  0.10496900921E+04  0.15072624432E+04  0.12699999809E+01 0. -1.
       -4    1    3    3    0  502  0.68004435864E+03  0.84114733588E+03 -0.23075880158E+04  0.25485198123E+04  0.12699999809E+01 0.  1.
</event>
<event>
 5   0  0.4449262E-07  0.2345364E+04  0.7818609E-02  0.8460246E-01
        2   -1    0    0  501    0  0.00000000000E+00  0.00000000000E+00  0.10168839958E+04  0.10168839958E+04  0.25500000920E-02 0. -1.
       -2   -1    0    0    0  501  0.00000000000E+00  0.00000000000E+00 -0.13523502180E+04  0.13523502180E+04  0.25500000920E-02 0.  1.
    10030    2    1    2    0    0  0.00000000000E+00  0.00000000000E+00 -0.33546622226E+03  0.23692342138E+04  0.23453641879E+04 0.  0.
        1    1    3    3  502    0 -0.92721153149E+03  0.38448114851E+03  0.44476803923E+03  0.10978914274E+04  0.50400001928E-02 0. -1.
       -1    1    3    3    0  502  0.92721153149E+03 -0.38448114851E+03 -0.78023426149E+03  0.12713427864E+04  0.50400001928E-02 0.  1.
</event>
<event>
 5   0  0.7570277E-07  0.4365813E+04  0.7818609E-02  0.7934560E-01
       -2   -1    0    0    0  501  0.00000000000E+00  0.00000000000E+00  0.18605730114E+04  0.18605730114E+04  0.25500000920E-02 0.  1.
        2   -1    0    0  501    0  0.00000000000E+00  0.00000000000E+00 -0.25610821016E+04  0.25610821016E+04  0.25500000920E-02 0. -1.
    10030    2    1    2    0    0  0.00000000000E+00  0.00000000000E+00 -0.70050909017E+03  0.44216551130E+04  0.43658127483E+04 0.  0.
        5    1    3    3  502    0  0.12800501465E+04 -0.17175957189E+04 -0.77562032343E+03  0.22782169360E+04  0.46999998093E+01 0. -1.
       -5    1    3    3    0  502 -0.12800501465E+04  0.17175957189E+04  0.75111233262E+02  0.21434381770E+04  0.46999998093E+01 0.  1.
</event>
<event>
 5   0  0.6043512E-07  0.2987340E+04  0.7818609E-02  0.8247355E-01
        2   -1    0    0  501    0  0.00000000000E+00  0.00000000000E+00  0.17995868073E+04  0.17995868073E+04  0.25500000920E-02 0. -1.
       -2   -1    0    0    0  501  0.00000000000E+00  0.00000000000E+00 -0.12397570814E+04  0.12397570814E+04  0.25500000920E-02 0.  1.
    10030    2    1    2    0    0  0.00000000000E+00  0.00000000000E+00  0.55982972593E+03  0.30393438888E+04  0.29873402806E+04 0.  0.
        3    1    3    3  502    0  0.34468813259E+03  0.10974626045E+04 -0.68946536835E+03  0.13411176613E+04  0.10100000352E+00 0.  1.
       -3    1    3    3    0  502 -0.34468813259E+03 -0.10974626045E+04  0.12492950943E+04  0.16982262275E+04  0.10100000352E+00 0. -1.
</event>
<event>
 5   0  0.2401125E-07  0.3220499E+04  0.7818609E-02  0.8183424E-01
       -1   -1    0    0    0  501  0.00000000000E+00  0.00000000000E+00  0.17153898543E+04  0.17153898543E+04  0.50400001928E-02 0.  1.
        1   -1    0    0  501    0  0.00000000000E+00  0.00000000000E+00 -0.15115538187E+04  0.15115538187E+04  0.50400001928E-02 0. -1.
    10030    2    1    2    0    0  0.00000000000E+00  0.00000000000E+00  0.20383603557E+03  0.32269436730E+04  0.32204993928E+04 0.  0.
        5    1    3    3  502    0  0.73870611114E+03  0.28507765908E+03 -0.13030024733E+04  0.15247273612E+04  0.46999998093E+01 0. -1.
       -5    1    3    3    0  502 -0.73870611114E+03 -0.28507765908E+03  0.15068385089E+04  0.17022163118E+04  0.46999998093E+01 0.  1.
</event>
<event>
 5   0  0.2401125E-07  0.3655416E+04  0.7818609E-02  0.8077915E-01
       -1   -1    0    0    0  501  0.00000000000E+00  0.00000000000E+00  0.25991400393E+04  0.25991400394E+04  0.50400001928E-02 0.  1.
        1   -1    0    0  501    0  0.00000000000E+00  0.00000000000E+00 -0.12852388056E+04  0.12852388056E+04  0.50400001928E-02 0. -1.
    10030    2    1    2    0    0  0.00000000000E+00  0.00000000000E+00  0.13139012337E+04  0.38843788450E+04  0.36554155112E+04 0.  0.
        5    1    3    3  502    0 -0.14374836522E+04  0.11120487478E+04  0.45122161237E+03  0.18726010524E+04  0.46999998093E+01 0. -1.
       -5    1    3    3    0  502  0.14374836522E+04 -0.11120487478E+04  0.86267962135E+03  0.20117777926E+04  0.46999998093E+01 0.  1.
</event>
<event>
 5   0  0.2647879E-07  0.2501679E+04  0.7818609E-02  0.8402388E-01
       -1   -1    0    0    0  501  0.00000000000E+00  0.00000000000E+00  0.96938411419E+03  0.96938411420E+03  0.50400001928E-02 0.  1.
        1   -1    0    0  501    0  0.00000000000E+00  0.00000000000E+00 -0.16140140803E+04  0.16140140803E+04  0.50400001928E-02 0. -1.
    10030    2    1    2    0    0  0.00000000000E+00  0.00000000000E+00 -0.64462996612E+03  0.25833981945E+04  0.25016791238E+04 0.  0.
        2    1    3    3  502    0  0.71948531880E+03  0.91218583318E+03 -0.80098364732E+03  0.14111402912E+04  0.25500000920E-02 0. -1.
       -2    1    3    3    0  502 -0.71948531880E+03 -0.91218583318E+03  0.15635368120E+03  0.11722579033E+04  0.25500000920E-02 0.  1.
</event>
<event>
 5   0  0.2713405E-07  0.3889488E+04  0.7818609E-02  0.8027219E-01
       -1   -1    0    0    0  501  0.00000000000E+00  0.00000000000E+00  0.16157136082E+04  0.16157136082E+04  0.50400001928E-02 0.  1.
        1   -1    0    0  501    0  0.00000000000E+00  0.00000000000E+00 -0.23407794612E+04  0.23407794612E+04  0.50400001928E-02 0. -1.
    10030    2    1    2    0    0  0.00000000000E+00  0.00000000000E+00 -0.72506585301E+03  0.39564930694E+04  0.38894880019E+04 0.  0.
        1    1    3    3  502    0 -0.15272415707E+04 -0.56799100404E+03  0.71733348710E+03  0.17803505070E+04  0.50400001928E-02 0.  1.
       -1    1    3    3    0  502  0.15272415707E+04  0.56799100404E+03 -0.14423993401E+04  0.21761425625E+04  0.50400001928E-02 0. -1.
</event>
<event>
 5   0  0.7256473E-07  0.3962377E+04  0.7818609E-02  0.8012180E-01
       -2   -1    0    0    0  501  0.00000000000E+00  0.00000000000E+00  0.24357846475E+04  0.24357846475E+04  0.25500000920E-02 0. -1.
        2   -1    0    0  501    0  0.00000000000E+00  0.00000000000E+00 -0.16114344528E+04  0.16114344528E+04  0.25500000920E-02 0.  1.
    10030    2    1    2    0    0  0.00000000000E+00  0.00000000000E+00  0.82435019475E+03  0.40472191003E+04  0.39623767113E+04 0.  0.
        4    1    3    3  502    0 -0.19676676756E+04  0.16017306183E+03  0.24207336184E+03  0.19889626987E+04  0.12699999809E+01 0.  1.
       -4    1    3    3    0  502  0.19676676756E+04 -0.16017306183E+03  0.58227683291E+03  0.20582564015E+04  0.12699999809E+01 0. -1.
</event>
<event>
 5   0  0.6043512E-07  0.3972472E+04  0.7818609E-02  0.8010123E-01
       -2   -1    0    0    0  501  0.00000000000E+00  0.00000000000E+00  0.17592616628E+04  0.17592616628E+04  0.25500000920E-02 0.  1.
        2   -1    0    0  501    0  0.00000000000E+00  0.00000000000E+00 -0.22424937466E+04  0.22424937466E+04  0.25500000920E-02 0. -1.
    10030    2    1    2    0    0  0.00000000000E+00  0.00000000000E+00 -0.48323208386E+03  0.40017554094E+04  0.39724719143E+04 0.  0.
        3    1    3    3  502    0  0.72794286681E+03 -0.12464364293E+04  0.11328570293E+04  0.18349031714E+04  0.10100000352E+00 0.  1.
       -3    1    3    3    0  502 -0.72794286681E+03  0.12464364293E+04 -0.16160891131E+04  0.21668522380E+04  0.10100000352E+00 0. -1.
</event>
<event>
 5   0  0.2601252E-07  0.2008375E+04  0.7818609E-02  0.8602715E-01
        1   -1    0    0  501    0  0.00000000000E+00  0.00000000000E+00  0.10440395001E+04  0.10440395001E+04  0.50400001928E-02 0.  1.
       -1   -1    0    0    0  501  0.00000000000E+00  0.00000000000E+00 -0.96585640076E+03  0.96585640077E+03  0.50400001928E-02 0. -1.
    10030    2    1    2    0    0  0.00000000000E+00  0.00000000000E+00  0.78183099376E+02  0.20098959009E+04  0.20083747000E+04 0.  0.
        3    1    3    3  502    0  0.29160019604E+03 -0.76404626958E+03  0.62228060994E+03  0.10276334678E+04  0.10100000352E+00 0.  1.
       -3    1    3    3    0  502 -0.29160019604E+03  0.76404626958E+03 -0.54409751056E+03  0.98226243315E+03  0.10100000352E+00 0. -1.
</event>
<event>
 5   0  0.7256473E-07  0.3677554E+04  0.7818609E-02  0.8072954E-01
        2   -1    0    0  501    0  0.00000000000E+00  0.00000000000E+00  0.25044247518E+04  0.25044247518E+04  0.25500000920E-02 0. -1.
       -2   -1    0    0    0  501  0.00000000000E+00  0.00000000000E+00 -0.13500507156E+04  0.13500507156E+04  0.25500000920E-02 0.  1.
    10030    2    1    2    0    0  0.00000000000E+00  0.00000000000E+00  0.11543740361E+04  0.38544754674E+04  0.36775537676E+04 0.  0.
        4    1    3    3  502    0  0.15378402863E+04 -0.96877870422E+02 -0.47445854077E+03  0.16122811751E+04  0.12699999809E+01 0. -1.
       -4    1    3    3    0  502 -0.15378402863E+04  0.96877870422E+02  0.16288325769E+04  0.22421942923E+04  0.12699999809E+01 0.  1.
</event>
<event>
 5   0  0.5161550E-07  0.3777031E+04  0.7818609E-02  0.8051102E-01
        2   -1    0    0  501    0  0.00000000000E+00  0.00000000000E+00  0.19856569257E+04  0.19856569257E+04  0.25500000920E-02 0.  1.
       -2   -1    0    0    0  501  0.00000000000E+00  0.00000000000E+00 -0.17961268554E+04  0.17961268554E+04  0.25500000920E-02 0. -1.
    10030    2    1    2    0    0  0.00000000000E+00  0.00000000000E+00  0.18953007027E+03  0.37817837811E+04  0.37770314957E+04 0.  0.
        2    1    3    3  502    0  0.14559358098E+03  0.37428684399E+03 -0.17528761331E+04  0.17982944337E+04  0.25500000920E-02 0. -1.
       -2    1    3    3    0  502 -0.14559358098E+03 -0.37428684399E+03  0.19424062033E+04  0.19834893474E+04  0.25500000920E-02 0.  1.
</event>
<event>
 5   0  0.5161550E-07  0.2937543E+04  0.7818609E-02  0.8261794E-01
       -2   -1    0    0    0  501  0.00000000000E+00  0.00000000000E+00  0.92688332689E+03  0.92688332689E+03  0.25500000920E-02 0. -1.
        2   -1    0    0  501    0  0.00000000000E+00  0.00000000000E+00 -0.23274662541E+04  0.23274662541E+04  0.25500000920E-02 0.  1.
    10030    2    1    2    0    0  0.00000000000E+00  0.00000000000E+00 -0.14005829272E+04  0.32543495810E+04  0.29375429630E+04 0.  0.
        2    1    3    3  502    0  0.76610964194E+03 -0.10990770462E+04 -0.33375257736E+02  0.13401523215E+04  0.25500000920E-02 0. -1.
       -2    1    3    3    0  502 -0.76610964194E+03  0.10990770462E+04 -0.13672076695E+04  0.19141972596E+04  0.25500000920E-02 0.  1.
</event>
<event>
 5   0  0.2647879E-07  0.3688434E+04  0.7818609E-02  0.8070530E-01
        1   -1    0    0  501    0  0.00000000000E+00  0.00000000000E+00  0.23245755069E+04  0.23245755069E+04  0.50400001928E-02 0. -1.
       -1   -1    0    0    0  501  0.00000000000E+00  0.00000000000E+00 -0.14631213006E+04  0.14631213006E+04  0.50400001928E-02 0.  1.
    10030    2    1    2    0    0  0.00000000000E+00  0.00000000000E+00  0.86145420629E+03  0.37876968076E+04  0.36884337810E+04 0.  0.
        2    1    3    3  502    0 -0.13481836272E+04  0.10452183812E+04  0.11503391990E+04  0.20575132636E+04  0.25500000920E-02 0. -1.
       -2    1    3    3    0  502  0.13481836272E+04 -0.10452183812E+04 -0.28888499271E+03  0.17301835440E+04  0.25500000920E-02 0.  1.
</event>
<event>
 5   0  0.3579559E-07  0.3995166E+04  0.7818609E-02  0.8005522E-01
        1   -1    0    0  501    0  0.00000000000E+00  0.00000000000E+00  0.19717607977E+04  0.19717607977E+04  0.50400001928E-02 0.  1.
       -1   -1    0    0    0  501  0.00000000000E+00  0.00000000000E+00 -0.20237438248E+04  0.20237438248E+04  0.50400001928E-02 0. -1.
    10030    2    1    2    0    0  0.00000000000E+00  0.00000000000E+00 -0.51983027129E+02  0.39955046226E+04  0.39951664488E+04 0.  0.
        4    1    3    3  502    0  0.37265254488E+03 -0.18117795207E+04  0.72834163063E+03  0.19879381516E+04  0.12699999809E+01 0.  1.
       -4    1    3    3    0  502 -0.37265254488E+03  0.18117795207E+04 -0.78032465776E+03  0.20075664709E+04  0.12699999809E+01 0. -1.
</event>
<event>
 5   0  0.7315696E-07  0.1985318E+04  0.7818609E-02  0.8613516E-01
        2   -1    0    0  501    0  0.00000000000E+00  0.00000000000E+00  0.23728041709E+04  0.23728041709E+04  0.25500000920E-02 0.  1.
       -2   -1    0    0    0  501  0.00000000000E+00  0.00000000000E+00 -0.41527743690E+03  0.41527743690E+03  0.25500000920E-02 0. -1.
    10030    2    1    2    0    0  0.00000000000E+00  0.00000000000E+00  0.19575267340E+04  0.27880816078E+04  0.19853181452E+04 0.  0.
        3    1    3    3  502    0 -0.64357643016E+03 -0.20002490537E+03 -0.44748134941E+02  0.67542800505E+03  0.10100000352E+00 0. -1.
       -3    1    3    3    0  502  0.64357643016E+03  0.20002490537E+03  0.20022748690E+04  0.21126536028E+04  0.10100000352E+00 0.  1.
</event>
<event>
 5   0  0.2601252E-07  0.2656201E+04  0.7818609E-02  0.8349358E-01
        1   -1    0    0  501    0  0.00000000000E+00  0.00000000000E+00  0.20218832264E+04  0.20218832264E+04  0.50400001928E-02 0. -1.
       -1   -1    0    0    0  501  0.00000000000E+00  0.00000000000E+00 -0.87238013865E+03  0.87238013866E+03  0.50400001928E-02 0.  1.
    10030    2    1    2    0    0  0.00000000000E+00  0.00000000000E+00  0.11495030877E+04  0.28942633650E+04  0.26562008730E+04 0.  0.
        3    1    3    3  502    0 -0.77829437905E+03 -0.40213771318E+03  0.16624102930E+04  0.18791127889E+04  0.10100000352E+00 0. -1.
       -3    1    3    3    0  502  0.77829437905E+03  0.40213771318E+03 -0.51290720530E+03  0.10151505762E+04  0.10100000352E+00 0.  1.
</event>
<event>
 5   0  0.5161550E-07  0.2239333E+04  0.7818609E-02  0.8502233E-01
       -2   -1    0    0    0  501  0.00000000000E+00  0.00000000000E+00  0.83342800967E+03  0.83342800967E+03  0.25500000920E-02 0.  1.
        2   -1    0    0  501    0  0.00000000000E+00  0.00000000000E+00 -0.15042123213E+04  0.15042123213E+04  0.25500000920E-02 0. -1.
    10030    2    1    2    0    0  0.00000000000E+00  0.00000000000E+00 -0.67078431166E+03  0.23376403310E+04  0.22393326516E+04 0.  0.
        2    1    3    3  502    0  0.10984214060E+04  0.21455419541E+03 -0.36985024995E+03  0.11787078923E+04  0.25500000920E-02 0. -1.
       -2    1    3    3    0  502 -0.10984214060E+04 -0.21455419541E+03 -0.30093406171E+03  0.11589324387E+04  0.25500000920E-02 0.  1.
</event>
<event>
 5   0  0.7256473E-07  0.3993923E+04  0.7818609E-02  0.8005774E-01
       -2   -1    0    0    0  501  0.00000000000E+00  0.00000000000E+00  0.21084199412E+04  0.21084199412E+04  0.25500000920E-02 0. -1.
        2   -1    0    0  501    0  0.00000000000E+00  0.00000000000E+00 -0.18913948025E+04  0.18913948025E+04  0.25500000920E-02 0.  1.
    10030    2    1    2    0    0  0.00000000000E+00  0.00000000000E+00  0.21702513868E+03  0.39998147437E+04  0.39939226423E+04 0.  0.
        4    1    3    3  502    0  0.76237314190E+03 -0.12282501881E+04 -0.12712141933E+04  0.19250450567E+04  0.12699999809E+01 0.  1.
       -4    1    3    3    0  502 -0.76237314190E+03  0.12282501881E+04  0.14882393320E+04  0.20747696870E+04  0.12699999809E+01 0. -1.
</event>
<event>
 5   0  0.2647879E-07  0.2863519E+04  0.7818609E-02  0.8283815E-01
        1   -1    0    0  501    0  0.00000000000E+00  0.00000000000E+00  0.14175263919E+04  0.14175263919E+04  0.50400001928E-02 0.  1.
       -1   -1    0    0    0  501  0.00000000000E+00  0.00000000000E+00 -0.14461356260E+04  0.14461356261E+04  0.50400001928E-02 0. -1.
    10030    2    1    2    0    0  0.00000000000E+00  0.00000000000E+00 -0.28609234110E+02  0.28636620180E+04  0.28635191051E+04 0.  0.
        2    1    3    3  502    0  0.14179701678E+04  0.19606059021E+03 -0.43568075092E+02  0.14321233637E+04  0.25500000920E-02 0. -1.
       -2    1    3    3    0  502 -0.14179701678E+04 -0.19606059021E+03  0.14958840982E+02  0.14315386543E+04  0.25500000920E-02 0.  1.
</event>
<event>
 5   0  0.6043512E-07  0.2647430E+04  0.7818609E-02  0.8352267E-01
       -2   -1    0    0    0  501  0.00000000000E+00  0.00000000000E+00  0.86931641512E+03  0.86931641513E+03  0.25500000920E-02 0. -1.
        2   -1    0    0  501    0  0.00000000000E+00  0.00000000000E+00 -0.20156310459E+04  0.20156310459E+04  0.25500000920E-02 0.  1.
    10030    2    1    2    0    0  0.00000000000E+00  0.00000000000E+00 -0.11463146308E+04  0.28849474610E+04  0.26474298140E+04 0.  0.
        3    1    3    3  502    0  0.45456286352E+03 -0.64403478603E+03  0.58564362320E+03  0.98203190687E+03  0.10100000352E+00 0. -1.
       -3    1    3    3    0  502 -0.45456286352E+03  0.64403478603E+03 -0.17319582540E+04  0.19029155541E+04  0.10100000352E+00 0.  1.
</event>
<event>
 5   0  0.4449262E-07  0.2220555E+04  0.7818609E-02  0.8509921E-01
       -2   -1    0    0    0  501  0.00000000000E+00  0.00000000000E+00  0.52003663420E+03  0.52003663421E+03  0.25500000920E-02 0. -1.
        2   -1    0    0  501    0  0.00000000000E+00  0.00000000000E+00 -0.23704418211E+04  0.23704418211E+04  0.25500000920E-02 0.  1.
    10030    2    1    2    0    0  0.00000000000E+00  0.00000000000E+00 -0.18504051869E+04  0.28904784553E+04  0.22205554136E+04 0.  0.
        1    1    3    3  502    0  0.41302789991E+03  0.37370370842E+03 -0.21754163269E+04  0.22455918381E+04  0.50400001928E-02 0.  1.
       -1    1    3    3    0  502 -0.41302789991E+03 -0.37370370842E+03  0.32501114008E+03  0.64488661716E+03  0.50400001928E-02 0. -1.
</event>
<event>
 5   0  0.5161550E-07  0.3784004E+04  0.7818609E-02  0.8049596E-01
        2   -1    0    0  501    0  0.00000000000E+00  0.00000000000E+00  0.19083145374E+04  0.19083145374E+04  0.25500000920E-02 0.  1.
       -2   -1    0    0    0  501  0.00000000000E+00  0.00000000000E+00 -0.18758285368E+04  0.18758285368E+04  0.25500000920E-02 0. -1.
    10030    2    1    2    0    0  0.00000000000E+00  0.00000000000E+00  0.32486000611E+02  0.37841430741E+04  0.37840036291E+04 0.  0.
        2    1    3    3  502    0  0.48716644886E+03 -0.17417276094E+04  0.57189343549E+03  0.18968416686E+04  0.25500000920E-02 0.  1.
       -2    1    3    3    0  502 -0.48716644886E+03  0.17417276094E+04 -0.53940743488E+03  0.18873014055E+04  0.25500000920E-02 0. -1.
</event>
<event>
 5   0  0.7570277E-07  0.2019274E+04  0.7818609E-02  0.8597662E-01
       -2   -1    0    0    0  501  0.00000000000E+00  0.00000000000E+00  0.15612356720E+04  0.15612356720E+04  0.25500000920E-02 0. -1.
        2   -1    0    0  501    0  0.00000000000E+00  0.00000000000E+00 -0.65292297420E+03  0.65292297420E+03  0.25500000920E-02 0.  1.
    10030    2    1    2    0    0  0.00000000000E+00  0.00000000000E+00  0.90831269782E+03  0.22141586462E+04  0.20192737689E+04 0.  0.
        5    1    3    3  502    0  0.56960309553E+03 -0.81346951255E+03  0.25446999522E+03  0.10251621349E+04  0.46999998093E+01 0. -1.
       -5    1    3    3    0  502 -0.56960309553E+03  0.81346951255E+03  0.65384270260E+03  0.11889965114E+04  0.46999998093E+01 0.  1.
</event>
<event>
 5   0  0.4449262E-07  0.4098806E+04  0.7818609E-02  0.7984906E-01
        2   -1    0    0  501    0  0.00000000000E+00  0.00000000000E+00  0.21225972608E+04  0.21225972608E+04  0.25500000920E-02 0. -1.
       -2   -1    0    0    0  501  0.00000000000E+00  0.00000000000E+00 -0.19787330155E+04  0.19787330155E+04  0.25500000920E-02 0.  1.
    10030    2    1    2    0    0  0.00000000000E+00  0.00000000000E+00  0.14386424526E+03  0.41013302763E+04  0.40988063036E+04 0.  0.
        1    1    3    3  502    0  0.37563082932E+03 -0.13992601415E+04  0.15223162652E+04  0.21015409287E+04  0.50400001928E-02 0. -1.
       -1    1    3    3    0  502 -0.37563082932E+03  0.13992601415E+04 -0.13784520200E+04  0.19997893476E+04  0.50400001928E-02 0.  1.
</event>
<event>
 5   0  0.2601252E-07  0.4146288E+04  0.7818609E-02  0.7975669E-01
       -1   -1    0    0    0  501  0.00000000000E+00  0.00000000000E+00  0.19047397302E+04  0.19047397302E+04  0.50400001928E-02 0.  1.
        1   -1    0    0  501    0  0.00000000000E+00  0.00000000000E+00 -0.22564370842E+04  0.22564370842E+04  0.50400001928E-02 0. -1.
    10030    2    1    2    0    0  0.00000000000E+00  0.00000000000E+00 -0.35169735404E+03  0.41611768144E+04  0.41462876711E+04 0.  0.
        3    1    3    3  502    0 -0.12520765041E+04  0.44179029815E+03 -0.17737505278E+04  0.22156410324E+04  0.10100000352E+00 0. -1.
       -3    1    3    3    0  502  0.12520765041E+04 -0.44179029815E+03  0.14220531737E+04  0.19455357819E+04  0.10100000352E+00 0.  1.
</event>
<event>
 5   0  0.7256473E-07  0.2333136E+04  0.7818609E-02  0.8464970E-01
        2   -1    0    0  501    0  0.00000000000E+00  0.00000000000E+00  0.16813684803E+04  0.16813684803E+04  0.25500000920E-02 0. -1.
       -2   -1    0    0    0  501  0.00000000000E+00  0.00000000000E+00 -0.80938865114E+03  0.80938865114E+03  0.25500000920E-02 0.  1.
    10030    2    1    2    0    0  0.00000000000E+00  0.00000000000E+00  0.87197982919E+03  0.24907571315E+04  0.23331357152E+04 0.  0.
        4    1    3    3  502    0 -0.79529632289E+03  0.15558333431E+03 -0.45985360465E+03  0.93175606557E+03  0.12699999809E+01 0.  1.
       -4    1    3    3    0  502  0.79529632289E+03 -0.15558333431E+03  0.13318334338E+04  0.15590010659E+04  0.12699999809E+01 0. -1.
</event>
<event>
 5   0  0.2401125E-07  0.4116565E+04  0.7818609E-02  0.7981436E-01
       -3   -1    0    0    0  501  0.00000000000E+00  0.00000000000E+00  0.25810551512E+04  0.25810551532E+04  0.10100000352E+00 0.  1.
        3   -1    0    0  501    0  0.00000000000E+00  0.00000000000E+00 -0.16413933600E+04  0.16413933631E+04  0.10100000352E+00 0. -1.
    10030    2    1    2    0    0  0.00000000000E+00  0.00000000000E+00  0.93966179119E+03  0.42224485163E+04  0.41165649747E+04 0.  0.
        1    1    3    3  502    0 -0.10460468360E+04 -0.34857818176E+03 -0.13129206053E+04  0.17144915420E+04  0.50400001928E-02 0. -1.
       -1    1    3    3    0  502  0.10460468360E+04  0.34857818176E+03  0.22525823965E+04  0.25079569743E+04  0.50400001928E-02 0.  1.
</event>
<event>
 5   0  0.3579559E-07  0.2910066E+04  0.7818609E-02  0.8269889E-01
        1   -1    0    0  501    0  0.00000000000E+00  0.00000000000E+00  0.27517732294E+04  0.27517732294E+04  0.50400001928E-02 0.  1.
       -1   -1    0    0    0  501  0.00000000000E+00  0.00000000000E+00 -0.76936583645E+03  0.76936583647E+03  0.50400001928E-02 0. -1.
    10030    2    1    2    0    0  0.00000000000E+00  0.00000000000E+00  0.19824073929E+04  0.35211390659E+04  0.29100655061E+04 0.  0.
        4    1    3    3  502    0 -0.13227172598E+03  0.14224355500E+03  0.27360145443E+04  0.27429010624E+04  0.12699999809E+01 0.  1.
       -4    1    3    3    0  502  0.13227172598E+03 -0.14224355500E+03 -0.75360715142E+03  0.77823800344E+03  0.12699999809E+01 0. -1.
</event>
<event>
 5   0  0.6043512E-07  0.2759890E+04  0.7818609E-02  0.8315830E-01
       -2   -1    0    0    0  501  0.00000000000E+00  0.00000000000E+00  0.13483744141E+04  0.13483744141E+04  0.25500000920E-02 0. -1.
        2   -1    0    0  501    0  0.00000000000E+00  0.00000000000E+00 -0.14122551801E+04  0.14122551801E+04  0.25500000920E-02 0.  1.
    10030    2    1    2    0    0  0.00000000000E+00  0.00000000000E+00 -0.63880766030E+02  0.27606295942E+04  0.27598903971E+04 0.  0.
        3    1    3    3  502    0  0.39043857065E+03 -0.13027014768E+04  0.20216359221E+03  0.13748976483E+04  0.10100000352E+00 0.  1.
       -3    1    3    3    0  502 -0.39043857065E+03  0.13027014768E+04 -0.26604435824E+03  0.13857319459E+04  0.10100000352E+00 0. -1.
</event>
<event>
 5   0  0.2601252E-07  0.3741215E+04  0.7818609E-02  0.8058889E-01
        1   -1    0    0  501    0  0.00000000000E+00  0.00000000000E+00  0.17365490337E+04  0.17365490337E+04  0.50400001928E-02 0.  1.
       -1   -1    0    0    0  501  0.00000000000E+00  0.00000000000E+00 -0.20150153174E+04  0.20150153174E+04  0.50400001928E-02 0. -1.
    10030    2    1    2    0    0  0.00000000000E+00  0.00000000000E+00 -0.27846628372E+03  0.37515643511E+04  0.37412152583E+04 0.  0.
        3    1    3    3  502    0 -0.37566913007E+02  0.26662846819E+03  0.17170144376E+04  0.17379990225E+04  0.10100000352E+00 0.  1.
       -3    1    3    3    0  502  0.37566913007E+02 -0.26662846819E+03 -0.19954807213E+04  0.20135653286E+04  0.10100000352E+00 0. -1.
</event>
<event>
 5   0  0.2631941E-07  0.2572616E+04  0.7818609E-02  0.8377563E-01
        1   -1    0    0  501    0  0.00000000000E+00  0.00000000000E+00  0.14878795214E+04  0.14878795214E+04  0.50400001928E-02 0. -1.
       -1   -1    0    0    0  501  0.00000000000E+00  0.00000000000E+00 -0.11120445408E+04  0.11120445409E+04  0.50400001928E-02 0.  1.
    10030    2    1    2    0    0  0.00000000000E+00  0.00000000000E+00  0.37583498057E+03  0.25999240623E+04  0.25726160221E+04 0.  0.
        3    1    3    3  502    0 -0.13678815809E+03 -0.12177625929E+03  0.14746361770E+04  0.14859651147E+04  0.10100000352E+00 0. -1.
       -3    1    3    3    0  502  0.13678815809E+03  0.12177625929E+03 -0.10988011964E+04  0.11139589476E+04  0.10100000352E+00 0.  1.
</event>
<event>
 5   0  0.6043512E-07  0.3558683E+04  0.7818609E-02  0.8100022E-01
       -2   -1    0    0    0  501  0.00000000000E+00  0.00000000000E+00  0.14242419562E+04  0.14242419562E+04  0.25500000920E-02 0. -1.
        2   -1    0    0  501    0  0.00000000000E+00  0.00000000000E+00 -0.22229759401E+04  0.22229759401E+04  0.25500000920E-02 0.  1.
    10030    2    1    2    0    0  0.00000000000E+00  0.00000000000E+00 -0.79873398387E+03  0.36472178963E+04  0.35586826785E+04 0.  0.
        3    1    3    3  502    0  0.53853986792E+02 -0.16612253639E+04 -0.10503752259E+04  0.19661785492E+04  0.10100000352E+00 0.  1.
       -3    1    3    3    0  502 -0.53853986792E+02  0.16612253639E+04  0.25164124206E+03  0.16810393471E+04  0.10100000352E+00 0. -1.
</event>
<event>
 5   0  0.2647879E-07  0.2136592E+04  0.7818609E-02  0.8545293E-01
        1   -1    0    0  501    0  0.00000000000E+00  0.00000000000E+00  0.10821997651E+04  0.10821997651E+04  0.50400001928E-02 0.  1.
       -1   -1    0    0    0  501  0.00000000000E+00  0.00000000000E+00 -0.10545707855E+04  0.10545707855E+04  0.50400001928E-02 0. -1.
    10030    2    1    2    0    0  0.00000000000E+00  0.00000000000E+00  0.27628979635E+02  0.21367705506E+04  0.21365919183E+04 0.  0.
        2    1    3    3  502    0 -0.61541739825E+03  0.13268246165E+03 -0.84934112216E+03  0.10572244565E+04  0.25500000920E-02 0. -1.
       -2    1    3    3    0  502  0.61541739825E+03 -0.13268246165E+03  0.87697010179E+03  0.10795460940E+04  0.25500000920E-02 0.  1.
</event>
<event>
 5   0  0.2647879E-07  0.3766262E+04  0.7818609E-02  0.8053434E-01
        1   -1    0    0  501    0  0.00000000000E+00  0.00000000000E+00  0.18324821776E+04  0.18324821776E+04  0.50400001928E-02 0. -1.
       -1   -1    0    0    0  501  0.00000000000E+00  0.00000000000E+00 -0.19351798466E+04  0.19351798466E+04  0.50400001928E-02 0.  1.
    10030    2    1    2    0    0  0.00000000000E+00  0.00000000000E+00 -0.10269766900E+03  0.37676620242E+04  0.37662621148E+04 0.  0.
        2    1    3    3  502    0 -0.35465999607E+03 -0.17208129124E+04  0.62654733647E+03  0.18653531454E+04  0.25500000920E-02 0.  1.
       -2    1    3    3    0  502  0.35465999607E+03  0.17208129124E+04 -0.72924500547E+03  0.19023088788E+04  0.25500000920E-02 0. -1.
</event>
<event>
 5   0  0.2601252E-07  0.2028726E+04  0.7818609E-02  0.8593307E-01
        1   -1    0    0  501    0  0.00000000000E+00  0.00000000000E+00  0.14655123471E+04  0.14655123472E+04  0.50400001928E-02 0.  1.
       -1   -1    0    0    0  501  0.00000000000E+00  0.00000000000E+00 -0.70209760465E+03  0.70209760466E+03  0.50400001928E-02 0. -1.
    10030    2    1    2    0    0  0.00000000000E+00  0.00000000000E+00  0.76341474250E+03  0.21676099518E+04  0.20287264069E+04 0.  0.
        3    1    3    3  502    0 -0.91616701381E+03 -0.42247475730E+03  0.26921040951E+03  0.10441844533E+04  0.10100000352E+00 0.  1.
       -3    1    3    3    0  502  0.91616701381E+03  0.42247475730E+03  0.49420433299E+03  0.11234254985E+04  0.10100000352E+00 0. -1.
</event>
<event>
 5   0  0.7570277E-07  0.3623973E+04  0.7818609E-02  0.8085022E-01
        2   -1    0    0  501    0  0.00000000000E+00  0.00000000000E+00  0.22068298358E+04  0.22068298358E+04  0.25500000920E-02 0.  1.
       -2   -1    0    0    0  501  0.00000000000E+00  0.00000000000E+00 -0.14877878300E+04  0.14877878300E+04  0.25500000920E-02 0. -1.
    10030    2    1    2    0    0  0.00000000000E+00  0.00000000000E+00  0.71904200577E+03  0.36946176659E+04  0.36239727221E+04 0.  0.
        5    1    3    3  502    0  0.15886266962E+04 -0.83959372964E+03  0.59778625782E+03  0.18936797277E+04  0.46999998093E+01 0. -1.
       -5    1    3    3    0  502 -0.15886266962E+04  0.83959372964E+03  0.12125574795E+03  0.18009379382E+04  0.46999998093E+01 0.  1.
</event>
<event>
 5   0  0.2647879E-07  0.3727925E+04  0.7818609E-02  0.8061801E-01
        1   -1    0    0  501    0  0.00000000000E+00  0.00000000000E+00  0.18256991376E+04  0.18256991376E+04  0.50400001928E-02 0.  1.
       -1   -1    0    0    0  501  0.00000000000E+00  0.00000000000E+00 -0.19030282778E+04  0.19030282778E+04  0.50400001928E-02 0. -1.
    10030    2    1    2    0    0  0.00000000000E+00  0.00000000000E+00 -0.77329140188E+02  0.37287274153E+04  0.37279254743E+04 0.  0.
        2    1    3    3  502    0 -0.14525555611E+04  0.85374676287E+03 -0.83605365941E+03  0.18809005595E+04  0.25500000920E-02 0. -1.
       -2    1    3    3    0  502  0.14525555611E+04 -0.85374676287E+03  0.75872451922E+03  0.18478268559E+04  0.25500000920E-02 0.  1.
</event>
<event>
 5   0  0.2647879E-07  0.3251602E+04  0.7818609E-02  0.8175320E-01
       -1   -1    0    0    0  501  0.00000000000E+00  0.00000000000E+00  0.16038913178E+04  0.16038913178E+04  0.50400001928E-02 0. -1.
        1   -1    0    0  501    0  0.00000000000E+00  0.00000000000E+00 -0.16480104222E+04  0.16480104222E+04  0.50400001928E-02 0.  1.
    10030    2    1    2    0    0  0.00000000000E+00  0.00000000000E+00 -0.44119104336E+02  0.32519017400E+04  0.32516024405E+04 0.  0.
        2    1    3    3  502    0  0.10860571316E+04  0.99861611902E+03 -0.70511243482E+03  0.16352179647E+04  0.25500000920E-02 0.  1.
       -2    1    3    3    0  502 -0.10860571316E+04 -0.99861611902E+03  0.66099333048E+03  0.16166837753E+04  0.25500000920E-02 0. -1.
</event>
<event>
 5   0  0.2713405E-07  0.2966622E+04  0.7818609E-02  0.8253327E-01
        1   -1    0    0  501    0  0.00000000000E+00  0.00000000000E+00  0.12327279106E+04  0.12327279106E+04  0.50400001928E-02 0. -1.
       -1   -1    0    0    0  501  0.00000000000E+00  0.00000000000E+00 -0.17848315656E+04  0.17848315656E+04  0.50400001928E-02 0.  1.
    10030    2    1    2    0    0  0.00000000000E+00  0.00000000000E+00 -0.55210365500E+03  0.30175594762E+04  0.29666221105E+04 0.  0.
        1    1    3    3  502    0  0.70841024330E+03  0.91682418400E+03 -0.12181293416E+04  0.16811456659E+04  0.50400001928E-02 0.  1.
       -1    1    3    3    0  502 -0.70841024330E+03 -0.91682418400E+03  0.66602568656E+03  0.13364138103E+04  0.50400001928E-02 0. -1.
</event>
<event>
 5   0  0.5161550E-07  0.3927474E+04  0.7818609E-02  0.8019339E-01
        2   -1    0    0  501    0  0.00000000000E+00  0.00000000000E+00  0.15659580472E+04  0.15659580472E+04  0.25500000920E-02 0.  1.
       -2   -1    0    0    0  501  0.00000000000E+00  0.00000000000E+00 -0.24625577374E+04  0.24625577374E+04  0.25500000920E-02 0. -1.
    10030    2    1    2    0    0  0.00000000000E+00  0.00000000000E+00 -0.89659969017E+03  0.40285157846E+04  0.39274735419E+04 0.  0.
        2    1    3    3  502    0  0.63583074879E+03  0.57029580697E+03  0.13654524214E+04  0.16105832371E+04  0.25500000920E-02 0.  1.
       -2    1    3    3    0  502 -0.63583074879E+03 -0.57029580697E+03 -0.22620521116E+04  0.24179325474E+04  0.25500000920E-02 0. -1.
</event>
<event>
 5   0  0.2713405E-07  0.4088082E+04  0.7818609E-02  0.7987010E-01
        1   -1    0    0  501    0  0.00000000000E+00  0.00000000000E+00  0.20507525333E+04  0.20507525333E+04  0.50400001928E-02 0.  1.
       -1   -1    0    0    0  501  0.00000000000E+00  0.00000000000E+00 -0.20373518298E+04  0.20373518298E+04  0.50400001928E-02 0. -1.
    10030    2    1    2    0    0  0.00000000000E+00  0.00000000000E+00  0.13400703511E+02  0.40881043631E+04  0.40880823995E+04 0.  0.
        1    1    3    3  502    0  0.33759653069E+03  0.55939608596E+03  0.19435145750E+04  0.20504010100E+04  0.50400001928E-02 0.  1.
       -1    1    3    3    0  502 -0.33759653069E+03 -0.55939608596E+03 -0.19301138715E+04  0.20377033531E+04  0.50400001928E-02 0. -1.
</event>
<event>
 5   0  0.2401125E-07  0.3919690E+04  0.7818609E-02  0.8020947E-01
       -3   -1    0    0    0  501  0.00000000000E+00  0.00000000000E+00  0.12958416927E+04  0.12958416966E+04  0.10100000352E+00 0.  1.
        3   -1    0    0  501    0  0.00000000000E+00  0.00000000000E+00 -0.29640900701E+04  0.29640900718E+04  0.10100000352E+00 0. -1.
    10030    2    1    2    0    0  0.00000000000E+00  0.00000000000E+00 -0.16682483774E+04  0.42599317684E+04  0.39196895315E+04 0.  0.
        4    1    3    3  502    0  0.18743720244E+04 -0.42364117633E+03 -0.41567305203E+03  0.19660946140E+04  0.12699999809E+01 0.  1.
       -4    1    3    3    0  502 -0.18743720244E+04  0.42364117633E+03 -0.12525753254E+04  0.22938371544E+04  0.12699999809E+01 0. -1.
</event>
<event>
 5   0  0.2647879E-07  0.3944010E+04  0.7818609E-02  0.8015938E-01
        1   -1    0    0  501    0  0.00000000000E+00  0.00000000000E+00  0.20336995462E+04  0.20336995462E+04  0.50400001928E-02 0. -1.
       -1   -1    0    0    0  501  0.00000000000E+00  0.00000000000E+00 -0.19121817424E+04  0.19121817424E+04  0.50400001928E-02 0.  1.
    10030    2    1    2    0    0  0.00000000000E+00  0.00000000000E+00  0.12151780376E+03  0.39458812886E+04  0.39440097068E+04 0.  0.
        2    1    3    3  502    0  0.29489101069E+03 -0.16384453486E+04 -0.99678540657E+03  0.19403723909E+04  0.25500000920E-02 0. -1.
       -2    1    3    3    0  502 -0.29489101069E+03  0.16384453486E+04  0.11183032103E+04  0.20055088977E+04  0.25500000920E-02 0.  1.
</event>
<event>
 5   0  0.2401125E-07  0.3993716E+04  0.7818609E-02  0.8005815E-01
        3   -1    0    0  501    0  0.00000000000E+00  0.00000000000E+00  0.15474735684E+04  0.15474735716E+04  0.10100000352E+00 0.  1.
       -3   -1    0    0    0  501  0.00000000000E+00  0.00000000000E+00 -0.25767432609E+04  0.25767432629E+04  0.10100000352E+00 0. -1.
    10030    2    1    2    0    0  0.00000000000E+00  0.00000000000E+00 -0.10292696926E+04  0.41242168345E+04  0.39937161139E+04 0.  0.
        2    1    3    3  502    0  0.12220701272E+04 -0.40120620268E+03  0.10626987647E+04  0.16684575143E+04  0.25500000920E-02 0.  1.
       -2    1    3    3    0  502 -0.12220701272E+04  0.40120620268E+03 -0.20919684572E+04  0.24557593202E+04  0.25500000920E-02 0. -1.
</event>
<event>
 5   0  0.6043512E-07  0.2814452E+04  0.7818609E-02  0.8298796E-01
        2   -1    0    0  501    0  0.00000000000E+00  0.00000000000E+00  0.23391337503E+04  0.23391337503E+04  0.25500000920E-02 0. -1.
       -2   -1    0    0    0  501  0.00000000000E+00  0.00000000000E+00 -0.84658880973E+03  0.84658880973E+03  0.25500000920E-02 0.  1.
    10030    2    1    2    0    0  0.00000000000E+00  0.00000000000E+00  0.14925449406E+04  0.31857225600E+04  0.28144516038E+04 0.  0.
        3    1    3    3  502    0  0.12533623673E+04 -0.59094819777E+03  0.10238745908E+04  0.17229208293E+04  0.10100000352E+00 0. -1.
       -3    1    3    3    0  502 -0.12533623673E+04  0.59094819777E+03  0.46867034979E+03  0.14628017307E+04  0.10100000352E+00 0.  1.
</event>
<event>
 5   0  0.2401125E-07  0.4024747E+04  0.7818609E-02  0.7999573E-01
       -3   -1    0    0    0  501  0.00000000000E+00  0.00000000000E+00  0.16529395242E+04  0.16529395273E+04  0.10100000352E+00 0. -1.
        3   -1    0    0  501    0  0.00000000000E+00  0.00000000000E+00 -0.24499663040E+04  0.24499663061E+04  0.10100000352E+00 0.  1.
    10030    2    1    2    0    0  0.00000000000E+00  0.00000000000E+00 -0.79702677988E+03  0.41029058334E+04  0.40247465249E+04 0.  0.
        3    1    3    3  502    0 -0.23832756765E+03  0.73428714317E+03 -0.22930078522E+04  0.24194756991E+04  0.10100000352E+00 0.  1.
       -3    1    3    3    0  502  0.23832756765E+03 -0.73428714317E+03  0.14959810723E+04  0.16834301343E+04  0.10100000352E+00 0. -1.
</event>
<event>
 5   0  0.6043512E-07  0.2126091E+04  0.7818609E-02  0.8549836E-01
        2   -1    0    0  501    0  0.00000000000E+00  0.00000000000E+00  0.15658340810E+04  0.15658340810E+04  0.25500000920E-02 0. -1.
       -2   -1    0    0    0  501  0.00000000000E+00  0.00000000000E+00 -0.72170196630E+03  0.72170196630E+03  0.25500000920E-02 0.  1.
    10030    2    1    2    0    0  0.00000000000E+00  0.00000000000E+00  0.84413211467E+03  0.22875360473E+04  0.21260908119E+04 0.  0.
        3    1    3    3  502    0  0.17786064575E+03 -0.81263113069E+03  0.11341870822E+04  0.14065504298E+04  0.10100000352E+00 0. -1.
       -3    1    3    3    0  502 -0.17786064575E+03  0.81263113069E+03 -0.29005496752E+03  0.88098561751E+03  0.10100000352E+00 0.  1.
</event>
<event>
 5   0  0.2601252E-07  0.3385971E+04  0.7818609E-02  0.8141358E-01
       -1   -1    0    0    0  501  0.00000000000E+00  0.00000000000E+00  0.15555950044E+04  0.15555950044E+04  0.50400001928E-02 0.  1.
        1   -1    0    0  501    0  0.00000000000E+00  0.00000000000E+00 -0.18425101203E+04  0.18425101203E+04  0.50400001928E-02 0. -1.
    10030    2    1    2    0    0  0.00000000000E+00  0.00000000000E+00 -0.28691511589E+03  0.33981051247E+04  0.33859707847E+04 0.  0.
        3    1    3    3  502    0 -0.14945555927E+04  0.51730167208E+03  0.46277852030E+03  0.16478657131E+04  0.10100000352E+00 0.  1.
       -3    1    3    3    0  502  0.14945555927E+04 -0.51730167208E+03 -0.74969363619E+03  0.17502394116E+04  0.10100000352E+00 0. -1.
</event>
<event>
 5   0  0.2647879E-07  0.4042831E+04  0.7818609E-02  0.7995961E-01
        1   -1    0    0  501    0  0.00000000000E+00  0.00000000000E+00  0.25738302974E+04  0.25738302974E+04  0.50400001928E-02 0.  1.
       -1   -1    0    0    0  501  0.00000000000E+00  0.00000000000E+00 -0.15875644700E+04  0.15875644700E+04  0.50400001928E-02 0. -1.
    10030    2    1    2    0    0  0.00000000000E+00  0.00000000000E+00  0.98626582742E+03  0.41613947673E+04  0.40428314493E+04 0.  0.
        2    1    3    3  502    0  0.41230072853E+03 -0.19555924883E+04  0.18128314055E+03  0.20067878433E+04  0.25500000920E-02 0.  1.
       -2    1    3    3    0  502 -0.41230072853E+03  0.19555924883E+04  0.80498268687E+03  0.21546069240E+04  0.25500000920E-02 0. -1.
</event>
<event>
 5   0  0.7570277E-07  0.3471778E+04  0.7818609E-02  0.8120511E-01
       -2   -1    0    0    0  501  0.00000000000E+00  0.00000000000E+00  0.13818289373E+04  0.13818289373E+04  0.25500000920E-02 0.  1.
        2   -1    0    0  501    0  0.00000000000E+00  0.00000000000E+00 -0.21806685660E+04  0.21806685660E+04  0.25500000920E-02 0. -1.
    10030    2    1    2    0    0  0.00000000000E+00  0.00000000000E+00 -0.79883962863E+03  0.35624975033E+04  0.34717781768E+04 0.  0.
        5    1    3    3  502    0 -0.16569722407E+04 -0.16276180246E+03  0.10457682838E+03  0.16682346399E+04  0.46999998093E+01 0.  1.
       -5    1    3    3    0  502  0.16569722407E+04  0.16276180246E+03 -0.90341645701E+03  0.18942628634E+04  0.46999998093E+01 0. -1.
</event>
<event>
 5   0  0.5161550E-07  0.3986504E+04  0.7818609E-02  0.8007275E-01
       -2   -1    0    0    0  501  0.00000000000E+00  0.00000000000E+00  0.18341855797E+04  0.18341855797E+04  0.25500000920E-02 0. -1.
        2   -1    0    0  501    0  0.00000000000E+00  0.00000000000E+00 -0.21661130093E+04  0.21661130093E+04  0.25500000920E-02 0.  1.
    10030    2    1    2    0    0  0.00000000000E+00  0.00000000000E+00 -0.33192742951E+03  0.40002985890E+04  0.39865038546E+04 0.  0.
        2    1    3    3  502    0 -0.10122451876E+04 -0.16947269669E+04 -0.44316849662E+03  0.20231505452E+04  0.25500000920E-02 0. -1.
       -2    1    3    3    0  502  0.10122451876E+04  0.16947269669E+04  0.11124106710E+03  0.19771480438E+04  0.25500000920E-02 0.  1.
</event>
<event>
 5   0  0.2401125E-07  0.2517735E+04  0.7818609E-02  0.8396694E-01
        1   -1    0    0  501    0  0.00000000000E+00  0.00000000000E+00  0.21058969333E+04  0.21058969333E+04  0.50400001928E-02 0. -1.
       -1   -1    0    0    0  501  0.00000000000E+00  0.00000000000E+00 -0.75252841769E+03  0.75252841771E+03  0.50400001928E-02 0.  1.
    10030    2    1    2    0    0  0.00000000000E+00  0.00000000000E+00  0.13533685156E+04  0.28584253511E+04  0.25177349242E+04 0.  0.
        5    1    3    3  502    0  0.10391550935E+03 -0.52790242276E+03  0.19687747967E+04  0.20409742015E+04  0.46999998093E+01 0. -1.
       -5    1    3    3    0  502 -0.10391550935E+03  0.52790242276E+03 -0.61540628110E+03  0.81745114952E+03  0.46999998093E+01 0.  1.
</event>
<event>
 5   0  0.2713405E-07  0.3668364E+04  0.7818609E-02  0.8075009E-01
        1   -1    0    0  501    0  0.00000000000E+00  0.00000000000E+00  0.22133255982E+04  0.22133255982E+04  0.50400001928E-02 0. -1.
       -1   -1    0    0    0  501  0.00000000000E+00  0.00000000000E+00 -0.15199856334E+04  0.15199856335E+04  0.50400001928E-02 0.  1.
    10030    2    1    2    0    0  0.00000000000E+00  0.00000000000E+00  0.69333996474E+03  0.37333112316E+04  0.36683637286E+04 0.  0.
        1    1    3    3  502    0  0.92979647593E+03  0.60018043485E+03 -0.11419246078E+04  0.15901980540E+04  0.50400001928E-02 0.  1.
       -1    1    3    3    0  502 -0.92979647593E+03 -0.60018043485E+03  0.18352645725E+04  0.21431131777E+04  0.50400001928E-02 0. -1.
</event>
<event>
 5   0  0.5161550E-07  0.3690314E+04  0.7818609E-02  0.8070112E-01
       -2   -1    0    0    0  501  0.00000000000E+00  0.00000000000E+00  0.16121566749E+04  0.16121566749E+04  0.25500000920E-02 0.  1.
        2   -1    0    0  501    0  0.00000000000E+00  0.00000000000E+00 -0.21118326607E+04  0.21118326607E+04  0.25500000920E-02 0. -1.
    10030    2    1    2    0    0  0.00000000000E+00  0.00000000000E+00 -0.49967598584E+03  0.37239893356E+04  0.36903144149E+04 0.  0.
        2    1    3    3  502    0  0.74938973701E+03 -0.16861047381E+04 -0.25833831350E+03  0.18631352205E+04  0.25500000920E-02 0.  1.
       -2    1    3    3    0  502 -0.74938973701E+03  0.16861047381E+04 -0.24133767234E+03  0.18608541151E+04  0.25500000920E-02 0. -1.
</event>
<event>
 5   0  0.6043512E-07  0.3938208E+04  0.7818609E-02  0.8017129E-01
        2   -1    0    0  501    0  0.00000000000E+00  0.00000000000E+00  0.21887472180E+04  0.21887472180E+04  0.25500000920E-02 0.  1.
       -2   -1    0    0    0  501  0.00000000000E+00  0.00000000000E+00 -0.17715026397E+04  0.17715026397E+04  0.25500000920E-02 0. -1.
    10030    2    1    2    0    0  0.00000000000E+00  0.00000000000E+00  0.41724457825E+03  0.39602498577E+04  0.39382084629E+04 0.  0.
        3    1    3    3  502    0 -0.10783827984E+04  0.12356528482E+04 -0.88725865821E+03  0.18646649453E+04  0.10100000352E+00 0. -1.
       -3    1    3    3    0  502  0.10783827984E+04 -0.12356528482E+04  0.13045032365E+04  0.20955849125E+04  0.10100000352E+00 0.  1.
</event>
<event>
 5   0  0.4449262E-07  0.2186519E+04  0.7818609E-02  0.8524060E-01
       -2   -1    0    0    0  501  0.00000000000E+00  0.00000000000E+00  0.41076179117E+03  0.41076179117E+03  0.25500000920E-02 0. -1.
        2   -1    0    0  501    0  0.00000000000E+00  0.00000000000E+00 -0.29097543734E+04  0.29097543734E+04  0.25500000920E-02 0.  1.
    10030    2    1    2    0    0  0.00000000000E+00  0.00000000000E+00 -0.24989925822E+04  0.33205161646E+04  0.21865186194E+04 0.  0.
        1    1    3    3  502    0 -0.62377030474E+03  0.50022293299E+03 -0.23817718677E+04  0.25123991732E+04  0.50400001928E-02 0.  1.
       -1    1    3    3    0  502  0.62377030474E+03 -0.50022293299E+03 -0.11722071452E+03  0.80811699135E+03  0.50400001928E-02 0. -1.
</event>
<event>
 5   0  0.6043512E-07  0.3955896E+04  0.7818609E-02  0.8013503E-01
        2   -1    0    0  501    0  0.00000000000E+00  0.00000000000E+00  0.14556195699E+04  0.14556195699E+04  0.25500000920E-02 0. -1.
       -2   -1    0    0    0  501  0.00000000000E+00  0.00000000000E+00 -0.26877064177E+04  0.26877064177E+04  0.25500000920E-02 0.  1.
    10030    2    1    2    0    0  0.00000000000E+00  0.00000000000E+00 -0.12320868478E+04  0.41433259876E+04  0.39558958832E+04 0.  0.
        3    1    3    3  502    0 -0.23627512883E+03  0.11219419786E+04 -0.23041451236E+04  0.25736480918E+04  0.10100000352E+00 0.  1.
       -3    1    3    3    0  502  0.23627512883E+03 -0.11219419786E+04  0.10720582757E+04  0.15696778958E+04  0.10100000352E+00 0. -1.
</event>
<event>
 5   0  0.4449262E-07  0.3287011E+04  0.7818609E-02  0.8166208E-01
       -2   -1    0    0    0  501  0.00000000000E+00  0.00000000000E+00  0.11916379346E+04  0.11916379346E+04  0.25500000920E-02 0.  1.
        2   -1    0    0  501    0  0.00000000000E+00  0.00000000000E+00 -0.22667200578E+04  0.22667200578E+04  0.25500000920E-02 0. -1.
    10030    2    1    2    0    0  0.00000000000E+00  0.00000000000E+00 -0.10750821232E+04  0.34583579924E+04  0.32870105616E+04 0.  0.
        1    1    3    3  502    0 -0.47995260799E+03 -0.12974837054E+04  0.39600667166E+03  0.14389717703E+04  0.50400001928E-02 0.  1.
       -1    1    3    3    0  502  0.47995260799E+03  0.12974837054E+04 -0.14710887948E+04  0.20193862221E+04  0.50400001928E-02 0. -1.
</event>
<event>
 5   0  0.2601252E-07  0.3644766E+04  0.7818609E-02  0.8080314E-01
        1   -1    0    0  501    0  0.00000000000E+00  0.00000000000E+00  0.13998594688E+04  0.13998594688E+04  0.50400001928E-02 0. -1.
       -1   -1    0    0    0  501  0.00000000000E+00  0.00000000000E+00 -0.23724377751E+04  0.23724377751E+04  0.50400001928E-02 0.  1.
    10030    2    1    2    0    0  0.00000000000E+00  0.00000000000E+00 -0.97257830633E+03  0.37722972439E+04  0.36447658271E+04 0.  0.
        3    1    3    3  502    0  0.13300879297E+04  0.90763507263E+03  0.39688216699E+03  0.16584483080E+04  0.10100000352E+00 0. -1.
       -3    1    3    3    0  502 -0.13300879297E+04 -0.90763507263E+03 -0.13694604733E+04  0.21138489359E+04  0.10100000352E+00 0.  1.
</event>
<event>
 5   0  0.2713405E-07  0.4165358E+04  0.7818609E-02  0.7971995E-01
        1   -1    0    0  501    0  0.00000000000E+00  0.00000000000E+00  0.26158379338E+04  0.26158379338E+04  0.50400001928E-02 0. -1.
       -1   -1    0    0    0  501  0.00000000000E+00  0.00000000000E+00 -0.16581882493E+04  0.16581882493E+04  0.50400001928E-02 0.  1.
    10030    2    1    2    0    0  0.00000000000E+00  0.00000000000E+00  0.95764968451E+03  0.42740261832E+04  0.41653579554E+04 0.  0.
        1    1    3    3  502    0 -0.10706340118E+04  0.37560135594E+03 -0.13132258910E+04  0.17354814337E+04  0.50400001928E-02 0.  1.
       -1    1    3    3    0  502  0.10706340118E+04 -0.37560135594E+03  0.22708755755E+04  0.25385447495E+04  0.50400001928E-02 0. -1.
</event>
<event>
 5   0  0.2401125E-07  0.3986698E+04  0.7818609E-02  0.8007235E-01
       -1   -1    0    0    0  501  0.00000000000E+00  0.00000000000E+00  0.16318442529E+04  0.16318442529E+04  0.50400001928E-02 0. -1.
        1   -1    0    0  501    0  0.00000000000E+00  0.00000000000E+00 -0.24349381629E+04  0.24349381629E+04  0.50400001928E-02 0.  1.
    10030    2    1    2    0    0  0.00000000000E+00  0.00000000000E+00 -0.80309390996E+03  0.40667824157E+04  0.39866978051E+04 0.  0.
        5    1    3    3  502    0 -0.70621275153E+03  0.14923362747E+04  0.73785693084E+03  0.18083857298E+04  0.46999998093E+01 0. -1.
       -5    1    3    3    0  502  0.70621275153E+03 -0.14923362747E+04 -0.15409508408E+04  0.22583966860E+04  0.46999998093E+01 0.  1.
</event>
<event>
 5   0  0.2647879E-07  0.4026812E+04  0.7818609E-02  0.7999160E-01
       -1   -1    0    0    0  501  0.00000000000E+00  0.00000000000E+00  0.34110048371E+04  0.34110048371E+04  0.50400001928E-02 0. -1.
        1   -1    0    0  501    0  0.00000000000E+00  0.00000000000E+00 -0.11884482824E+04  0.11884482824E+04  0.50400001928E-02 0.  1.
    10030    2    1    2    0    0  0.00000000000E+00  0.00000000000E+00  0.22225565546E+04  0.45994531195E+04  0.40268115625E+04 0.  0.
        2    1    3    3  502    0 -0.10835877059E+04 -0.16860218938E+04  0.13308991991E+04  0.24058522026E+04  0.25500000920E-02 0.  1.
       -2    1    3    3    0  502  0.10835877059E+04  0.16860218938E+04  0.89165735550E+03  0.21936009168E+04  0.25500000920E-02 0. -1.
</event>
<event>
 5   0  0.7256473E-07  0.2192474E+04  0.7818609E-02  0.8521567E-01
       -2   -1    0    0    0  501  0.00000000000E+00  0.00000000000E+00  0.85909508513E+03  0.85909508513E+03  0.25500000920E-02 0. -1.
        2   -1    0    0  501    0  0.00000000000E+00  0.00000000000E+00 -0.13988389345E+04  0.13988389345E+04  0.25500000920E-02 0.  1.
    10030    2    1    2    0    0  0.00000000000E+00  0.00000000000E+00 -0.53974384936E+03  0.22579340196E+04  0.21924740852E+04 0.  0.
        4    1    3    3  502    0 -0.91224237742E+03 -0.54320881436E+03 -0.55091538850E+03  0.11961485482E+04  0.12699999809E+01 0.  1.
       -4    1    3    3    0  502  0.91224237742E+03  0.54320881436E+03  0.11171539139E+02  0.10617854714E+04  0.12699999809E+01 0. -1.
</event>
<event>
 5   0  0.2647879E-07  0.3917839E+04  0.7818609E-02  0.8021329E-01
       -1   -1    0    0    0  501  0.00000000000E+00  0.00000000000E+00  0.20667541444E+04  0.20667541444E+04  0.50400001928E-02 0. -1.
        1   -1    0    0  501    0  0.00000000000E+00  0.00000000000E+00 -0.18567113956E+04  0.18567113956E+04  0.50400001928E-02 0.  1.
    10030    2    1    2    0    0  0.00000000000E+00  0.00000000000E+00  0.21004274879E+03  0.39234655400E+04  0.39178391860E+04 0.  0.
        2    1    3    3  502    0 -0.93766206399E+03  0.14623003071E+04 -0.80172557573E+03  0.19131900672E+04  0.25500000920E-02 0.  1.
       -2    1    3    3    0  502  0.93766206399E+03 -0.14623003071E+04  0.10117683245E+04  0.20102754729E+04  0.25500000920E-02 0. -1.
</event>
<event>
 5   0  0.6043512E-07  0.3494973E+04  0.7818609E-02  0.8114982E-01
        2   -1    0    0  501    0  0.00000000000E+00  0.00000000000E+00  0.16733227662E+04  0.16733227662E+04  0.25500000920E-02 0. -1.
       -2   -1    0    0    0  501  0.00000000000E+00  0.00000000000E+00 -0.18249367430E+04  0.18249367430E+04  0.25500000920E-02 0.  1.
    10030    2    1    2    0    0  0.00000000000E+00  0.00000000000E+00 -0.15161397674E+03  0.34982595092E+04  0.34949725028E+04 0.  0.
        3    1    3    3  502    0 -0.12252656643E+03 -0.67279069401E+03  0.15338248741E+04  0.16793685813E+04  0.10100000352E+00 0. -1.
       -3    1    3    3    0  502  0.12252656643E+03  0.67279069401E+03 -0.16854388508E+04  0.18188909278E+04  0.10100000352E+00 0.  1.
</event>
<event>
 5   0  0.2601252E-07  0.2791031E+04  0.7818609E-02  0.8306058E-01
       -1   -1    0    0    0  501  0.00000000000E+00  0.00000000000E+00  0.12697645586E+04  0.12697645586E+04  0.50400001928E-02 0. -1.
        1   -1    0    0  501    0  0.00000000000E+00  0.00000000000E+00 -0.15337201156E+04  0.15337201156E+04  0.50400001928E-02 0.  1.
    10030    2    1    2    0    0  0.00000000000E+00  0.00000000000E+00 -0.26395555701E+03  0.28034846742E+04  0.27910309533E+04 0.  0.
        3    1    3    3  502    0 -0.11793796932E+04  0.73056754099E+03 -0.28364171147E+03  0.14160219008E+04  0.10100000352E+00 0.  1.
       -3    1    3    3    0  502  0.11793796932E+04 -0.73056754099E+03  0.19686154455E+02  0.13874627734E+04  0.10100000352E+00 0. -1.
</event>
<event>
 5   0  0.5161550E-07  0.1998571E+04  0.7818609E-02  0.8607289E-01
        2   -1    0    0  501    0  0.00000000000E+00  0.00000000000E+00  0.21457545157E+04  0.21457545157E+04  0.25500000920E-02 0.  1.
       -2   -1    0    0    0  501  0.00000000000E+00  0.00000000000E+00 -0.46537085308E+03  0.46537085309E+03  0.25500000920E-02 0. -1.
    10030    2    1    2    0    0  0.00000000000E+00  0.00000000000E+00  0.16803836626E+04  0.26111253688E+04  0.19985710990E+04 0.  0.
        2    1    3    3  502    0  0.35136024540E+03  0.58750348550E+03 -0.11091332682E+03  0.69348117032E+03  0.25500000920E-02 0. -1.
       -2    1    3    3    0  502 -0.35136024540E+03 -0.58750348550E+03  0.17912969894E+04  0.19176441985E+04  0.25500000920E-02 0.  1.
</event>
<event>
 5   0  0.7256473E-07  0.3487266E+04  0.7818609E-02  0.8116814E-01
        2   -1    0    0  501    0  0.00000000000E+00  0.00000000000E+00  0.15824696021E+04  0.15824696021E+04  0.25500000920E-02 0.  1.
       -2   -1    0    0    0  501  0.00000000000E+00  0.00000000000E+00 -0.19212096817E+04  0.19212096817E+04  0.25500000920E-02 0. -1.
    10030    2    1    2    0    0  0.00000000000E+00  0.00000000000E+00 -0.33874007956E+03  0.35036792839E+04  0.34872659323E+04 0.  0.
        4    1    3    3  502    0  0.10700837329E+04 -0.13021274027E+04  0.27954312354E+03  0.17084381578E+04  0.12699999809E+01 0.  1.
       -4    1    3    3    0  502 -0.10700837329E+04  0.13021274027E+04 -0.61828320311E+03  0.17952411260E+04  0.12699999809E+01 0. -1.
</event>
<event>
 5   0  0.5161550E-07  0.3949971E+04  0.7818609E-02  0.8014716E-01
        2   -1    0    0  501    0  0.00000000000E+00  0.00000000000E+00  0.23910116322E+04  0.23910116322E+04  0.25500000920E-02 0.  1.
       -2   -1    0    0    0  501  0.00000000000E+00  0.00000000000E+00 -0.16313457947E+04  0.16313457947E+04  0.25500000920E-02 0. -1.
    10030    2    1    2    0    0  0.00000000000E+00  0.00000000000E+00  0.75966583755E+03  0.40223574269E+04  0.39499705169E+04 0.  0.
        2    1    3    3  502    0  0.50958315583E+03  0.10774541522E+04 -0.12238233031E+04  0.17083108383E+04  0.25500000920E-02 0. -1.
       -2    1    3    3    0  502 -0.50958315583E+03 -0.10774541522E+04  0.19834891407E+04  0.23140465886E+04  0.25500000920E-02 0.  1.
</event>
<event>
 5   0  0.2647879E-07  0.4015634E+04  0.7818609E-02  0.8001400E-01
        1   -1    0    0  501    0  0.00000000000E+00  0.00000000000E+00  0.18404759658E+04  0.18404759658E+04  0.50400001928E-02 0. -1.
       -1   -1    0    0    0  501  0.00000000000E+00  0.00000000000E+00 -0.21903733273E+04  0.21903733273E+04  0.50400001928E-02 0.  1.
    10030    2    1    2    0    0  0.00000000000E+00  0.00000000000E+00 -0.34989736156E+03  0.40308492931E+04  0.40156341791E+04 0.  0.
        2    1    3    3  502    0  0.10448771577E+04  0.14475123029E+04  0.74737407448E+03  0.19353625368E+04  0.25500000920E-02 0. -1.
       -2    1    3    3    0  502 -0.10448771577E+04 -0.14475123029E+04 -0.10972714360E+04  0.20954867563E+04  0.25500000920E-02 0.  1.
</event>
<event>
 5   0  0.6043512E-07  0.2673733E+04  0.7818609E-02  0.8343578E-01
        2   -1    0    0  501    0  0.00000000000E+00  0.00000000000E+00  0.12109251873E+04  0.12109251873E+04  0.25500000920E-02 0. -1.
       -2   -1    0    0    0  501  0.00000000000E+00  0.00000000000E+00 -0.14759058758E+04  0.14759058758E+04  0.25500000920E-02 0.  1.
    10030    2    1    2    0    0  0.00000000000E+00  0.00000000000E+00 -0.26498068847E+03  0.26868310631E+04  0.26737326711E+04 0.  0.
        3    1    3    3  502    0 -0.33526148902E+03  0.12734632437E+04 -0.36405946051E+03  0.13662533440E+04  0.10100000352E+00 0.  1.
       -3    1    3    3    0  502  0.33526148902E+03 -0.12734632437E+04  0.99078772046E+02  0.13205777191E+04  0.10100000352E+00 0. -1.
</event>
<event>
 5   0  0.7570277E-07  0.2084843E+04  0.7818609E-02  0.8567950E-01
       -2   -1    0    0    0  501  0.00000000000E+00  0.00000000000E+00  0.12351457228E+04  0.12351457228E+04  0.25500000920E-02 0. -1.
        2   -1    0    0  501    0  0.00000000000E+00  0.00000000000E+00 -0.87976857472E+03  0.87976857473E+03  0.25500000920E-02 0.  1.
    10030    2    1    2    0    0  0.00000000000E+00  0.00000000000E+00  0.35537714811E+03  0.21149142976E+04  0.20848428163E+04 0.  0.
        5    1    3    3  502    0 -0.64592575746E+03 -0.80013801980E+03  0.35097214571E+03  0.10865746509E+04  0.46999998093E+01 0. -1.
       -5    1    3    3    0  502  0.64592575746E+03  0.80013801980E+03  0.44050024030E+01  0.10283396467E+04  0.46999998093E+01 0.  1.
</event>
<event>
 5   0  0.3579559E-07  0.4022871E+04  0.7818609E-02  0.7999949E-01
        1   -1    0    0  501    0  0.00000000000E+00  0.00000000000E+00  0.18927842702E+04  0.18927842702E+04  0.50400001928E-02 0.  1.
       -1   -1    0    0    0  501  0.00000000000E+00  0.00000000000E+00 -0.21375248527E+04  0.21375248527E+04  0.50400001928E-02 0. -1.
    10030    2    1    2    0    0  0.00000000000E+00  0.00000000000E+00 -0.24474058256E+03  0.40303091229E+04  0.40228713220E+04 0.  0.
        4    1    3    3  502    0  0.19508387886E+04  0.26289856311E+03 -0.53663713089E+03  0.20403109216E+04  0.12699999809E+01 0. -1.
       -4    1    3    3    0  502 -0.19508387886E+04 -0.26289856311E+03  0.29189654833E+03  0.19899982013E+04  0.12699999809E+01 0.  1.
</event>
<event>
 5   0  0.2601252E-07  0.3183247E+04  0.7818609E-02  0.8193256E-01
        1   -1    0    0  501    0  0.00000000000E+00  0.00000000000E+00  0.20159421361E+04  0.20159421361E+04  0.50400001928E-02 0. -1.
       -1   -1    0    0    0  501  0.00000000000E+00  0.00000000000E+00 -0.12566159158E+04  0.12566159159E+04  0.50400001928E-02 0.  1.
    10030    2    1    2    0    0  0.00000000000E+00  0.00000000000E+00  0.75932622022E+03  0.32725580519E+04  0.31832467536E+04 0.  0.
        3    1    3    3  502    0 -0.86972339689E+03  0.36582307319E+03 -0.93810330209E+03  0.13305198697E+04  0.10100000352E+00 0.  1.
       -3    1    3    3    0  502  0.86972339689E+03 -0.36582307319E+03  0.16974295223E+04  0.19420381823E+04  0.10100000352E+00 0. -1.
</event>
<event>
 5   0  0.2401125E-07  0.2082612E+04  0.7818609E-02  0.8568942E-01
       -4   -1    0    0    0  501  0.00000000000E+00  0.00000000000E+00  0.10020477979E+04  0.10020486027E+04  0.12699999809E+01 0.  1.
        4   -1    0    0  501    0  0.00000000000E+00  0.00000000000E+00 -0.10821002505E+04  0.10821009958E+04  0.12699999809E+01 0. -1.
    10030    2    1    2    0    0  0.00000000000E+00  0.00000000000E+00 -0.80052452611E+02  0.20841495985E+04  0.20826116185E+04 0.  0.
        2    1    3    3  502    0  0.57475677989E+03  0.50319886353E+03 -0.74819514884E+03  0.10692756581E+04  0.25500000920E-02 0. -1.
       -2    1    3    3    0  502 -0.57475677989E+03 -0.50319886353E+03  0.66814269623E+03  0.10148739404E+04  0.25500000920E-02 0.  1.
</event>
<event>
 5   0  0.4449262E-07  0.3930767E+04  0.7818609E-02  0.8018661E-01
       -2   -1    0    0    0  501  0.00000000000E+00  0.00000000000E+00  0.17025235742E+04  0.17025235742E+04  0.25500000920E-02 0. -1.
        2   -1    0    0  501    0  0.00000000000E+00  0.00000000000E+00 -0.22688274954E+04  0.22688274954E+04  0.25500000920E-02 0.  1.
    10030    2    1    2    0    0  0.00000000000E+00  0.00000000000E+00 -0.56630392122E+03  0.39713510696E+04  0.39307669972E+04 0.  0.
        1    1    3    3  502    0  0.92053910452E+03 -0.44275256816E+03  0.14132642435E+04  0.17437711724E+04  0.50400001928E-02 0. -1.
       -1    1    3    3    0  502 -0.92053910452E+03  0.44275256816E+03 -0.19795681647E+04  0.22275798972E+04  0.50400001928E-02 0.  1.
</event>
<event>
 5   0  0.2647879E-07  0.3900045E+04  0.7818609E-02  0.8025020E-01
        1   -1    0    0  501    0  0.00000000000E+00  0.00000000000E+00  0.17363973902E+04  0.17363973902E+04  0.50400001928E-02 0.  1.
       -1   -1    0    0    0  501  0.00000000000E+00  0.00000000000E+00 -0.21899299369E+04  0.21899299369E+04  0.50400001928E-02 0. -1.
    10030    2    1    2    0    0  0.00000000000E+00  0.00000000000E+00 -0.45353254671E+03  0.39263273271E+04  0.39000454496E+04 0.  0.
        2    1    3    3  502    0  0.98089688535E+03  0.17605015605E+03 -0.19141988419E+04  0.21580800642E+04  0.25500000920E-02 0. -1.
       -2    1    3    3    0  502 -0.98089688535E+03 -0.17605015605E+03  0.14606662952E+04  0.17682472630E+04  0.25500000920E-02 0.  1.
</event>
<event>
 5   0  0.4449262E-07  0.4046149E+04  0.7818609E-02  0.7995301E-01
        2   -1    0    0  501    0  0.00000000000E+00  0.00000000000E+00  0.17427871406E+04  0.17427871406E+04  0.25500000920E-02 0.  1.
       -2   -1    0    0    0  501  0.00000000000E+00  0.00000000000E+00 -0.23484396544E+04  0.23484396544E+04  0.25500000920E-02 0. -1.
    10030    2    1    2    0    0  0.00000000000E+00  0.00000000000E+00 -0.60565251377E+03  0.40912267950E+04  0.40461489989E+04 0.  0.
        1    1    3    3  502    0 -0.32582473328E+03 -0.16985943704E+04  0.75836400658E+03  0.18885180853E+04  0.50400001928E-02 0.  1.
       -1    1    3    3    0  502  0.32582473328E+03  0.16985943704E+04 -0.13640165204E+04  0.22027087097E+04  0.50400001928E-02 0. -1.
</event>
<event>
 5   0  0.4449262E-07  0.3951361E+04  0.7818609E-02  0.8014431E-01
        2   -1    0    0  501    0  0.00000000000E+00  0.00000000000E+00  0.13068859196E+04  0.13068859196E+04  0.25500000920E-02 0.  1.
       -2   -1    0    0    0  501  0.00000000000E+00  0.00000000000E+00 -0.29867284823E+04  0.29867284823E+04  0.25500000920E-02 0. -1.
    10030    2    1    2    0    0  0.00000000000E+00  0.00000000000E+00 -0.16798425627E+04  0.42936144019E+04  0.39513609803E+04 0.  0.
        1    1    3    3  502    0 -0.40343876141E+03 -0.19337284392E+04 -0.80158221427E+03  0.21318073452E+04  0.50400001928E-02 0.  1.
       -1    1    3    3    0  502  0.40343876141E+03  0.19337284392E+04 -0.87826034844E+03  0.21618070567E+04  0.50400001928E-02 0. -1.
</event>
<event>
 5   0  0.7256473E-07  0.3237440E+04  0.7818609E-02  0.8178999E-01
        2   -1    0    0  501    0  0.00000000000E+00  0.00000000000E+00  0.28342258406E+04  0.28342258406E+04  0.25500000920E-02 0.  1.
       -2   -1    0    0    0  501  0.00000000000E+00  0.00000000000E+00 -0.92450419572E+03  0.92450419572E+03  0.25500000920E-02 0. -1.
    10030    2    1    2    0    0  0.00000000000E+00  0.00000000000E+00  0.19097216449E+04  0.37587300363E+04  0.32374395323E+04 0.  0.
        4    1    3    3  502    0 -0.23712143741E+03 -0.10064454710E+04  0.24008278462E+04  0.26140265917E+04  0.12699999809E+01 0.  1.
       -4    1    3    3    0  502  0.23712143741E+03  0.10064454710E+04 -0.49110620134E+03  0.11447034446E+04  0.12699999809E+01 0. -1.
</event>
<event>
 5   0  0.6043512E-07  0.4010085E+04  0.7818609E-02  0.8002515E-01
        2   -1    0    0  501    0  0.00000000000E+00  0.00000000000E+00  0.31061476316E+04  0.31061476316E+04  0.25500000920E-02 0. -1.
       -2   -1    0    0    0  501  0.00000000000E+00  0.00000000000E+00 -0.12942708059E+04  0.12942708059E+04  0.25500000920E-02 0.  1.
    10030    2    1    2    0    0  0.00000000000E+00  0.00000000000E+00  0.18118768256E+04  0.44004184375E+04  0.40100853848E+04 0.  0.
        3    1    3    3  502    0 -0.13348707946E+04  0.10096627895E+04  0.21174397440E+04  0.26990461401E+04  0.10100000352E+00 0. -1.
       -3    1    3    3    0  502  0.13348707946E+04 -0.10096627895E+04 -0.30556291835E+03  0.17013722974E+04  0.10100000352E+00 0.  1.
</event>
<event>
 5   0  0.2601252E-07  0.3057554E+04  0.7818609E-02  0.8227484E-01
        1   -1    0    0  501    0  0.00000000000E+00  0.00000000000E+00  0.11446657564E+04  0.11446657564E+04  0.50400001928E-02 0.  1.
       -1   -1    0    0    0  501  0.00000000000E+00  0.00000000000E+00 -0.20417826711E+04  0.20417826711E+04  0.50400001928E-02 0. -1.
    10030    2    1    2    0    0  0.00000000000E+00  0.00000000000E+00 -0.89711691469E+03  0.31864484275E+04  0.30575537317E+04 0.  0.
        3    1    3    3  502    0  0.75645193012E+03 -0.40778271618E+03 -0.17662380562E+04  0.19642054749E+04  0.10100000352E+00 0. -1.
       -3    1    3    3    0  502 -0.75645193012E+03  0.40778271618E+03  0.86912114154E+03  0.12222429526E+04  0.10100000352E+00 0.  1.
</event>
<event>
 5   0  0.4449262E-07  0.2419307E+04  0.7818609E-02  0.8432310E-01
       -2   -1    0    0    0  501  0.00000000000E+00  0.00000000000E+00  0.80501411551E+03  0.80501411551E+03  0.25500000920E-02 0.  1.
        2   -1    0    0  501    0  0.00000000000E+00  0.00000000000E+00 -0.18176846452E+04  0.18176846452E+04  0.25500000920E-02 0. -1.
    10030    2    1    2    0    0  0.00000000000E+00  0.00000000000E+00 -0.10126705297E+04  0.26226987607E+04  0.24193071710E+04 0.  0.
        1    1    3    3  502    0  0.34017236186E+03 -0.69421769018E+03 -0.15149321384E+04  0.17007865302E+04  0.50400001928E-02 0. -1.
       -1    1    3    3    0  502 -0.34017236186E+03  0.69421769018E+03  0.50226160875E+03  0.92191223052E+03  0.50400001928E-02 0.  1.
</event>
<event>
 5   0  0.7570277E-07  0.2158091E+04  0.7818609E-02  0.8536077E-01
        2   -1    0    0  501    0  0.00000000000E+00  0.00000000000E+00  0.17211370503E+04  0.17211370503E+04  0.25500000920E-02 0. -1.
       -2   -1    0    0    0  501  0.00000000000E+00  0.00000000000E+00 -0.67649429591E+03  0.67649429592E+03  0.25500000920E-02 0.  1.
    10030    2    1    2    0    0  0.00000000000E+00  0.00000000000E+00  0.10446427544E+04  0.23976313462E+04  0.21580911908E+04 0.  0.
        5    1    3    3  502    0  0.49613007654E+03  0.11338881531E+03 -0.53476999769E+03  0.73824326391E+03  0.46999998093E+01 0.  1.
       -5    1    3    3    0  502 -0.49613007654E+03 -0.11338881531E+03  0.15794127520E+04  0.16593880823E+04  0.46999998093E+01 0. -1.
</event>
<event>
 5   0  0.3579559E-07  0.3877656E+04  0.7818609E-02  0.8029692E-01
       -1   -1    0    0    0  501  0.00000000000E+00  0.00000000000E+00  0.16069809416E+04  0.16069809416E+04  0.50400001928E-02 0. -1.
        1   -1    0    0  501    0  0.00000000000E+00  0.00000000000E+00 -0.23392023406E+04  0.23392023406E+04  0.50400001928E-02 0.  1.
    10030    2    1    2    0    0  0.00000000000E+00  0.00000000000E+00 -0.73222139897E+03  0.39461832822E+04  0.38776557763E+04 0.  0.
        4    1    3    3  502    0 -0.14110336252E+04  0.26123568580E+03  0.96069059992E+03  0.17269012759E+04  0.12699999809E+01 0. -1.
       -4    1    3    3    0  502  0.14110336252E+04 -0.26123568580E+03 -0.16929119989E+04  0.22192820064E+04  0.12699999809E+01 0.  1.
</event>
<event>
 5   0  0.2713405E-07  0.3302586E+04  0.7818609E-02  0.8162238E-01
        1   -1    0    0  501    0  0.00000000000E+00  0.00000000000E+00  0.21499225831E+04  0.21499225832E+04  0.50400001928E-02 0. -1.
       -1   -1    0    0    0  501  0.00000000000E+00  0.00000000000E+00 -0.12683102935E+04  0.12683102935E+04  0.50400001928E-02 0.  1.
    10030    2    1    2    0    0  0.00000000000E+00  0.00000000000E+00  0.88161228963E+03  0.34182328767E+04  0.33025862245E+04 0.  0.
        1    1    3    3  502    0 -0.95302764631E+03 -0.17695072788E+03 -0.94286707591E+03  0.13522468627E+04  0.50400001928E-02 0.  1.
       -1    1    3    3    0  502  0.95302764631E+03  0.17695072788E+03  0.18244793655E+04  0.20659860140E+04  0.50400001928E-02 0. -1.
</event>
<event>
 5   0  0.2713405E-07  0.3220903E+04  0.7818609E-02  0.8183318E-01
        1   -1    0    0  501    0  0.00000000000E+00  0.00000000000E+00  0.15760630671E+04  0.15760630671E+04  0.50400001928E-02 0.  1.
       -1   -1    0    0    0  501  0.00000000000E+00  0.00000000000E+00 -0.16455905445E+04  0.16455905445E+04  0.50400001928E-02 0. -1.
    10030    2    1    2    0    0  0.00000000000E+00  0.00000000000E+00 -0.69527477463E+02  0.32216536116E+04  0.32209032775E+04 0.  0.
        1    1    3    3  502    0  0.14425115398E+04  0.14955954902E+03 -0.73517459410E+03  0.16259425835E+04  0.50400001928E-02 0. -1.
       -1    1    3    3    0  502 -0.14425115398E+04 -0.14955954902E+03  0.66564711664E+03  0.15957110280E+04  0.50400001928E-02 0.  1.
</event>
<event>
 5   0  0.5161550E-07  0.4055980E+04  0.7818609E-02  0.7993348E-01
       -2   -1    0    0    0  501  0.00000000000E+00  0.00000000000E+00  0.17043010703E+04  0.17043010703E+04  0.25500000920E-02 0.  1.
        2   -1    0    0  501    0  0.00000000000E+00  0.00000000000E+00 -0.24131553469E+04  0.24131553469E+04  0.25500000920E-02 0. -1.
    10030    2    1    2    0    0  0.00000000000E+00  0.00000000000E+00 -0.70885427662E+03  0.41174564172E+04  0.40559799016E+04 0.  0.
        2    1    3    3  502    0  0.35306028060E+03 -0.66924953527E+03  0.15556324467E+04  0.17298956071E+04  0.25500000920E-02 0.  1.
       -2    1    3    3    0  502 -0.35306028060E+03  0.66924953527E+03 -0.22644867233E+04  0.23875608101E+04  0.25500000920E-02 0. -1.
</event>
<event>
 5   0  0.2601252E-07  0.3895923E+04  0.7818609E-02  0.8025878E-01
       -1   -1    0    0    0  501  0.00000000000E+00  0.00000000000E+00  0.24843008068E+04  0.24843008068E+04  0.50400001928E-02 0. -1.
        1   -1    0    0  501    0  0.00000000000E+00  0.00000000000E+00 -0.15274128904E+04  0.15274128904E+04  0.50400001928E-02 0.  1.
    10030    2    1    2    0    0  0.00000000000E+00  0.00000000000E+00  0.95688791635E+03  0.40117136972E+04  0.38959225228E+04 0.  0.
        3    1    3    3  502    0  0.53849577820E+03 -0.45865972660E+03 -0.13904946571E+04  0.15600711040E+04  0.10100000352E+00 0.  1.
       -3    1    3    3    0  502 -0.53849577820E+03  0.45865972660E+03  0.23473825735E+04  0.24516425931E+04  0.10100000352E+00 0. -1.
</event>
<event>
 5   0  0.6059591E-07  0.2050642E+04  0.7818609E-02  0.8583303E-01
        2   -1    0    0  501    0  0.00000000000E+00  0.00000000000E+00  0.14410183515E+04  0.14410183515E+04  0.25500000920E-02 0.  1.
       -2   -1    0    0    0  501  0.00000000000E+00  0.00000000000E+00 -0.72954205948E+03  0.72954205949E+03  0.25500000920E-02 0. -1.
    10030    2    1    2    0    0  0.00000000000E+00  0.00000000000E+00  0.71147629202E+03  0.21705604110E+04  0.20506423344E+04 0.  0.
        3    1    3    3  502    0  0.40732350241E+03 -0.82150112839E+03  0.84137895532E+03  0.12444657875E+04  0.10100000352E+00 0.  1.
       -3    1    3    3    0  502 -0.40732350241E+03  0.82150112839E+03 -0.12990266330E+03  0.92609462351E+03  0.10100000352E+00 0. -1.
</event>
<event>
 5   0  0.6043512E-07  0.3069326E+04  0.7818609E-02  0.8224207E-01
       -2   -1    0    0    0  501  0.00000000000E+00  0.00000000000E+00  0.10051588522E+04  0.10051588522E+04  0.25500000920E-02 0.  1.
        2   -1    0    0  501    0  0.00000000000E+00  0.00000000000E+00 -0.23431032022E+04  0.23431032022E+04  0.25500000920E-02 0. -1.
    10030    2    1    2    0    0  0.00000000000E+00  0.00000000000E+00 -0.13379443500E+04  0.33482620544E+04  0.30693262617E+04 0.  0.
        3    1    3    3  502    0 -0.28215498505E+03  0.29314055764E+03  0.94525088585E+03  0.10290976968E+04  0.10100000352E+00 0.  1.
       -3    1    3    3    0  502  0.28215498505E+03 -0.29314055764E+03 -0.22831952359E+04  0.23191643576E+04  0.10100000352E+00 0. -1.
</event>
<event>
 5   0  0.6043512E-07  0.3748248E+04  0.7818609E-02  0.8057353E-01
       -2   -1    0    0    0  501  0.00000000000E+00  0.00000000000E+00  0.26776800140E+04  0.26776800140E+04  0.25500000920E-02 0. -1.
        2   -1    0    0  501    0  0.00000000000E+00  0.00000000000E+00 -0.13117103640E+04  0.13117103640E+04  0.25500000920E-02 0.  1.
    10030    2    1    2    0    0  0.00000000000E+00  0.00000000000E+00  0.13659696500E+04  0.39893903780E+04  0.37482479245E+04 0.  0.
        3    1    3    3  502    0 -0.18508672883E+04  0.14424215267E+02  0.37009424305E+03  0.18875612668E+04  0.10100000352E+00 0.  1.
       -3    1    3    3    0  502  0.18508672883E+04 -0.14424215267E+02  0.99587540690E+03  0.21018291113E+04  0.10100000352E+00 0. -1.
</event>
<event>
 5   0  0.3579559E-07  0.3935399E+04  0.7818609E-02  0.8017707E-01
        1   -1    0    0  501    0  0.00000000000E+00  0.00000000000E+00  0.20047549116E+04  0.20047549116E+04  0.50400001928E-02 0.  1.
       -1   -1    0    0    0  501  0.00000000000E+00  0.00000000000E+00 -0.19313293540E+04  0.19313293540E+04  0.50400001928E-02 0. -1.
    10030    2    1    2    0    0  0.00000000000E+00  0.00000000000E+00  0.73425557544E+02  0.39360842656E+04  0.39353993486E+04 0.  0.
        4    1    3    3  502    0 -0.12305192333E+04 -0.73964856772E+03 -0.13091003921E+04  0.19429367042E+04  0.12699999809E+01 0. -1.
       -4    1    3    3    0  502  0.12305192333E+04  0.73964856772E+03  0.13825259496E+04  0.19931475614E+04  0.12699999809E+01 0.  1.
</event>
<event>
 5   0  0.7570277E-07  0.3872426E+04  0.7818609E-02  0.8030789E-01
       -2   -1    0    0    0  501  0.00000000000E+00  0.00000000000E+00  0.15168585664E+04  0.15168585664E+04  0.25500000920E-02 0.  1.
        2   -1    0    0  501    0  0.00000000000E+00  0.00000000000E+00 -0.24715037206E+04  0.24715037206E+04  0.25500000920E-02 0. -1.
    10030    2    1    2    0    0  0.00000000000E+00  0.00000000000E+00 -0.95464515420E+03  0.39883622870E+04  0.38724264179E+04 0.  0.
        5    1    3    3  502    0  0.73370540087E+03 -0.84367280253E+03 -0.21054053757E+04  0.23838752692E+04  0.46999998093E+01 0. -1.
       -5    1    3    3    0  502 -0.73370540087E+03  0.84367280253E+03  0.11507602215E+04  0.16044870178E+04  0.46999998093E+01 0.  1.
</event>
<event>
 5   0  0.7256473E-07  0.2593222E+04  0.7818609E-02  0.8370507E-01
        2   -1    0    0  501    0  0.00000000000E+00  0.00000000000E+00  0.23699421883E+04  0.23699421883E+04  0.25500000920E-02 0.  1.
       -2   -1    0    0    0  501  0.00000000000E+00  0.00000000000E+00 -0.70938467695E+03  0.70938467696E+03  0.25500000920E-02 0. -1.
    10030    2    1    2    0    0  0.00000000000E+00  0.00000000000E+00  0.16605575114E+04  0.30793268653E+04  0.25932224538E+04 0.  0.
        4    1    3    3  502    0  0.25038782887E+03 -0.98019380313E+03 -0.13274771970E+03  0.10203418675E+04  0.12699999809E+01 0. -1.
       -4    1    3    3    0  502 -0.25038782887E+03  0.98019380313E+03  0.17933052311E+04  0.20589849978E+04  0.12699999809E+01 0.  1.
</event>
<event>
 5   0  0.4449262E-07  0.4099128E+04  0.7818609E-02  0.7984842E-01
        2   -1    0    0  501    0  0.00000000000E+00  0.00000000000E+00  0.15555962103E+04  0.15555962103E+04  0.25500000920E-02 0.  1.
       -2   -1    0    0    0  501  0.00000000000E+00  0.00000000000E+00 -0.27003879771E+04  0.27003879771E+04  0.25500000920E-02 0. -1.
    10030    2    1    2    0    0  0.00000000000E+00  0.00000000000E+00 -0.11447917668E+04  0.42559841875E+04  0.40991283481E+04 0.  0.
        1    1    3    3  502    0  0.10549444150E+04 -0.23018248517E+03 -0.23811314260E+04  0.26145130643E+04  0.50400001928E-02 0. -1.
       -1    1    3    3    0  502 -0.10549444150E+04  0.23018248517E+03  0.12363396592E+04  0.16414711232E+04  0.50400001928E-02 0.  1.
</event>
<event>
 5   0  0.2401125E-07  0.2124501E+04  0.7818609E-02  0.8550527E-01
       -1   -1    0    0    0  501  0.00000000000E+00  0.00000000000E+00  0.19718305995E+04  0.19718305995E+04  0.50400001928E-02 0. -1.
        1   -1    0    0  501    0  0.00000000000E+00  0.00000000000E+00 -0.57224804948E+03  0.57224804950E+03  0.50400001928E-02 0.  1.
    10030    2    1    2    0    0  0.00000000000E+00  0.00000000000E+00  0.13995825501E+04  0.25440786490E+04  0.21245010845E+04 0.  0.
        5    1    3    3  502    0  0.36296938671E+03 -0.74738599207E+03 -0.92748931704E+02  0.83603651306E+03  0.46999998093E+01 0.  1.
       -5    1    3    3    0  502 -0.36296938671E+03  0.74738599207E+03  0.14923314818E+04  0.17080421360E+04  0.46999998093E+01 0. -1.
</event>
<event>
 5   0  0.2647879E-07  0.3953715E+04  0.7818609E-02  0.8013949E-01
        1   -1    0    0  501    0  0.00000000000E+00  0.00000000000E+00  0.32987663181E+04  0.32987663181E+04  0.50400001928E-02 0.  1.
       -1   -1    0    0    0  501  0.00000000000E+00  0.00000000000E+00 -0.11846749305E+04  0.11846749305E+04  0.50400001928E-02 0. -1.
    10030    2    1    2    0    0  0.00000000000E+00  0.00000000000E+00  0.21140913875E+04  0.44834412486E+04  0.39537150928E+04 0.  0.
        2    1    3    3  502    0  0.76771105444E+03 -0.18006681823E+04  0.74405931624E+03  0.20941371570E+04  0.25500000920E-02 0. -1.
       -2    1    3    3    0  502 -0.76771105444E+03  0.18006681823E+04  0.13700320713E+04  0.23893040917E+04  0.25500000920E-02 0.  1.
</event>
<event>
 5   0  0.6043512E-07  0.4055912E+04  0.7818609E-02  0.7993361E-01
        2   -1    0    0  501    0  0.00000000000E+00  0.00000000000E+00  0.29466857116E+04  0.29466857116E+04  0.25500000920E-02 0. -1.
       -2   -1    0    0    0  501  0.00000000000E+00  0.00000000000E+00 -0.13956712555E+04  0.13956712555E+04  0.25500000920E-02 0.  1.
    10030    2    1    2    0    0  0.00000000000E+00  0.00000000000E+00  0.15510144561E+04  0.43423569672E+04  0.40559115113E+04 0.  0.
        3    1    3    3  502    0 -0.30598603008E+03  0.18952816106E+04  0.75999773825E+02  0.19213265755E+04  0.10100000352E+00 0.  1.
       -3    1    3    3    0  502  0.30598603008E+03 -0.18952816106E+04  0.14750146823E+04  0.24210303916E+04  0.10100000352E+00 0. -1.
</event>
<event>
 5   0  0.2987275E-07  0.2058709E+04  0.7818609E-02  0.8579653E-01
       -1   -1    0    0    0  501  0.00000000000E+00  0.00000000000E+00  0.10262698005E+04  0.10262698005E+04  0.50400001928E-02 0.  1.
        1   -1    0    0  501    0  0.00000000000E+00  0.00000000000E+00 -0.10324489569E+04  0.10324489569E+04  0.50400001928E-02 0. -1.
    10030    2    1    2    0    0  0.00000000000E+00  0.00000000000E+00 -0.61791563851E+01  0.20587187574E+04  0.20587094842E+04 0.  0.
        3    1    3    3  502    0  0.87171952376E+01 -0.65754881372E+03  0.78882606919E+03  0.10269824777E+04  0.10100000352E+00 0.  1.
       -3    1    3    3    0  502 -0.87171952376E+01  0.65754881372E+03 -0.79500522558E+03  0.10317362797E+04  0.10100000352E+00 0. -1.
</event>
<event>
 5   0  0.7570277E-07  0.2747135E+04  0.7818609E-02  0.8319871E-01
       -2   -1    0    0    0  501  0.00000000000E+00  0.00000000000E+00  0.70969415854E+03  0.70969415855E+03  0.25500000920E-02 0. -1.
        2   -1    0    0  501    0  0.00000000000E+00  0.00000000000E+00 -0.26584510197E+04  0.26584510197E+04  0.25500000920E-02 0.  1.
    10030    2    1    2    0    0  0.00000000000E+00  0.00000000000E+00 -0.19487568611E+04  0.33681451782E+04  0.27471346232E+04 0.  0.
        5    1    3    3  502    0  0.80527533061E+03  0.71214298360E+03  0.73918051501E+02  0.10775444100E+04  0.46999998093E+01 0. -1.
       -5    1    3    3    0  502 -0.80527533061E+03 -0.71214298360E+03 -0.20226749126E+04  0.22906007682E+04  0.46999998093E+01 0.  1.
</event>
<event>
 5   0  0.6043512E-07  0.2486698E+04  0.7818609E-02  0.8407740E-01
       -2   -1    0    0    0  501  0.00000000000E+00  0.00000000000E+00  0.67612496873E+03  0.67612496873E+03  0.25500000920E-02 0. -1.
        2   -1    0    0  501    0  0.00000000000E+00  0.00000000000E+00 -0.22864368497E+04  0.22864368497E+04  0.25500000920E-02 0.  1.
    10030    2    1    2    0    0  0.00000000000E+00  0.00000000000E+00 -0.16103118810E+04  0.29625618184E+04  0.24866982475E+04 0.  0.
        3    1    3    3  502    0 -0.42821617991E+03  0.21805947635E+03  0.56102077591E+03  0.73869029584E+03  0.10100000352E+00 0. -1.
       -3    1    3    3    0  502  0.42821617991E+03 -0.21805947635E+03 -0.21713326569E+04  0.22238715226E+04  0.10100000352E+00 0.  1.
</event>
<event>
 5   0  0.4449262E-07  0.2801873E+04  0.7818609E-02  0.8302687E-01
       -2   -1    0    0    0  501  0.00000000000E+00  0.00000000000E+00  0.11566441591E+04  0.11566441591E+04  0.25500000920E-02 0.  1.
        2   -1    0    0  501    0  0.00000000000E+00  0.00000000000E+00 -0.16968249285E+04  0.16968249285E+04  0.25500000920E-02 0. -1.
    10030    2    1    2    0    0  0.00000000000E+00  0.00000000000E+00 -0.54018076937E+03  0.28534690876E+04  0.28018726899E+04 0.  0.
        1    1    3    3  502    0 -0.17983982987E+03  0.13668220014E+04 -0.16347856111E+02  0.13786993873E+04  0.50400001928E-02 0. -1.
       -1    1    3    3    0  502  0.17983982987E+03 -0.13668220014E+04 -0.52383291326E+03  0.14747697003E+04  0.50400001928E-02 0.  1.
</event>
<event>
 5   0  0.7570277E-07  0.2756907E+04  0.7818609E-02  0.8316773E-01
       -2   -1    0    0    0  501  0.00000000000E+00  0.00000000000E+00  0.23229145539E+04  0.23229145539E+04  0.25500000920E-02 0.  1.
        2   -1    0    0  501    0  0.00000000000E+00  0.00000000000E+00 -0.81799593413E+03  0.81799593414E+03  0.25500000920E-02 0. -1.
    10030    2    1    2    0    0  0.00000000000E+00  0.00000000000E+00  0.15049186198E+04  0.31409104880E+04  0.27569074416E+04 0.  0.
        5    1    3    3  502    0 -0.43696953253E+03 -0.10697903745E+04 -0.10368993684E+03  0.11602445909E+04  0.46999998093E+01 0. -1.
       -5    1    3    3    0  502  0.43696953253E+03  0.10697903745E+04  0.16086085566E+04  0.19806658971E+04  0.46999998093E+01 0.  1.
</event>
<event>
 5   0  0.2401125E-07  0.3988107E+04  0.7818609E-02  0.8006950E-01
       -3   -1    0    0    0  501  0.00000000000E+00  0.00000000000E+00  0.23497935281E+04  0.23497935303E+04  0.10100000352E+00 0. -1.
        3   -1    0    0  501    0  0.00000000000E+00  0.00000000000E+00 -0.16921694205E+04  0.16921694236E+04  0.10100000352E+00 0.  1.
    10030    2    1    2    0    0  0.00000000000E+00  0.00000000000E+00  0.65762410756E+03  0.40419629538E+04  0.39881067003E+04 0.  0.
        4    1    3    3  502    0  0.24426574977E+03 -0.17928055352E+04  0.11782408792E+04  0.21591828606E+04  0.12699999809E+01 0.  1.
       -4    1    3    3    0  502 -0.24426574977E+03  0.17928055352E+04 -0.52061677161E+03  0.18827800932E+04  0.12699999809E+01 0. -1.
</event>
<event>
 5   0  0.2401125E-07  0.3970203E+04  0.7818609E-02  0.8010585E-01
        1   -1    0    0  501    0  0.00000000000E+00  0.00000000000E+00  0.28042270796E+04  0.28042270796E+04  0.50400001928E-02 0.  1.
       -1   -1    0    0    0  501  0.00000000000E+00  0.00000000000E+00 -0.14052458182E+04  0.14052458182E+04  0.50400001928E-02 0. -1.
    10030    2    1    2    0    0  0.00000000000E+00  0.00000000000E+00  0.13989812613E+04  0.42094728978E+04  0.39702032073E+04 0.  0.
        5    1    3    3  502    0 -0.10743804608E+04  0.13547601912E+04 -0.33443909822E+03  0.17611190052E+04  0.46999998093E+01 0. -1.
       -5    1    3    3    0  502  0.10743804608E+04 -0.13547601912E+04  0.17334203596E+04  0.24483538925E+04  0.46999998093E+01 0.  1.
</event>
<event>
 5   0  0.2601252E-07  0.3797752E+04  0.7818609E-02  0.8046638E-01
       -1   -1    0    0    0  501  0.00000000000E+00  0.00000000000E+00  0.26165663661E+04  0.26165663661E+04  0.50400001928E-02 0. -1.
        1   -1    0    0  501    0  0.00000000000E+00  0.00000000000E+00 -0.13780385683E+04  0.13780385683E+04  0.50400001928E-02 0.  1.
    10030    2    1    2    0    0  0.00000000000E+00  0.00000000000E+00  0.12385277978E+04  0.39946049344E+04  0.37977516343E+04 0.  0.
        3    1    3    3  502    0  0.28326256127E+03  0.13524708024E+04  0.19892004412E+04  0.24220514766E+04  0.10100000352E+00 0. -1.
       -3    1    3    3    0  502 -0.28326256127E+03 -0.13524708024E+04 -0.75067264337E+03  0.15725534578E+04  0.10100000352E+00 0.  1.
</event>
<event>
 5   0  0.2713405E-07  0.3053899E+04  0.7818609E-02  0.8228505E-01
        1   -1    0    0  501    0  0.00000000000E+00  0.00000000000E+00  0.17042533513E+04  0.17042533513E+04  0.50400001928E-02 0. -1.
       -1   -1    0    0    0  501  0.00000000000E+00  0.00000000000E+00 -0.13680915980E+04  0.13680915980E+04  0.50400001928E-02 0.  1.
    10030    2    1    2    0    0  0.00000000000E+00  0.00000000000E+00  0.33616175327E+03  0.30723449493E+04  0.30538989445E+04 0.  0.
        1    1    3    3  502    0  0.11680693129E+04 -0.22499220120E+03 -0.79507701582E+03  0.14307881994E+04  0.50400001928E-02 0.  1.
       -1    1    3    3    0  502 -0.11680693129E+04  0.22499220120E+03  0.11312387691E+04  0.16415567499E+04  0.50400001928E-02 0. -1.
</event>
<event>
 5   0  0.2601252E-07  0.3877749E+04  0.7818609E-02  0.8029673E-01
        1   -1    0    0  501    0  0.00000000000E+00  0.00000000000E+00  0.21777924490E+04  0.21777924490E+04  0.50400001928E-02 0.  1.
       -1   -1    0    0    0  501  0.00000000000E+00  0.00000000000E+00 -0.17261673415E+04  0.17261673415E+04  0.50400001928E-02 0. -1.
    10030    2    1    2    0    0  0.00000000000E+00  0.00000000000E+00  0.45162510753E+03  0.39039597905E+04  0.38777489357E+04 0.  0.
        3    1    3    3  502    0 -0.40338895665E+03  0.38144964530E+02 -0.16830669239E+04  0.17311533638E+04  0.10100000352E+00 0. -1.
       -3    1    3    3    0  502  0.40338895665E+03 -0.38144964530E+02  0.21346920314E+04  0.21728064267E+04  0.10100000352E+00 0.  1.
</event>
<event>
 5   0  0.2647879E-07  0.2274608E+04  0.7818609E-02  0.8488001E-01
       -1   -1    0    0    0  501  0.00000000000E+00  0.00000000000E+00  0.85044007578E+03  0.85044007580E+03  0.50400001928E-02 0.  1.
        1   -1    0    0  501    0  0.00000000000E+00  0.00000000000E+00 -0.15209301924E+04  0.15209301924E+04  0.50400001928E-02 0. -1.
    10030    2    1    2    0    0  0.00000000000E+00  0.00000000000E+00 -0.67049011658E+03  0.23713702682E+04  0.22746076480E+04 0.  0.
        2    1    3    3  502    0 -0.60146446266E+03 -0.84094914641E+03  0.15873100523E+03  0.10460164907E+04  0.25500000920E-02 0.  1.
       -2    1    3    3    0  502  0.60146446266E+03  0.84094914641E+03 -0.82922112181E+03  0.13253537775E+04  0.25500000920E-02 0. -1.
</event>
<event>
 5   0  0.2601252E-07  0.4013840E+04  0.7818609E-02  0.8001760E-01
       -1   -1    0    0    0  501  0.00000000000E+00  0.00000000000E+00  0.18154176093E+04  0.18154176093E+04  0.50400001928E-02 0. -1.
        1   -1    0    0  501    0  0.00000000000E+00  0.00000000000E+00 -0.22186234141E+04  0.22186234141E+04  0.50400001928E-02 0.  1.
    10030    2    1    2    0    0  0.00000000000E+00  0.00000000000E+00 -0.40320580484E+03  0.40340410234E+04  0.40138400637E+04 0.  0.
        3    1    3    3  502    0 -0.26741630206E+03  0.19885458094E+04 -0.24543534744E+03  0.20214016016E+04  0.10100000352E+00 0.  1.
       -3    1    3    3    0  502  0.26741630206E+03 -0.19885458094E+04 -0.15777045741E+03  0.20126394218E+04  0.10100000352E+00 0. -1.
</event>
<event>
 5   0  0.7256473E-07  0.4163361E+04  0.7818609E-02  0.7972378E-01
       -2   -1    0    0    0  501  0.00000000000E+00  0.00000000000E+00  0.27687959386E+04  0.27687959386E+04  0.25500000920E-02 0. -1.
        2   -1    0    0  501    0  0.00000000000E+00  0.00000000000E+00 -0.15650827405E+04  0.15650827405E+04  0.25500000920E-02 0.  1.
    10030    2    1    2    0    0  0.00000000000E+00  0.00000000000E+00  0.12037131981E+04  0.43338786792E+04  0.41633614955E+04 0.  0.
        4    1    3    3  502    0 -0.13547852880E+04 -0.23600533874E+03 -0.10249196170E+04  0.17151103553E+04  0.12699999809E+01 0.  1.
       -4    1    3    3    0  502  0.13547852880E+04  0.23600533874E+03  0.22286328151E+04  0.26187683239E+04  0.12699999809E+01 0. -1.
</event>
<event>
 5   0  0.2601252E-07  0.3654698E+04  0.7818609E-02  0.8078076E-01
        1   -1    0    0  501    0  0.00000000000E+00  0.00000000000E+00  0.26886433767E+04  0.26886433767E+04  0.50400001928E-02 0. -1.
       -1   -1    0    0    0  501  0.00000000000E+00  0.00000000000E+00 -0.12419660476E+04  0.12419660476E+04  0.50400001928E-02 0.  1.
    10030    2    1    2    0    0  0.00000000000E+00  0.00000000000E+00  0.14466773291E+04  0.39306094243E+04  0.36546976827E+04 0.  0.
        3    1    3    3  502    0  0.46663080814E+03  0.14452435477E+04 -0.36961549291E+03  0.15630383380E+04  0.10100000352E+00 0.  1.
       -3    1    3    3    0  502 -0.46663080814E+03 -0.14452435477E+04  0.18162928220E+04  0.23675710863E+04  0.10100000352E+00 0. -1.
</event>
<event>
 5   0  0.4449262E-07  0.2782975E+04  0.7818609E-02  0.8308573E-01
       -2   -1    0    0    0  501  0.00000000000E+00  0.00000000000E+00  0.11575391934E+04  0.11575391935E+04  0.25500000920E-02 0.  1.
        2   -1    0    0  501    0  0.00000000000E+00  0.00000000000E+00 -0.16727187088E+04  0.16727187088E+04  0.25500000920E-02 0. -1.
    10030    2    1    2    0    0  0.00000000000E+00  0.00000000000E+00 -0.51517951534E+03  0.28302579022E+04  0.27829750017E+04 0.  0.
        1    1    3    3  502    0  0.50772153947E+02  0.13003075794E+04 -0.75877072473E+03  0.15063567391E+04  0.50400001928E-02 0. -1.
       -1    1    3    3    0  502 -0.50772153947E+02 -0.13003075794E+04  0.24359120939E+03  0.13239011632E+04  0.50400001928E-02 0.  1.
</event>
<event>
 5   0  0.4449262E-07  0.2593950E+04  0.7818609E-02  0.8370259E-01
        2   -1    0    0  501    0  0.00000000000E+00  0.00000000000E+00  0.17755157986E+04  0.17755157986E+04  0.25500000920E-02 0.  1.
       -2   -1    0    0    0  501  0.00000000000E+00  0.00000000000E+00 -0.94741144318E+03  0.94741144318E+03  0.25500000920E-02 0. -1.
    10030    2    1    2    0    0  0.00000000000E+00  0.00000000000E+00  0.82810435545E+03  0.27229272418E+04  0.25939498724E+04 0.  0.
        1    1    3    3  502    0 -0.31035329734E+02  0.11663246858E+04  0.10086691991E+04  0.15423002359E+04  0.50400001928E-02 0.  1.
       -1    1    3    3    0  502  0.31035329734E+02 -0.11663246858E+04 -0.18056484363E+03  0.11806270059E+04  0.50400001928E-02 0. -1.
</event>
<event>
 5   0  0.6043512E-07  0.2858636E+04  0.7818609E-02  0.8285292E-01
       -2   -1    0    0    0  501  0.00000000000E+00  0.00000000000E+00  0.13779832887E+04  0.13779832887E+04  0.25500000920E-02 0. -1.
        2   -1    0    0  501    0  0.00000000000E+00  0.00000000000E+00 -0.14825654825E+04  0.14825654826E+04  0.25500000920E-02 0.  1.
    10030    2    1    2    0    0  0.00000000000E+00  0.00000000000E+00 -0.10458219382E+03  0.28605487713E+04  0.28586363598E+04 0.  0.
        3    1    3    3  502    0 -0.80175924364E+03  0.11756431328E+03 -0.12304959542E+04  0.14733497738E+04  0.10100000352E+00 0.  1.
       -3    1    3    3    0  502  0.80175924364E+03 -0.11756431328E+03  0.11259137604E+04  0.13871989975E+04  0.10100000352E+00 0. -1.
</event>
<event>
 5   0  0.6043512E-07  0.3940597E+04  0.7818609E-02  0.8016638E-01
        2   -1    0    0  501    0  0.00000000000E+00  0.00000000000E+00  0.25447640176E+04  0.25447640176E+04  0.25500000920E-02 0. -1.
       -2   -1    0    0    0  501  0.00000000000E+00  0.00000000000E+00 -0.15255151255E+04  0.15255151255E+04  0.25500000920E-02 0.  1.
    10030    2    1    2    0    0  0.00000000000E+00  0.00000000000E+00  0.10192488921E+04  0.40702791431E+04  0.39405969090E+04 0.  0.
        3    1    3    3  502    0  0.26170197633E+03 -0.10247238239E+04 -0.12074700934E+04  0.16051575862E+04  0.10100000352E+00 0.  1.
       -3    1    3    3    0  502 -0.26170197633E+03  0.10247238239E+04  0.22267189856E+04  0.24651215570E+04  0.10100000352E+00 0. -1.
</event>
<event>
 5   0  0.2601252E-07  0.2493822E+04  0.7818609E-02  0.8405190E-01
        1   -1    0    0  501    0  0.00000000000E+00  0.00000000000E+00  0.14100696510E+04  0.14100696510E+04  0.50400001928E-02 0.  1.
       -1   -1    0    0    0  501  0.00000000000E+00  0.00000000000E+00 -0.11026314542E+04  0.11026314542E+04  0.50400001928E-02 0. -1.
    10030    2    1    2    0    0  0.00000000000E+00  0.00000000000E+00  0.30743819683E+03  0.25127011052E+04  0.24938220866E+04 0.  0.
        3    1    3    3  502    0  0.11044250740E+04  0.56343523391E+03  0.28728634063E+03  0.12726929946E+04  0.10100000352E+00 0. -1.
       -3    1    3    3    0  502 -0.11044250740E+04 -0.56343523391E+03  0.20151856195E+02  0.12400081106E+04  0.10100000352E+00 0.  1.
</event>
<event>
 5   0  0.7570277E-07  0.3938695E+04  0.7818609E-02  0.8017029E-01
       -2   -1    0    0    0  501  0.00000000000E+00  0.00000000000E+00  0.16747589171E+04  0.16747589171E+04  0.25500000920E-02 0.  1.
        2   -1    0    0  501    0  0.00000000000E+00  0.00000000000E+00 -0.23157534746E+04  0.23157534746E+04  0.25500000920E-02 0. -1.
    10030    2    1    2    0    0  0.00000000000E+00  0.00000000000E+00 -0.64099455744E+03  0.39905123917E+04  0.39386945966E+04 0.  0.
        5    1    3    3  502    0 -0.85450226980E+03 -0.17408046973E+04  0.27137181622E+02  0.19394157986E+04  0.46999998093E+01 0.  1.
       -5    1    3    3    0  502  0.85450226980E+03  0.17408046973E+04 -0.66813173906E+03  0.20510965931E+04  0.46999998093E+01 0. -1.
</event>
<event>
 5   0  0.6043512E-07  0.3670405E+04  0.7818609E-02  0.8074552E-01
        2   -1    0    0  501    0  0.00000000000E+00  0.00000000000E+00  0.25972641523E+04  0.25972641523E+04  0.25500000920E-02 0.  1.
       -2   -1    0    0    0  501  0.00000000000E+00  0.00000000000E+00 -0.12967366040E+04  0.12967366040E+04  0.25500000920E-02 0. -1.
    10030    2    1    2    0    0  0.00000000000E+00  0.00000000000E+00  0.13005275483E+04  0.38940007562E+04  0.36704046079E+04 0.  0.
        3    1    3    3  502    0  0.23194673573E+03  0.17696072757E+04  0.19684261672E+03  0.17955657115E+04  0.10100000352E+00 0.  1.
       -3    1    3    3    0  502 -0.23194673573E+03 -0.17696072757E+04  0.11036849315E+04  0.20984350447E+04  0.10100000352E+00 0. -1.
</event>
<event>
 5   0  0.7256473E-07  0.2097461E+04  0.7818609E-02  0.8562363E-01
       -2   -1    0    0    0  501  0.00000000000E+00  0.00000000000E+00  0.10316592089E+04  0.10316592089E+04  0.25500000920E-02 0.  1.
        2   -1    0    0  501    0  0.00000000000E+00  0.00000000000E+00 -0.10660842563E+04  0.10660842563E+04  0.25500000920E-02 0. -1.
    10030    2    1    2    0    0  0.00000000000E+00  0.00000000000E+00 -0.34425047389E+02  0.20977434652E+04  0.20974609799E+04 0.  0.
        4    1    3    3  502    0 -0.75002488189E+03 -0.19952003280E+03  0.68821108866E+03  0.10372953689E+04  0.12699999809E+01 0.  1.
       -4    1    3    3    0  502  0.75002488189E+03  0.19952003280E+03 -0.72263613605E+03  0.10604480963E+04  0.12699999809E+01 0. -1.
</event>
<event>
 5   0  0.7570277E-07  0.3435381E+04  0.7818609E-02  0.8129277E-01
        2   -1    0    0  501    0  0.00000000000E+00  0.00000000000E+00  0.22173488407E+04  0.22173488407E+04  0.25500000920E-02 0. -1.
       -2   -1    0    0    0  501  0.00000000000E+00  0.00000000000E+00 -0.13306252848E+04  0.13306252848E+04  0.25500000920E-02 0.  1.
    10030    2    1    2    0    0  0.00000000000E+00  0.00000000000E+00  0.88672355584E+03  0.35479741255E+04  0.34353808713E+04 0.  0.
        5    1    3    3  502    0  0.64746223744E+03  0.15817762735E+04  0.26683641316E+03  0.17298691539E+04  0.46999998093E+01 0.  1.
       -5    1    3    3    0  502 -0.64746223744E+03 -0.15817762735E+04  0.61988714268E+03  0.18181049716E+04  0.46999998093E+01 0. -1.
</event>
<event>
 5   0  0.4449262E-07  0.4076254E+04  0.7818609E-02  0.7989338E-01
        2   -1    0    0  501    0  0.00000000000E+00  0.00000000000E+00  0.21173978112E+04  0.21173978112E+04  0.25500000920E-02 0.  1.
       -2   -1    0    0    0  501  0.00000000000E+00  0.00000000000E+00 -0.19618242755E+04  0.19618242755E+04  0.25500000920E-02 0. -1.
    10030    2    1    2    0    0  0.00000000000E+00  0.00000000000E+00  0.15557353562E+03  0.40792220867E+04  0.40762543723E+04 0.  0.
        1    1    3    3  502    0 -0.36665300741E+03 -0.17181534156E+04 -0.95615315160E+03  0.20001786012E+04  0.50400001928E-02 0. -1.
       -1    1    3    3    0  502  0.36665300741E+03  0.17181534156E+04  0.11117266872E+04  0.20790434855E+04  0.50400001928E-02 0.  1.
</event>
<event>
 5   0  0.2647879E-07  0.2380361E+04  0.7818609E-02  0.8446893E-01
       -1   -1    0    0    0  501  0.00000000000E+00  0.00000000000E+00  0.13844743141E+04  0.13844743141E+04  0.50400001928E-02 0. -1.
        1   -1    0    0  501    0  0.00000000000E+00  0.00000000000E+00 -0.10231533947E+04  0.10231533947E+04  0.50400001928E-02 0.  1.
    10030    2    1    2    0    0  0.00000000000E+00  0.00000000000E+00  0.36132091943E+03  0.24076277089E+04  0.23803609763E+04 0.  0.
        2    1    3    3  502    0  0.69845473227E+03 -0.80033372096E+03 -0.36229066077E+03  0.11223313240E+04  0.25500000920E-02 0.  1.
       -2    1    3    3    0  502 -0.69845473227E+03  0.80033372096E+03  0.72361158020E+03  0.12852963849E+04  0.25500000920E-02 0. -1.
</event>
<event>
 5   0  0.2401125E-07  0.3964608E+04  0.7818609E-02  0.8011724E-01
        1   -1    0    0  501    0  0.00000000000E+00  0.00000000000E+00  0.27398422880E+04  0.27398422880E+04  0.50400001928E-02 0. -1.
       -1   -1    0    0    0  501  0.00000000000E+00  0.00000000000E+00 -0.14342173876E+04  0.14342173876E+04  0.50400001928E-02 0.  1.
    10030    2    1    2    0    0  0.00000000000E+00  0.00000000000E+00  0.13056249004E+04  0.41740596757E+04  0.39646081516E+04 0.  0.
        5    1    3    3  502    0  0.12683251171E+04  0.14529769458E+04  0.17067047244E+03  0.19362182490E+04  0.46999998093E+01 0.  1.
       -5    1    3    3    0  502 -0.12683251171E+04 -0.14529769458E+04  0.11349544279E+04  0.22378414267E+04  0.46999998093E+01 0. -1.
</event>
<event>
 5   0  0.4449262E-07  0.3965141E+04  0.7818609E-02  0.8011616E-01
        2   -1    0    0  501    0  0.00000000000E+00  0.00000000000E+00  0.35085220288E+04  0.35085220288E+04  0.25500000920E-02 0. -1.
       -2   -1    0    0    0  501  0.00000000000E+00  0.00000000000E+00 -0.11202968383E+04  0.11202968383E+04  0.25500000920E-02 0.  1.
    10030    2    1    2    0    0  0.00000000000E+00  0.00000000000E+00  0.23882251905E+04  0.46288188672E+04  0.39651411759E+04 0.  0.
        1    1    3    3  502    0 -0.13426268891E+03 -0.19717910650E+04  0.10110177556E+04  0.22199422011E+04  0.50400001928E-02 0.  1.
       -1    1    3    3    0  502  0.13426268891E+03  0.19717910650E+04  0.13772074349E+04  0.24088766661E+04  0.50400001928E-02 0. -1.
</event>
<event>
 5   0  0.2647879E-07  0.3919964E+04  0.7818609E-02  0.8020890E-01
        1   -1    0    0  501    0  0.00000000000E+00  0.00000000000E+00  0.22555033177E+04  0.22555033177E+04  0.50400001928E-02 0.  1.
       -1   -1    0    0    0  501  0.00000000000E+00  0.00000000000E+00 -0.17031807965E+04  0.17031807965E+04  0.50400001928E-02 0. -1.
    10030    2    1    2    0    0  0.00000000000E+00  0.00000000000E+00  0.55232252125E+03  0.39586841142E+04  0.39199642535E+04 0.  0.
        2    1    3    3  502    0 -0.93136581974E+03  0.17104879851E+04  0.49814719756E+03  0.20103139227E+04  0.25500000920E-02 0.  1.
       -2    1    3    3    0  502  0.93136581974E+03 -0.17104879851E+04  0.54175323685E+02  0.19483701915E+04  0.25500000920E-02 0. -1.
</event>
<event>
 5   0  0.4449262E-07  0.3539874E+04  0.7818609E-02  0.8104405E-01
        2   -1    0    0  501    0  0.00000000000E+00  0.00000000000E+00  0.22973217003E+04  0.22973217003E+04  0.25500000920E-02 0.  1.
       -2   -1    0    0    0  501  0.00000000000E+00  0.00000000000E+00 -0.13636216313E+04  0.13636216313E+04  0.25500000920E-02 0. -1.
    10030    2    1    2    0    0  0.00000000000E+00  0.00000000000E+00  0.93370006895E+03  0.36609433316E+04  0.35398743280E+04 0.  0.
        1    1    3    3  502    0  0.91802310886E+03  0.76689155284E+03 -0.88229286608E+03  0.14863814395E+04  0.50400001928E-02 0. -1.
       -1    1    3    3    0  502 -0.91802310886E+03 -0.76689155284E+03  0.18159929350E+04  0.21745618920E+04  0.50400001928E-02 0.  1.
</event>
<event>
 5   0  0.5161550E-07  0.2929754E+04  0.7818609E-02  0.8264079E-01
       -2   -1    0    0    0  501  0.00000000000E+00  0.00000000000E+00  0.11394961520E+04  0.11394961520E+04  0.25500000920E-02 0. -1.
        2   -1    0    0  501    0  0.00000000000E+00  0.00000000000E+00 -0.18831695761E+04  0.18831695761E+04  0.25500000920E-02 0.  1.
    10030    2    1    2    0    0  0.00000000000E+00  0.00000000000E+00 -0.74367342408E+03  0.30226657282E+04  0.29297539048E+04 0.  0.
        2    1    3    3  502    0 -0.11930977784E+04  0.50084049567E+03  0.33662877526E+03  0.13370274654E+04  0.25500000920E-02 0. -1.
       -2    1    3    3    0  502  0.11930977784E+04 -0.50084049567E+03 -0.10803021993E+04  0.16856382628E+04  0.25500000920E-02 0.  1.
</event>
<event>
 5   0  0.5161550E-07  0.4074407E+04  0.7818609E-02  0.7989702E-01
        2   -1    0    0  501    0  0.00000000000E+00  0.00000000000E+00  0.20109801997E+04  0.20109801997E+04  0.25500000920E-02 0. -1.
       -2   -1    0    0    0  501  0.00000000000E+00  0.00000000000E+00 -0.20637690548E+04  0.20637690548E+04  0.25500000920E-02 0.  1.
    10030    2    1    2    0    0  0.00000000000E+00  0.00000000000E+00 -0.52788855101E+02  0.40747492545E+04  0.40744072972E+04 0.  0.
        2    1    3    3  502    0  0.49958786338E+03 -0.30096687836E+03 -0.19784879639E+04  0.20626642283E+04  0.25500000920E-02 0.  1.
       -2    1    3    3    0  502 -0.49958786338E+03  0.30096687836E+03  0.19256991088E+04  0.20120850262E+04  0.25500000920E-02 0. -1.
</event>
<event>
 5   0  0.5161550E-07  0.2771265E+04  0.7818609E-02  0.8312245E-01
       -2   -1    0    0    0  501  0.00000000000E+00  0.00000000000E+00  0.83202654560E+03  0.83202654560E+03  0.25500000920E-02 0. -1.
        2   -1    0    0  501    0  0.00000000000E+00  0.00000000000E+00 -0.23075922743E+04  0.23075922743E+04  0.25500000920E-02 0.  1.
    10030    2    1    2    0    0  0.00000000000E+00  0.00000000000E+00 -0.14755657287E+04  0.31396188199E+04  0.27712654356E+04 0.  0.
        2    1    3    3  502    0 -0.99018420497E+03 -0.63643769748E+03  0.90457772200E+02  0.11805508507E+04  0.25500000920E-02 0. -1.
       -2    1    3    3    0  502  0.99018420497E+03  0.63643769748E+03 -0.15660235009E+04  0.19590679692E+04  0.25500000920E-02 0.  1.
</event>
<event>
 5   0  0.7570277E-07  0.2455764E+04  0.7818609E-02  0.8418917E-01
       -2   -1    0    0    0  501  0.00000000000E+00  0.00000000000E+00  0.19870210259E+04  0.19870210259E+04  0.25500000920E-02 0. -1.
        2   -1    0    0  501    0  0.00000000000E+00  0.00000000000E+00 -0.75877111579E+03  0.75877111579E+03  0.25500000920E-02 0.  1.
    10030    2    1    2    0    0  0.00000000000E+00  0.00000000000E+00  0.12282499102E+04  0.27457921417E+04  0.24557639634E+04 0.  0.
        5    1    3    3  502    0  0.11907035014E+04  0.12326955674E+03  0.91972030433E+03  0.15095952239E+04  0.46999998093E+01 0.  1.
       -5    1    3    3    0  502 -0.11907035014E+04 -0.12326955674E+03  0.30852960583E+03  0.12361969178E+04  0.46999998093E+01 0. -1.
</event>
<event>
 5   0  0.5161550E-07  0.3858109E+04  0.7818609E-02  0.8033798E-01
       -2   -1    0    0    0  501  0.00000000000E+00  0.00000000000E+00  0.20875133739E+04  0.20875133739E+04  0.25500000920E-02 0.  1.
        2   -1    0    0  501    0  0.00000000000E+00  0.00000000000E+00 -0.17826242969E+04  0.17826242969E+04  0.25500000920E-02 0. -1.
    10030    2    1    2    0    0  0.00000000000E+00  0.00000000000E+00  0.30488907699E+03  0.38701376708E+04  0.38581094129E+04 0.  0.
        2    1    3    3  502    0 -0.34058832465E+03 -0.83029807096E+03 -0.15604671303E+04  0.18001258173E+04  0.25500000920E-02 0.  1.
       -2    1    3    3    0  502  0.34058832465E+03  0.83029807096E+03  0.18653562073E+04  0.20700118535E+04  0.25500000920E-02 0. -1.
</event>
<event>
 5   0  0.6043512E-07  0.3045668E+04  0.7818609E-02  0.8230809E-01
       -2   -1    0    0    0  501  0.00000000000E+00  0.00000000000E+00  0.10290798599E+04  0.10290798599E+04  0.25500000920E-02 0. -1.
        2   -1    0    0  501    0  0.00000000000E+00  0.00000000000E+00 -0.22534926360E+04  0.22534926360E+04  0.25500000920E-02 0.  1.
    10030    2    1    2    0    0  0.00000000000E+00  0.00000000000E+00 -0.12244127761E+04  0.32825724958E+04  0.30456683247E+04 0.  0.
        3    1    3    3  502    0  0.93242031547E+03  0.96948592006E+02 -0.19056446876E+04  0.21237439487E+04  0.10100000352E+00 0.  1.
       -3    1    3    3    0  502 -0.93242031547E+03 -0.96948592006E+02  0.68123191147E+03  0.11588285471E+04  0.10100000352E+00 0. -1.
</event>
<event>
 5   0  0.6043512E-07  0.3897776E+04  0.7818609E-02  0.8025492E-01
        2   -1    0    0  501    0  0.00000000000E+00  0.00000000000E+00  0.22737822977E+04  0.22737822977E+04  0.25500000920E-02 0.  1.
       -2   -1    0    0    0  501  0.00000000000E+00  0.00000000000E+00 -0.16704170738E+04  0.16704170738E+04  0.25500000920E-02 0. -1.
    10030    2    1    2    0    0  0.00000000000E+00  0.00000000000E+00  0.60336522395E+03  0.39441993715E+04  0.38977761722E+04 0.  0.
        3    1    3    3  502    0 -0.39366461519E+03  0.17211585406E+04  0.11366196323E+04  0.20998244569E+04  0.10100000352E+00 0.  1.
       -3    1    3    3    0  502  0.39366461519E+03 -0.17211585406E+04 -0.53325440833E+03  0.18443749145E+04  0.10100000352E+00 0. -1.
</event>
<event>
 5   0  0.4449262E-07  0.3905001E+04  0.7818609E-02  0.8023990E-01
        2   -1    0    0  501    0  0.00000000000E+00  0.00000000000E+00  0.25423942328E+04  0.25423942328E+04  0.25500000920E-02 0. -1.
       -2   -1    0    0    0  501  0.00000000000E+00  0.00000000000E+00 -0.14994753298E+04  0.14994753298E+04  0.25500000920E-02 0.  1.
    10030    2    1    2    0    0  0.00000000000E+00  0.00000000000E+00  0.10429189030E+04  0.40418695625E+04  0.39050006046E+04 0.  0.
        1    1    3    3  502    0  0.12894056548E+04 -0.13143345884E+03 -0.99000218219E+03  0.16309340936E+04  0.50400001928E-02 0.  1.
       -1    1    3    3    0  502 -0.12894056548E+04  0.13143345884E+03  0.20329210852E+04  0.24109354690E+04  0.50400001928E-02 0. -1.
</event>
<event>
 5   0  0.2601252E-07  0.3819302E+04  0.7818609E-02  0.8042025E-01
       -1   -1    0    0    0  501  0.00000000000E+00  0.00000000000E+00  0.16571605864E+04  0.16571605864E+04  0.50400001928E-02 0. -1.
        1   -1    0    0  501    0  0.00000000000E+00  0.00000000000E+00 -0.22006120495E+04  0.22006120495E+04  0.50400001928E-02 0.  1.
    10030    2    1    2    0    0  0.00000000000E+00  0.00000000000E+00 -0.54345146316E+03  0.38577726359E+04  0.38193023208E+04 0.  0.
        3    1    3    3  502    0 -0.76780748965E+03  0.63844803769E+03 -0.19158879304E+04  0.21605024439E+04  0.10100000352E+00 0.  1.
       -3    1    3    3    0  502  0.76780748965E+03 -0.63844803769E+03  0.13724364672E+04  0.16972701920E+04  0.10100000352E+00 0. -1.
</event>
<event>
 5   0  0.2401125E-07  0.4738949E+04  0.7818609E-02  0.7870089E-01
       -1   -1    0    0    0  501  0.00000000000E+00  0.00000000000E+00  0.28305043119E+04  0.28305043119E+04  0.50400001928E-02 0. -1.
        1   -1    0    0  501    0  0.00000000000E+00  0.00000000000E+00 -0.19835365293E+04  0.19835365293E+04  0.50400001928E-02 0.  1.
    10030    2    1    2    0    0  0.00000000000E+00  0.00000000000E+00  0.84696778268E+03  0.48140408412E+04  0.47389487016E+04 0.  0.
        5    1    3    3  502    0  0.15948680539E+03 -0.23293435357E+04  0.83375135102E+03  0.24792016364E+04  0.46999998093E+01 0.  1.
       -5    1    3    3    0  502 -0.15948680539E+03  0.23293435357E+04  0.13216431658E+02  0.23348392048E+04  0.46999998093E+01 0. -1.
</event>
<event>
 5   0  0.3579559E-07  0.2000894E+04  0.7818609E-02  0.8606203E-01
        1   -1    0    0  501    0  0.00000000000E+00  0.00000000000E+00  0.92509260660E+03  0.92509260662E+03  0.50400001928E-02 0. -1.
       -1   -1    0    0    0  501  0.00000000000E+00  0.00000000000E+00 -0.10819398253E+04  0.10819398253E+04  0.50400001928E-02 0.  1.
    10030    2    1    2    0    0  0.00000000000E+00  0.00000000000E+00 -0.15684721871E+03  0.20070324319E+04  0.20008943333E+04 0.  0.
        4    1    3    3  502    0  0.14471952224E+02  0.60616004567E+03 -0.87663703713E+03  0.10658956544E+04  0.12699999809E+01 0.  1.
       -4    1    3    3    0  502 -0.14471952224E+02 -0.60616004567E+03  0.71978981843E+03  0.94113677751E+03  0.12699999809E+01 0. -1.
</event>
<event>
 5   0  0.4449262E-07  0.3996602E+04  0.7818609E-02  0.8005232E-01
       -2   -1    0    0    0  501  0.00000000000E+00  0.00000000000E+00  0.23127112422E+04  0.23127112422E+04  0.25500000920E-02 0.  1.
        2   -1    0    0  501    0  0.00000000000E+00  0.00000000000E+00 -0.17266346595E+04  0.17266346595E+04  0.25500000920E-02 0. -1.
    10030    2    1    2    0    0  0.00000000000E+00  0.00000000000E+00  0.58607658272E+03  0.40393459018E+04  0.39966022511E+04 0.  0.
        1    1    3    3  502    0  0.17809107926E+04  0.52685998351E+03  0.10384782313E+04  0.21278302871E+04  0.50400001928E-02 0.  1.
       -1    1    3    3    0  502 -0.17809107926E+04 -0.52685998351E+03 -0.45240164861E+03  0.19115156147E+04  0.50400001928E-02 0. -1.
</event>
<event>
 5   0  0.6043512E-07  0.4095201E+04  0.7818609E-02  0.7985612E-01
        2   -1    0    0  501    0  0.00000000000E+00  0.00000000000E+00  0.14392899722E+04  0.14392899722E+04  0.25500000920E-02 0. -1.
       -2   -1    0    0    0  501  0.00000000000E+00  0.00000000000E+00 -0.29130114131E+04  0.29130114131E+04  0.25500000920E-02 0.  1.
    10030    2    1    2    0    0  0.00000000000E+00  0.00000000000E+00 -0.14737214409E+04  0.43523013854E+04  0.40952011506E+04 0.  0.
        3    1    3    3  502    0 -0.76812463593E+03 -0.14040643349E+03 -0.27485616234E+04  0.28573274980E+04  0.10100000352E+00 0.  1.
       -3    1    3    3    0  502  0.76812463593E+03  0.14040643349E+03  0.12748401825E+04  0.14949738874E+04  0.10100000352E+00 0. -1.
</event>
<event>
 5   0  0.5161550E-07  0.3995030E+04  0.7818609E-02  0.8005550E-01
        2   -1    0    0  501    0  0.00000000000E+00  0.00000000000E+00  0.23110099843E+04  0.23110099843E+04  0.25500000920E-02 0. -1.
       -2   -1    0    0    0  501  0.00000000000E+00  0.00000000000E+00 -0.17265468730E+04  0.17265468730E+04  0.25500000920E-02 0.  1.
    10030    2    1    2    0    0  0.00000000000E+00  0.00000000000E+00  0.58446311126E+03  0.40375568573E+04  0.39950304438E+04 0.  0.
        2    1    3    3  502    0 -0.19498404246E+04 -0.33057381095E+02 -0.14491946226E+03  0.19554979219E+04  0.25500000920E-02 0.  1.
       -2    1    3    3    0  502  0.19498404246E+04  0.33057381095E+02  0.72938257352E+03  0.20820589354E+04  0.25500000920E-02 0. -1.
</event>
<event>
 5   0  0.2401125E-07  0.3665351E+04  0.7818609E-02  0.8075684E-01
        1   -1    0    0  501    0  0.00000000000E+00  0.00000000000E+00  0.18913744535E+04  0.18913744535E+04  0.50400001928E-02 0.  1.
       -1   -1    0    0    0  501  0.00000000000E+00  0.00000000000E+00 -0.17757983708E+04  0.17757983708E+04  0.50400001928E-02 0. -1.
    10030    2    1    2    0    0  0.00000000000E+00  0.00000000000E+00  0.11557608266E+03  0.36671728243E+04  0.36653511008E+04 0.  0.
        5    1    3    3  502    0  0.92292385333E+03  0.83783653412E+03  0.14019285343E+04  0.18759488805E+04  0.46999998093E+01 0.  1.
       -5    1    3    3    0  502 -0.92292385333E+03 -0.83783653412E+03 -0.12863524516E+04  0.17912239438E+04  0.46999998093E+01 0. -1.
</event>
<event>
 5   0  0.2647879E-07  0.3858382E+04  0.7818609E-02  0.8033741E-01
       -1   -1    0    0    0  501  0.00000000000E+00  0.00000000000E+00  0.18583703297E+04  0.18583703297E+04  0.50400001928E-02 0.  1.
        1   -1    0    0  501    0  0.00000000000E+00  0.00000000000E+00 -0.20027102918E+04  0.20027102918E+04  0.50400001928E-02 0. -1.
    10030    2    1    2    0    0  0.00000000000E+00  0.00000000000E+00 -0.14433996209E+03  0.38610806216E+04  0.38583817258E+04 0.  0.
        2    1    3    3  502    0 -0.71681505418E+03 -0.13817138239E+04  0.10682852480E+04  0.18879063229E+04  0.25500000920E-02 0.  1.
       -2    1    3    3    0  502  0.71681505418E+03  0.13817138239E+04 -0.12126252101E+04  0.19731742987E+04  0.25500000920E-02 0. -1.
</event>
<event>
 5   0  0.7256473E-07  0.3986236E+04  0.7818609E-02  0.8007329E-01
       -2   -1    0    0    0  501  0.00000000000E+00  0.00000000000E+00  0.19769109074E+04  0.19769109074E+04  0.25500000920E-02 0.  1.
        2   -1    0    0  501    0  0.00000000000E+00  0.00000000000E+00 -0.20094583245E+04  0.20094583245E+04  0.25500000920E-02 0. -1.
    10030    2    1    2    0    0  0.00000000000E+00  0.00000000000E+00 -0.32547417049E+02  0.39863692319E+04  0.39862363601E+04 0.  0.
        4    1    3    3  502    0 -0.99242027981E+03 -0.15030603260E+04 -0.86978332945E+03  0.20001532463E+04  0.12699999809E+01 0. -1.
       -4    1    3    3    0  502  0.99242027981E+03  0.15030603260E+04  0.83723591240E+03  0.19862159856E+04  0.12699999809E+01 0.  1.
</event>
<event>
 5   0  0.7256473E-07  0.3855280E+04  0.7818609E-02  0.8034395E-01
       -2   -1    0    0    0  501  0.00000000000E+00  0.00000000000E+00  0.27490287639E+04  0.27490287639E+04  0.25500000920E-02 0. -1.
        2   -1    0    0  501    0  0.00000000000E+00  0.00000000000E+00 -0.13516760185E+04  0.13516760185E+04  0.25500000920E-02 0.  1.
    10030    2    1    2    0    0  0.00000000000E+00  0.00000000000E+00  0.13973527453E+04  0.41007047824E+04  0.38552801477E+04 0.  0.
        4    1    3    3  502    0 -0.91648466404E+03  0.63955291124E+03 -0.97191994547E+03  0.14810813816E+04  0.12699999809E+01 0.  1.
       -4    1    3    3    0  502  0.91648466404E+03 -0.63955291124E+03  0.23692726908E+04  0.26196234008E+04  0.12699999809E+01 0. -1.
</event>
<event>
 5   0  0.5161550E-07  0.3767819E+04  0.7818609E-02  0.8053096E-01
        2   -1    0    0  501    0  0.00000000000E+00  0.00000000000E+00  0.16288282105E+04  0.16288282105E+04  0.25500000920E-02 0.  1.
       -2   -1    0    0    0  501  0.00000000000E+00  0.00000000000E+00 -0.21789371381E+04  0.21789371381E+04  0.25500000920E-02 0. -1.
    10030    2    1    2    0    0  0.00000000000E+00  0.00000000000E+00 -0.55010892766E+03  0.38077653486E+04  0.37678186153E+04 0.  0.
        2    1    3    3  502    0 -0.17693737740E+04 -0.20209459329E+03  0.34594263434E+03  0.18141670494E+04  0.25500000920E-02 0.  1.
       -2    1    3    3    0  502  0.17693737740E+04  0.20209459329E+03 -0.89605156200E+03  0.19935982992E+04  0.25500000920E-02 0. -1.
</event>
<event>
 5   0  0.2713405E-07  0.3739076E+04  0.7818609E-02  0.8059357E-01
        1   -1    0    0  501    0  0.00000000000E+00  0.00000000000E+00  0.26456146492E+04  0.26456146492E+04  0.50400001928E-02 0.  1.
       -1   -1    0    0    0  501  0.00000000000E+00  0.00000000000E+00 -0.13211191079E+04  0.13211191079E+04  0.50400001928E-02 0. -1.
    10030    2    1    2    0    0  0.00000000000E+00  0.00000000000E+00  0.13244955413E+04  0.39667337571E+04  0.37390758565E+04 0.  0.
        1    1    3    3  502    0 -0.90185630486E+03 -0.70562611390E+03 -0.90553917950E+03  0.14598815749E+04  0.50400001928E-02 0. -1.
       -1    1    3    3    0  502  0.90185630486E+03  0.70562611390E+03  0.22300347208E+04  0.25068521822E+04  0.50400001928E-02 0.  1.
</event>
<event>
 5   0  0.2401125E-07  0.3941860E+04  0.7818609E-02  0.8016379E-01
        1   -1    0    0  501    0  0.00000000000E+00  0.00000000000E+00  0.31318802627E+04  0.31318802627E+04  0.50400001928E-02 0.  1.
       -1   -1    0    0    0  501  0.00000000000E+00  0.00000000000E+00 -0.12403302608E+04  0.12403302609E+04  0.50400001928E-02 0. -1.
    10030    2    1    2    0    0  0.00000000000E+00  0.00000000000E+00  0.18915500019E+04  0.43722105236E+04  0.39418604051E+04 0.  0.
        5    1    3    3  502    0  0.95219908494E+03 -0.17152372805E+04  0.73584562769E+03  0.20952834900E+04  0.46999998093E+01 0.  1.
       -5    1    3    3    0  502 -0.95219908494E+03  0.17152372805E+04  0.11557043742E+04  0.22769270336E+04  0.46999998093E+01 0. -1.
</event>
<event>
 5   0  0.2647879E-07  0.3976242E+04  0.7818609E-02  0.8009357E-01
        1   -1    0    0  501    0  0.00000000000E+00  0.00000000000E+00  0.14770137779E+04  0.14770137780E+04  0.50400001928E-02 0. -1.
       -1   -1    0    0    0  501  0.00000000000E+00  0.00000000000E+00 -0.26760920813E+04  0.26760920813E+04  0.50400001928E-02 0.  1.
    10030    2    1    2    0    0  0.00000000000E+00  0.00000000000E+00 -0.11990783033E+04  0.41531058592E+04  0.39762418815E+04 0.  0.
        2    1    3    3  502    0  0.76548211237E+03 -0.19116836716E+02 -0.25158960401E+04  0.26298405279E+04  0.25500000920E-02 0.  1.
       -2    1    3    3    0  502 -0.76548211237E+03  0.19116836716E+02  0.13168177367E+04  0.15232653313E+04  0.25500000920E-02 0. -1.
</event>
<event>
 5   0  0.7570277E-07  0.4081146E+04  0.7818609E-02  0.7988374E-01
        2   -1    0    0  501    0  0.00000000000E+00  0.00000000000E+00  0.15885176430E+04  0.15885176430E+04  0.25500000920E-02 0.  1.
       -2   -1    0    0    0  501  0.00000000000E+00  0.00000000000E+00 -0.26212724380E+04  0.26212724380E+04  0.25500000920E-02 0. -1.
    10030    2    1    2    0    0  0.00000000000E+00  0.00000000000E+00 -0.10327547950E+04  0.42097900810E+04  0.40811456798E+04 0.  0.
        5    1    3    3  502    0  0.78267317530E+03  0.12550891657E+04  0.93366809462E+03  0.17491667485E+04  0.46999998093E+01 0.  1.
       -5    1    3    3    0  502 -0.78267317530E+03 -0.12550891657E+04 -0.19664228897E+04  0.24606233325E+04  0.46999998093E+01 0. -1.
</event>
<event>
 5   0  0.5161550E-07  0.4130450E+04  0.7818609E-02  0.7978736E-01
        2   -1    0    0  501    0  0.00000000000E+00  0.00000000000E+00  0.20217893368E+04  0.20217893368E+04  0.25500000920E-02 0.  1.
       -2   -1    0    0    0  501  0.00000000000E+00  0.00000000000E+00 -0.21095938061E+04  0.21095938061E+04  0.25500000920E-02 0. -1.
    10030    2    1    2    0    0  0.00000000000E+00  0.00000000000E+00 -0.87804469299E+02  0.41313831428E+04  0.41304499813E+04 0.  0.
        2    1    3    3  502    0  0.12273628028E+04  0.16247852029E+04  0.30086079370E+03  0.20583643075E+04  0.25500000920E-02 0.  1.
       -2    1    3    3    0  502 -0.12273628028E+04 -0.16247852029E+04 -0.38866526300E+03  0.20730188354E+04  0.25500000920E-02 0. -1.
</event>
<event>
 5   0  0.6043512E-07  0.3989694E+04  0.7818609E-02  0.8006629E-01
        2   -1    0    0  501    0  0.00000000000E+00  0.00000000000E+00  0.22141467666E+04  0.22141467666E+04  0.25500000920E-02 0.  1.
       -2   -1    0    0    0  501  0.00000000000E+00  0.00000000000E+00 -0.17972675922E+04  0.17972675922E+04  0.25500000920E-02 0. -1.
    10030    2    1    2    0    0  0.00000000000E+00  0.00000000000E+00  0.41687917440E+03  0.40114143588E+04  0.39896938368E+04 0.  0.
        3    1    3    3  502    0  0.18759060898E+04  0.25617293021E+00  0.89065437502E+03  0.20766051500E+04  0.10100000352E+00 0.  1.
       -3    1    3    3    0  502 -0.18759060898E+04 -0.25617293021E+00 -0.47377520062E+03  0.19348092087E+04  0.10100000352E+00 0. -1.
</event>
<event>
 5   0  0.3579559E-07  0.3898349E+04  0.7818609E-02  0.8025373E-01
       -1   -1    0    0    0  501  0.00000000000E+00  0.00000000000E+00  0.15801484913E+04  0.15801484914E+04  0.50400001928E-02 0. -1.
        1   -1    0    0  501    0  0.00000000000E+00  0.00000000000E+00 -0.24043829036E+04  0.24043829036E+04  0.50400001928E-02 0.  1.
    10030    2    1    2    0    0  0.00000000000E+00  0.00000000000E+00 -0.82423441224E+03  0.39845313950E+04  0.38983494034E+04 0.  0.
        4    1    3    3  502    0 -0.10500705936E+03  0.57787158678E+03  0.14875506373E+04  0.15993031498E+04  0.12699999809E+01 0. -1.
       -4    1    3    3    0  502  0.10500705936E+03 -0.57787158678E+03 -0.23117850496E+04  0.23852282452E+04  0.12699999809E+01 0.  1.
</event>
<event>
 5   0  0.7256473E-07  0.3668807E+04  0.7818609E-02  0.8074910E-01
       -2   -1    0    0    0  501  0.00000000000E+00  0.00000000000E+00  0.10503686273E+04  0.10503686273E+04  0.25500000920E-02 0.  1.
        2   -1    0    0  501    0  0.00000000000E+00  0.00000000000E+00 -0.32036709150E+04  0.32036709150E+04  0.25500000920E-02 0. -1.
    10030    2    1    2    0    0  0.00000000000E+00  0.00000000000E+00 -0.21533022877E+04  0.42540395422E+04  0.36688065750E+04 0.  0.
        4    1    3    3  502    0  0.57191158012E+03 -0.17179444426E+04 -0.14179072209E+04  0.22997561747E+04  0.12699999809E+01 0. -1.
       -4    1    3    3    0  502 -0.57191158012E+03  0.17179444426E+04 -0.73539506682E+03  0.19542833675E+04  0.12699999809E+01 0.  1.
</event>
<event>
 5   0  0.2647879E-07  0.3947841E+04  0.7818609E-02  0.8015152E-01
       -1   -1    0    0    0  501  0.00000000000E+00  0.00000000000E+00  0.19737493577E+04  0.19737493577E+04  0.50400001928E-02 0. -1.
        1   -1    0    0  501    0  0.00000000000E+00  0.00000000000E+00 -0.19740917829E+04  0.19740917829E+04  0.50400001928E-02 0.  1.
    10030    2    1    2    0    0  0.00000000000E+00  0.00000000000E+00 -0.34242519390E+00  0.39478411406E+04  0.39478411257E+04 0.  0.
        2    1    3    3  502    0 -0.94303601712E+02  0.17934931200E+04  0.81888412910E+03  0.19738495276E+04  0.25500000920E-02 0. -1.
       -2    1    3    3    0  502  0.94303601712E+02 -0.17934931200E+04 -0.81922655429E+03  0.19739916130E+04  0.25500000920E-02 0.  1.
</event>
<event>
 5   0  0.6043512E-07  0.3976828E+04  0.7818609E-02  0.8009237E-01
       -2   -1    0    0    0  501  0.00000000000E+00  0.00000000000E+00  0.14587050350E+04  0.14587050350E+04  0.25500000920E-02 0.  1.
        2   -1    0    0  501    0  0.00000000000E+00  0.00000000000E+00 -0.27104802376E+04  0.27104802376E+04  0.25500000920E-02 0. -1.
    10030    2    1    2    0    0  0.00000000000E+00  0.00000000000E+00 -0.12517752026E+04  0.41691852726E+04  0.39768284699E+04 0.  0.
        3    1    3    3  502    0 -0.26180223473E+03 -0.10889425085E+04 -0.23483604260E+04  0.26017557337E+04  0.10100000352E+00 0. -1.
       -3    1    3    3    0  502  0.26180223473E+03  0.10889425085E+04  0.10965852234E+04  0.15674295389E+04  0.10100000352E+00 0.  1.
</event>
<event>
 5   0  0.7256473E-07  0.3972093E+04  0.7818609E-02  0.8010200E-01
       -2   -1    0    0    0  501  0.00000000000E+00  0.00000000000E+00  0.18499925499E+04  0.18499925499E+04  0.25500000920E-02 0.  1.
        2   -1    0    0  501    0  0.00000000000E+00  0.00000000000E+00 -0.21321064387E+04  0.21321064387E+04  0.25500000920E-02 0. -1.
    10030    2    1    2    0    0  0.00000000000E+00  0.00000000000E+00 -0.28211388886E+03  0.39820989886E+04  0.39720931647E+04 0.  0.
        4    1    3    3  502    0 -0.10974752141E+04  0.21365130591E+03  0.15045042776E+04  0.18744688475E+04  0.12699999809E+01 0.  1.
       -4    1    3    3    0  502  0.10974752141E+04 -0.21365130591E+03 -0.17866181664E+04  0.21076301411E+04  0.12699999809E+01 0. -1.
</event>
<event>
 5   0  0.6043512E-07  0.3257111E+04  0.7818609E-02  0.8173895E-01
        2   -1    0    0  501    0  0.00000000000E+00  0.00000000000E+00  0.25793752510E+04  0.25793752510E+04  0.25500000920E-02 0. -1.
       -2   -1    0    0    0  501  0.00000000000E+00  0.00000000000E+00 -0.10282305702E+04  0.10282305702E+04  0.25500000920E-02 0.  1.
    10030    2    1    2    0    0  0.00000000000E+00  0.00000000000E+00  0.15511446809E+04  0.36076058212E+04  0.32571106736E+04 0.  0.
        3    1    3    3  502    0 -0.32997586501E+03  0.21866844506E+03 -0.97413212033E+03  0.10514910168E+04  0.10100000352E+00 0.  1.
       -3    1    3    3    0  502  0.32997586501E+03 -0.21866844506E+03  0.25252768012E+04  0.25561148044E+04  0.10100000352E+00 0. -1.
</event>
<event>
 5   0  0.6043512E-07  0.4027102E+04  0.7818609E-02  0.7999101E-01
       -2   -1    0    0    0  501  0.00000000000E+00  0.00000000000E+00  0.20592965764E+04  0.20592965764E+04  0.25500000920E-02 0.  1.
        2   -1    0    0  501    0  0.00000000000E+00  0.00000000000E+00 -0.19688216257E+04  0.19688216257E+04  0.25500000920E-02 0. -1.
    10030    2    1    2    0    0  0.00000000000E+00  0.00000000000E+00  0.90474950656E+02  0.40281182021E+04  0.40271020019E+04 0.  0.
        3    1    3    3  502    0 -0.16858163647E+03  0.14114485977E+04 -0.13812292261E+04  0.19820194493E+04  0.10100000352E+00 0. -1.
       -3    1    3    3    0  502  0.16858163647E+03 -0.14114485977E+04  0.14717041768E+04  0.20460987528E+04  0.10100000352E+00 0.  1.
</event>
<event>
 5   0  0.6043512E-07  0.4160227E+04  0.7818609E-02  0.7972981E-01
       -2   -1    0    0    0  501  0.00000000000E+00  0.00000000000E+00  0.22415761572E+04  0.22415761572E+04  0.25500000920E-02 0.  1.
        2   -1    0    0  501    0  0.00000000000E+00  0.00000000000E+00 -0.19302815212E+04  0.19302815212E+04  0.25500000920E-02 0. -1.
    10030    2    1    2    0    0  0.00000000000E+00  0.00000000000E+00  0.31129463601E+03  0.41718576784E+04  0.41602274143E+04 0.  0.
        3    1    3    3  502    0 -0.11381556690E+04  0.28967914497E+03  0.18772930516E+04  0.22143941713E+04  0.10100000352E+00 0.  1.
       -3    1    3    3    0  502  0.11381556690E+04 -0.28967914497E+03 -0.15659984156E+04  0.19574635071E+04  0.10100000352E+00 0. -1.
</event>
<event>
 5   0  0.4449262E-07  0.4045195E+04  0.7818609E-02  0.7995491E-01
        2   -1    0    0  501    0  0.00000000000E+00  0.00000000000E+00  0.27982896997E+04  0.27982896997E+04  0.25500000920E-02 0. -1.
       -2   -1    0    0    0  501  0.00000000000E+00  0.00000000000E+00 -0.14619288825E+04  0.14619288825E+04  0.25500000920E-02 0.  1.
    10030    2    1    2    0    0  0.00000000000E+00  0.00000000000E+00  0.13363608172E+04  0.42602185822E+04  0.40451949440E+04 0.  0.
        1    1    3    3  502    0  0.12485454975E+04  0.83710091464E+03  0.20933671942E+04  0.25771670514E+04  0.50400001928E-02 0. -1.
       -1    1    3    3    0  502 -0.12485454975E+04 -0.83710091464E+03 -0.75700637702E+03  0.16830515309E+04  0.50400001928E-02 0.  1.
</event>
<event>
 5   0  0.7570277E-07  0.3685113E+04  0.7818609E-02  0.8071269E-01
        2   -1    0    0  501    0  0.00000000000E+00  0.00000000000E+00  0.16737132443E+04  0.16737132443E+04  0.25500000920E-02 0. -1.
       -2   -1    0    0    0  501  0.00000000000E+00  0.00000000000E+00 -0.20284329344E+04  0.20284329344E+04  0.25500000920E-02 0.  1.
    10030    2    1    2    0    0  0.00000000000E+00  0.00000000000E+00 -0.35471969017E+03  0.37021461787E+04  0.36851133320E+04 0.  0.
        5    1    3    3  502    0  0.15162696215E+04  0.22824467880E+03  0.84903936035E+03  0.17527290504E+04  0.46999998093E+01 0.  1.
       -5    1    3    3    0  502 -0.15162696215E+04 -0.22824467880E+03 -0.12037590505E+04  0.19494171283E+04  0.46999998093E+01 0. -1.
</event>
<event>
 5   0  0.7256473E-07  0.2777236E+04  0.7818609E-02  0.8310371E-01
       -2   -1    0    0    0  501  0.00000000000E+00  0.00000000000E+00  0.11171661611E+04  0.11171661611E+04  0.25500000920E-02 0.  1.
        2   -1    0    0  501    0  0.00000000000E+00  0.00000000000E+00 -0.17260278368E+04  0.17260278368E+04  0.25500000920E-02 0. -1.
    10030    2    1    2    0    0  0.00000000000E+00  0.00000000000E+00 -0.60886167566E+03  0.28431939979E+04  0.27772359586E+04 0.  0.
        4    1    3    3  502    0  0.89303584410E+03  0.21196477604E+03 -0.13712034843E+04  0.16500432399E+04  0.12699999809E+01 0. -1.
       -4    1    3    3    0  502 -0.89303584410E+03 -0.21196477604E+03  0.76234180869E+03  0.11931507580E+04  0.12699999809E+01 0.  1.
</event>
<event>
 5   0  0.2713405E-07  0.3991875E+04  0.7818609E-02  0.8006188E-01
        1   -1    0    0  501    0  0.00000000000E+00  0.00000000000E+00  0.18376353065E+04  0.18376353065E+04  0.50400001928E-02 0. -1.
       -1   -1    0    0    0  501  0.00000000000E+00  0.00000000000E+00 -0.21678769672E+04  0.21678769672E+04  0.50400001928E-02 0.  1.
    10030    2    1    2    0    0  0.00000000000E+00  0.00000000000E+00 -0.33024166065E+03  0.40055122737E+04  0.39918753764E+04 0.  0.
        1    1    3    3  502    0  0.92756995701E+03 -0.13928684736E+04 -0.12566322306E+04  0.20927477566E+04  0.50400001928E-02 0.  1.
       -1    1    3    3    0  502 -0.92756995701E+03  0.13928684736E+04  0.92639056997E+03  0.19127645171E+04  0.50400001928E-02 0. -1.
</event>
<event>
 5   0  0.4449262E-07  0.3913977E+04  0.7818609E-02  0.8022129E-01
       -2   -1    0    0    0  501  0.00000000000E+00  0.00000000000E+00  0.16341342946E+04  0.16341342946E+04  0.25500000920E-02 0. -1.
        2   -1    0    0  501    0  0.00000000000E+00  0.00000000000E+00 -0.23436280918E+04  0.23436280918E+04  0.25500000920E-02 0.  1.
    10030    2    1    2    0    0  0.00000000000E+00  0.00000000000E+00 -0.70949379719E+03  0.39777623865E+04  0.39139765143E+04 0.  0.
        1    1    3    3  502    0 -0.15928820546E+04 -0.31356032914E+03  0.75586141996E+03  0.17907874821E+04  0.50400001928E-02 0.  1.
       -1    1    3    3    0  502  0.15928820546E+04  0.31356032914E+03 -0.14653552172E+04  0.21869749044E+04  0.50400001928E-02 0. -1.
</event>
<event>
 5   0  0.2647879E-07  0.1973874E+04  0.7818609E-02  0.8618934E-01
       -1   -1    0    0    0  501  0.00000000000E+00  0.00000000000E+00  0.17877213623E+04  0.17877213623E+04  0.50400001928E-02 0. -1.
        1   -1    0    0  501    0  0.00000000000E+00  0.00000000000E+00 -0.54485253990E+03  0.54485253992E+03  0.50400001928E-02 0.  1.
    10030    2    1    2    0    0  0.00000000000E+00  0.00000000000E+00  0.12428688224E+04  0.23325739022E+04  0.19738738814E+04 0.  0.
        2    1    3    3  502    0  0.90076772484E+03 -0.68874807736E+01  0.14489835026E+03  0.91237353284E+03  0.25500000920E-02 0. -1.
       -2    1    3    3    0  502 -0.90076772484E+03  0.68874807736E+01  0.10979704721E+04  0.14202003694E+04  0.25500000920E-02 0.  1.
</event>
<event>
 5   0  0.4449262E-07  0.2953165E+04  0.7818609E-02  0.8257233E-01
       -2   -1    0    0    0  501  0.00000000000E+00  0.00000000000E+00  0.72560360810E+03  0.72560360810E+03  0.25500000920E-02 0. -1.
        2   -1    0    0  501    0  0.00000000000E+00  0.00000000000E+00 -0.30048027636E+04  0.30048027636E+04  0.25500000920E-02 0.  1.
    10030    2    1    2    0    0  0.00000000000E+00  0.00000000000E+00 -0.22791991555E+04  0.37304063717E+04  0.29531648968E+04 0.  0.
        1    1    3    3  502    0 -0.12997021328E+04  0.68956835495E+03 -0.98200144970E+03  0.17689140729E+04  0.50400001928E-02 0. -1.
       -1    1    3    3    0  502  0.12997021328E+04 -0.68956835495E+03 -0.12971977058E+04  0.19614922988E+04  0.50400001928E-02 0.  1.
</event>
<event>
 5   0  0.2601252E-07  0.3897020E+04  0.7818609E-02  0.8025649E-01
        1   -1    0    0  501    0  0.00000000000E+00  0.00000000000E+00  0.11881020298E+04  0.11881020298E+04  0.50400001928E-02 0. -1.
       -1   -1    0    0    0  501  0.00000000000E+00  0.00000000000E+00 -0.31955931484E+04  0.31955931484E+04  0.50400001928E-02 0.  1.
    10030    2    1    2    0    0  0.00000000000E+00  0.00000000000E+00 -0.20074911186E+04  0.43836951783E+04  0.38970197363E+04 0.  0.
        3    1    3    3  502    0  0.41589447319E+02  0.39718233192E+03  0.11415728724E+04  0.12094098231E+04  0.10100000352E+00 0. -1.
       -3    1    3    3    0  502 -0.41589447319E+02 -0.39718233192E+03 -0.31490639910E+04  0.31742853552E+04  0.10100000352E+00 0.  1.
</event>
<event>
 5   0  0.2647879E-07  0.2237160E+04  0.7818609E-02  0.8503119E-01
        1   -1    0    0  501    0  0.00000000000E+00  0.00000000000E+00  0.11958438844E+04  0.11958438845E+04  0.50400001928E-02 0. -1.
       -1   -1    0    0    0  501  0.00000000000E+00  0.00000000000E+00 -0.10463081176E+04  0.10463081176E+04  0.50400001928E-02 0.  1.
    10030    2    1    2    0    0  0.00000000000E+00  0.00000000000E+00  0.14953576683E+03  0.22421520021E+04  0.22371599529E+04 0.  0.
        2    1    3    3  502    0  0.20458531871E+03  0.32131981393E+03 -0.97930115431E+03  0.10507770107E+04  0.25500000920E-02 0.  1.
       -2    1    3    3    0  502 -0.20458531871E+03 -0.32131981393E+03  0.11288369211E+04  0.11913749913E+04  0.25500000920E-02 0. -1.
</event>
<event>
 5   0  0.4449262E-07  0.3914587E+04  0.7818609E-02  0.8022002E-01
        2   -1    0    0  501    0  0.00000000000E+00  0.00000000000E+00  0.25474869219E+04  0.25474869219E+04  0.25500000920E-02 0. -1.
       -2   -1    0    0    0  501  0.00000000000E+00  0.00000000000E+00 -0.15038343050E+04  0.15038343050E+04  0.25500000920E-02 0.  1.
    10030    2    1    2    0    0  0.00000000000E+00  0.00000000000E+00  0.10436526169E+04  0.40513212269E+04  0.39145871939E+04 0.  0.
        1    1    3    3  502    0 -0.50845817909E+03  0.18803059369E+04  0.72067846714E+03  0.20768865134E+04  0.50400001928E-02 0. -1.
       -1    1    3    3    0  502  0.50845817909E+03 -0.18803059369E+04  0.32297414975E+03  0.19744347135E+04  0.50400001928E-02 0.  1.
</event>
<event>
 5   0  0.2401125E-07  0.2604722E+04  0.7818609E-02  0.8366599E-01
        1   -1    0    0  501    0  0.00000000000E+00  0.00000000000E+00  0.14807496823E+04  0.14807496823E+04  0.50400001928E-02 0.  1.
       -1   -1    0    0    0  501  0.00000000000E+00  0.00000000000E+00 -0.11454628155E+04  0.11454628156E+04  0.50400001928E-02 0. -1.
    10030    2    1    2    0    0  0.00000000000E+00  0.00000000000E+00  0.33528686678E+03  0.26262124979E+04  0.26047216360E+04 0.  0.
        5    1    3    3  502    0  0.12353346999E+04 -0.22387592151E+03 -0.18155116403E+03  0.12685247984E+04  0.46999998093E+01 0. -1.
       -5    1    3    3    0  502 -0.12353346999E+04  0.22387592151E+03  0.51683803081E+03  0.13576876994E+04  0.46999998093E+01 0.  1.
</event>
<event>
 5   0  0.2713405E-07  0.3336826E+04  0.7818609E-02  0.8153588E-01
        1   -1    0    0  501    0  0.00000000000E+00  0.00000000000E+00  0.22115459212E+04  0.22115459212E+04  0.50400001928E-02 0. -1.
       -1   -1    0    0    0  501  0.00000000000E+00  0.00000000000E+00 -0.12586680456E+04  0.12586680456E+04  0.50400001928E-02 0.  1.
    10030    2    1    2    0    0  0.00000000000E+00  0.00000000000E+00  0.95287787565E+03  0.34702139668E+04  0.33368261461E+04 0.  0.
        1    1    3    3  502    0 -0.87127583014E+02 -0.10553346909E+04  0.18172720257E+04  0.21032831814E+04  0.50400001928E-02 0. -1.
       -1    1    3    3    0  502  0.87127583014E+02  0.10553346909E+04 -0.86439415003E+03  0.13669307855E+04  0.50400001928E-02 0.  1.
</event>
<event>
 5   0  0.7570277E-07  0.3165838E+04  0.7818609E-02  0.8197898E-01
        2   -1    0    0  501    0  0.00000000000E+00  0.00000000000E+00  0.15416702348E+04  0.15416702348E+04  0.25500000920E-02 0. -1.
       -2   -1    0    0    0  501  0.00000000000E+00  0.00000000000E+00 -0.16252718209E+04  0.16252718209E+04  0.25500000920E-02 0.  1.
    10030    2    1    2    0    0  0.00000000000E+00  0.00000000000E+00 -0.83601586060E+02  0.31669420557E+04  0.31658383975E+04 0.  0.
        5    1    3    3  502    0 -0.10026586067E+04  0.44129298852E+03 -0.11848046169E+04  0.16136442773E+04  0.46999998093E+01 0.  1.
       -5    1    3    3    0  502  0.10026586067E+04 -0.44129298852E+03  0.11012030308E+04  0.15532977784E+04  0.46999998093E+01 0. -1.
</event>
<event>
 5   0  0.5161550E-07  0.4248563E+04  0.7818609E-02  0.7956198E-01
        2   -1    0    0  501    0  0.00000000000E+00  0.00000000000E+00  0.32647964690E+04  0.32647964690E+04  0.25500000920E-02 0.  1.
       -2   -1    0    0    0  501  0.00000000000E+00  0.00000000000E+00 -0.13821908493E+04  0.13821908493E+04  0.25500000920E-02 0. -1.
    10030    2    1    2    0    0  0.00000000000E+00  0.00000000000E+00  0.18826056196E+04  0.46469873183E+04  0.42485629591E+04 0.  0.
        2    1    3    3  502    0  0.60639025987E+03  0.17941313480E+03  0.31594560694E+04  0.32221205556E+04  0.25500000920E-02 0.  1.
       -2    1    3    3    0  502 -0.60639025987E+03 -0.17941313480E+03 -0.12768504498E+04  0.14248667627E+04  0.25500000920E-02 0. -1.
</event>
<event>
 5   0  0.7570277E-07  0.2980119E+04  0.7818609E-02  0.8249431E-01
       -2   -1    0    0    0  501  0.00000000000E+00  0.00000000000E+00  0.95085355908E+03  0.95085355909E+03  0.25500000920E-02 0. -1.
        2   -1    0    0  501    0  0.00000000000E+00  0.00000000000E+00 -0.23350363095E+04  0.23350363095E+04  0.25500000920E-02 0.  1.
    10030    2    1    2    0    0  0.00000000000E+00  0.00000000000E+00 -0.13841827504E+04  0.32858898685E+04  0.29801191825E+04 0.  0.
        5    1    3    3  502    0  0.13206296386E+04 -0.35061392022E+03 -0.13474337975E+04  0.19190082574E+04  0.46999998093E+01 0.  1.
       -5    1    3    3    0  502 -0.13206296386E+04  0.35061392022E+03 -0.36748952843E+02  0.13668816111E+04  0.46999998093E+01 0. -1.
</event>
<event>
 5   0  0.7570277E-07  0.3845191E+04  0.7818609E-02  0.8036526E-01
       -2   -1    0    0    0  501  0.00000000000E+00  0.00000000000E+00  0.15605871997E+04  0.15605871997E+04  0.25500000920E-02 0. -1.
        2   -1    0    0  501    0  0.00000000000E+00  0.00000000000E+00 -0.23685791863E+04  0.23685791863E+04  0.25500000920E-02 0.  1.
    10030    2    1    2    0    0  0.00000000000E+00  0.00000000000E+00 -0.80799198664E+03  0.39291663859E+04  0.38451914696E+04 0.  0.
        5    1    3    3  502    0 -0.79340139138E+03 -0.16039002489E+03  0.13779755592E+04  0.15981393743E+04  0.46999998093E+01 0. -1.
       -5    1    3    3    0  502  0.79340139138E+03  0.16039002489E+03 -0.21859675458E+04  0.23310270117E+04  0.46999998093E+01 0.  1.
</event>
<event>
 5   0  0.2713405E-07  0.3969659E+04  0.7818609E-02  0.8010695E-01
       -1   -1    0    0    0  501  0.00000000000E+00  0.00000000000E+00  0.26147401944E+04  0.26147401945E+04  0.50400001928E-02 0. -1.
        1   -1    0    0  501    0  0.00000000000E+00  0.00000000000E+00 -0.15066690357E+04  0.15066690357E+04  0.50400001928E-02 0.  1.
    10030    2    1    2    0    0  0.00000000000E+00  0.00000000000E+00  0.11080711588E+04  0.41214092301E+04  0.39696589714E+04 0.  0.
        1    1    3    3  502    0 -0.55992354810E+03  0.16681188807E+04  0.15075180514E+04  0.23170553846E+04  0.50400001928E-02 0. -1.
       -1    1    3    3    0  502  0.55992354810E+03 -0.16681188807E+04 -0.39944689262E+03  0.18043538456E+04  0.50400001928E-02 0.  1.
</event>
<event>
 5   0  0.2401125E-07  0.2112631E+04  0.7818609E-02  0.8555700E-01
        3   -1    0    0  501    0  0.00000000000E+00  0.00000000000E+00  0.16091554893E+04  0.16091554924E+04  0.10100000352E+00 0. -1.
       -3   -1    0    0    0  501  0.00000000000E+00  0.00000000000E+00 -0.69340842049E+03  0.69340842785E+03  0.10100000352E+00 0.  1.
    10030    2    1    2    0    0  0.00000000000E+00  0.00000000000E+00  0.91574706877E+03  0.23025639203E+04  0.21126305671E+04 0.  0.
        3    1    3    3  502    0  0.31769788023E+03  0.43719238164E+03 -0.53132013427E+03  0.75787216399E+03  0.10100000352E+00 0.  1.
       -3    1    3    3    0  502 -0.31769788023E+03 -0.43719238164E+03  0.14470672030E+04  0.15446917563E+04  0.10100000352E+00 0. -1.
</event>
<event>
 5   0  0.4449262E-07  0.3954993E+04  0.7818609E-02  0.8013688E-01
       -2   -1    0    0    0  501  0.00000000000E+00  0.00000000000E+00  0.26376333725E+04  0.26376333725E+04  0.25500000920E-02 0. -1.
        2   -1    0    0  501    0  0.00000000000E+00  0.00000000000E+00 -0.14825762505E+04  0.14825762505E+04  0.25500000920E-02 0.  1.
    10030    2    1    2    0    0  0.00000000000E+00  0.00000000000E+00  0.11550571220E+04  0.41202096230E+04  0.39549930951E+04 0.  0.
        1    1    3    3  502    0 -0.51545820197E+03 -0.74129845321E+03 -0.12553048576E+04  0.15462893780E+04  0.50400001928E-02 0.  1.
       -1    1    3    3    0  502  0.51545820197E+03  0.74129845321E+03  0.24103619796E+04  0.25739202450E+04  0.50400001928E-02 0. -1.
</event>
<event>
 5   0  0.2401125E-07  0.2190722E+04  0.7818609E-02  0.8522300E-01
       -1   -1    0    0    0  501  0.00000000000E+00  0.00000000000E+00  0.80801251873E+03  0.80801251874E+03  0.50400001928E-02 0.  1.
        1   -1    0    0  501    0  0.00000000000E+00  0.00000000000E+00 -0.14848968117E+04  0.14848968117E+04  0.50400001928E-02 0. -1.
    10030    2    1    2    0    0  0.00000000000E+00  0.00000000000E+00 -0.67688429297E+03  0.22929093304E+04  0.21907215367E+04 0.  0.
        5    1    3    3  502    0  0.30774575538E+03  0.10397710991E+04 -0.50045849116E+03  0.11942831238E+04  0.46999998093E+01 0.  1.
       -5    1    3    3    0  502 -0.30774575538E+03 -0.10397710991E+04 -0.17642580181E+03  0.10986262067E+04  0.46999998093E+01 0. -1.
</event>
<event>
 5   0  0.7256473E-07  0.4039802E+04  0.7818609E-02  0.7996565E-01
        2   -1    0    0  501    0  0.00000000000E+00  0.00000000000E+00  0.26243002532E+04  0.26243002532E+04  0.25500000920E-02 0. -1.
       -2   -1    0    0    0  501  0.00000000000E+00  0.00000000000E+00 -0.15547002337E+04  0.15547002337E+04  0.25500000920E-02 0.  1.
    10030    2    1    2    0    0  0.00000000000E+00  0.00000000000E+00  0.10696000195E+04  0.41790004869E+04  0.40398020828E+04 0.  0.
        4    1    3    3  502    0 -0.21592009441E+03  0.90003776953E+03 -0.13224198206E+04  0.16141515631E+04  0.12699999809E+01 0.  1.
       -4    1    3    3    0  502  0.21592009441E+03 -0.90003776953E+03  0.23920198401E+04  0.25648489238E+04  0.12699999809E+01 0. -1.
</event>
<event>
 5   0  0.3579559E-07  0.4026432E+04  0.7818609E-02  0.7999235E-01
       -1   -1    0    0    0  501  0.00000000000E+00  0.00000000000E+00  0.14402167660E+04  0.14402167661E+04  0.50400001928E-02 0.  1.
        1   -1    0    0  501    0  0.00000000000E+00  0.00000000000E+00 -0.28141866875E+04  0.28141866875E+04  0.50400001928E-02 0. -1.
    10030    2    1    2    0    0  0.00000000000E+00  0.00000000000E+00 -0.13739699214E+04  0.42544034535E+04  0.40264320931E+04 0.  0.
        4    1    3    3  502    0 -0.21856207004E+03  0.18042922975E+04 -0.16019198528E+04  0.24226821708E+04  0.12699999809E+01 0. -1.
       -4    1    3    3    0  502  0.21856207004E+03 -0.18042922975E+04  0.22794993135E+03  0.18317212827E+04  0.12699999809E+01 0.  1.
</event>
<event>
 5   0  0.7256473E-07  0.3531067E+04  0.7818609E-02  0.8106467E-01
        2   -1    0    0  501    0  0.00000000000E+00  0.00000000000E+00  0.20786101934E+04  0.20786101934E+04  0.25500000920E-02 0. -1.
       -2   -1    0    0    0  501  0.00000000000E+00  0.00000000000E+00 -0.14996120440E+04  0.14996120440E+04  0.25500000920E-02 0.  1.
    10030    2    1    2    0    0  0.00000000000E+00  0.00000000000E+00  0.57899814947E+03  0.35782222374E+04  0.35310671933E+04 0.  0.
        4    1    3    3  502    0  0.14917447101E+03  0.89326519652E+03 -0.12463033662E+04  0.15406003465E+04  0.12699999809E+01 0.  1.
       -4    1    3    3    0  502 -0.14917447101E+03 -0.89326519652E+03  0.18253015157E+04  0.20376218909E+04  0.12699999809E+01 0. -1.
</event>
<event>
 5   0  0.2401125E-07  0.2898153E+04  0.7818609E-02  0.8273427E-01
       -1   -1    0    0    0  501  0.00000000000E+00  0.00000000000E+00  0.13716767734E+04  0.13716767734E+04  0.50400001928E-02 0. -1.
        1   -1    0    0  501    0  0.00000000000E+00  0.00000000000E+00 -0.15308438488E+04  0.15308438488E+04  0.50400001928E-02 0.  1.
    10030    2    1    2    0    0  0.00000000000E+00  0.00000000000E+00 -0.15916707541E+03  0.29025206223E+04  0.28981531714E+04 0.  0.
        5    1    3    3  502    0 -0.51898620993E+03  0.14815693783E+03  0.12672492477E+04  0.13774033215E+04  0.46999998093E+01 0. -1.
       -5    1    3    3    0  502  0.51898620993E+03 -0.14815693783E+03 -0.14264163231E+04  0.15251173008E+04  0.46999998093E+01 0.  1.
</event>
<event>
 5   0  0.7256473E-07  0.3988580E+04  0.7818609E-02  0.8006854E-01
       -2   -1    0    0    0  501  0.00000000000E+00  0.00000000000E+00  0.16548436258E+04  0.16548436258E+04  0.25500000920E-02 0.  1.
        2   -1    0    0  501    0  0.00000000000E+00  0.00000000000E+00 -0.24033649704E+04  0.24033649704E+04  0.25500000920E-02 0. -1.
    10030    2    1    2    0    0  0.00000000000E+00  0.00000000000E+00 -0.74852134466E+03  0.40582085962E+04  0.39885802997E+04 0.  0.
        4    1    3    3  502    0  0.45700622645E+03  0.19410298249E+04 -0.34658067162E+03  0.20239988259E+04  0.12699999809E+01 0.  1.
       -4    1    3    3    0  502 -0.45700622645E+03 -0.19410298249E+04 -0.40194067304E+03  0.20342097703E+04  0.12699999809E+01 0. -1.
</event>
<event>
 5   0  0.6043512E-07  0.3928805E+04  0.7818609E-02  0.8019065E-01
       -2   -1    0    0    0  501  0.00000000000E+00  0.00000000000E+00  0.22053114819E+04  0.22053114819E+04  0.25500000920E-02 0. -1.
        2   -1    0    0  501    0  0.00000000000E+00  0.00000000000E+00 -0.17498103926E+04  0.17498103926E+04  0.25500000920E-02 0.  1.
    10030    2    1    2    0    0  0.00000000000E+00  0.00000000000E+00  0.45550108936E+03  0.39551218745E+04  0.39288048819E+04 0.  0.
        3    1    3    3  502    0  0.11348680265E+04  0.15948495668E+04  0.39440813639E+03  0.19967544582E+04  0.10100000352E+00 0. -1.
       -3    1    3    3    0  502 -0.11348680265E+04 -0.15948495668E+04  0.61092952975E+02  0.19583674163E+04  0.10100000352E+00 0.  1.
</event>
<event>
 5   0  0.4449262E-07  0.2154661E+04  0.7818609E-02  0.8537540E-01
        2   -1    0    0  501    0  0.00000000000E+00  0.00000000000E+00  0.13553027190E+04  0.13553027190E+04  0.25500000920E-02 0.  1.
       -2   -1    0    0    0  501  0.00000000000E+00  0.00000000000E+00 -0.85636998144E+03  0.85636998144E+03  0.25500000920E-02 0. -1.
    10030    2    1    2    0    0  0.00000000000E+00  0.00000000000E+00  0.49893273760E+03  0.22116727005E+04  0.21546605898E+04 0.  0.
        1    1    3    3  502    0 -0.37078951961E+03 -0.52303601990E+03  0.11381631288E+04  0.13063180523E+04  0.50400001928E-02 0.  1.
       -1    1    3    3    0  502  0.37078951961E+03  0.52303601990E+03 -0.63923039119E+03  0.90535464820E+03  0.50400001928E-02 0. -1.
</event>
<event>
 5   0  0.6043512E-07  0.3496637E+04  0.7818609E-02  0.8114587E-01
        2   -1    0    0  501    0  0.00000000000E+00  0.00000000000E+00  0.12885094461E+04  0.12885094461E+04  0.25500000920E-02 0. -1.
       -2   -1    0    0    0  501  0.00000000000E+00  0.00000000000E+00 -0.23722113813E+04  0.23722113813E+04  0.25500000920E-02 0.  1.
    10030    2    1    2    0    0  0.00000000000E+00  0.00000000000E+00 -0.10837019352E+04  0.36607208274E+04  0.34966365398E+04 0.  0.
        3    1    3    3  502    0 -0.15666047887E+04  0.60443512008E+03 -0.32153316559E+02  0.16794720076E+04  0.10100000352E+00 0. -1.
       -3    1    3    3    0  502  0.15666047887E+04 -0.60443512008E+03 -0.10515486187E+04  0.19812488198E+04  0.10100000352E+00 0.  1.
</event>
<event>
 5   0  0.4449262E-07  0.4084337E+04  0.7818609E-02  0.7987746E-01
        2   -1    0    0  501    0  0.00000000000E+00  0.00000000000E+00  0.20606210815E+04  0.20606210815E+04  0.25500000920E-02 0. -1.
       -2   -1    0    0    0  501  0.00000000000E+00  0.00000000000E+00 -0.20238808073E+04  0.20238808073E+04  0.25500000920E-02 0.  1.
    10030    2    1    2    0    0  0.00000000000E+00  0.00000000000E+00  0.36740274260E+02  0.40845018888E+04  0.40843366453E+04 0.  0.
        1    1    3    3  502    0 -0.13539394722E+04 -0.15273191506E+04 -0.49423281085E+02  0.20416411396E+04  0.50400001928E-02 0. -1.
       -1    1    3    3    0  502  0.13539394722E+04  0.15273191506E+04  0.86163555345E+02  0.20428607492E+04  0.50400001928E-02 0.  1.
</event>
<event>
 5   0  0.2647879E-07  0.3150831E+04  0.7818609E-02  0.8201925E-01
       -1   -1    0    0    0  501  0.00000000000E+00  0.00000000000E+00  0.83591073353E+03  0.83591073354E+03  0.50400001928E-02 0.  1.
        1   -1    0    0  501    0  0.00000000000E+00  0.00000000000E+00 -0.29691375029E+04  0.29691375029E+04  0.50400001928E-02 0. -1.
    10030    2    1    2    0    0  0.00000000000E+00  0.00000000000E+00 -0.21332267693E+04  0.38050482364E+04  0.31508309431E+04 0.  0.
        2    1    3    3  502    0  0.12924954423E+04 -0.55710353964E+03 -0.21181282001E+03  0.14232966988E+04  0.25500000920E-02 0. -1.
       -2    1    3    3    0  502 -0.12924954423E+04  0.55710353964E+03 -0.19214139493E+04  0.23817515376E+04  0.25500000920E-02 0.  1.
</event>
<event>
 5   0  0.2713405E-07  0.3573404E+04  0.7818609E-02  0.8096611E-01
       -1   -1    0    0    0  501  0.00000000000E+00  0.00000000000E+00  0.12821796389E+04  0.12821796389E+04  0.50400001928E-02 0.  1.
        1   -1    0    0  501    0  0.00000000000E+00  0.00000000000E+00 -0.24897480569E+04  0.24897480569E+04  0.50400001928E-02 0. -1.
    10030    2    1    2    0    0  0.00000000000E+00  0.00000000000E+00 -0.12075684180E+04  0.37719276958E+04  0.35734041275E+04 0.  0.
        1    1    3    3  502    0  0.65692543579E+03 -0.13134422410E+04 -0.16779764432E+04  0.22298624381E+04  0.50400001928E-02 0. -1.
       -1    1    3    3    0  502 -0.65692543579E+03  0.13134422410E+04  0.47040802525E+03  0.15420652577E+04  0.50400001928E-02 0.  1.
</event>
<event>
 5   0  0.4449262E-07  0.4010849E+04  0.7818609E-02  0.8002362E-01
        2   -1    0    0  501    0  0.00000000000E+00  0.00000000000E+00  0.17307740535E+04  0.17307740535E+04  0.25500000920E-02 0.  1.
       -2   -1    0    0    0  501  0.00000000000E+00  0.00000000000E+00 -0.23236583274E+04  0.23236583274E+04  0.25500000920E-02 0. -1.
    10030    2    1    2    0    0  0.00000000000E+00  0.00000000000E+00 -0.59288427398E+03  0.40544323809E+04  0.40108490584E+04 0.  0.
        1    1    3    3  502    0  0.14737957274E+04  0.79813529124E+03  0.81672036841E+03  0.18644371669E+04  0.50400001928E-02 0.  1.
       -1    1    3    3    0  502 -0.14737957274E+04 -0.79813529124E+03 -0.14096046424E+04  0.21899952140E+04  0.50400001928E-02 0. -1.
</event>
<event>
 5   0  0.7570277E-07  0.2464694E+04  0.7818609E-02  0.8415672E-01
       -2   -1    0    0    0  501  0.00000000000E+00  0.00000000000E+00  0.69497439635E+03  0.69497439636E+03  0.25500000920E-02 0.  1.
        2   -1    0    0  501    0  0.00000000000E+00  0.00000000000E+00 -0.21852305358E+04  0.21852305358E+04  0.25500000920E-02 0. -1.
    10030    2    1    2    0    0  0.00000000000E+00  0.00000000000E+00 -0.14902561395E+04  0.28802049322E+04  0.24646941170E+04 0.  0.
        5    1    3    3  502    0 -0.97895054412E+03 -0.65413672552E+03 -0.31988804557E+03  0.12200776513E+04  0.46999998093E+01 0. -1.
       -5    1    3    3    0  502  0.97895054412E+03  0.65413672552E+03 -0.11703680939E+04  0.16601272809E+04  0.46999998093E+01 0.  1.
</event>
<event>
 5   0  0.5161550E-07  0.2043921E+04  0.7818609E-02  0.8586357E-01
       -2   -1    0    0    0  501  0.00000000000E+00  0.00000000000E+00  0.11893935665E+04  0.11893935665E+04  0.25500000920E-02 0.  1.
        2   -1    0    0  501    0  0.00000000000E+00  0.00000000000E+00 -0.87809736305E+03  0.87809736306E+03  0.25500000920E-02 0. -1.
    10030    2    1    2    0    0  0.00000000000E+00  0.00000000000E+00  0.31129620348E+03  0.20674909296E+04  0.20439210889E+04 0.  0.
        2    1    3    3  502    0  0.23768952165E+03  0.78863741386E+03 -0.45627261354E+03  0.94161031065E+03  0.25500000920E-02 0. -1.
       -2    1    3    3    0  502 -0.23768952165E+03 -0.78863741386E+03  0.76756881701E+03  0.11258806189E+04  0.25500000920E-02 0.  1.
</event>
<event>
 5   0  0.2647879E-07  0.2049021E+04  0.7818609E-02  0.8584038E-01
       -1   -1    0    0    0  501  0.00000000000E+00  0.00000000000E+00  0.16974220009E+04  0.16974220009E+04  0.50400001928E-02 0.  1.
        1   -1    0    0  501    0  0.00000000000E+00  0.00000000000E+00 -0.61836254649E+03  0.61836254651E+03  0.50400001928E-02 0. -1.
    10030    2    1    2    0    0  0.00000000000E+00  0.00000000000E+00  0.10790594544E+04  0.23157845474E+04  0.20490214162E+04 0.  0.
        2    1    3    3  502    0 -0.77322620431E+02 -0.44421441917E+03 -0.50019452519E+03  0.67342393844E+03  0.25500000920E-02 0. -1.
       -2    1    3    3    0  502  0.77322620431E+02  0.44421441917E+03  0.15792539796E+04  0.16423606090E+04  0.25500000920E-02 0.  1.
</event>
<event>
 5   0  0.6043512E-07  0.4079462E+04  0.7818609E-02  0.7988706E-01
        2   -1    0    0  501    0  0.00000000000E+00  0.00000000000E+00  0.26517162387E+04  0.26517162387E+04  0.25500000920E-02 0. -1.
       -2   -1    0    0    0  501  0.00000000000E+00  0.00000000000E+00 -0.15689844624E+04  0.15689844624E+04  0.25500000920E-02 0.  1.
    10030    2    1    2    0    0  0.00000000000E+00  0.00000000000E+00  0.10827317763E+04  0.42207007011E+04  0.40794615220E+04 0.  0.
        3    1    3    3  502    0 -0.10554071979E+04  0.12002605053E+04 -0.76978717859E+03  0.17740016754E+04  0.10100000352E+00 0.  1.
       -3    1    3    3    0  502  0.10554071979E+04 -0.12002605053E+04  0.18525189549E+04  0.24466990257E+04  0.10100000352E+00 0. -1.
</event>
<event>
 5   0  0.2647879E-07  0.2211400E+04  0.7818609E-02  0.8513698E-01
        1   -1    0    0  501    0  0.00000000000E+00  0.00000000000E+00  0.67410558266E+03  0.67410558268E+03  0.50400001928E-02 0. -1.
       -1   -1    0    0    0  501  0.00000000000E+00  0.00000000000E+00 -0.18136219836E+04  0.18136219836E+04  0.50400001928E-02 0.  1.
    10030    2    1    2    0    0  0.00000000000E+00  0.00000000000E+00 -0.11395164009E+04  0.24877275663E+04  0.22114001935E+04 0.  0.
        2    1    3    3  502    0  0.55599084102E+03 -0.93677442158E+03 -0.78290860339E+03  0.13414984210E+04  0.25500000920E-02 0.  1.
       -2    1    3    3    0  502 -0.55599084102E+03  0.93677442158E+03 -0.35660779752E+03  0.11462291453E+04  0.25500000920E-02 0. -1.
</event>
<event>
 5   0  0.4449262E-07  0.2668101E+04  0.7818609E-02  0.8345430E-01
       -2   -1    0    0    0  501  0.00000000000E+00  0.00000000000E+00  0.86727093746E+03  0.86727093747E+03  0.25500000920E-02 0. -1.
        2   -1    0    0  501    0  0.00000000000E+00  0.00000000000E+00 -0.20520581274E+04  0.20520581274E+04  0.25500000920E-02 0.  1.
    10030    2    1    2    0    0  0.00000000000E+00  0.00000000000E+00 -0.11847871900E+04  0.29193290649E+04  0.26681007297E+04 0.  0.
        1    1    3    3  502    0 -0.47809378726E+03 -0.30402806639E+03 -0.19138760022E+04  0.19959779774E+04  0.50400001928E-02 0.  1.
       -1    1    3    3    0  502  0.47809378726E+03  0.30402806639E+03  0.72908881223E+03  0.92335108746E+03  0.50400001928E-02 0. -1.
</event>
<event>
 5   0  0.7570277E-07  0.4046207E+04  0.7818609E-02  0.7995289E-01
        2   -1    0    0  501    0  0.00000000000E+00  0.00000000000E+00  0.17408070402E+04  0.17408070402E+04  0.25500000920E-02 0. -1.
       -2   -1    0    0    0  501  0.00000000000E+00  0.00000000000E+00 -0.23511781807E+04  0.23511781807E+04  0.25500000920E-02 0.  1.
    10030    2    1    2    0    0  0.00000000000E+00  0.00000000000E+00 -0.61037114046E+03  0.40919852209E+04  0.40462068804E+04 0.  0.
        5    1    3    3  502    0  0.61316885316E+03 -0.22226704904E+03  0.16315654876E+04  0.17571017938E+04  0.46999998093E+01 0. -1.
       -5    1    3    3    0  502 -0.61316885316E+03  0.22226704904E+03 -0.22419366281E+04  0.23348834270E+04  0.46999998093E+01 0.  1.
</event>
<event>
 5   0  0.6043512E-07  0.2035279E+04  0.7818609E-02  0.8590302E-01
        2   -1    0    0  501    0  0.00000000000E+00  0.00000000000E+00  0.89411138774E+03  0.89411138774E+03  0.25500000920E-02 0. -1.
       -2   -1    0    0    0  501  0.00000000000E+00  0.00000000000E+00 -0.11582342111E+04  0.11582342111E+04  0.25500000920E-02 0.  1.
    10030    2    1    2    0    0  0.00000000000E+00  0.00000000000E+00 -0.26412282335E+03  0.20523455988E+04  0.20352792416E+04 0.  0.
        3    1    3    3  502    0  0.13814171942E+03 -0.24108578444E+03 -0.11192416932E+04  0.11532161411E+04  0.10100000352E+00 0.  1.
       -3    1    3    3    0  502 -0.13814171942E+03  0.24108578444E+03  0.85511886981E+03  0.89912945776E+03  0.10100000352E+00 0. -1.
</event>
<event>
 5   0  0.2601252E-07  0.2373471E+04  0.7818609E-02  0.8449503E-01
        1   -1    0    0  501    0  0.00000000000E+00  0.00000000000E+00  0.20802302680E+04  0.20802302680E+04  0.50400001928E-02 0. -1.
       -1   -1    0    0    0  501  0.00000000000E+00  0.00000000000E+00 -0.67701193665E+03  0.67701193666E+03  0.50400001928E-02 0.  1.
    10030    2    1    2    0    0  0.00000000000E+00  0.00000000000E+00  0.14032183314E+04  0.27572422047E+04  0.23734706423E+04 0.  0.
        3    1    3    3  502    0 -0.93513433501E+03  0.23064632815E+03  0.15070118966E+04  0.17885074280E+04  0.10100000352E+00 0. -1.
       -3    1    3    3    0  502  0.93513433501E+03 -0.23064632815E+03 -0.10379356525E+03  0.96873477671E+03  0.10100000352E+00 0.  1.
</event>
<event>
 5   0  0.2601252E-07  0.3959603E+04  0.7818609E-02  0.8012746E-01
        1   -1    0    0  501    0  0.00000000000E+00  0.00000000000E+00  0.24237546912E+04  0.24237546912E+04  0.50400001928E-02 0. -1.
       -1   -1    0    0    0  501  0.00000000000E+00  0.00000000000E+00 -0.16171657199E+04  0.16171657199E+04  0.50400001928E-02 0.  1.
    10030    2    1    2    0    0  0.00000000000E+00  0.00000000000E+00  0.80658897131E+03  0.40409204111E+04  0.39596025053E+04 0.  0.
        3    1    3    3  502    0  0.10287622308E+04  0.13993760204E+04 -0.56648838554E+03  0.18268864429E+04  0.10100000352E+00 0.  1.
       -3    1    3    3    0  502 -0.10287622308E+04 -0.13993760204E+04  0.13730773569E+04  0.22140339682E+04  0.10100000352E+00 0. -1.
</event>
<event>
 5   0  0.2647879E-07  0.4247043E+04  0.7818609E-02  0.7956484E-01
       -1   -1    0    0    0  501  0.00000000000E+00  0.00000000000E+00  0.16737525627E+04  0.16737525627E+04  0.50400001928E-02 0. -1.
        1   -1    0    0  501    0  0.00000000000E+00  0.00000000000E+00 -0.26941516999E+04  0.26941516999E+04  0.50400001928E-02 0.  1.
    10030    2    1    2    0    0  0.00000000000E+00  0.00000000000E+00 -0.10203991372E+04  0.43679042626E+04  0.42470428828E+04 0.  0.
        2    1    3    3  502    0 -0.70191674059E+03  0.17859490951E+04  0.42509896902E+03  0.19654542514E+04  0.25500000920E-02 0. -1.
       -2    1    3    3    0  502  0.70191674059E+03 -0.17859490951E+04 -0.14454981063E+04  0.24024500112E+04  0.25500000920E-02 0.  1.
</event>
<event>
 5   0  0.5161550E-07  0.2688000E+04  0.7818609E-02  0.8338909E-01
       -2   -1    0    0    0  501  0.00000000000E+00  0.00000000000E+00  0.15164999098E+04  0.15164999098E+04  0.25500000920E-02 0.  1.
        2   -1    0    0  501    0  0.00000000000E+00  0.00000000000E+00 -0.11911216949E+04  0.11911216949E+04  0.25500000920E-02 0. -1.
    10030    2    1    2    0    0  0.00000000000E+00  0.00000000000E+00  0.32537821492E+03  0.27076216047E+04  0.26879999575E+04 0.  0.
        2    1    3    3  502    0 -0.76737941598E+03 -0.82947173462E+03  0.89562783365E+03  0.14418889496E+04  0.25500000920E-02 0. -1.
       -2    1    3    3    0  502  0.76737941598E+03  0.82947173462E+03 -0.57024961873E+03  0.12657326551E+04  0.25500000920E-02 0.  1.
</event>
<event>
 5   0  0.7256473E-07  0.2887824E+04  0.7818609E-02  0.8276509E-01
       -2   -1    0    0    0  501  0.00000000000E+00  0.00000000000E+00  0.10656345147E+04  0.10656345147E+04  0.25500000920E-02 0. -1.
        2   -1    0    0  501    0  0.00000000000E+00  0.00000000000E+00 -0.19564697938E+04  0.19564697938E+04  0.25500000920E-02 0.  1.
    10030    2    1    2    0    0  0.00000000000E+00  0.00000000000E+00 -0.89083527904E+03  0.30221043085E+04  0.28878239138E+04 0.  0.
        4    1    3    3  502    0 -0.72933314987E+03  0.10042087669E+04  0.32680917182E+03  0.12834204060E+04  0.12699999809E+01 0. -1.
       -4    1    3    3    0  502  0.72933314987E+03 -0.10042087669E+04 -0.12176444509E+04  0.17386839024E+04  0.12699999809E+01 0.  1.
</event>
<event>
 5   0  0.6043512E-07  0.3661084E+04  0.7818609E-02  0.8076641E-01
        2   -1    0    0  501    0  0.00000000000E+00  0.00000000000E+00  0.18166985162E+04  0.18166985162E+04  0.25500000920E-02 0.  1.
       -2   -1    0    0    0  501  0.00000000000E+00  0.00000000000E+00 -0.18444912216E+04  0.18444912216E+04  0.25500000920E-02 0. -1.
    10030    2    1    2    0    0  0.00000000000E+00  0.00000000000E+00 -0.27792705310E+02  0.36611897378E+04  0.36610842467E+04 0.  0.
        3    1    3    3  502    0 -0.25903549378E+03 -0.42328104952E+03  0.17481471025E+04  0.18172189015E+04  0.10100000352E+00 0.  1.
       -3    1    3    3    0  502  0.25903549378E+03  0.42328104952E+03 -0.17759398078E+04  0.18439708363E+04  0.10100000352E+00 0. -1.
</event>
<event>
 5   0  0.5161550E-07  0.2521024E+04  0.7818609E-02  0.8395534E-01
       -2   -1    0    0    0  501  0.00000000000E+00  0.00000000000E+00  0.13027843983E+04  0.13027843983E+04  0.25500000920E-02 0. -1.
        2   -1    0    0  501    0  0.00000000000E+00  0.00000000000E+00 -0.12196109996E+04  0.12196109996E+04  0.25500000920E-02 0.  1.
    10030    2    1    2    0    0  0.00000000000E+00  0.00000000000E+00  0.83173398719E+02  0.25223953978E+04  0.25210237462E+04 0.  0.
        2    1    3    3  502    0 -0.37441570881E+03  0.11461470331E+04 -0.32610479504E+03  0.12490734494E+04  0.25500000920E-02 0.  1.
       -2    1    3    3    0  502  0.37441570881E+03 -0.11461470331E+04  0.40927819376E+03  0.12733219485E+04  0.25500000920E-02 0. -1.
</event>
<event>
 5   0  0.7570277E-07  0.3975717E+04  0.7818609E-02  0.8009463E-01
        2   -1    0    0  501    0  0.00000000000E+00  0.00000000000E+00  0.23243443403E+04  0.23243443403E+04  0.25500000920E-02 0. -1.
       -2   -1    0    0    0  501  0.00000000000E+00  0.00000000000E+00 -0.17000839491E+04  0.17000839491E+04  0.25500000920E-02 0.  1.
    10030    2    1    2    0    0  0.00000000000E+00  0.00000000000E+00  0.62426039117E+03  0.40244282895E+04  0.39757165418E+04 0.  0.
        5    1    3    3  502    0  0.34466839001E+03 -0.18823856976E+04  0.85666756648E+03  0.20966815741E+04  0.46999998093E+01 0.  1.
       -5    1    3    3    0  502 -0.34466839001E+03  0.18823856976E+04 -0.23240717532E+03  0.19277467154E+04  0.46999998093E+01 0. -1.
</event>
<event>
 5   0  0.3579559E-07  0.4028369E+04  0.7818609E-02  0.7998848E-01
        1   -1    0    0  501    0  0.00000000000E+00  0.00000000000E+00  0.21561943143E+04  0.21561943143E+04  0.50400001928E-02 0. -1.
       -1   -1    0    0    0  501  0.00000000000E+00  0.00000000000E+00 -0.18815276110E+04  0.18815276110E+04  0.50400001928E-02 0.  1.
    10030    2    1    2    0    0  0.00000000000E+00  0.00000000000E+00  0.27466670328E+03  0.40377219254E+04  0.40283689688E+04 0.  0.
        4    1    3    3  502    0  0.32939501275E+03  0.97479232090E+03 -0.15982227253E+04  0.19007994729E+04  0.12699999809E+01 0.  1.
       -4    1    3    3    0  502 -0.32939501275E+03 -0.97479232090E+03  0.18728894286E+04  0.21369224525E+04  0.12699999809E+01 0. -1.
</event>
<event>
 5   0  0.6043512E-07  0.2361550E+04  0.7818609E-02  0.8454041E-01
       -2   -1    0    0    0  501  0.00000000000E+00  0.00000000000E+00  0.10782498535E+04  0.10782498535E+04  0.25500000920E-02 0.  1.
        2   -1    0    0  501    0  0.00000000000E+00  0.00000000000E+00 -0.12930485780E+04  0.12930485780E+04  0.25500000920E-02 0. -1.
    10030    2    1    2    0    0  0.00000000000E+00  0.00000000000E+00 -0.21479872453E+03  0.23712984315E+04  0.23615498638E+04 0.  0.
        3    1    3    3  502    0  0.28159871885E+03 -0.70201026493E+03 -0.10178468442E+04  0.12681200491E+04  0.10100000352E+00 0. -1.
       -3    1    3    3    0  502 -0.28159871885E+03  0.70201026493E+03  0.80304811971E+03  0.11031783824E+04  0.10100000352E+00 0.  1.
</event>
<event>
 5   0  0.4449262E-07  0.3043515E+04  0.7818609E-02  0.8231413E-01
       -2   -1    0    0    0  501  0.00000000000E+00  0.00000000000E+00  0.18099809654E+04  0.18099809654E+04  0.25500000920E-02 0. -1.
        2   -1    0    0  501    0  0.00000000000E+00  0.00000000000E+00 -0.12794311098E+04  0.12794311098E+04  0.25500000920E-02 0.  1.
    10030    2    1    2    0    0  0.00000000000E+00  0.00000000000E+00  0.53054985559E+03  0.30894120752E+04  0.30435150437E+04 0.  0.
        1    1    3    3  502    0 -0.37811596531E+03  0.62617200221E+03 -0.10892708300E+04  0.13120876498E+04  0.50400001928E-02 0.  1.
       -1    1    3    3    0  502  0.37811596531E+03 -0.62617200221E+03  0.16198206856E+04  0.17773244254E+04  0.50400001928E-02 0. -1.
</event>
<event>
 5   0  0.2401125E-07  0.3992360E+04  0.7818609E-02  0.8006090E-01
        1   -1    0    0  501    0  0.00000000000E+00  0.00000000000E+00  0.11986225511E+04  0.11986225511E+04  0.50400001928E-02 0.  1.
       -1   -1    0    0    0  501  0.00000000000E+00  0.00000000000E+00 -0.33244281245E+04  0.33244281245E+04  0.50400001928E-02 0. -1.
    10030    2    1    2    0    0  0.00000000000E+00  0.00000000000E+00 -0.21258055734E+04  0.45230506756E+04  0.39923599635E+04 0.  0.
        5    1    3    3  502    0 -0.86559173707E+03 -0.17068066005E+04 -0.17060565317E+04  0.25638035818E+04  0.46999998093E+01 0.  1.
       -5    1    3    3    0  502  0.86559173707E+03  0.17068066005E+04 -0.41974904170E+03  0.19592470938E+04  0.46999998093E+01 0. -1.
</event>
<event>
 5   0  0.2713405E-07  0.3161378E+04  0.7818609E-02  0.8199092E-01
       -1   -1    0    0    0  501  0.00000000000E+00  0.00000000000E+00  0.26120613617E+04  0.26120613617E+04  0.50400001928E-02 0.  1.
        1   -1    0    0  501    0  0.00000000000E+00  0.00000000000E+00 -0.95655417371E+03  0.95655417372E+03  0.50400001928E-02 0. -1.
    10030    2    1    2    0    0  0.00000000000E+00  0.00000000000E+00  0.16555071880E+04  0.35686155354E+04  0.31613783055E+04 0.  0.
        1    1    3    3  502    0 -0.17076851094E+03  0.31920760391E+02  0.26012521179E+04  0.26070468734E+04  0.50400001928E-02 0.  1.
       -1    1    3    3    0  502  0.17076851094E+03 -0.31920760391E+02 -0.94574492992E+03  0.96156866201E+03  0.50400001928E-02 0. -1.
</event>
<event>
 5   0  0.6043512E-07  0.3518438E+04  0.7818609E-02  0.8109434E-01
        2   -1    0    0  501    0  0.00000000000E+00  0.00000000000E+00  0.13665844805E+04  0.13665844805E+04  0.25500000920E-02 0. -1.
       -2   -1    0    0    0  501  0.00000000000E+00  0.00000000000E+00 -0.22646618398E+04  0.22646618398E+04  0.25500000920E-02 0.  1.
    10030    2    1    2    0    0  0.00000000000E+00  0.00000000000E+00 -0.89807735928E+03  0.36312463203E+04  0.35184381329E+04 0.  0.
        3    1    3    3  502    0  0.15725644123E+04 -0.71963959402E+03 -0.78188745696E+03  0.18979430923E+04  0.10100000352E+00 0. -1.
       -3    1    3    3    0  502 -0.15725644123E+04  0.71963959402E+03 -0.11618990232E+03  0.17333032279E+04  0.10100000352E+00 0.  1.
</event>
<event>
 5   0  0.2713405E-07  0.2323716E+04  0.7818609E-02  0.8468629E-01
       -1   -1    0    0    0  501  0.00000000000E+00  0.00000000000E+00  0.12547772221E+04  0.12547772221E+04  0.50400001928E-02 0.  1.
        1   -1    0    0  501    0  0.00000000000E+00  0.00000000000E+00 -0.10758196132E+04  0.10758196133E+04  0.50400001928E-02 0. -1.
    10030    2    1    2    0    0  0.00000000000E+00  0.00000000000E+00  0.17895760885E+03  0.23305968353E+04  0.23237159429E+04 0.  0.
        1    1    3    3  502    0 -0.31473592450E+03 -0.40067140171E+02  0.12104869565E+04  0.12513763422E+04  0.50400001928E-02 0.  1.
       -1    1    3    3    0  502  0.31473592450E+03  0.40067140171E+02 -0.10315293476E+04  0.10792204932E+04  0.50400001928E-02 0. -1.
</event>
<event>
 5   0  0.2401125E-07  0.3999368E+04  0.7818609E-02  0.8004674E-01
       -3   -1    0    0    0  501  0.00000000000E+00  0.00000000000E+00  0.24361995909E+04  0.24361995930E+04  0.10100000352E+00 0. -1.
        3   -1    0    0  501    0  0.00000000000E+00  0.00000000000E+00 -0.16413830869E+04  0.16413830900E+04  0.10100000352E+00 0.  1.
    10030    2    1    2    0    0  0.00000000000E+00  0.00000000000E+00  0.79481650402E+03  0.40775826831E+04  0.39993683579E+04 0.  0.
        3    1    3    3  502    0 -0.19756621060E+04  0.27346036842E+03  0.54415173374E+03  0.20673950880E+04  0.10100000352E+00 0.  1.
       -3    1    3    3    0  502  0.19756621060E+04 -0.27346036842E+03  0.25066477028E+03  0.20101875951E+04  0.10100000352E+00 0. -1.
</event>
<event>
 5   0  0.4449262E-07  0.3839577E+04  0.7818609E-02  0.8037715E-01
       -2   -1    0    0    0  501  0.00000000000E+00  0.00000000000E+00  0.28399655348E+04  0.28399655348E+04  0.25500000920E-02 0.  1.
        2   -1    0    0  501    0  0.00000000000E+00  0.00000000000E+00 -0.12977580830E+04  0.12977580830E+04  0.25500000920E-02 0. -1.
    10030    2    1    2    0    0  0.00000000000E+00  0.00000000000E+00  0.15422074518E+04  0.41377236178E+04  0.38395771789E+04 0.  0.
        1    1    3    3  502    0 -0.34487053216E+03  0.10347316530E+04 -0.93144238827E+03  0.14342908354E+04  0.50400001928E-02 0. -1.
       -1    1    3    3    0  502  0.34487053216E+03 -0.10347316530E+04  0.24736498400E+04  0.27034327824E+04  0.50400001928E-02 0.  1.
</event>
<event>
 5   0  0.7570277E-07  0.3836105E+04  0.7818609E-02  0.8038451E-01
       -2   -1    0    0    0  501  0.00000000000E+00  0.00000000000E+00  0.19346391773E+04  0.19346391773E+04  0.25500000920E-02 0.  1.
        2   -1    0    0  501    0  0.00000000000E+00  0.00000000000E+00 -0.19016083682E+04  0.19016083682E+04  0.25500000920E-02 0. -1.
    10030    2    1    2    0    0  0.00000000000E+00  0.00000000000E+00  0.33030809093E+02  0.38362475455E+04  0.38361053421E+04 0.  0.
        5    1    3    3  502    0 -0.13203416212E+03 -0.12161085807E+04 -0.14608852436E+04  0.19054030768E+04  0.46999998093E+01 0. -1.
       -5    1    3    3    0  502  0.13203416212E+03  0.12161085807E+04  0.14939160527E+04  0.19308444687E+04  0.46999998093E+01 0.  1.
</event>
<event>
 5   0  0.7256473E-07  0.4082159E+04  0.7818609E-02  0.7988174E-01
        2   -1    0    0  501    0  0.00000000000E+00  0.00000000000E+00  0.15738027760E+04  0.15738027760E+04  0.25500000920E-02 0.  1.
       -2   -1    0    0    0  501  0.00000000000E+00  0.00000000000E+00 -0.26470954021E+04  0.26470954021E+04  0.25500000920E-02 0. -1.
    10030    2    1    2    0    0  0.00000000000E+00  0.00000000000E+00 -0.10732926261E+04  0.42208981781E+04  0.40821592777E+04 0.  0.
        4    1    3    3  502    0 -0.18113457527E+04  0.71133902112E+03  0.99930015742E+02  0.19485800624E+04  0.12699999809E+01 0.  1.
       -4    1    3    3    0  502  0.18113457527E+04 -0.71133902112E+03 -0.11732226419E+04  0.22723181157E+04  0.12699999809E+01 0. -1.
</event>
<event>
 5   0  0.2401125E-07  0.2446625E+04  0.7818609E-02  0.8422251E-01
       -3   -1    0    0    0  501  0.00000000000E+00  0.00000000000E+00  0.10691359369E+04  0.10691359417E+04  0.10100000352E+00 0. -1.
        3   -1    0    0  501    0  0.00000000000E+00  0.00000000000E+00 -0.13997226333E+04  0.13997226370E+04  0.10100000352E+00 0.  1.
    10030    2    1    2    0    0  0.00000000000E+00  0.00000000000E+00 -0.33058669641E+03  0.24688585787E+04  0.24466252507E+04 0.  0.
        5    1    3    3  502    0  0.44920466343E+03  0.21537811589E+03  0.96213277404E+03  0.10834639483E+04  0.46999998093E+01 0. -1.
       -5    1    3    3    0  502 -0.44920466343E+03 -0.21537811589E+03 -0.12927194704E+04  0.13853946303E+04  0.46999998093E+01 0.  1.
</event>
<event>
 5   0  0.7570277E-07  0.3925690E+04  0.7818609E-02  0.8019707E-01
       -2   -1    0    0    0  501  0.00000000000E+00  0.00000000000E+00  0.22646119295E+04  0.22646119295E+04  0.25500000920E-02 0.  1.
        2   -1    0    0  501    0  0.00000000000E+00  0.00000000000E+00 -0.17012897447E+04  0.17012897447E+04  0.25500000920E-02 0. -1.
    10030    2    1    2    0    0  0.00000000000E+00  0.00000000000E+00  0.56332218483E+03  0.39659016742E+04  0.39256902839E+04 0.  0.
        5    1    3    3  502    0 -0.14600984505E+04 -0.23704668915E+03 -0.10217719502E+04  0.17978093965E+04  0.46999998093E+01 0. -1.
       -5    1    3    3    0  502  0.14600984505E+04  0.23704668915E+03  0.15850941350E+04  0.21680922777E+04  0.46999998093E+01 0.  1.
</event>
<event>
 5   0  0.2401125E-07  0.3112772E+04  0.7818609E-02  0.8212242E-01
       -1   -1    0    0    0  501  0.00000000000E+00  0.00000000000E+00  0.13295355564E+04  0.13295355564E+04  0.50400001928E-02 0.  1.
        1   -1    0    0  501    0  0.00000000000E+00  0.00000000000E+00 -0.18219420484E+04  0.18219420484E+04  0.50400001928E-02 0. -1.
    10030    2    1    2    0    0  0.00000000000E+00  0.00000000000E+00 -0.49240649200E+03  0.31514776049E+04  0.31127715850E+04 0.  0.
        5    1    3    3  502    0  0.14051793016E+04  0.40305444248E+03  0.29460448458E+03  0.14912396338E+04  0.46999998093E+01 0.  1.
       -5    1    3    3    0  502 -0.14051793016E+04 -0.40305444248E+03 -0.78701097658E+03  0.16602379710E+04  0.46999998093E+01 0. -1.
</event>
<event>
 5   0  0.5161550E-07  0.3912567E+04  0.7818609E-02  0.8022421E-01
       -2   -1    0    0    0  501  0.00000000000E+00  0.00000000000E+00  0.25857496321E+04  0.25857496321E+04  0.25500000920E-02 0. -1.
        2   -1    0    0  501    0  0.00000000000E+00  0.00000000000E+00 -0.14800523685E+04  0.14800523685E+04  0.25500000920E-02 0.  1.
    10030    2    1    2    0    0  0.00000000000E+00  0.00000000000E+00  0.11056972636E+04  0.40658020005E+04  0.39125668645E+04 0.  0.
        2    1    3    3  502    0 -0.43536197301E+03  0.10712811942E+04 -0.10868802294E+04  0.15869757647E+04  0.25500000920E-02 0.  1.
       -2    1    3    3    0  502  0.43536197301E+03 -0.10712811942E+04  0.21925774930E+04  0.24788262358E+04  0.25500000920E-02 0. -1.
</event>
<event>
 5   0  0.2401125E-07  0.3992340E+04  0.7818609E-02  0.8006094E-01
       -4   -1    0    0    0  501  0.00000000000E+00  0.00000000000E+00  0.17473973994E+04  0.17473978609E+04  0.12699999809E+01 0.  1.
        4   -1    0    0  501    0  0.00000000000E+00  0.00000000000E+00 -0.22803591869E+04  0.22803595405E+04  0.12699999809E+01 0. -1.
    10030    2    1    2    0    0  0.00000000000E+00  0.00000000000E+00 -0.53296178750E+03  0.40277574014E+04  0.39923403435E+04 0.  0.
        2    1    3    3  502    0  0.14001741027E+04  0.88596333298E+03  0.85662293650E+03  0.18652671124E+04  0.25500000920E-02 0.  1.
       -2    1    3    3    0  502 -0.14001741027E+04 -0.88596333298E+03 -0.13895847240E+04  0.21624902891E+04  0.25500000920E-02 0. -1.
</event>
<event>
 5   0  0.6043512E-07  0.2980856E+04  0.7818609E-02  0.8249219E-01
        2   -1    0    0  501    0  0.00000000000E+00  0.00000000000E+00  0.15463087820E+04  0.15463087820E+04  0.25500000920E-02 0. -1.
       -2   -1    0    0    0  501  0.00000000000E+00  0.00000000000E+00 -0.14365669062E+04  0.14365669062E+04  0.25500000920E-02 0.  1.
    10030    2    1    2    0    0  0.00000000000E+00  0.00000000000E+00  0.10974187582E+03  0.29828756882E+04  0.29808562683E+04 0.  0.
        3    1    3    3  502    0  0.73025513725E+03  0.12716812750E+04  0.32137857372E+03  0.15012428279E+04  0.10100000352E+00 0. -1.
       -3    1    3    3    0  502 -0.73025513725E+03 -0.12716812750E+04 -0.21163669790E+03  0.14816328603E+04  0.10100000352E+00 0.  1.
</event>
<event>
 5   0  0.2601252E-07  0.2647002E+04  0.7818609E-02  0.8352409E-01
        1   -1    0    0  501    0  0.00000000000E+00  0.00000000000E+00  0.24737043556E+04  0.24737043556E+04  0.50400001928E-02 0.  1.
       -1   -1    0    0    0  501  0.00000000000E+00  0.00000000000E+00 -0.70811020141E+03  0.70811020143E+03  0.50400001928E-02 0. -1.
    10030    2    1    2    0    0  0.00000000000E+00  0.00000000000E+00  0.17655941542E+04  0.31818145571E+04  0.26470022966E+04 0.  0.
        3    1    3    3  502    0  0.23571253420E+03 -0.63176136980E+03  0.22517418323E+04  0.23505369848E+04  0.10100000352E+00 0. -1.
       -3    1    3    3    0  502 -0.23571253420E+03  0.63176136980E+03 -0.48614767807E+03  0.83127757232E+03  0.10100000352E+00 0.  1.
</event>
<event>
 5   0  0.7570277E-07  0.4062055E+04  0.7818609E-02  0.7992144E-01
        2   -1    0    0  501    0  0.00000000000E+00  0.00000000000E+00  0.19575172457E+04  0.19575172457E+04  0.25500000920E-02 0. -1.
       -2   -1    0    0    0  501  0.00000000000E+00  0.00000000000E+00 -0.21072984043E+04  0.21072984043E+04  0.25500000920E-02 0.  1.
    10030    2    1    2    0    0  0.00000000000E+00  0.00000000000E+00 -0.14978115859E+03  0.40648156500E+04  0.40620551293E+04 0.  0.
        5    1    3    3  502    0 -0.88594149160E+02 -0.11904011487E+04  0.15694385478E+04  0.19718172490E+04  0.46999998093E+01 0. -1.
       -5    1    3    3    0  502  0.88594149160E+02  0.11904011487E+04 -0.17192197064E+04  0.20929984011E+04  0.46999998093E+01 0.  1.
</event>
<event>
 5   0  0.2713405E-07  0.3714706E+04  0.7818609E-02  0.8064711E-01
       -1   -1    0    0    0  501  0.00000000000E+00  0.00000000000E+00  0.18485670536E+04  0.18485670536E+04  0.50400001928E-02 0. -1.
        1   -1    0    0  501    0  0.00000000000E+00  0.00000000000E+00 -0.18661806714E+04  0.18661806715E+04  0.50400001928E-02 0.  1.
    10030    2    1    2    0    0  0.00000000000E+00  0.00000000000E+00 -0.17613617859E+02  0.37147477251E+04  0.37147059670E+04 0.  0.
        1    1    3    3  502    0  0.77446592822E+03 -0.47899394773E+03 -0.16276293273E+04  0.18650495712E+04  0.50400001928E-02 0.  1.
       -1    1    3    3    0  502 -0.77446592822E+03  0.47899394773E+03  0.16100157094E+04  0.18496981539E+04  0.50400001928E-02 0. -1.
</event>
<event>
 5   0  0.2401125E-07  0.4047789E+04  0.7818609E-02  0.7994975E-01
       -3   -1    0    0    0  501  0.00000000000E+00  0.00000000000E+00  0.13085934414E+04  0.13085934453E+04  0.10100000352E+00 0.  1.
        3   -1    0    0  501    0  0.00000000000E+00  0.00000000000E+00 -0.31301921975E+04  0.31301921991E+04  0.10100000352E+00 0. -1.
    10030    2    1    2    0    0  0.00000000000E+00  0.00000000000E+00 -0.18215987561E+04  0.44387856444E+04  0.40477890223E+04 0.  0.
        4    1    3    3  502    0  0.11766142316E+04 -0.10389572853E+03  0.89140122334E+03  0.14798017185E+04  0.12699999809E+01 0.  1.
       -4    1    3    3    0  502 -0.11766142316E+04  0.10389572853E+03 -0.27129999795E+04  0.29589839259E+04  0.12699999809E+01 0. -1.
</event>
<event>
 5   0  0.2601252E-07  0.2708513E+04  0.7818609E-02  0.8332248E-01
       -1   -1    0    0    0  501  0.00000000000E+00  0.00000000000E+00  0.88777851166E+03  0.88777851168E+03  0.50400001928E-02 0.  1.
        1   -1    0    0  501    0  0.00000000000E+00  0.00000000000E+00 -0.20658433531E+04  0.20658433531E+04  0.50400001928E-02 0. -1.
    10030    2    1    2    0    0  0.00000000000E+00  0.00000000000E+00 -0.11780648414E+04  0.29536218647E+04  0.27085134944E+04 0.  0.
        3    1    3    3  502    0 -0.91943953585E+03 -0.54337271001E+03 -0.14970874448E+04  0.18389926018E+04  0.10100000352E+00 0. -1.
       -3    1    3    3    0  502  0.91943953585E+03  0.54337271001E+03  0.31902260338E+03  0.11146292629E+04  0.10100000352E+00 0.  1.
</event>
<event>
 5   0  0.2601252E-07  0.3946264E+04  0.7818609E-02  0.8015475E-01
       -1   -1    0    0    0  501  0.00000000000E+00  0.00000000000E+00  0.16876292218E+04  0.16876292218E+04  0.50400001928E-02 0.  1.
        1   -1    0    0  501    0  0.00000000000E+00  0.00000000000E+00 -0.23069341301E+04  0.23069341301E+04  0.50400001928E-02 0. -1.
    10030    2    1    2    0    0  0.00000000000E+00  0.00000000000E+00 -0.61930490831E+03  0.39945633519E+04  0.39462637777E+04 0.  0.
        3    1    3    3  502    0 -0.15434759261E+04 -0.11729588390E+04  0.62404458901E+02  0.19395991079E+04  0.10100000352E+00 0. -1.
       -3    1    3    3    0  502  0.15434759261E+04  0.11729588390E+04 -0.68170936721E+03  0.20549642440E+04  0.10100000352E+00 0.  1.
</event>
<event>
 5   0  0.2601252E-07  0.4026287E+04  0.7818609E-02  0.7999265E-01
        1   -1    0    0  501    0  0.00000000000E+00  0.00000000000E+00  0.18135628176E+04  0.18135628176E+04  0.50400001928E-02 0. -1.
       -1   -1    0    0    0  501  0.00000000000E+00  0.00000000000E+00 -0.22346878765E+04  0.22346878765E+04  0.50400001928E-02 0.  1.
    10030    2    1    2    0    0  0.00000000000E+00  0.00000000000E+00 -0.42112505887E+03  0.40482506941E+04  0.40262870448E+04 0.  0.
        3    1    3    3  502    0  0.59279958404E+03  0.12765926657E+03 -0.21406797512E+04  0.22249085470E+04  0.10100000352E+00 0.  1.
       -3    1    3    3    0  502 -0.59279958404E+03 -0.12765926657E+03  0.17195546924E+04  0.18233421471E+04  0.10100000352E+00 0. -1.
</event>
<event>
 5   0  0.1295002E-06  0.2053102E+04  0.7818609E-02  0.8582188E-01
        2   -1    0    0  501    0  0.00000000000E+00  0.00000000000E+00  0.16251671600E+04  0.16251671600E+04  0.25500000920E-02 0. -1.
       -2   -1    0    0    0  501  0.00000000000E+00  0.00000000000E+00 -0.64842988542E+03  0.64842988542E+03  0.25500000920E-02 0.  1.
    10030    2    1    2    0    0  0.00000000000E+00  0.00000000000E+00  0.97673727460E+03  0.22735970454E+04  0.20531019998E+04 0.  0.
        4    1    3    3  502    0  0.60840383544E+03  0.53192903594E+02  0.14021016666E+04  0.15293382256E+04  0.12699999809E+01 0. -1.
       -4    1    3    3    0  502 -0.60840383544E+03 -0.53192903594E+02 -0.42536439201E+03  0.74425881981E+03  0.12699999809E+01 0.  1.
</event>
<event>
 5   0  0.2401125E-07  0.4053054E+04  0.7818609E-02  0.7993929E-01
       -3   -1    0    0    0  501  0.00000000000E+00  0.00000000000E+00  0.25709379056E+04  0.25709379076E+04  0.10100000352E+00 0.  1.
        3   -1    0    0  501    0  0.00000000000E+00  0.00000000000E+00 -0.15973981435E+04  0.15973981467E+04  0.10100000352E+00 0. -1.
    10030    2    1    2    0    0  0.00000000000E+00  0.00000000000E+00  0.97353976210E+03  0.41683360543E+04  0.40530538848E+04 0.  0.
        5    1    3    3  502    0  0.72256010625E+03 -0.16169022620E+04 -0.52629808540E+03  0.18475599576E+04  0.46999998093E+01 0. -1.
       -5    1    3    3    0  502 -0.72256010625E+03  0.16169022620E+04  0.14998378475E+04  0.23207760967E+04  0.46999998093E+01 0.  1.
</event>
<event>
 5   0  0.2647879E-07  0.2345911E+04  0.7818609E-02  0.8460036E-01
        1   -1    0    0  501    0  0.00000000000E+00  0.00000000000E+00  0.14559625979E+04  0.14559625979E+04  0.50400001928E-02 0.  1.
       -1   -1    0    0    0  501  0.00000000000E+00  0.00000000000E+00 -0.94495889673E+03  0.94495889675E+03  0.50400001928E-02 0. -1.
    10030    2    1    2    0    0  0.00000000000E+00  0.00000000000E+00  0.51100370113E+03  0.24009214946E+04  0.23459111750E+04 0.  0.
        2    1    3    3  502    0  0.55011981834E+03  0.68696279847E+03  0.10491043164E+04  0.13693683098E+04  0.25500000920E-02 0.  1.
       -2    1    3    3    0  502 -0.55011981834E+03 -0.68696279847E+03 -0.53810061530E+03  0.10315531849E+04  0.25500000920E-02 0. -1.
</event>
<event>
 5   0  0.4449262E-07  0.3962447E+04  0.7818609E-02  0.8012165E-01
       -2   -1    0    0    0  501  0.00000000000E+00  0.00000000000E+00  0.11759642600E+04  0.11759642600E+04  0.25500000920E-02 0. -1.
        2   -1    0    0  501    0  0.00000000000E+00  0.00000000000E+00 -0.33378955955E+04  0.33378955955E+04  0.25500000920E-02 0.  1.
    10030    2    1    2    0    0  0.00000000000E+00  0.00000000000E+00 -0.21619313356E+04  0.45138598555E+04  0.39624466804E+04 0.  0.
        1    1    3    3  502    0  0.10112474883E+04 -0.16906294226E+04 -0.13209923270E+04  0.23718916617E+04  0.50400001928E-02 0. -1.
       -1    1    3    3    0  502 -0.10112474883E+04  0.16906294226E+04 -0.84093900862E+03  0.21419681938E+04  0.50400001928E-02 0.  1.
</event>
<event>
 5   0  0.2401125E-07  0.4005449E+04  0.7818609E-02  0.8003448E-01
       -1   -1    0    0    0  501  0.00000000000E+00  0.00000000000E+00  0.23433730791E+04  0.23433730791E+04  0.50400001928E-02 0.  1.
        1   -1    0    0  501    0  0.00000000000E+00  0.00000000000E+00 -0.17115948095E+04  0.17115948095E+04  0.50400001928E-02 0. -1.
    10030    2    1    2    0    0  0.00000000000E+00  0.00000000000E+00  0.63177826963E+03  0.40549678885E+04  0.40054488881E+04 0.  0.
        5    1    3    3  502    0  0.93997812680E+03  0.17044964606E+04 -0.16112187911E+03  0.19531639493E+04  0.46999998093E+01 0. -1.
       -5    1    3    3    0  502 -0.93997812680E+03 -0.17044964606E+04  0.79290014874E+03  0.21018039392E+04  0.46999998093E+01 0.  1.
</event>
<event>
 5   0  0.4449262E-07  0.2353234E+04  0.7818609E-02  0.8457222E-01
       -2   -1    0    0    0  501  0.00000000000E+00  0.00000000000E+00  0.13249012192E+04  0.13249012192E+04  0.25500000920E-02 0.  1.
        2   -1    0    0  501    0  0.00000000000E+00  0.00000000000E+00 -0.10449289373E+04  0.10449289373E+04  0.25500000920E-02 0. -1.
    10030    2    1    2    0    0  0.00000000000E+00  0.00000000000E+00  0.27997228189E+03  0.23698301565E+04  0.23532340495E+04 0.  0.
        1    1    3    3  502    0  0.10309848829E+04 -0.90601480726E+02  0.70365596576E+03  0.12515071615E+04  0.50400001928E-02 0.  1.
       -1    1    3    3    0  502 -0.10309848829E+04  0.90601480726E+02 -0.42368368387E+03  0.11183229950E+04  0.50400001928E-02 0. -1.
</event>
<event>
 5   0  0.2401125E-07  0.2678244E+04  0.7818609E-02  0.8342099E-01
        4   -1    0    0  501    0  0.00000000000E+00  0.00000000000E+00  0.18340918978E+04  0.18340923375E+04  0.12699999809E+01 0. -1.
       -4   -1    0    0    0  501  0.00000000000E+00  0.00000000000E+00 -0.97772930318E+03  0.97773012800E+03  0.12699999809E+01 0.  1.
    10030    2    1    2    0    0  0.00000000000E+00  0.00000000000E+00  0.85636259464E+03  0.28118224655E+04  0.26782435819E+04 0.  0.
        5    1    3    3  502    0 -0.12426112155E+04  0.37913728676E+03  0.87339613555E+02  0.13021052236E+04  0.46999998093E+01 0.  1.
       -5    1    3    3    0  502  0.12426112155E+04 -0.37913728676E+03  0.76902298109E+03  0.15097172419E+04  0.46999998093E+01 0. -1.
</event>
<event>
 5   0  0.7256473E-07  0.3966231E+04  0.7818609E-02  0.8011394E-01
        2   -1    0    0  501    0  0.00000000000E+00  0.00000000000E+00  0.19216002964E+04  0.19216002964E+04  0.25500000920E-02 0. -1.
       -2   -1    0    0    0  501  0.00000000000E+00  0.00000000000E+00 -0.20465996095E+04  0.20465996095E+04  0.25500000920E-02 0.  1.
    10030    2    1    2    0    0  0.00000000000E+00  0.00000000000E+00 -0.12499931308E+03  0.39681999059E+04  0.39662306621E+04 0.  0.
        4    1    3    3  502    0 -0.34675270474E+03  0.13118394612E+04  0.13844495696E+04  0.19385206819E+04  0.12699999809E+01 0. -1.
       -4    1    3    3    0  502  0.34675270474E+03 -0.13118394612E+04 -0.15094488827E+04  0.20296792241E+04  0.12699999809E+01 0.  1.
</event>
<event>
 5   0  0.4449262E-07  0.2333145E+04  0.7818609E-02  0.8464966E-01
       -2   -1    0    0    0  501  0.00000000000E+00  0.00000000000E+00  0.12625149729E+04  0.12625149729E+04  0.25500000920E-02 0. -1.
        2   -1    0    0  501    0  0.00000000000E+00  0.00000000000E+00 -0.10779209922E+04  0.10779209922E+04  0.25500000920E-02 0.  1.
    10030    2    1    2    0    0  0.00000000000E+00  0.00000000000E+00  0.18459398066E+03  0.23404359651E+04  0.23331449953E+04 0.  0.
        1    1    3    3  502    0  0.62017575420E+03  0.90155699511E+03 -0.31327873553E+03  0.11382295672E+04  0.50400001928E-02 0. -1.
       -1    1    3    3    0  502 -0.62017575420E+03 -0.90155699511E+03  0.49787271618E+03  0.12022063979E+04  0.50400001928E-02 0.  1.
</event>
<event>
 5   0  0.7570277E-07  0.2366133E+04  0.7818609E-02  0.8452293E-01
       -2   -1    0    0    0  501  0.00000000000E+00  0.00000000000E+00  0.77606059187E+03  0.77606059187E+03  0.25500000920E-02 0. -1.
        2   -1    0    0  501    0  0.00000000000E+00  0.00000000000E+00 -0.18035273059E+04  0.18035273059E+04  0.25500000920E-02 0.  1.
    10030    2    1    2    0    0  0.00000000000E+00  0.00000000000E+00 -0.10274667140E+04  0.25795878977E+04  0.23661331057E+04 0.  0.
        5    1    3    3  502    0  0.91976114226E+03 -0.66427822281E+03 -0.87923636657E+03  0.14353761857E+04  0.46999998093E+01 0.  1.
       -5    1    3    3    0  502 -0.91976114226E+03  0.66427822281E+03 -0.14823034744E+03  0.11442117121E+04  0.46999998093E+01 0. -1.
</event>
<event>
 5   0  0.4449262E-07  0.2671913E+04  0.7818609E-02  0.8344176E-01
       -2   -1    0    0    0  501  0.00000000000E+00  0.00000000000E+00  0.78016858182E+03  0.78016858182E+03  0.25500000920E-02 0.  1.
        2   -1    0    0  501    0  0.00000000000E+00  0.00000000000E+00 -0.22876843765E+04  0.22876843765E+04  0.25500000920E-02 0. -1.
    10030    2    1    2    0    0  0.00000000000E+00  0.00000000000E+00 -0.15075157946E+04  0.30678529583E+04  0.26719127798E+04 0.  0.
        1    1    3    3  502    0 -0.62189297417E+03 -0.96035417518E+03  0.38197931605E+02  0.11447663932E+04  0.50400001928E-02 0.  1.
       -1    1    3    3    0  502  0.62189297417E+03  0.96035417518E+03 -0.15457137263E+04  0.19230865650E+04  0.50400001928E-02 0. -1.
</event>
<event>
 5   0  0.2647879E-07  0.3959277E+04  0.7818609E-02  0.8012812E-01
        1   -1    0    0  501    0  0.00000000000E+00  0.00000000000E+00  0.21996549413E+04  0.21996549413E+04  0.50400001928E-02 0.  1.
       -1   -1    0    0    0  501  0.00000000000E+00  0.00000000000E+00 -0.17816285831E+04  0.17816285831E+04  0.50400001928E-02 0. -1.
    10030    2    1    2    0    0  0.00000000000E+00  0.00000000000E+00  0.41802635823E+03  0.39812835244E+04  0.39592767604E+04 0.  0.
        2    1    3    3  502    0 -0.62593156369E+03 -0.73627843313E+02  0.20960784532E+04  0.21887796289E+04  0.25500000920E-02 0.  1.
       -2    1    3    3    0  502  0.62593156369E+03  0.73627843313E+02 -0.16780520950E+04  0.17925038955E+04  0.25500000920E-02 0. -1.
</event>
<event>
 5   0  0.6043512E-07  0.4028445E+04  0.7818609E-02  0.7998833E-01
        2   -1    0    0  501    0  0.00000000000E+00  0.00000000000E+00  0.24403015837E+04  0.24403015837E+04  0.25500000920E-02 0.  1.
       -2   -1    0    0    0  501  0.00000000000E+00  0.00000000000E+00 -0.16625376419E+04  0.16625376419E+04  0.25500000920E-02 0. -1.
    10030    2    1    2    0    0  0.00000000000E+00  0.00000000000E+00  0.77776394180E+03  0.41028392255E+04  0.40284454770E+04 0.  0.
        3    1    3    3  502    0 -0.25384477786E+02 -0.19750418310E+03 -0.16524881803E+04  0.16644426906E+04  0.10100000352E+00 0. -1.
       -3    1    3    3    0  502  0.25384477786E+02  0.19750418310E+03  0.24302521221E+04  0.24383965349E+04  0.10100000352E+00 0.  1.
</event>
<event>
 5   0  0.2647879E-07  0.4254011E+04  0.7818609E-02  0.7955177E-01
        1   -1    0    0  501    0  0.00000000000E+00  0.00000000000E+00  0.26790262417E+04  0.26790262417E+04  0.50400001928E-02 0.  1.
       -1   -1    0    0    0  501  0.00000000000E+00  0.00000000000E+00 -0.16887299724E+04  0.16887299724E+04  0.50400001928E-02 0. -1.
    10030    2    1    2    0    0  0.00000000000E+00  0.00000000000E+00  0.99029626931E+03  0.43677562141E+04  0.42540107716E+04 0.  0.
        2    1    3    3  502    0 -0.80591734322E+03  0.36280246289E+03 -0.14912718830E+04  0.17334994146E+04  0.25500000920E-02 0. -1.
       -2    1    3    3    0  502  0.80591734322E+03 -0.36280246289E+03  0.24815681524E+04  0.26342567995E+04  0.25500000920E-02 0.  1.
</event>
<event>
 5   0  0.7256473E-07  0.2518773E+04  0.7818609E-02  0.8396328E-01
        2   -1    0    0  501    0  0.00000000000E+00  0.00000000000E+00  0.12813373376E+04  0.12813373376E+04  0.25500000920E-02 0. -1.
       -2   -1    0    0    0  501  0.00000000000E+00  0.00000000000E+00 -0.12378113322E+04  0.12378113322E+04  0.25500000920E-02 0.  1.
    10030    2    1    2    0    0  0.00000000000E+00  0.00000000000E+00  0.43526005484E+02  0.25191486698E+04  0.25187726192E+04 0.  0.
        4    1    3    3  502    0  0.11932556042E+04 -0.38310876356E+03 -0.10243686601E+03  0.12574284019E+04  0.12699999809E+01 0.  1.
       -4    1    3    3    0  502 -0.11932556042E+04  0.38310876356E+03  0.14596287150E+03  0.12617202679E+04  0.12699999809E+01 0. -1.
</event>
<event>
 5   0  0.3579559E-07  0.2626426E+04  0.7818609E-02  0.8359280E-01
        1   -1    0    0  501    0  0.00000000000E+00  0.00000000000E+00  0.18492855621E+04  0.18492855621E+04  0.50400001928E-02 0.  1.
       -1   -1    0    0    0  501  0.00000000000E+00  0.00000000000E+00 -0.93253797485E+03  0.93253797486E+03  0.50400001928E-02 0. -1.
    10030    2    1    2    0    0  0.00000000000E+00  0.00000000000E+00  0.91674758723E+03  0.27818235369E+04  0.26264264795E+04 0.  0.
        4    1    3    3  502    0  0.75735582661E+02 -0.13075176966E+04  0.55990471538E+03  0.14243711976E+04  0.12699999809E+01 0.  1.
       -4    1    3    3    0  502 -0.75735582661E+02  0.13075176966E+04  0.35684287185E+03  0.13574523393E+04  0.12699999809E+01 0. -1.
</event>
<event>
 5   0  0.7570277E-07  0.2552419E+04  0.7818609E-02  0.8384545E-01
        2   -1    0    0  501    0  0.00000000000E+00  0.00000000000E+00  0.21274924745E+04  0.21274924745E+04  0.25500000920E-02 0.  1.
       -2   -1    0    0    0  501  0.00000000000E+00  0.00000000000E+00 -0.76555416653E+03  0.76555416654E+03  0.25500000920E-02 0. -1.
    10030    2    1    2    0    0  0.00000000000E+00  0.00000000000E+00  0.13619383080E+04  0.28930466410E+04  0.25524190315E+04 0.  0.
        5    1    3    3  502    0 -0.26503688571E+03 -0.87059983099E+03  0.16950769820E+04  0.19239274107E+04  0.46999998093E+01 0.  1.
       -5    1    3    3    0  502  0.26503688571E+03  0.87059983099E+03 -0.33313867407E+03  0.96911923037E+03  0.46999998093E+01 0. -1.
</event>
<event>
 5   0  0.5161550E-07  0.2798830E+04  0.7818609E-02  0.8303632E-01
       -2   -1    0    0    0  501  0.00000000000E+00  0.00000000000E+00  0.86415701705E+03  0.86415701706E+03  0.25500000920E-02 0. -1.
        2   -1    0    0  501    0  0.00000000000E+00  0.00000000000E+00 -0.22662116778E+04  0.22662116778E+04  0.25500000920E-02 0.  1.
    10030    2    1    2    0    0  0.00000000000E+00  0.00000000000E+00 -0.14020546607E+04  0.31303686949E+04  0.27988302725E+04 0.  0.
        2    1    3    3  502    0 -0.10082118748E+04 -0.91104553236E+03 -0.32694168379E+03  0.13976358650E+04  0.25500000920E-02 0. -1.
       -2    1    3    3    0  502  0.10082118748E+04  0.91104553236E+03 -0.10751129769E+04  0.17327328299E+04  0.25500000920E-02 0.  1.
</event>
<event>
 5   0  0.5161550E-07  0.3894117E+04  0.7818609E-02  0.8026254E-01
        2   -1    0    0  501    0  0.00000000000E+00  0.00000000000E+00  0.26783059013E+04  0.26783059013E+04  0.25500000920E-02 0. -1.
       -2   -1    0    0    0  501  0.00000000000E+00  0.00000000000E+00 -0.14154606569E+04  0.14154606569E+04  0.25500000920E-02 0.  1.
    10030    2    1    2    0    0  0.00000000000E+00  0.00000000000E+00  0.12628452444E+04  0.40937665582E+04  0.38941169117E+04 0.  0.
        2    1    3    3  502    0  0.32482441311E+03 -0.38721270332E+03  0.26081426499E+04  0.26566619392E+04  0.25500000920E-02 0. -1.
       -2    1    3    3    0  502 -0.32482441311E+03  0.38721270332E+03 -0.13452974055E+04  0.14371046191E+04  0.25500000920E-02 0.  1.
</event>
<event>
 5   0  0.6043512E-07  0.3595752E+04  0.7818609E-02  0.8091465E-01
       -2   -1    0    0    0  501  0.00000000000E+00  0.00000000000E+00  0.25209122604E+04  0.25209122604E+04  0.25500000920E-02 0. -1.
        2   -1    0    0  501    0  0.00000000000E+00  0.00000000000E+00 -0.12822178739E+04  0.12822178739E+04  0.25500000920E-02 0.  1.
    10030    2    1    2    0    0  0.00000000000E+00  0.00000000000E+00  0.12386943865E+04  0.38031301343E+04  0.35957523601E+04 0.  0.
        3    1    3    3  502    0 -0.99801257209E+03  0.36375416359E+03 -0.91483019086E+03  0.14018774818E+04  0.10100000352E+00 0.  1.
       -3    1    3    3    0  502  0.99801257209E+03 -0.36375416359E+03  0.21535245774E+04  0.24012526525E+04  0.10100000352E+00 0. -1.
</event>
<event>
 5   0  0.7256473E-07  0.2327534E+04  0.7818609E-02  0.8467143E-01
        2   -1    0    0  501    0  0.00000000000E+00  0.00000000000E+00  0.13903882381E+04  0.13903882381E+04  0.25500000920E-02 0.  1.
       -2   -1    0    0    0  501  0.00000000000E+00  0.00000000000E+00 -0.97408313634E+03  0.97408313634E+03  0.25500000920E-02 0. -1.
    10030    2    1    2    0    0  0.00000000000E+00  0.00000000000E+00  0.41630510174E+03  0.23644713744E+04  0.23275340906E+04 0.  0.
        4    1    3    3  502    0 -0.37909649034E+03 -0.30498284570E+03  0.12821067497E+04  0.13713234541E+04  0.12699999809E+01 0.  1.
       -4    1    3    3    0  502  0.37909649034E+03  0.30498284570E+03 -0.86580164797E+03  0.99314792034E+03  0.12699999809E+01 0. -1.
</event>
<event>
 5   0  0.2713405E-07  0.2662943E+04  0.7818609E-02  0.8347130E-01
       -1   -1    0    0    0  501  0.00000000000E+00  0.00000000000E+00  0.14016285217E+04  0.14016285217E+04  0.50400001928E-02 0.  1.
        1   -1    0    0  501    0  0.00000000000E+00  0.00000000000E+00 -0.12648265152E+04  0.12648265152E+04  0.50400001928E-02 0. -1.
    10030    2    1    2    0    0  0.00000000000E+00  0.00000000000E+00  0.13680200649E+03  0.26664550369E+04  0.26629434231E+04 0.  0.
        1    1    3    3  502    0  0.11112782161E+04 -0.19575645606E+03  0.77612655156E+03  0.13695372532E+04  0.50400001928E-02 0.  1.
       -1    1    3    3    0  502 -0.11112782161E+04  0.19575645606E+03 -0.63932454508E+03  0.12969177837E+04  0.50400001928E-02 0. -1.
</event>
<event>
 5   0  0.5161550E-07  0.1998015E+04  0.7818609E-02  0.8607549E-01
        2   -1    0    0  501    0  0.00000000000E+00  0.00000000000E+00  0.11678614082E+04  0.11678614082E+04  0.25500000920E-02 0.  1.
       -2   -1    0    0    0  501  0.00000000000E+00  0.00000000000E+00 -0.85456674649E+03  0.85456674649E+03  0.25500000920E-02 0. -1.
    10030    2    1    2    0    0  0.00000000000E+00  0.00000000000E+00  0.31329466168E+03  0.20224281547E+04  0.19980145384E+04 0.  0.
        2    1    3    3  502    0  0.62212960379E+03 -0.22062919912E+03 -0.60237719841E+03  0.89363346882E+03  0.25500000920E-02 0. -1.
       -2    1    3    3    0  502 -0.62212960379E+03  0.22062919912E+03  0.91567186009E+03  0.11287946858E+04  0.25500000920E-02 0.  1.
</event>
<event>
 5   0  0.6043512E-07  0.2185891E+04  0.7818609E-02  0.8524324E-01
        2   -1    0    0  501    0  0.00000000000E+00  0.00000000000E+00  0.15085262460E+04  0.15085262460E+04  0.25500000920E-02 0. -1.
       -2   -1    0    0    0  501  0.00000000000E+00  0.00000000000E+00 -0.79185224210E+03  0.79185224210E+03  0.25500000920E-02 0.  1.
    10030    2    1    2    0    0  0.00000000000E+00  0.00000000000E+00  0.71667400388E+03  0.23003784881E+04  0.21858910221E+04 0.  0.
        3    1    3    3  502    0 -0.74518449301E+03  0.28392546088E+03  0.11448892688E+04  0.13952365549E+04  0.10100000352E+00 0. -1.
       -3    1    3    3    0  502  0.74518449301E+03 -0.28392546088E+03 -0.42821526494E+03  0.90514193322E+03  0.10100000352E+00 0.  1.
</event>
<event>
 5   0  0.4449262E-07  0.2216598E+04  0.7818609E-02  0.8511551E-01
       -2   -1    0    0    0  501  0.00000000000E+00  0.00000000000E+00  0.76623033571E+03  0.76623033571E+03  0.25500000920E-02 0.  1.
        2   -1    0    0  501    0  0.00000000000E+00  0.00000000000E+00 -0.16030781554E+04  0.16030781554E+04  0.25500000920E-02 0. -1.
    10030    2    1    2    0    0  0.00000000000E+00  0.00000000000E+00 -0.83684781969E+03  0.23693084911E+04  0.22165983968E+04 0.  0.
        1    1    3    3  502    0 -0.61717100866E+02 -0.24115219801E+03 -0.15728113664E+04  0.15923878226E+04  0.50400001928E-02 0. -1.
       -1    1    3    3    0  502  0.61717100866E+02  0.24115219801E+03  0.73596354670E+03  0.77692066856E+03  0.50400001928E-02 0.  1.
</event>
<event>
 5   0  0.3579559E-07  0.2085084E+04  0.7818609E-02  0.8567842E-01
       -1   -1    0    0    0  501  0.00000000000E+00  0.00000000000E+00  0.61523459442E+03  0.61523459444E+03  0.50400001928E-02 0.  1.
        1   -1    0    0  501    0  0.00000000000E+00  0.00000000000E+00 -0.17666338326E+04  0.17666338327E+04  0.50400001928E-02 0. -1.
    10030    2    1    2    0    0  0.00000000000E+00  0.00000000000E+00 -0.11513992382E+04  0.23818684271E+04  0.20850844103E+04 0.  0.
        4    1    3    3  502    0  0.22790544778E+03 -0.36590242669E+03 -0.16600576664E+04  0.17151147331E+04  0.12699999809E+01 0. -1.
       -4    1    3    3    0  502 -0.22790544778E+03  0.36590242669E+03  0.50865842819E+03  0.66675369399E+03  0.12699999809E+01 0.  1.
</event>
<event>
 5   0  0.6043512E-07  0.4009852E+04  0.7818609E-02  0.8002562E-01
       -2   -1    0    0    0  501  0.00000000000E+00  0.00000000000E+00  0.15348564249E+04  0.15348564249E+04  0.25500000920E-02 0.  1.
        2   -1    0    0  501    0  0.00000000000E+00  0.00000000000E+00 -0.26189605497E+04  0.26189605497E+04  0.25500000920E-02 0. -1.
    10030    2    1    2    0    0  0.00000000000E+00  0.00000000000E+00 -0.10841041248E+04  0.41538169747E+04  0.40098520803E+04 0.  0.
        3    1    3    3  502    0  0.18542115208E+04 -0.72180909658E+03 -0.28700177027E+03  0.20103429464E+04  0.10100000352E+00 0. -1.
       -3    1    3    3    0  502 -0.18542115208E+04  0.72180909658E+03 -0.79710235453E+03  0.21434740282E+04  0.10100000352E+00 0.  1.
</event>
<event>
 5   0  0.7570277E-07  0.1973043E+04  0.7818609E-02  0.8619329E-01
        2   -1    0    0  501    0  0.00000000000E+00  0.00000000000E+00  0.24971271893E+04  0.24971271893E+04  0.25500000920E-02 0.  1.
       -2   -1    0    0    0  501  0.00000000000E+00  0.00000000000E+00 -0.38973779388E+03  0.38973779389E+03  0.25500000920E-02 0. -1.
    10030    2    1    2    0    0  0.00000000000E+00  0.00000000000E+00  0.21073893954E+04  0.28868649832E+04  0.19730431742E+04 0.  0.
        5    1    3    3  502    0  0.97766010596E+03  0.11469556527E+03  0.11488378917E+04  0.15128862967E+04  0.46999998093E+01 0.  1.
       -5    1    3    3    0  502 -0.97766010596E+03 -0.11469556527E+03  0.95855150369E+03  0.13739786864E+04  0.46999998093E+01 0. -1.
</event>
<event>
 5   0  0.5161550E-07  0.4000792E+04  0.7818609E-02  0.8004387E-01
       -2   -1    0    0    0  501  0.00000000000E+00  0.00000000000E+00  0.12926403671E+04  0.12926403671E+04  0.25500000920E-02 0. -1.
        2   -1    0    0  501    0  0.00000000000E+00  0.00000000000E+00 -0.30956676092E+04  0.30956676092E+04  0.25500000920E-02 0.  1.
    10030    2    1    2    0    0  0.00000000000E+00  0.00000000000E+00 -0.18030272422E+04  0.43883079763E+04  0.40007923789E+04 0.  0.
        2    1    3    3  502    0  0.29467430258E+03 -0.19571299544E+04 -0.58286820683E+03  0.20632319185E+04  0.25500000920E-02 0. -1.
       -2    1    3    3    0  502 -0.29467430258E+03  0.19571299544E+04 -0.12201590353E+04  0.23250760578E+04  0.25500000920E-02 0.  1.
</event>
<event>
 5   0  0.5161550E-07  0.1995282E+04  0.7818609E-02  0.8608830E-01
       -2   -1    0    0    0  501  0.00000000000E+00  0.00000000000E+00  0.85876576156E+03  0.85876576156E+03  0.25500000920E-02 0. -1.
        2   -1    0    0  501    0  0.00000000000E+00  0.00000000000E+00 -0.11589745691E+04  0.11589745691E+04  0.25500000920E-02 0.  1.
    10030    2    1    2    0    0  0.00000000000E+00  0.00000000000E+00 -0.30020880759E+03  0.20177403307E+04  0.19952821139E+04 0.  0.
        2    1    3    3  502    0  0.28322714033E+03  0.25855202971E+03  0.78125103137E+03  0.87029876428E+03  0.25500000920E-02 0. -1.
       -2    1    3    3    0  502 -0.28322714033E+03 -0.25855202971E+03 -0.10814598390E+04  0.11474415664E+04  0.25500000920E-02 0.  1.
</event>
<event>
 5   0  0.6043512E-07  0.3923033E+04  0.7818609E-02  0.8020256E-01
        2   -1    0    0  501    0  0.00000000000E+00  0.00000000000E+00  0.18001437587E+04  0.18001437587E+04  0.25500000920E-02 0. -1.
       -2   -1    0    0    0  501  0.00000000000E+00  0.00000000000E+00 -0.21373554841E+04  0.21373554841E+04  0.25500000920E-02 0.  1.
    10030    2    1    2    0    0  0.00000000000E+00  0.00000000000E+00 -0.33721172540E+03  0.39374992429E+04  0.39230330791E+04 0.  0.
        3    1    3    3  502    0 -0.63379919494E+03  0.18537723969E+04 -0.26578026060E+03  0.19770717427E+04  0.10100000352E+00 0. -1.
       -3    1    3    3    0  502  0.63379919494E+03 -0.18537723969E+04 -0.71431464803E+02  0.19604275001E+04  0.10100000352E+00 0.  1.
</event>
<event>
 5   0  0.2647879E-07  0.4014598E+04  0.7818609E-02  0.8001608E-01
        1   -1    0    0  501    0  0.00000000000E+00  0.00000000000E+00  0.14995694941E+04  0.14995694941E+04  0.50400001928E-02 0.  1.
       -1   -1    0    0    0  501  0.00000000000E+00  0.00000000000E+00 -0.26869369554E+04  0.26869369554E+04  0.50400001928E-02 0. -1.
    10030    2    1    2    0    0  0.00000000000E+00  0.00000000000E+00 -0.11873674613E+04  0.41865064495E+04  0.40145977088E+04 0.  0.
        2    1    3    3  502    0 -0.26210420713E+03  0.31061281838E+03 -0.26435815382E+04  0.26746405903E+04  0.25500000920E-02 0. -1.
       -2    1    3    3    0  502  0.26210420713E+03 -0.31061281838E+03  0.14562140769E+04  0.15118658592E+04  0.25500000920E-02 0.  1.
</event>
<event>
 5   0  0.2647879E-07  0.3926275E+04  0.7818609E-02  0.8019587E-01
        1   -1    0    0  501    0  0.00000000000E+00  0.00000000000E+00  0.28852792359E+04  0.28852792359E+04  0.50400001928E-02 0. -1.
       -1   -1    0    0    0  501  0.00000000000E+00  0.00000000000E+00 -0.13357140108E+04  0.13357140108E+04  0.50400001928E-02 0.  1.
    10030    2    1    2    0    0  0.00000000000E+00  0.00000000000E+00  0.15495652251E+04  0.42209932467E+04  0.39262745194E+04 0.  0.
        2    1    3    3  502    0  0.16046434688E+04 -0.63231366367E+03 -0.23326137264E+03  0.17404344570E+04  0.25500000920E-02 0.  1.
       -2    1    3    3    0  502 -0.16046434688E+04  0.63231366367E+03  0.17828265977E+04  0.24805587896E+04  0.25500000920E-02 0. -1.
</event>
<event>
 5   0  0.5161550E-07  0.2255401E+04  0.7818609E-02  0.8495717E-01
       -2   -1    0    0    0  501  0.00000000000E+00  0.00000000000E+00  0.15730730583E+04  0.15730730583E+04  0.25500000920E-02 0.  1.
        2   -1    0    0  501    0  0.00000000000E+00  0.00000000000E+00 -0.80842263562E+03  0.80842263562E+03  0.25500000920E-02 0. -1.
    10030    2    1    2    0    0  0.00000000000E+00  0.00000000000E+00  0.76465042272E+03  0.23814956940E+04  0.22554005124E+04 0.  0.
        2    1    3    3  502    0 -0.28384467984E+03 -0.10273453427E+04  0.77129747103E+03  0.13156390250E+04  0.25500000920E-02 0. -1.
       -2    1    3    3    0  502  0.28384467984E+03  0.10273453427E+04 -0.66470483099E+01  0.10658566689E+04  0.25500000920E-02 0.  1.
</event>
<event>
 5   0  0.4449262E-07  0.2226336E+04  0.7818609E-02  0.8507546E-01
       -2   -1    0    0    0  501  0.00000000000E+00  0.00000000000E+00  0.14245310447E+04  0.14245310447E+04  0.25500000920E-02 0.  1.
        2   -1    0    0  501    0  0.00000000000E+00  0.00000000000E+00 -0.86986035490E+03  0.86986035491E+03  0.25500000920E-02 0. -1.
    10030    2    1    2    0    0  0.00000000000E+00  0.00000000000E+00  0.55467068982E+03  0.22943913996E+04  0.22263360754E+04 0.  0.
        1    1    3    3  502    0  0.75199956942E+03  0.20379401946E+03 -0.54202007620E+03  0.94911596647E+03  0.50400001928E-02 0. -1.
       -1    1    3    3    0  502 -0.75199956942E+03 -0.20379401946E+03  0.10966907660E+04  0.13452754332E+04  0.50400001928E-02 0.  1.
</event>
<event>
 5   0  0.7256473E-07  0.3878920E+04  0.7818609E-02  0.8029428E-01
        2   -1    0    0  501    0  0.00000000000E+00  0.00000000000E+00  0.20808571012E+04  0.20808571012E+04  0.25500000920E-02 0.  1.
       -2   -1    0    0    0  501  0.00000000000E+00  0.00000000000E+00 -0.18076708836E+04  0.18076708836E+04  0.25500000920E-02 0. -1.
    10030    2    1    2    0    0  0.00000000000E+00  0.00000000000E+00  0.27318621755E+03  0.38885279848E+04  0.38789198469E+04 0.  0.
        4    1    3    3  502    0 -0.93359076598E+03 -0.85828135793E+02  0.18386045329E+04  0.20638377913E+04  0.12699999809E+01 0.  1.
       -4    1    3    3    0  502  0.93359076598E+03  0.85828135793E+02 -0.15654183154E+04  0.18246901935E+04  0.12699999809E+01 0. -1.
</event>
<event>
 5   0  0.6043512E-07  0.2868550E+04  0.7818609E-02  0.8282297E-01
        2   -1    0    0  501    0  0.00000000000E+00  0.00000000000E+00  0.13716428531E+04  0.13716428531E+04  0.25500000920E-02 0.  1.
       -2   -1    0    0    0  501  0.00000000000E+00  0.00000000000E+00 -0.14997667201E+04  0.14997667201E+04  0.25500000920E-02 0. -1.
    10030    2    1    2    0    0  0.00000000000E+00  0.00000000000E+00 -0.12812386700E+03  0.28714095731E+04  0.28685496704E+04 0.  0.
        3    1    3    3  502    0 -0.80477034105E+03 -0.11680446345E+04 -0.27678432709E+03  0.14451965762E+04  0.10100000352E+00 0. -1.
       -3    1    3    3    0  502  0.80477034105E+03  0.11680446345E+04  0.14866046010E+03  0.14262129969E+04  0.10100000352E+00 0.  1.
</event>
<event>
 5   0  0.6043512E-07  0.3818639E+04  0.7818609E-02  0.8042167E-01
        2   -1    0    0  501    0  0.00000000000E+00  0.00000000000E+00  0.23381784392E+04  0.23381784392E+04  0.25500000920E-02 0.  1.
       -2   -1    0    0    0  501  0.00000000000E+00  0.00000000000E+00 -0.15591198129E+04  0.15591198129E+04  0.25500000920E-02 0. -1.
    10030    2    1    2    0    0  0.00000000000E+00  0.00000000000E+00  0.77905862628E+03  0.38972982521E+04  0.38186386740E+04 0.  0.
        3    1    3    3  502    0  0.17568145248E+04  0.24949647973E+02 -0.37318010063E+03  0.17961857245E+04  0.10100000352E+00 0. -1.
       -3    1    3    3    0  502 -0.17568145248E+04 -0.24949647973E+02  0.11522387269E+04  0.21011125275E+04  0.10100000352E+00 0.  1.
</event>
<event>
 5   0  0.2647879E-07  0.2570871E+04  0.7818609E-02  0.8378164E-01
       -1   -1    0    0    0  501  0.00000000000E+00  0.00000000000E+00  0.10499042661E+04  0.10499042662E+04  0.50400001928E-02 0.  1.
        1   -1    0    0  501    0  0.00000000000E+00  0.00000000000E+00 -0.15738043352E+04  0.15738043352E+04  0.50400001928E-02 0. -1.
    10030    2    1    2    0    0  0.00000000000E+00  0.00000000000E+00 -0.52390006906E+03  0.26237086014E+04  0.25708705807E+04 0.  0.
        2    1    3    3  502    0  0.19058119991E+02  0.59911072246E+02 -0.15722343617E+04  0.15734908441E+04  0.25500000920E-02 0. -1.
       -2    1    3    3    0  502 -0.19058119991E+02 -0.59911072246E+02  0.10483342926E+04  0.10502177572E+04  0.25500000920E-02 0.  1.
</event>
<event>
 5   0  0.3579559E-07  0.3091092E+04  0.7818609E-02  0.8218187E-01
        1   -1    0    0  501    0  0.00000000000E+00  0.00000000000E+00  0.22642455068E+04  0.22642455069E+04  0.50400001928E-02 0. -1.
       -1   -1    0    0    0  501  0.00000000000E+00  0.00000000000E+00 -0.10549708504E+04  0.10549708504E+04  0.50400001928E-02 0.  1.
    10030    2    1    2    0    0  0.00000000000E+00  0.00000000000E+00  0.12092746565E+04  0.33192163572E+04  0.30910923686E+04 0.  0.
        4    1    3    3  502    0  0.45040046247E+03  0.88190068968E+03  0.18788462322E+04  0.21238347818E+04  0.12699999809E+01 0. -1.
       -4    1    3    3    0  502 -0.45040046247E+03 -0.88190068968E+03 -0.66957157571E+03  0.11953815755E+04  0.12699999809E+01 0.  1.
</event>
<event>
 5   0  0.3579559E-07  0.3034375E+04  0.7818609E-02  0.8233982E-01
       -1   -1    0    0    0  501  0.00000000000E+00  0.00000000000E+00  0.10537257091E+04  0.10537257091E+04  0.50400001928E-02 0. -1.
        1   -1    0    0  501    0  0.00000000000E+00  0.00000000000E+00 -0.21844944093E+04  0.21844944094E+04  0.50400001928E-02 0.  1.
    10030    2    1    2    0    0  0.00000000000E+00  0.00000000000E+00 -0.11307687002E+04  0.32382201185E+04  0.30343750069E+04 0.  0.
        4    1    3    3  502    0  0.91938912808E+02  0.31160228751E+03 -0.21469371384E+04  0.21713796164E+04  0.12699999809E+01 0.  1.
       -4    1    3    3    0  502 -0.91938912808E+02 -0.31160228751E+03  0.10161684382E+04  0.10668405021E+04  0.12699999809E+01 0. -1.
</event>
<event>
 5   0  0.6043512E-07  0.4005673E+04  0.7818609E-02  0.8003403E-01
       -2   -1    0    0    0  501  0.00000000000E+00  0.00000000000E+00  0.16012069593E+04  0.16012069593E+04  0.25500000920E-02 0. -1.
        2   -1    0    0  501    0  0.00000000000E+00  0.00000000000E+00 -0.25052070158E+04  0.25052070158E+04  0.25500000920E-02 0.  1.
    10030    2    1    2    0    0  0.00000000000E+00  0.00000000000E+00 -0.90400005653E+03  0.41064139751E+04  0.40056734306E+04 0.  0.
        3    1    3    3  502    0 -0.89879662341E+03 -0.16611668716E+04  0.23112510983E+03  0.19028214767E+04  0.10100000352E+00 0. -1.
       -3    1    3    3    0  502  0.89879662341E+03  0.16611668716E+04 -0.11351251664E+04  0.22035924984E+04  0.10100000352E+00 0.  1.
</event>
<event>
 5   0  0.2401125E-07  0.3971467E+04  0.7818609E-02  0.8010327E-01
       -1   -1    0    0    0  501  0.00000000000E+00  0.00000000000E+00  0.30681110906E+04  0.30681110906E+04  0.50400001928E-02 0. -1.
        1   -1    0    0  501    0  0.00000000000E+00  0.00000000000E+00 -0.12852000981E+04  0.12852000981E+04  0.50400001928E-02 0.  1.
    10030    2    1    2    0    0  0.00000000000E+00  0.00000000000E+00  0.17829109926E+04  0.43533111887E+04  0.39714665677E+04 0.  0.
        5    1    3    3  502    0 -0.17683891885E+04  0.74761364492E+03  0.14471361915E+04  0.24042362053E+04  0.46999998093E+01 0. -1.
       -5    1    3    3    0  502  0.17683891885E+04 -0.74761364492E+03  0.33577480107E+03  0.19490749834E+04  0.46999998093E+01 0.  1.
</event>
<event>
 5   0  0.2713405E-07  0.2499568E+04  0.7818609E-02  0.8403139E-01
        1   -1    0    0  501    0  0.00000000000E+00  0.00000000000E+00  0.11442088286E+04  0.11442088286E+04  0.50400001928E-02 0.  1.
       -1   -1    0    0    0  501  0.00000000000E+00  0.00000000000E+00 -0.13651004272E+04  0.13651004272E+04  0.50400001928E-02 0. -1.
    10030    2    1    2    0    0  0.00000000000E+00  0.00000000000E+00 -0.22089159858E+03  0.25093092558E+04  0.24995679313E+04 0.  0.
        1    1    3    3  502    0 -0.28035973232E+03 -0.86755551717E+03  0.74769889844E+03  0.11791131403E+04  0.50400001928E-02 0.  1.
       -1    1    3    3    0  502  0.28035973232E+03  0.86755551717E+03 -0.96859049703E+03  0.13301961155E+04  0.50400001928E-02 0. -1.
</event>
<event>
 5   0  0.4449262E-07  0.4000104E+04  0.7818609E-02  0.8004526E-01
       -2   -1    0    0    0  501  0.00000000000E+00  0.00000000000E+00  0.21097953388E+04  0.21097953388E+04  0.25500000920E-02 0. -1.
        2   -1    0    0  501    0  0.00000000000E+00  0.00000000000E+00 -0.18960167258E+04  0.18960167258E+04  0.25500000920E-02 0.  1.
    10030    2    1    2    0    0  0.00000000000E+00  0.00000000000E+00  0.21377861302E+03  0.40058120647E+04  0.40001036239E+04 0.  0.
        1    1    3    3  502    0 -0.19643939267E+04 -0.17751416637E+03 -0.22502368046E+03  0.19851927955E+04  0.50400001928E-02 0. -1.
       -1    1    3    3    0  502  0.19643939267E+04  0.17751416637E+03  0.43880229348E+03  0.20206192692E+04  0.50400001928E-02 0.  1.
</event>
<event>
 5   0  0.2713405E-07  0.3006729E+04  0.7818609E-02  0.8241812E-01
        1   -1    0    0  501    0  0.00000000000E+00  0.00000000000E+00  0.15014989110E+04  0.15014989110E+04  0.50400001928E-02 0. -1.
       -1   -1    0    0    0  501  0.00000000000E+00  0.00000000000E+00 -0.15052328000E+04  0.15052328000E+04  0.50400001928E-02 0.  1.
    10030    2    1    2    0    0  0.00000000000E+00  0.00000000000E+00 -0.37338889713E+01  0.30067317110E+04  0.30067293925E+04 0.  0.
        1    1    3    3  502    0 -0.62150503934E+03 -0.11305317417E+04  0.76997228472E+03  0.15024073523E+04  0.50400001928E-02 0. -1.
       -1    1    3    3    0  502  0.62150503934E+03  0.11305317417E+04 -0.77370617369E+03  0.15043243587E+04  0.50400001928E-02 0.  1.
</event>
<event>
 5   0  0.7256473E-07  0.3969943E+04  0.7818609E-02  0.8010638E-01
        2   -1    0    0  501    0  0.00000000000E+00  0.00000000000E+00  0.27801295533E+04  0.27801295533E+04  0.25500000920E-02 0. -1.
       -2   -1    0    0    0  501  0.00000000000E+00  0.00000000000E+00 -0.14172401694E+04  0.14172401694E+04  0.25500000920E-02 0.  1.
    10030    2    1    2    0    0  0.00000000000E+00  0.00000000000E+00  0.13628893839E+04  0.41973697227E+04  0.39699427095E+04 0.  0.
        4    1    3    3  502    0  0.58235886928E+03 -0.86299293829E+03 -0.11054054453E+04  0.15184931595E+04  0.12699999809E+01 0.  1.
       -4    1    3    3    0  502 -0.58235886928E+03  0.86299293829E+03  0.24682948292E+04  0.26788765632E+04  0.12699999809E+01 0. -1.
</event>
<event>
 5   0  0.4449262E-07  0.3550764E+04  0.7818609E-02  0.8101864E-01
        2   -1    0    0  501    0  0.00000000000E+00  0.00000000000E+00  0.18866542327E+04  0.18866542327E+04  0.25500000920E-02 0.  1.
       -2   -1    0    0    0  501  0.00000000000E+00  0.00000000000E+00 -0.16706721644E+04  0.16706721644E+04  0.25500000920E-02 0. -1.
    10030    2    1    2    0    0  0.00000000000E+00  0.00000000000E+00  0.21598206832E+03  0.35573263971E+04  0.35507636984E+04 0.  0.
        1    1    3    3  502    0 -0.27320763135E+03  0.81255446110E+03 -0.14495829099E+04  0.16840955361E+04  0.50400001928E-02 0. -1.
       -1    1    3    3    0  502  0.27320763135E+03 -0.81255446110E+03  0.16655649782E+04  0.18732308610E+04  0.50400001928E-02 0.  1.
</event>
<event>
 5   0  0.5161550E-07  0.3042204E+04  0.7818609E-02  0.8231781E-01
        2   -1    0    0  501    0  0.00000000000E+00  0.00000000000E+00  0.17678489261E+04  0.17678489261E+04  0.25500000920E-02 0. -1.
       -2   -1    0    0    0  501  0.00000000000E+00  0.00000000000E+00 -0.13087942900E+04  0.13087942900E+04  0.25500000920E-02 0.  1.
    10030    2    1    2    0    0  0.00000000000E+00  0.00000000000E+00  0.45905463618E+03  0.30766432161E+04  0.30422035304E+04 0.  0.
        2    1    3    3  502    0  0.13852261050E+04  0.38033520568E+03 -0.27638005626E+03  0.14628370265E+04  0.25500000920E-02 0.  1.
       -2    1    3    3    0  502 -0.13852261050E+04 -0.38033520568E+03  0.73543469244E+03  0.16138061896E+04  0.25500000920E-02 0. -1.
</event>
<event>
 5   0  0.2601252E-07  0.4037342E+04  0.7818609E-02  0.7997056E-01
        1   -1    0    0  501    0  0.00000000000E+00  0.00000000000E+00  0.25334245291E+04  0.25334245291E+04  0.50400001928E-02 0.  1.
       -1   -1    0    0    0  501  0.00000000000E+00  0.00000000000E+00 -0.16085076455E+04  0.16085076455E+04  0.50400001928E-02 0. -1.
    10030    2    1    2    0    0  0.00000000000E+00  0.00000000000E+00  0.92491688359E+03  0.41419321747E+04  0.40373420586E+04 0.  0.
        3    1    3    3  502    0  0.62913950357E+03  0.76297331129E+03 -0.13429863153E+04  0.16678000605E+04  0.10100000352E+00 0. -1.
       -3    1    3    3    0  502 -0.62913950357E+03 -0.76297331129E+03  0.22679031989E+04  0.24741321142E+04  0.10100000352E+00 0.  1.
</event>
<event>
 5   0  0.3579559E-07  0.2304368E+04  0.7818609E-02  0.8476201E-01
       -1   -1    0    0    0  501  0.00000000000E+00  0.00000000000E+00  0.16014854604E+04  0.16014854604E+04  0.50400001928E-02 0. -1.
        1   -1    0    0  501    0  0.00000000000E+00  0.00000000000E+00 -0.82893563624E+03  0.82893563625E+03  0.50400001928E-02 0.  1.
    10030    2    1    2    0    0  0.00000000000E+00  0.00000000000E+00  0.77254982415E+03  0.24304210967E+04  0.23043683465E+04 0.  0.
        4    1    3    3  502    0 -0.89726120935E+03  0.37245778073E+03  0.10396149377E+04  0.14228855568E+04  0.12699999809E+01 0.  1.
       -4    1    3    3    0  502  0.89726120935E+03 -0.37245778073E+03 -0.26706511356E+03  0.10075355398E+04  0.12699999809E+01 0. -1.
</event>
<event>
 5   0  0.7256473E-07  0.2160668E+04  0.7818609E-02  0.8534980E-01
        2   -1    0    0  501    0  0.00000000000E+00  0.00000000000E+00  0.88595421756E+03  0.88595421756E+03  0.25500000920E-02 0. -1.
       -2   -1    0    0    0  501  0.00000000000E+00  0.00000000000E+00 -0.13173610083E+04  0.13173610083E+04  0.25500000920E-02 0.  1.
    10030    2    1    2    0    0  0.00000000000E+00  0.00000000000E+00 -0.43140679077E+03  0.22033152259E+04  0.21606679906E+04 0.  0.
        4    1    3    3  502    0  0.99486141254E+03 -0.40663317678E+03 -0.32750387925E+03  0.11235480294E+04  0.12699999809E+01 0.  1.
       -4    1    3    3    0  502 -0.99486141254E+03  0.40663317678E+03 -0.10390291152E+03  0.10797671965E+04  0.12699999809E+01 0. -1.
</event>
<event>
 5   0  0.5161550E-07  0.3753119E+04  0.7818609E-02  0.8056291E-01
        2   -1    0    0  501    0  0.00000000000E+00  0.00000000000E+00  0.18896074680E+04  0.18896074680E+04  0.25500000920E-02 0. -1.
       -2   -1    0    0    0  501  0.00000000000E+00  0.00000000000E+00 -0.18636021095E+04  0.18636021095E+04  0.25500000920E-02 0.  1.
    10030    2    1    2    0    0  0.00000000000E+00  0.00000000000E+00  0.26005358487E+02  0.37532095775E+04  0.37531194831E+04 0.  0.
        2    1    3    3  502    0 -0.97656258725E+03  0.60700763309E+03 -0.14700513666E+04  0.18663289565E+04  0.25500000920E-02 0.  1.
       -2    1    3    3    0  502  0.97656258725E+03 -0.60700763309E+03  0.14960567251E+04  0.18868806210E+04  0.25500000920E-02 0. -1.
</event>
<event>
 5   0  0.6043512E-07  0.3140265E+04  0.7818609E-02  0.8204774E-01
       -2   -1    0    0    0  501  0.00000000000E+00  0.00000000000E+00  0.12159143753E+04  0.12159143753E+04  0.25500000920E-02 0.  1.
        2   -1    0    0  501    0  0.00000000000E+00  0.00000000000E+00 -0.20275403374E+04  0.20275403374E+04  0.25500000920E-02 0. -1.
    10030    2    1    2    0    0  0.00000000000E+00  0.00000000000E+00 -0.81162596207E+03  0.32434547127E+04  0.31402646021E+04 0.  0.
        3    1    3    3  502    0  0.68915507573E+03 -0.11316319053E+04  0.46436184696E+03  0.14039791390E+04  0.10100000352E+00 0.  1.
       -3    1    3    3    0  502 -0.68915507573E+03  0.11316319053E+04 -0.12759878090E+04  0.18394755738E+04  0.10100000352E+00 0. -1.
</event>
<event>
 5   0  0.6074637E-07  0.2034117E+04  0.7818609E-02  0.8590834E-01
       -2   -1    0    0    0  501  0.00000000000E+00  0.00000000000E+00  0.52010946226E+03  0.52010946226E+03  0.25500000920E-02 0. -1.
        2   -1    0    0  501    0  0.00000000000E+00  0.00000000000E+00 -0.19888276450E+04  0.19888276450E+04  0.25500000920E-02 0.  1.
    10030    2    1    2    0    0  0.00000000000E+00  0.00000000000E+00 -0.14687181828E+04  0.25089371073E+04  0.20341170831E+04 0.  0.
        1    1    3    3  502    0 -0.25319580366E+02 -0.10167328104E+04 -0.74006335546E+03  0.12578077989E+04  0.50400001928E-02 0.  1.
       -1    1    3    3    0  502  0.25319580366E+02  0.10167328104E+04 -0.72865482731E+03  0.12511293084E+04  0.50400001928E-02 0. -1.
</event>
<event>
 5   0  0.2401125E-07  0.3951929E+04  0.7818609E-02  0.8014315E-01
       -1   -1    0    0    0  501  0.00000000000E+00  0.00000000000E+00  0.18558979293E+04  0.18558979293E+04  0.50400001928E-02 0.  1.
        1   -1    0    0  501    0  0.00000000000E+00  0.00000000000E+00 -0.21037984655E+04  0.21037984655E+04  0.50400001928E-02 0. -1.
    10030    2    1    2    0    0  0.00000000000E+00  0.00000000000E+00 -0.24790053615E+03  0.39596963948E+04  0.39519287523E+04 0.  0.
        5    1    3    3  502    0 -0.18642642438E+04 -0.65233901639E+03 -0.65648590757E+02  0.19761981658E+04  0.46999998093E+01 0.  1.
       -5    1    3    3    0  502  0.18642642438E+04  0.65233901639E+03 -0.18225194540E+03  0.19834982290E+04  0.46999998093E+01 0. -1.
</event>
<event>
 5   0  0.7256473E-07  0.3771275E+04  0.7818609E-02  0.8052347E-01
       -2   -1    0    0    0  501  0.00000000000E+00  0.00000000000E+00  0.17487233043E+04  0.17487233043E+04  0.25500000920E-02 0.  1.
        2   -1    0    0  501    0  0.00000000000E+00  0.00000000000E+00 -0.20332712154E+04  0.20332712154E+04  0.25500000920E-02 0. -1.
    10030    2    1    2    0    0  0.00000000000E+00  0.00000000000E+00 -0.28454791114E+03  0.37819945197E+04  0.37712749877E+04 0.  0.
        4    1    3    3  502    0 -0.16187933688E+04  0.39668292000E+02 -0.11112302417E+04  0.19638991337E+04  0.12699999809E+01 0. -1.
       -4    1    3    3    0  502  0.16187933688E+04 -0.39668292000E+02  0.82668233059E+03  0.18180953860E+04  0.12699999809E+01 0.  1.
</event>
<event>
 5   0  0.2401125E-07  0.4029201E+04  0.7818609E-02  0.7998682E-01
       -1   -1    0    0    0  501  0.00000000000E+00  0.00000000000E+00  0.13323544862E+04  0.13323544862E+04  0.50400001928E-02 0. -1.
        1   -1    0    0  501    0  0.00000000000E+00  0.00000000000E+00 -0.30461978159E+04  0.30461978160E+04  0.50400001928E-02 0.  1.
    10030    2    1    2    0    0  0.00000000000E+00  0.00000000000E+00 -0.17138433297E+04  0.43785523022E+04  0.40292010752E+04 0.  0.
        5    1    3    3  502    0  0.13577209060E+04 -0.77394754320E+03  0.52460136108E+03  0.16485234412E+04  0.46999998093E+01 0. -1.
       -5    1    3    3    0  502 -0.13577209060E+04  0.77394754320E+03 -0.22384446908E+04  0.27300288610E+04  0.46999998093E+01 0.  1.
</event>
<event>
 5   0  0.2601252E-07  0.2039937E+04  0.7818609E-02  0.8588173E-01
       -1   -1    0    0    0  501  0.00000000000E+00  0.00000000000E+00  0.12755411063E+04  0.12755411063E+04  0.50400001928E-02 0.  1.
        1   -1    0    0  501    0  0.00000000000E+00  0.00000000000E+00 -0.81560315390E+03  0.81560315392E+03  0.50400001928E-02 0. -1.
    10030    2    1    2    0    0  0.00000000000E+00  0.00000000000E+00  0.45993795238E+03  0.20911442602E+04  0.20399366159E+04 0.  0.
        3    1    3    3  502    0 -0.10034777870E+04  0.14361906235E+03  0.11425839286E+03  0.10201220979E+04  0.10100000352E+00 0. -1.
       -3    1    3    3    0  502  0.10034777870E+04 -0.14361906235E+03  0.34567955952E+03  0.10710221623E+04  0.10100000352E+00 0.  1.
</event>
<event>
 5   0  0.7570277E-07  0.3586321E+04  0.7818609E-02  0.8093632E-01
       -2   -1    0    0    0  501  0.00000000000E+00  0.00000000000E+00  0.15391141398E+04  0.15391141398E+04  0.25500000920E-02 0.  1.
        2   -1    0    0  501    0  0.00000000000E+00  0.00000000000E+00 -0.20891397460E+04  0.20891397460E+04  0.25500000920E-02 0. -1.
    10030    2    1    2    0    0  0.00000000000E+00  0.00000000000E+00 -0.55002560620E+03  0.36282538857E+04  0.35863209689E+04 0.  0.
        5    1    3    3  502    0 -0.16802434426E+04 -0.11933873799E+03  0.34694579821E+03  0.17198410501E+04  0.46999998093E+01 0.  1.
       -5    1    3    3    0  502  0.16802434426E+04  0.11933873799E+03 -0.89697140440E+03  0.19084128356E+04  0.46999998093E+01 0. -1.
</event>
<event>
 5   0  0.2401125E-07  0.4029677E+04  0.7818609E-02  0.7998586E-01
        1   -1    0    0  501    0  0.00000000000E+00  0.00000000000E+00  0.23311402590E+04  0.23311402590E+04  0.50400001928E-02 0. -1.
       -1   -1    0    0    0  501  0.00000000000E+00  0.00000000000E+00 -0.17414541753E+04  0.17414541753E+04  0.50400001928E-02 0.  1.
    10030    2    1    2    0    0  0.00000000000E+00  0.00000000000E+00  0.58968608371E+03  0.40725944343E+04  0.40296768790E+04 0.  0.
        5    1    3    3  502    0 -0.54874580608E+03 -0.16321166836E+04 -0.76254312624E+03  0.18831943442E+04  0.46999998093E+01 0.  1.
       -5    1    3    3    0  502  0.54874580608E+03  0.16321166836E+04  0.13522292099E+04  0.21894000902E+04  0.46999998093E+01 0. -1.
</event>
<event>
 5   0  0.7256473E-07  0.4148033E+04  0.7818609E-02  0.7975332E-01
       -2   -1    0    0    0  501  0.00000000000E+00  0.00000000000E+00  0.23050638190E+04  0.23050638190E+04  0.25500000920E-02 0.  1.
        2   -1    0    0  501    0  0.00000000000E+00  0.00000000000E+00 -0.18661283845E+04  0.18661283845E+04  0.25500000920E-02 0. -1.
    10030    2    1    2    0    0  0.00000000000E+00  0.00000000000E+00  0.43893543455E+03  0.41711922035E+04  0.41480332789E+04 0.  0.
        4    1    3    3  502    0  0.13351489571E+04 -0.21919852644E+03  0.18001447881E+04  0.22519310830E+04  0.12699999809E+01 0.  1.
       -4    1    3    3    0  502 -0.13351489571E+04  0.21919852644E+03 -0.13612093535E+04  0.19192611205E+04  0.12699999809E+01 0. -1.
</event>
<event>
 5   0  0.4449262E-07  0.2743894E+04  0.7818609E-02  0.8320902E-01
        2   -1    0    0  501    0  0.00000000000E+00  0.00000000000E+00  0.13068809939E+04  0.13068809939E+04  0.25500000920E-02 0. -1.
       -2   -1    0    0    0  501  0.00000000000E+00  0.00000000000E+00 -0.14402521326E+04  0.14402521326E+04  0.25500000920E-02 0.  1.
    10030    2    1    2    0    0  0.00000000000E+00  0.00000000000E+00 -0.13337113862E+03  0.27471331265E+04  0.27438936849E+04 0.  0.
        1    1    3    3  502    0  0.12224057971E+04  0.60978691752E+03 -0.19380838782E+03  0.13797382755E+04  0.50400001928E-02 0.  1.
       -1    1    3    3    0  502 -0.12224057971E+04 -0.60978691752E+03  0.60437249202E+02  0.13673948510E+04  0.50400001928E-02 0. -1.
</event>
<event>
 5   0  0.2401125E-07  0.4598681E+04  0.7818609E-02  0.7893585E-01
        1   -1    0    0  501    0  0.00000000000E+00  0.00000000000E+00  0.23781332027E+04  0.23781332027E+04  0.50400001928E-02 0. -1.
       -1   -1    0    0    0  501  0.00000000000E+00  0.00000000000E+00 -0.22231579410E+04  0.22231579411E+04  0.50400001928E-02 0.  1.
    10030    2    1    2    0    0  0.00000000000E+00  0.00000000000E+00  0.15497526167E+03  0.46012911438E+04  0.45986805562E+04 0.  0.
        5    1    3    3  502    0  0.15393775733E+04 -0.15615876011E+04 -0.61478986656E+03  0.22773290977E+04  0.46999998093E+01 0.  1.
       -5    1    3    3    0  502 -0.15393775733E+04  0.15615876011E+04  0.76976512823E+03  0.23239620461E+04  0.46999998093E+01 0. -1.
</event>
<event>
 5   0  0.5161550E-07  0.3234662E+04  0.7818609E-02  0.8179722E-01
       -2   -1    0    0    0  501  0.00000000000E+00  0.00000000000E+00  0.12257901328E+04  0.12257901328E+04  0.25500000920E-02 0.  1.
        2   -1    0    0  501    0  0.00000000000E+00  0.00000000000E+00 -0.21339379362E+04  0.21339379362E+04  0.25500000920E-02 0. -1.
    10030    2    1    2    0    0  0.00000000000E+00  0.00000000000E+00 -0.90814780341E+03  0.33597280691E+04  0.32346623109E+04 0.  0.
        2    1    3    3  502    0 -0.71923094551E+03  0.74814054654E+03 -0.17425002109E+04  0.20281307688E+04  0.25500000920E-02 0. -1.
       -2    1    3    3    0  502  0.71923094551E+03 -0.74814054654E+03  0.83435240746E+03  0.13315973003E+04  0.25500000920E-02 0.  1.
</event>
<event>
 5   0  0.2401125E-07  0.4071871E+04  0.7818609E-02  0.7990203E-01
        1   -1    0    0  501    0  0.00000000000E+00  0.00000000000E+00  0.12043806893E+04  0.12043806893E+04  0.50400001928E-02 0. -1.
       -1   -1    0    0    0  501  0.00000000000E+00  0.00000000000E+00 -0.34416306185E+04  0.34416306185E+04  0.50400001928E-02 0.  1.
    10030    2    1    2    0    0  0.00000000000E+00  0.00000000000E+00 -0.22372499292E+04  0.46460113078E+04  0.40718710474E+04 0.  0.
        5    1    3    3  502    0  0.11420153189E+04 -0.41165744151E+03  0.74625844817E+03  0.14249858242E+04  0.46999998093E+01 0. -1.
       -5    1    3    3    0  502 -0.11420153189E+04  0.41165744151E+03 -0.29835083774E+04  0.32210254835E+04  0.46999998093E+01 0.  1.
</event>
<event>
 5   0  0.7256473E-07  0.2135971E+04  0.7818609E-02  0.8545561E-01
        2   -1    0    0  501    0  0.00000000000E+00  0.00000000000E+00  0.11795546778E+04  0.11795546778E+04  0.25500000920E-02 0.  1.
       -2   -1    0    0    0  501  0.00000000000E+00  0.00000000000E+00 -0.96696905349E+03  0.96696905350E+03  0.25500000920E-02 0. -1.
    10030    2    1    2    0    0  0.00000000000E+00  0.00000000000E+00  0.21258562426E+03  0.21465237313E+04  0.21359708521E+04 0.  0.
        4    1    3    3  502    0  0.27395214326E+03 -0.63860706159E+03  0.92130053161E+03  0.11539779194E+04  0.12699999809E+01 0.  1.
       -4    1    3    3    0  502 -0.27395214326E+03  0.63860706159E+03 -0.70871490735E+03  0.99254581190E+03  0.12699999809E+01 0. -1.
</event>
<event>
 5   0  0.3579559E-07  0.3047062E+04  0.7818609E-02  0.8230418E-01
       -1   -1    0    0    0  501  0.00000000000E+00  0.00000000000E+00  0.13133084746E+04  0.13133084746E+04  0.50400001928E-02 0. -1.
        1   -1    0    0  501    0  0.00000000000E+00  0.00000000000E+00 -0.17674040925E+04  0.17674040925E+04  0.50400001928E-02 0.  1.
    10030    2    1    2    0    0  0.00000000000E+00  0.00000000000E+00 -0.45409561790E+03  0.30807125671E+04  0.30470620425E+04 0.  0.
        4    1    3    3  502    0  0.95938728148E+03  0.77308766950E+03 -0.11330786410E+04  0.16739048122E+04  0.12699999809E+01 0.  1.
       -4    1    3    3    0  502 -0.95938728148E+03 -0.77308766950E+03  0.67898302312E+03  0.14068077549E+04  0.12699999809E+01 0. -1.
</event>
<event>
 5   0  0.5161550E-07  0.3967248E+04  0.7818609E-02  0.8011186E-01
       -2   -1    0    0    0  501  0.00000000000E+00  0.00000000000E+00  0.17066522124E+04  0.17066522124E+04  0.25500000920E-02 0. -1.
        2   -1    0    0  501    0  0.00000000000E+00  0.00000000000E+00 -0.23055456734E+04  0.23055456734E+04  0.25500000920E-02 0.  1.
    10030    2    1    2    0    0  0.00000000000E+00  0.00000000000E+00 -0.59889346100E+03  0.40121978858E+04  0.39672482273E+04 0.  0.
        2    1    3    3  502    0  0.76271699036E+03 -0.93857809753E+03 -0.18895519451E+04  0.22434510483E+04  0.25500000920E-02 0.  1.
       -2    1    3    3    0  502 -0.76271699036E+03  0.93857809753E+03  0.12906584841E+04  0.17687468375E+04  0.25500000920E-02 0. -1.
</event>
<event>
 5   0  0.2601252E-07  0.3837636E+04  0.7818609E-02  0.8038126E-01
       -1   -1    0    0    0  501  0.00000000000E+00  0.00000000000E+00  0.23900956542E+04  0.23900956542E+04  0.50400001928E-02 0. -1.
        1   -1    0    0  501    0  0.00000000000E+00  0.00000000000E+00 -0.15404664552E+04  0.15404664553E+04  0.50400001928E-02 0.  1.
    10030    2    1    2    0    0  0.00000000000E+00  0.00000000000E+00  0.84962919898E+03  0.39305621095E+04  0.38376358244E+04 0.  0.
        3    1    3    3  502    0  0.15715662769E+04  0.10323877911E+04  0.33172002820E+02  0.18806237013E+04  0.10100000352E+00 0.  1.
       -3    1    3    3    0  502 -0.15715662769E+04 -0.10323877911E+04  0.81645719616E+03  0.20499384082E+04  0.10100000352E+00 0. -1.
</event>
<event>
 5   0  0.2401125E-07  0.3964420E+04  0.7818609E-02  0.8011763E-01
       -1   -1    0    0    0  501  0.00000000000E+00  0.00000000000E+00  0.20486138630E+04  0.20486138630E+04  0.50400001928E-02 0.  1.
        1   -1    0    0  501    0  0.00000000000E+00  0.00000000000E+00 -0.19179582409E+04  0.19179582409E+04  0.50400001928E-02 0. -1.
    10030    2    1    2    0    0  0.00000000000E+00  0.00000000000E+00  0.13065562209E+03  0.39665721039E+04  0.39644196755E+04 0.  0.
        5    1    3    3  502    0 -0.12459198558E+03 -0.47531119287E+03  0.19867063027E+04  0.20465746789E+04  0.46999998093E+01 0.  1.
       -5    1    3    3    0  502  0.12459198558E+03  0.47531119287E+03 -0.18560506806E+04  0.19199974250E+04  0.46999998093E+01 0. -1.
</event>
<event>
 5   0  0.2713405E-07  0.2347306E+04  0.7818609E-02  0.8459499E-01
       -1   -1    0    0    0  501  0.00000000000E+00  0.00000000000E+00  0.13406946725E+04  0.13406946725E+04  0.50400001928E-02 0. -1.
        1   -1    0    0  501    0  0.00000000000E+00  0.00000000000E+00 -0.10274236429E+04  0.10274236430E+04  0.50400001928E-02 0.  1.
    10030    2    1    2    0    0  0.00000000000E+00  0.00000000000E+00  0.31327102955E+03  0.23681183155E+04  0.23473060342E+04 0.  0.
        1    1    3    3  502    0  0.78786843277E+03  0.12055070808E+02 -0.72089240129E+03  0.10679737105E+04  0.50400001928E-02 0.  1.
       -1    1    3    3    0  502 -0.78786843277E+03 -0.12055070808E+02  0.10341634308E+04  0.13001446050E+04  0.50400001928E-02 0. -1.
</event>
<event>
 5   0  0.6043512E-07  0.2491845E+04  0.7818609E-02  0.8405897E-01
        2   -1    0    0  501    0  0.00000000000E+00  0.00000000000E+00  0.18181539748E+04  0.18181539748E+04  0.25500000920E-02 0. -1.
       -2   -1    0    0    0  501  0.00000000000E+00  0.00000000000E+00 -0.85379046541E+03  0.85379046541E+03  0.25500000920E-02 0.  1.
    10030    2    1    2    0    0  0.00000000000E+00  0.00000000000E+00  0.96436350940E+03  0.26719444402E+04  0.24918447210E+04 0.  0.
        3    1    3    3  502    0  0.59218060657E+02 -0.94299953621E+02 -0.84844418859E+03  0.85572005429E+03  0.10100000352E+00 0.  1.
       -3    1    3    3    0  502 -0.59218060657E+02  0.94299953621E+02  0.18128076980E+04  0.18162243859E+04  0.10100000352E+00 0. -1.
</event>
<event>
 5   0  0.2601252E-07  0.3996735E+04  0.7818609E-02  0.8005206E-01
        1   -1    0    0  501    0  0.00000000000E+00  0.00000000000E+00  0.20103181321E+04  0.20103181321E+04  0.50400001928E-02 0.  1.
       -1   -1    0    0    0  501  0.00000000000E+00  0.00000000000E+00 -0.19864880233E+04  0.19864880233E+04  0.50400001928E-02 0. -1.
    10030    2    1    2    0    0  0.00000000000E+00  0.00000000000E+00  0.23830108759E+02  0.39968061554E+04  0.39967351138E+04 0.  0.
        3    1    3    3  502    0 -0.97339584055E+03  0.10004419753E+04  0.14420066518E+04  0.20069296955E+04  0.10100000352E+00 0.  1.
       -3    1    3    3    0  502  0.97339584055E+03 -0.10004419753E+04 -0.14181765431E+04  0.19898764600E+04  0.10100000352E+00 0. -1.
</event>
<event>
 5   0  0.4449262E-07  0.2661074E+04  0.7818609E-02  0.8347747E-01
        2   -1    0    0  501    0  0.00000000000E+00  0.00000000000E+00  0.13762094140E+04  0.13762094140E+04  0.25500000920E-02 0.  1.
       -2   -1    0    0    0  501  0.00000000000E+00  0.00000000000E+00 -0.12863799096E+04  0.12863799096E+04  0.25500000920E-02 0. -1.
    10030    2    1    2    0    0  0.00000000000E+00  0.00000000000E+00  0.89829504391E+02  0.26625893235E+04  0.26610735739E+04 0.  0.
        1    1    3    3  502    0  0.30564636983E+03  0.12934872424E+04  0.10658744533E+03  0.13333753534E+04  0.50400001928E-02 0. -1.
       -1    1    3    3    0  502 -0.30564636983E+03 -0.12934872424E+04 -0.16757940940E+02  0.13292139701E+04  0.50400001928E-02 0.  1.
</event>
<event>
 5   0  0.3579559E-07  0.2635229E+04  0.7818609E-02  0.8356332E-01
        1   -1    0    0  501    0  0.00000000000E+00  0.00000000000E+00  0.18707217953E+04  0.18707217954E+04  0.50400001928E-02 0.  1.
       -1   -1    0    0    0  501  0.00000000000E+00  0.00000000000E+00 -0.92804171620E+03  0.92804171621E+03  0.50400001928E-02 0. -1.
    10030    2    1    2    0    0  0.00000000000E+00  0.00000000000E+00  0.94268007915E+03  0.27987635116E+04  0.26352289202E+04 0.  0.
        4    1    3    3  502    0 -0.39441599517E+03  0.27632066988E+03 -0.83122399601E+03  0.96065187986E+03  0.12699999809E+01 0. -1.
       -4    1    3    3    0  502  0.39441599517E+03 -0.27632066988E+03  0.17739040752E+04  0.18381116317E+04  0.12699999809E+01 0.  1.
</event>
<event>
 5   0  0.2601252E-07  0.3777131E+04  0.7818609E-02  0.8051080E-01
       -1   -1    0    0    0  501  0.00000000000E+00  0.00000000000E+00  0.18639594945E+04  0.18639594945E+04  0.50400001928E-02 0. -1.
        1   -1    0    0  501    0  0.00000000000E+00  0.00000000000E+00 -0.19134965842E+04  0.19134965842E+04  0.50400001928E-02 0.  1.
    10030    2    1    2    0    0  0.00000000000E+00  0.00000000000E+00 -0.49537089669E+02  0.37774560787E+04  0.37771312531E+04 0.  0.
        3    1    3    3  502    0  0.12728914016E+04  0.44038083297E+03  0.12991626285E+04  0.18713661705E+04  0.10100000352E+00 0. -1.
       -3    1    3    3    0  502 -0.12728914016E+04 -0.44038083297E+03 -0.13486997182E+04  0.19060899083E+04  0.10100000352E+00 0.  1.
</event>
<event>
 5   0  0.4449262E-07  0.3058116E+04  0.7818609E-02  0.8227327E-01
       -2   -1    0    0    0  501  0.00000000000E+00  0.00000000000E+00  0.16418908613E+04  0.16418908613E+04  0.25500000920E-02 0.  1.
        2   -1    0    0  501    0  0.00000000000E+00  0.00000000000E+00 -0.14239793962E+04  0.14239793962E+04  0.25500000920E-02 0. -1.
    10030    2    1    2    0    0  0.00000000000E+00  0.00000000000E+00  0.21791146515E+03  0.30658702575E+04  0.30581162550E+04 0.  0.
        1    1    3    3  502    0  0.83552927015E+03 -0.12726617770E+04  0.25158944005E+03  0.15430730398E+04  0.50400001928E-02 0.  1.
       -1    1    3    3    0  502 -0.83552927015E+03  0.12726617770E+04 -0.33677974904E+02  0.15227972176E+04  0.50400001928E-02 0. -1.
</event>
<event>
 5   0  0.8155232E-07  0.2035930E+04  0.7818609E-02  0.8590004E-01
       -2   -1    0    0    0  501  0.00000000000E+00  0.00000000000E+00  0.50267449746E+03  0.50267449747E+03  0.25500000920E-02 0.  1.
        2   -1    0    0  501    0  0.00000000000E+00  0.00000000000E+00 -0.20614788649E+04  0.20614788649E+04  0.25500000920E-02 0. -1.
    10030    2    1    2    0    0  0.00000000000E+00  0.00000000000E+00 -0.15588043674E+04  0.25641533623E+04  0.20359301092E+04 0.  0.
        3    1    3    3  502    0  0.57285452071E+03 -0.74206251025E+03 -0.12791260381E+04  0.15858696361E+04  0.10100000352E+00 0. -1.
       -3    1    3    3    0  502 -0.57285452071E+03  0.74206251025E+03 -0.27967832930E+03  0.97828372628E+03  0.10100000352E+00 0.  1.
</event>
<event>
 5   0  0.6043512E-07  0.3965283E+04  0.7818609E-02  0.8011587E-01
       -2   -1    0    0    0  501  0.00000000000E+00  0.00000000000E+00  0.15782834537E+04  0.15782834537E+04  0.25500000920E-02 0. -1.
        2   -1    0    0  501    0  0.00000000000E+00  0.00000000000E+00 -0.24905962674E+04  0.24905962674E+04  0.25500000920E-02 0.  1.
    10030    2    1    2    0    0  0.00000000000E+00  0.00000000000E+00 -0.91231281370E+03  0.40688797210E+04  0.39652827786E+04 0.  0.
        3    1    3    3  502    0 -0.68878781596E+03  0.59768639745E+03  0.13502943745E+04  0.16294025264E+04  0.10100000352E+00 0. -1.
       -3    1    3    3    0  502  0.68878781596E+03 -0.59768639745E+03 -0.22626071882E+04  0.24394771946E+04  0.10100000352E+00 0.  1.
</event>
<event>
 5   0  0.2647879E-07  0.3832428E+04  0.7818609E-02  0.8039232E-01
       -1   -1    0    0    0  501  0.00000000000E+00  0.00000000000E+00  0.14130718644E+04  0.14130718644E+04  0.50400001928E-02 0. -1.
        1   -1    0    0  501    0  0.00000000000E+00  0.00000000000E+00 -0.25985063124E+04  0.25985063124E+04  0.50400001928E-02 0.  1.
    10030    2    1    2    0    0  0.00000000000E+00  0.00000000000E+00 -0.11854344480E+04  0.40115781768E+04  0.38324280343E+04 0.  0.
        2    1    3    3  502    0 -0.87846553880E+03 -0.18113386948E+03 -0.23652029233E+04  0.25295643992E+04  0.25500000920E-02 0.  1.
       -2    1    3    3    0  502  0.87846553880E+03  0.18113386948E+03  0.11797684753E+04  0.14820137776E+04  0.25500000920E-02 0. -1.
</event>
<event>
 5   0  0.2401125E-07  0.3839325E+04  0.7818609E-02  0.8037768E-01
        1   -1    0    0  501    0  0.00000000000E+00  0.00000000000E+00  0.17044602412E+04  0.17044602412E+04  0.50400001928E-02 0. -1.
       -1   -1    0    0    0  501  0.00000000000E+00  0.00000000000E+00 -0.21620363606E+04  0.21620363606E+04  0.50400001928E-02 0.  1.
    10030    2    1    2    0    0  0.00000000000E+00  0.00000000000E+00 -0.45757611941E+03  0.38664966017E+04  0.38393254702E+04 0.  0.
        5    1    3    3  502    0 -0.16920711252E+04  0.76445379546E+03 -0.71966827445E+03  0.19913409586E+04  0.46999998093E+01 0.  1.
       -5    1    3    3    0  502  0.16920711252E+04 -0.76445379546E+03  0.26209215504E+03  0.18751556431E+04  0.46999998093E+01 0. -1.
</event>
<event>
 5   0  0.7570277E-07  0.3887233E+04  0.7818609E-02  0.8027690E-01
        2   -1    0    0  501    0  0.00000000000E+00  0.00000000000E+00  0.23786241205E+04  0.23786241205E+04  0.25500000920E-02 0. -1.
       -2   -1    0    0    0  501  0.00000000000E+00  0.00000000000E+00 -0.15881643023E+04  0.15881643023E+04  0.25500000920E-02 0.  1.
    10030    2    1    2    0    0  0.00000000000E+00  0.00000000000E+00  0.79045981823E+03  0.39667884227E+04  0.38872334206E+04 0.  0.
        5    1    3    3  502    0  0.10497074516E+04 -0.94845629230E+03 -0.96477516922E+03  0.17123867231E+04  0.46999998093E+01 0.  1.
       -5    1    3    3    0  502 -0.10497074516E+04  0.94845629230E+03  0.17552349874E+04  0.22544016997E+04  0.46999998093E+01 0. -1.
</event>
<event>
 5   0  0.2713405E-07  0.2149159E+04  0.7818609E-02  0.8539892E-01
        1   -1    0    0  501    0  0.00000000000E+00  0.00000000000E+00  0.10627623195E+04  0.10627623195E+04  0.50400001928E-02 0.  1.
       -1   -1    0    0    0  501  0.00000000000E+00  0.00000000000E+00 -0.10865277369E+04  0.10865277369E+04  0.50400001928E-02 0. -1.
    10030    2    1    2    0    0  0.00000000000E+00  0.00000000000E+00 -0.23765417344E+02  0.21492900564E+04  0.21491586613E+04 0.  0.
        1    1    3    3  502    0  0.37133572703E+03  0.80325549352E+03  0.59775371434E+03  0.10679040748E+04  0.50400001928E-02 0.  1.
       -1    1    3    3    0  502 -0.37133572703E+03 -0.80325549352E+03 -0.62151913169E+03  0.10813859816E+04  0.50400001928E-02 0. -1.
</event>
<event>
 5   0  0.2401125E-07  0.2609949E+04  0.7818609E-02  0.8364830E-01
        1   -1    0    0  501    0  0.00000000000E+00  0.00000000000E+00  0.14798890971E+04  0.14798890971E+04  0.50400001928E-02 0. -1.
       -1   -1    0    0    0  501  0.00000000000E+00  0.00000000000E+00 -0.11507335632E+04  0.11507335633E+04  0.50400001928E-02 0.  1.
    10030    2    1    2    0    0  0.00000000000E+00  0.00000000000E+00  0.32915553385E+03  0.26306226604E+04  0.26099486998E+04 0.  0.
        5    1    3    3  502    0 -0.63582042947E+03  0.17978428270E+03 -0.96965651567E+03  0.11733907513E+04  0.46999998093E+01 0.  1.
       -5    1    3    3    0  502  0.63582042947E+03 -0.17978428270E+03  0.12988120495E+04  0.14572319091E+04  0.46999998093E+01 0. -1.
</event>
<event>
 5   0  0.2647879E-07  0.4083242E+04  0.7818609E-02  0.7987961E-01
       -1   -1    0    0    0  501  0.00000000000E+00  0.00000000000E+00  0.18171923453E+04  0.18171923453E+04  0.50400001928E-02 0.  1.
        1   -1    0    0  501    0  0.00000000000E+00  0.00000000000E+00 -0.22937677409E+04  0.22937677409E+04  0.50400001928E-02 0. -1.
    10030    2    1    2    0    0  0.00000000000E+00  0.00000000000E+00 -0.47657539559E+03  0.41109600863E+04  0.40832424277E+04 0.  0.
        2    1    3    3  502    0  0.15256186085E+04 -0.12725262020E+04  0.23541881259E+03  0.20005641931E+04  0.25500000920E-02 0.  1.
       -2    1    3    3    0  502 -0.15256186085E+04  0.12725262020E+04 -0.71199420818E+03  0.21103958932E+04  0.25500000920E-02 0. -1.
</event>
<event>
 5   0  0.4449262E-07  0.3897639E+04  0.7818609E-02  0.8025520E-01
       -2   -1    0    0    0  501  0.00000000000E+00  0.00000000000E+00  0.22736524767E+04  0.22736524767E+04  0.25500000920E-02 0. -1.
        2   -1    0    0  501    0  0.00000000000E+00  0.00000000000E+00 -0.16703948847E+04  0.16703948847E+04  0.25500000920E-02 0.  1.
    10030    2    1    2    0    0  0.00000000000E+00  0.00000000000E+00  0.60325759206E+03  0.39440473614E+04  0.38976390118E+04 0.  0.
        1    1    3    3  502    0 -0.10960715512E+04 -0.11222556826E+04 -0.86845525906E+03  0.17930547118E+04  0.50400001928E-02 0.  1.
       -1    1    3    3    0  502  0.10960715512E+04  0.11222556826E+04  0.14717128511E+04  0.21509926496E+04  0.50400001928E-02 0. -1.
</event>
<event>
 5   0  0.2401125E-07  0.3848609E+04  0.7818609E-02  0.8035803E-01
        3   -1    0    0  501    0  0.00000000000E+00  0.00000000000E+00  0.11549823506E+04  0.11549823550E+04  0.10100000352E+00 0. -1.
       -3   -1    0    0    0  501  0.00000000000E+00  0.00000000000E+00 -0.32060645928E+04  0.32060645944E+04  0.10100000352E+00 0.  1.
    10030    2    1    2    0    0  0.00000000000E+00  0.00000000000E+00 -0.20510822422E+04  0.43610469494E+04  0.38486091164E+04 0.  0.
        2    1    3    3  502    0  0.61504878576E+03 -0.55300205491E+03 -0.29943694563E+04  0.31065003980E+04  0.25500000920E-02 0.  1.
       -2    1    3    3    0  502 -0.61504878576E+03  0.55300205491E+03  0.94328721407E+03  0.12545465515E+04  0.25500000920E-02 0. -1.
</event>
<event>
 5   0  0.8426324E-07  0.2067948E+04  0.7818609E-02  0.8575495E-01
       -2   -1    0    0    0  501  0.00000000000E+00  0.00000000000E+00  0.53786602906E+03  0.53786602906E+03  0.25500000920E-02 0. -1.
        2   -1    0    0  501    0  0.00000000000E+00  0.00000000000E+00 -0.19876741135E+04  0.19876741135E+04  0.25500000920E-02 0.  1.
    10030    2    1    2    0    0  0.00000000000E+00  0.00000000000E+00 -0.14498080845E+04  0.25255401426E+04  0.20679481449E+04 0.  0.
        3    1    3    3  502    0 -0.63149969302E+03 -0.20607278187E+03  0.24279583289E+03  0.70725361815E+03  0.10100000352E+00 0. -1.
       -3    1    3    3    0  502  0.63149969302E+03  0.20607278187E+03 -0.16926039173E+04  0.18182865244E+04  0.10100000352E+00 0.  1.
</event>
<event>
 5   0  0.7893416E-07  0.2151305E+04  0.7818609E-02  0.8538974E-01
       -2   -1    0    0    0  501  0.00000000000E+00  0.00000000000E+00  0.93911582344E+03  0.93911582345E+03  0.25500000920E-02 0.  1.
        2   -1    0    0  501    0  0.00000000000E+00  0.00000000000E+00 -0.12320401854E+04  0.12320401854E+04  0.25500000920E-02 0. -1.
    10030    2    1    2    0    0  0.00000000000E+00  0.00000000000E+00 -0.29292436195E+03  0.21711560088E+04  0.21513051231E+04 0.  0.
        3    1    3    3  502    0  0.18939654098E+03  0.65439383846E+03  0.69364069670E+03  0.97223442228E+03  0.10100000352E+00 0.  1.
       -3    1    3    3    0  502 -0.18939654098E+03 -0.65439383846E+03 -0.98656505865E+03  0.11989215866E+04  0.10100000352E+00 0. -1.
</event>
<event>
 5   0  0.3579559E-07  0.2084681E+04  0.7818609E-02  0.8568022E-01
        1   -1    0    0  501    0  0.00000000000E+00  0.00000000000E+00  0.21684910076E+04  0.21684910076E+04  0.50400001928E-02 0.  1.
       -1   -1    0    0    0  501  0.00000000000E+00  0.00000000000E+00 -0.50102763471E+03  0.50102763474E+03  0.50400001928E-02 0. -1.
    10030    2    1    2    0    0  0.00000000000E+00  0.00000000000E+00  0.16674633728E+04  0.26695186423E+04  0.20846811943E+04 0.  0.
        4    1    3    3  502    0  0.89062823928E+03 -0.51160601560E+03  0.10610517212E+04  0.14767504000E+04  0.12699999809E+01 0.  1.
       -4    1    3    3    0  502 -0.89062823928E+03  0.51160601560E+03  0.60641165163E+03  0.11927682423E+04  0.12699999809E+01 0. -1.
</event>
<event>
 5   0  0.4449262E-07  0.4028715E+04  0.7818609E-02  0.7998779E-01
        2   -1    0    0  501    0  0.00000000000E+00  0.00000000000E+00  0.28000891478E+04  0.28000891478E+04  0.25500000920E-02 0. -1.
       -2   -1    0    0    0  501  0.00000000000E+00  0.00000000000E+00 -0.14491092906E+04  0.14491092906E+04  0.25500000920E-02 0.  1.
    10030    2    1    2    0    0  0.00000000000E+00  0.00000000000E+00  0.13509798572E+04  0.42491984384E+04  0.40287145337E+04 0.  0.
        1    1    3    3  502    0 -0.83849870098E+03  0.13607313295E+04  0.19685389972E+04  0.25357081075E+04  0.50400001928E-02 0. -1.
       -1    1    3    3    0  502  0.83849870098E+03 -0.13607313295E+04 -0.61755914006E+03  0.17134903309E+04  0.50400001928E-02 0.  1.
</event>
<event>
 5   0  0.4449262E-07  0.2214107E+04  0.7818609E-02  0.8512579E-01
        2   -1    0    0  501    0  0.00000000000E+00  0.00000000000E+00  0.80683313204E+03  0.80683313204E+03  0.25500000920E-02 0.  1.
       -2   -1    0    0    0  501  0.00000000000E+00  0.00000000000E+00 -0.15189856983E+04  0.15189856983E+04  0.25500000920E-02 0. -1.
    10030    2    1    2    0    0  0.00000000000E+00  0.00000000000E+00 -0.71215256628E+03  0.23258188304E+04  0.22141074847E+04 0.  0.
        1    1    3    3  502    0 -0.67347589707E+03  0.13792271992E+03  0.55544667831E+03  0.88380624182E+03  0.50400001928E-02 0.  1.
       -1    1    3    3    0  502  0.67347589707E+03 -0.13792271992E+03 -0.12675992446E+04  0.14420125885E+04  0.50400001928E-02 0. -1.
</event>
<event>
 5   0  0.2713405E-07  0.2618477E+04  0.7818609E-02  0.8361952E-01
       -1   -1    0    0    0  501  0.00000000000E+00  0.00000000000E+00  0.97635175994E+03  0.97635175995E+03  0.50400001928E-02 0. -1.
        1   -1    0    0  501    0  0.00000000000E+00  0.00000000000E+00 -0.17556225227E+04  0.17556225227E+04  0.50400001928E-02 0.  1.
    10030    2    1    2    0    0  0.00000000000E+00  0.00000000000E+00 -0.77927076272E+03  0.27319742826E+04  0.26184767632E+04 0.  0.
        1    1    3    3  502    0  0.19290596909E+03  0.77244428180E+03 -0.14740227334E+04  0.16752987495E+04  0.50400001928E-02 0.  1.
       -1    1    3    3    0  502 -0.19290596909E+03 -0.77244428180E+03  0.69475197073E+03  0.10566755331E+04  0.50400001928E-02 0. -1.
</event>
<event>
 5   0  0.5161550E-07  0.3261875E+04  0.7818609E-02  0.8172665E-01
       -2   -1    0    0    0  501  0.00000000000E+00  0.00000000000E+00  0.15909876462E+04  0.15909876462E+04  0.25500000920E-02 0.  1.
        2   -1    0    0  501    0  0.00000000000E+00  0.00000000000E+00 -0.16718905891E+04  0.16718905891E+04  0.25500000920E-02 0. -1.
    10030    2    1    2    0    0  0.00000000000E+00  0.00000000000E+00 -0.80902942894E+02  0.32628782353E+04  0.32618750884E+04 0.  0.
        2    1    3    3  502    0 -0.12103856270E+04  0.95283787439E+03  0.49545939827E+03  0.16181512278E+04  0.25500000920E-02 0.  1.
       -2    1    3    3    0  502  0.12103856270E+04 -0.95283787439E+03 -0.57636234116E+03  0.16447270075E+04  0.25500000920E-02 0. -1.
</event>
<event>
 5   0  0.7570277E-07  0.2114412E+04  0.7818609E-02  0.8554921E-01
       -2   -1    0    0    0  501  0.00000000000E+00  0.00000000000E+00  0.84088183221E+03  0.84088183222E+03  0.25500000920E-02 0.  1.
        2   -1    0    0  501    0  0.00000000000E+00  0.00000000000E+00 -0.13291808926E+04  0.13291808926E+04  0.25500000920E-02 0. -1.
    10030    2    1    2    0    0  0.00000000000E+00  0.00000000000E+00 -0.48829906040E+03  0.21700627248E+04  0.21144115629E+04 0.  0.
        5    1    3    3  502    0  0.10339032836E+03  0.73295682149E+01 -0.13239428158E+04  0.13280022410E+04  0.46999998093E+01 0. -1.
       -5    1    3    3    0  502 -0.10339032836E+03 -0.73295682149E+01  0.83564375538E+03  0.84206048386E+03  0.46999998093E+01 0.  1.
</event>
<event>
 5   0  0.5161550E-07  0.3491828E+04  0.7818609E-02  0.8115729E-01
       -2   -1    0    0    0  501  0.00000000000E+00  0.00000000000E+00  0.12520151023E+04  0.12520151023E+04  0.25500000920E-02 0.  1.
        2   -1    0    0  501    0  0.00000000000E+00  0.00000000000E+00 -0.24346478108E+04  0.24346478108E+04  0.25500000920E-02 0. -1.
    10030    2    1    2    0    0  0.00000000000E+00  0.00000000000E+00 -0.11826327086E+04  0.36866629131E+04  0.34918280759E+04 0.  0.
        2    1    3    3  502    0 -0.14403571937E+04  0.67114220831E+03 -0.13549689231E+04  0.20883011018E+04  0.25500000920E-02 0. -1.
       -2    1    3    3    0  502  0.14403571937E+04 -0.67114220831E+03  0.17233621451E+03  0.15983618114E+04  0.25500000920E-02 0.  1.
</event>
<event>
 5   0  0.3579559E-07  0.4002174E+04  0.7818609E-02  0.8004108E-01
       -1   -1    0    0    0  501  0.00000000000E+00  0.00000000000E+00  0.28801627096E+04  0.28801627096E+04  0.50400001928E-02 0.  1.
        1   -1    0    0  501    0  0.00000000000E+00  0.00000000000E+00 -0.13903201323E+04  0.13903201323E+04  0.50400001928E-02 0. -1.
    10030    2    1    2    0    0  0.00000000000E+00  0.00000000000E+00  0.14898425773E+04  0.42704828419E+04  0.40021735092E+04 0.  0.
        4    1    3    3  502    0 -0.25337096987E+03  0.61370534778E+02 -0.13721221241E+04  0.13966688681E+04  0.12699999809E+01 0. -1.
       -4    1    3    3    0  502  0.25337096987E+03 -0.61370534778E+02  0.28619647014E+04  0.28738139738E+04  0.12699999809E+01 0.  1.
</event>
<event>
 5   0  0.5161550E-07  0.2578996E+04  0.7818609E-02  0.8375371E-01
        2   -1    0    0  501    0  0.00000000000E+00  0.00000000000E+00  0.18248735682E+04  0.18248735682E+04  0.25500000920E-02 0. -1.
       -2   -1    0    0    0  501  0.00000000000E+00  0.00000000000E+00 -0.91118896389E+03  0.91118896389E+03  0.25500000920E-02 0.  1.
    10030    2    1    2    0    0  0.00000000000E+00  0.00000000000E+00  0.91368460428E+03  0.27360625321E+04  0.25789956617E+04 0.  0.
        2    1    3    3  502    0  0.34757958744E+03 -0.68759484961E+03  0.15538411815E+04  0.17343646284E+04  0.25500000920E-02 0. -1.
       -2    1    3    3    0  502 -0.34757958744E+03  0.68759484961E+03 -0.64015657725E+03  0.10016979037E+04  0.25500000920E-02 0.  1.
</event>
<event>
 5   0  0.6043512E-07  0.2046127E+04  0.7818609E-02  0.8585353E-01
       -2   -1    0    0    0  501  0.00000000000E+00  0.00000000000E+00  0.16016236925E+04  0.16016236925E+04  0.25500000920E-02 0.  1.
        2   -1    0    0  501    0  0.00000000000E+00  0.00000000000E+00 -0.65349855735E+03  0.65349855736E+03  0.25500000920E-02 0. -1.
    10030    2    1    2    0    0  0.00000000000E+00  0.00000000000E+00  0.94812513514E+03  0.22551222499E+04  0.20461268509E+04 0.  0.
        3    1    3    3  502    0  0.22044349315E+03 -0.39906958648E+03  0.14834747244E+04  0.15519501077E+04  0.10100000352E+00 0.  1.
       -3    1    3    3    0  502 -0.22044349315E+03  0.39906958648E+03 -0.53534958931E+03  0.70317214215E+03  0.10100000352E+00 0. -1.
</event>
<event>
 5   0  0.6043512E-07  0.3934027E+04  0.7818609E-02  0.8017989E-01
        2   -1    0    0  501    0  0.00000000000E+00  0.00000000000E+00  0.23423083315E+04  0.23423083315E+04  0.25500000920E-02 0.  1.
       -2   -1    0    0    0  501  0.00000000000E+00  0.00000000000E+00 -0.16518498638E+04  0.16518498638E+04  0.25500000920E-02 0. -1.
    10030    2    1    2    0    0  0.00000000000E+00  0.00000000000E+00  0.69045846772E+03  0.39941581953E+04  0.39340267912E+04 0.  0.
        3    1    3    3  502    0 -0.34286169373E+03  0.14204570363E+03 -0.16159824284E+04  0.16580501627E+04  0.10100000352E+00 0. -1.
       -3    1    3    3    0  502  0.34286169373E+03 -0.14204570363E+03  0.23064408961E+04  0.23361080327E+04  0.10100000352E+00 0.  1.
</event>
<event>
 5   0  0.6043512E-07  0.3996764E+04  0.7818609E-02  0.8005200E-01
       -2   -1    0    0    0  501  0.00000000000E+00  0.00000000000E+00  0.11613303576E+04  0.11613303576E+04  0.25500000920E-02 0. -1.
        2   -1    0    0  501    0  0.00000000000E+00  0.00000000000E+00 -0.34387543508E+04  0.34387543508E+04  0.25500000920E-02 0.  1.
    10030    2    1    2    0    0  0.00000000000E+00  0.00000000000E+00 -0.22774239933E+04  0.46000847084E+04  0.39967636007E+04 0.  0.
        3    1    3    3  502    0  0.69640191291E+03  0.17605807475E+04 -0.40272349422E+03  0.19356669176E+04  0.10100000352E+00 0. -1.
       -3    1    3    3    0  502 -0.69640191291E+03 -0.17605807475E+04 -0.18747004990E+04  0.26644177908E+04  0.10100000352E+00 0.  1.
</event>
<event>
 5   0  0.2713405E-07  0.2702721E+04  0.7818609E-02  0.8334123E-01
       -1   -1    0    0    0  501  0.00000000000E+00  0.00000000000E+00  0.79445971279E+03  0.79445971280E+03  0.50400001928E-02 0.  1.
        1   -1    0    0  501    0  0.00000000000E+00  0.00000000000E+00 -0.22986379281E+04  0.22986379282E+04  0.50400001928E-02 0. -1.
    10030    2    1    2    0    0  0.00000000000E+00  0.00000000000E+00 -0.15041782154E+04  0.30930976410E+04  0.27027210202E+04 0.  0.
        1    1    3    3  502    0 -0.27036899364E+00  0.19679191891E+03  0.77797324766E+03  0.80247710656E+03  0.50400001928E-02 0.  1.
       -1    1    3    3    0  502  0.27036899364E+00 -0.19679191891E+03 -0.22821514630E+04  0.22906205344E+04  0.50400001928E-02 0. -1.
</event>
<event>
 5   0  0.2401125E-07  0.2618199E+04  0.7818609E-02  0.8362046E-01
        1   -1    0    0  501    0  0.00000000000E+00  0.00000000000E+00  0.23752119169E+04  0.23752119169E+04  0.50400001928E-02 0.  1.
       -1   -1    0    0    0  501  0.00000000000E+00  0.00000000000E+00 -0.72151087181E+03  0.72151087183E+03  0.50400001928E-02 0. -1.
    10030    2    1    2    0    0  0.00000000000E+00  0.00000000000E+00  0.16537010451E+04  0.30967227888E+04  0.26181987862E+04 0.  0.
        5    1    3    3  502    0 -0.10626908730E+03  0.10253216038E+04 -0.12756488346E+03  0.10386878259E+04  0.46999998093E+01 0. -1.
       -5    1    3    3    0  502  0.10626908730E+03 -0.10253216038E+04  0.17812659286E+04  0.20580349629E+04  0.46999998093E+01 0.  1.
</event>
<event>
 5   0  0.2713405E-07  0.4083520E+04  0.7818609E-02  0.7987907E-01
       -1   -1    0    0    0  501  0.00000000000E+00  0.00000000000E+00  0.25421561770E+04  0.25421561770E+04  0.50400001928E-02 0. -1.
        1   -1    0    0  501    0  0.00000000000E+00  0.00000000000E+00 -0.16398615939E+04  0.16398615939E+04  0.50400001928E-02 0.  1.
    10030    2    1    2    0    0  0.00000000000E+00  0.00000000000E+00  0.90229458314E+03  0.41820177709E+04  0.40835201875E+04 0.  0.
        1    1    3    3  502    0  0.58559772905E+03  0.34043062280E+03 -0.15214397020E+04  0.16654118037E+04  0.50400001928E-02 0.  1.
       -1    1    3    3    0  502 -0.58559772905E+03 -0.34043062280E+03  0.24237342851E+04  0.25166059672E+04  0.50400001928E-02 0. -1.
</event>
<event>
 5   0  0.2601252E-07  0.3976925E+04  0.7818609E-02  0.8009218E-01
       -1   -1    0    0    0  501  0.00000000000E+00  0.00000000000E+00  0.15089112318E+04  0.15089112318E+04  0.50400001928E-02 0. -1.
        1   -1    0    0  501    0  0.00000000000E+00  0.00000000000E+00 -0.26204218004E+04  0.26204218004E+04  0.50400001928E-02 0.  1.
    10030    2    1    2    0    0  0.00000000000E+00  0.00000000000E+00 -0.11115105686E+04  0.41293330321E+04  0.39769253886E+04 0.  0.
        3    1    3    3  502    0  0.10463262672E+02 -0.18339764176E+04  0.24206935084E+03  0.18499125820E+04  0.10100000352E+00 0. -1.
       -3    1    3    3    0  502 -0.10463262672E+02  0.18339764176E+04 -0.13535799195E+04  0.22794204502E+04  0.10100000352E+00 0.  1.
</event>
<event>
 5   0  0.4449262E-07  0.3867816E+04  0.7818609E-02  0.8031756E-01
        2   -1    0    0  501    0  0.00000000000E+00  0.00000000000E+00  0.29711674221E+04  0.29711674221E+04  0.25500000920E-02 0.  1.
       -2   -1    0    0    0  501  0.00000000000E+00  0.00000000000E+00 -0.12587642911E+04  0.12587642911E+04  0.25500000920E-02 0. -1.
    10030    2    1    2    0    0  0.00000000000E+00  0.00000000000E+00  0.17124031310E+04  0.42299317132E+04  0.38678156387E+04 0.  0.
        1    1    3    3  502    0 -0.92730940141E+03 -0.15607648814E+04  0.15850088873E+04  0.24100089032E+04  0.50400001928E-02 0. -1.
       -1    1    3    3    0  502  0.92730940141E+03  0.15607648814E+04  0.12739424376E+03  0.18199228100E+04  0.50400001928E-02 0.  1.
</event>
<event>
 5   0  0.2601252E-07  0.2482084E+04  0.7818609E-02  0.8409396E-01
        1   -1    0    0  501    0  0.00000000000E+00  0.00000000000E+00  0.11452800939E+04  0.11452800940E+04  0.50400001928E-02 0.  1.
       -1   -1    0    0    0  501  0.00000000000E+00  0.00000000000E+00 -0.13448114759E+04  0.13448114759E+04  0.50400001928E-02 0. -1.
    10030    2    1    2    0    0  0.00000000000E+00  0.00000000000E+00 -0.19953138199E+03  0.24900915699E+04  0.24820844575E+04 0.  0.
        3    1    3    3  502    0 -0.13316077600E+02  0.39500452148E+03  0.10804561746E+04  0.11504744436E+04  0.10100000352E+00 0.  1.
       -3    1    3    3    0  502  0.13316077600E+02 -0.39500452148E+03 -0.12799875566E+04  0.13396171263E+04  0.10100000352E+00 0. -1.
</event>
<event>
 5   0  0.4449262E-07  0.4001195E+04  0.7818609E-02  0.8004305E-01
       -2   -1    0    0    0  501  0.00000000000E+00  0.00000000000E+00  0.19954274198E+04  0.19954274198E+04  0.25500000920E-02 0. -1.
        2   -1    0    0  501    0  0.00000000000E+00  0.00000000000E+00 -0.20057812271E+04  0.20057812271E+04  0.25500000920E-02 0.  1.
    10030    2    1    2    0    0  0.00000000000E+00  0.00000000000E+00 -0.10353807338E+02  0.40012086469E+04  0.40011952508E+04 0.  0.
        1    1    3    3  502    0  0.12233049150E+04  0.11561502214E+04 -0.10864911219E+04  0.20034024078E+04  0.50400001928E-02 0.  1.
       -1    1    3    3    0  502 -0.12233049150E+04 -0.11561502214E+04  0.10761373146E+04  0.19978062392E+04  0.50400001928E-02 0. -1.
</event>
<event>
 5   0  0.4449262E-07  0.3947976E+04  0.7818609E-02  0.8015124E-01
        2   -1    0    0  501    0  0.00000000000E+00  0.00000000000E+00  0.17292847616E+04  0.17292847616E+04  0.25500000920E-02 0.  1.
       -2   -1    0    0    0  501  0.00000000000E+00  0.00000000000E+00 -0.22533178177E+04  0.22533178177E+04  0.25500000920E-02 0. -1.
    10030    2    1    2    0    0  0.00000000000E+00  0.00000000000E+00 -0.52403305612E+03  0.39826025793E+04  0.39479757674E+04 0.  0.
        1    1    3    3  502    0 -0.10913453138E+04  0.81002963359E+03  0.11821280897E+04  0.18012799399E+04  0.50400001928E-02 0.  1.
       -1    1    3    3    0  502  0.10913453138E+04 -0.81002963359E+03 -0.17061611459E+04  0.21813226394E+04  0.50400001928E-02 0. -1.
</event>
<event>
 5   0  0.5161550E-07  0.3986893E+04  0.7818609E-02  0.8007196E-01
        2   -1    0    0  501    0  0.00000000000E+00  0.00000000000E+00  0.25608241735E+04  0.25608241735E+04  0.25500000920E-02 0. -1.
       -2   -1    0    0    0  501  0.00000000000E+00  0.00000000000E+00 -0.15517774267E+04  0.15517774267E+04  0.25500000920E-02 0.  1.
    10030    2    1    2    0    0  0.00000000000E+00  0.00000000000E+00  0.10090467468E+04  0.41126016001E+04  0.39868930992E+04 0.  0.
        2    1    3    3  502    0 -0.61286098509E+03 -0.12533516489E+04 -0.96421812401E+03  0.16959379510E+04  0.25500000920E-02 0.  1.
       -2    1    3    3    0  502  0.61286098509E+03  0.12533516489E+04  0.19732648708E+04  0.24166636492E+04  0.25500000920E-02 0. -1.
</event>
<event>
 5   0  0.7570277E-07  0.2461846E+04  0.7818609E-02  0.8416706E-01
        2   -1    0    0  501    0  0.00000000000E+00  0.00000000000E+00  0.18252478450E+04  0.18252478450E+04  0.25500000920E-02 0. -1.
       -2   -1    0    0    0  501  0.00000000000E+00  0.00000000000E+00 -0.83011810524E+03  0.83011810525E+03  0.25500000920E-02 0.  1.
    10030    2    1    2    0    0  0.00000000000E+00  0.00000000000E+00  0.99512973976E+03  0.26553659502E+04  0.24618458788E+04 0.  0.
        5    1    3    3  502    0  0.59786228197E+03 -0.71296339103E+03  0.13667601349E+04  0.16534241626E+04  0.46999998093E+01 0. -1.
       -5    1    3    3    0  502 -0.59786228197E+03  0.71296339103E+03 -0.37163039517E+03  0.10019417876E+04  0.46999998093E+01 0.  1.
</event>
<event>
 5   0  0.6043512E-07  0.3960696E+04  0.7818609E-02  0.8012523E-01
       -2   -1    0    0    0  501  0.00000000000E+00  0.00000000000E+00  0.16219066148E+04  0.16219066148E+04  0.25500000920E-02 0.  1.
        2   -1    0    0  501    0  0.00000000000E+00  0.00000000000E+00 -0.24180055095E+04  0.24180055095E+04  0.25500000920E-02 0. -1.
    10030    2    1    2    0    0  0.00000000000E+00  0.00000000000E+00 -0.79609889471E+03  0.40399121242E+04  0.39606964692E+04 0.  0.
        3    1    3    3  502    0  0.24612970219E+03 -0.92372197172E+03  0.13709786297E+04  0.16713540991E+04  0.10100000352E+00 0.  1.
       -3    1    3    3    0  502 -0.24612970219E+03  0.92372197172E+03 -0.21670775244E+04  0.23685580251E+04  0.10100000352E+00 0. -1.
</event>
<event>
 5   0  0.2401125E-07  0.3872490E+04  0.7818609E-02  0.8030775E-01
       -1   -1    0    0    0  501  0.00000000000E+00  0.00000000000E+00  0.16374003718E+04  0.16374003718E+04  0.50400001928E-02 0.  1.
        1   -1    0    0  501    0  0.00000000000E+00  0.00000000000E+00 -0.22896324130E+04  0.22896324130E+04  0.50400001928E-02 0. -1.
    10030    2    1    2    0    0  0.00000000000E+00  0.00000000000E+00 -0.65223204129E+03  0.39270327848E+04  0.38724901365E+04 0.  0.
        5    1    3    3  502    0  0.11455070870E+04 -0.11911114352E+04  0.69709987694E+03  0.17935727657E+04  0.46999998093E+01 0. -1.
       -5    1    3    3    0  502 -0.11455070870E+04  0.11911114352E+04 -0.13493319182E+04  0.21334600191E+04  0.46999998093E+01 0.  1.
</event>
<event>
 5   0  0.6043512E-07  0.3772416E+04  0.7818609E-02  0.8052100E-01
       -2   -1    0    0    0  501  0.00000000000E+00  0.00000000000E+00  0.17296841171E+04  0.17296841171E+04  0.25500000920E-02 0.  1.
        2   -1    0    0  501    0  0.00000000000E+00  0.00000000000E+00 -0.20568960917E+04  0.20568960917E+04  0.25500000920E-02 0. -1.
    10030    2    1    2    0    0  0.00000000000E+00  0.00000000000E+00 -0.32721197460E+03  0.37865802088E+04  0.37724159369E+04 0.  0.
        3    1    3    3  502    0 -0.91813630011E+02 -0.69480936587E+03 -0.19213494700E+04  0.20451830220E+04  0.10100000352E+00 0. -1.
       -3    1    3    3    0  502  0.91813630011E+02  0.69480936587E+03  0.15941374954E+04  0.17413971867E+04  0.10100000352E+00 0.  1.
</event>
<event>
 5   0  0.4449262E-07  0.4092149E+04  0.7818609E-02  0.7986211E-01
       -2   -1    0    0    0  501  0.00000000000E+00  0.00000000000E+00  0.20859512481E+04  0.20859512481E+04  0.25500000920E-02 0.  1.
        2   -1    0    0  501    0  0.00000000000E+00  0.00000000000E+00 -0.20069598369E+04  0.20069598369E+04  0.25500000920E-02 0. -1.
    10030    2    1    2    0    0  0.00000000000E+00  0.00000000000E+00  0.78991411286E+02  0.40929110850E+04  0.40921487640E+04 0.  0.
        1    1    3    3  502    0  0.52368155883E+03  0.12012365119E+04 -0.15321686672E+04  0.20161231008E+04  0.50400001928E-02 0. -1.
       -1    1    3    3    0  502 -0.52368155883E+03 -0.12012365119E+04  0.16111600785E+04  0.20767879842E+04  0.50400001928E-02 0.  1.
</event>
<event>
 5   0  0.5161550E-07  0.3918135E+04  0.7818609E-02  0.8021268E-01
        2   -1    0    0  501    0  0.00000000000E+00  0.00000000000E+00  0.16182761988E+04  0.16182761988E+04  0.25500000920E-02 0.  1.
       -2   -1    0    0    0  501  0.00000000000E+00  0.00000000000E+00 -0.23716252324E+04  0.23716252324E+04  0.25500000920E-02 0. -1.
    10030    2    1    2    0    0  0.00000000000E+00  0.00000000000E+00 -0.75334903364E+03  0.39899014312E+04  0.39181345898E+04 0.  0.
        2    1    3    3  502    0  0.76600826429E+03  0.66478313123E+03  0.13301040934E+04  0.16726871111E+04  0.25500000920E-02 0.  1.
       -2    1    3    3    0  502 -0.76600826429E+03 -0.66478313123E+03 -0.20834531270E+04  0.23172143200E+04  0.25500000920E-02 0. -1.
</event>
<event>
 5   0  0.2401125E-07  0.2008511E+04  0.7818609E-02  0.8602652E-01
        1   -1    0    0  501    0  0.00000000000E+00  0.00000000000E+00  0.12369822963E+04  0.12369822963E+04  0.50400001928E-02 0. -1.
       -1   -1    0    0    0  501  0.00000000000E+00  0.00000000000E+00 -0.81531445811E+03  0.81531445812E+03  0.50400001928E-02 0.  1.
    10030    2    1    2    0    0  0.00000000000E+00  0.00000000000E+00  0.42166783823E+03  0.20522967545E+04  0.20085114395E+04 0.  0.
        5    1    3    3  502    0  0.53997574127E+03  0.83352596944E+03  0.58698526851E+02  0.99489042108E+03  0.46999998093E+01 0.  1.
       -5    1    3    3    0  502 -0.53997574127E+03 -0.83352596944E+03  0.36296931138E+03  0.10574063334E+04  0.46999998093E+01 0. -1.
</event>
<event>
 5   0  0.7570277E-07  0.3961156E+04  0.7818609E-02  0.8012429E-01
        2   -1    0    0  501    0  0.00000000000E+00  0.00000000000E+00  0.22389451162E+04  0.22389451162E+04  0.25500000920E-02 0. -1.
       -2   -1    0    0    0  501  0.00000000000E+00  0.00000000000E+00 -0.17520254136E+04  0.17520254136E+04  0.25500000920E-02 0.  1.
    10030    2    1    2    0    0  0.00000000000E+00  0.00000000000E+00  0.48691970253E+03  0.39909705298E+04  0.39611557623E+04 0.  0.
        5    1    3    3  502    0  0.16101961602E+04  0.19457640498E+03 -0.90179057649E+03  0.18557586011E+04  0.46999998093E+01 0.  1.
       -5    1    3    3    0  502 -0.16101961602E+04 -0.19457640498E+03  0.13887102790E+04  0.21352119287E+04  0.46999998093E+01 0. -1.
</event>
<event>
 5   0  0.7570277E-07  0.3978492E+04  0.7818609E-02  0.8008900E-01
        2   -1    0    0  501    0  0.00000000000E+00  0.00000000000E+00  0.19277342062E+04  0.19277342062E+04  0.25500000920E-02 0. -1.
       -2   -1    0    0    0  501  0.00000000000E+00  0.00000000000E+00 -0.20527202405E+04  0.20527202405E+04  0.25500000920E-02 0.  1.
    10030    2    1    2    0    0  0.00000000000E+00  0.00000000000E+00 -0.12498603425E+03  0.39804544467E+04  0.39784916858E+04 0.  0.
        5    1    3    3  502    0  0.10903922606E+04  0.46328802038E+03  0.15362583619E+04  0.19400265246E+04  0.46999998093E+01 0. -1.
       -5    1    3    3    0  502 -0.10903922606E+04 -0.46328802038E+03 -0.16612443961E+04  0.20404279221E+04  0.46999998093E+01 0.  1.
</event>
<event>
 5   0  0.6043512E-07  0.3981099E+04  0.7818609E-02  0.8008370E-01
       -2   -1    0    0    0  501  0.00000000000E+00  0.00000000000E+00  0.20098813862E+04  0.20098813862E+04  0.25500000920E-02 0. -1.
        2   -1    0    0  501    0  0.00000000000E+00  0.00000000000E+00 -0.19714036263E+04  0.19714036263E+04  0.25500000920E-02 0.  1.
    10030    2    1    2    0    0  0.00000000000E+00  0.00000000000E+00  0.38477759867E+02  0.39812850125E+04  0.39810990709E+04 0.  0.
        3    1    3    3  502    0 -0.82324096445E+03 -0.63134327718E+03 -0.16796539991E+04  0.19742232868E+04  0.10100000352E+00 0.  1.
       -3    1    3    3    0  502  0.82324096445E+03  0.63134327718E+03  0.17181317590E+04  0.20070617257E+04  0.10100000352E+00 0. -1.
</event>
<event>
 5   0  0.4449262E-07  0.3492073E+04  0.7818609E-02  0.8115671E-01
       -2   -1    0    0    0  501  0.00000000000E+00  0.00000000000E+00  0.13638355227E+04  0.13638355227E+04  0.25500000920E-02 0.  1.
        2   -1    0    0  501    0  0.00000000000E+00  0.00000000000E+00 -0.22353454980E+04  0.22353454980E+04  0.25500000920E-02 0. -1.
    10030    2    1    2    0    0  0.00000000000E+00  0.00000000000E+00 -0.87150997524E+03  0.35991810207E+04  0.34920730781E+04 0.  0.
        1    1    3    3  502    0 -0.76338992048E+03  0.21365356840E+03  0.11676706671E+04  0.14113351143E+04  0.50400001928E-02 0.  1.
       -1    1    3    3    0  502  0.76338992048E+03 -0.21365356840E+03 -0.20391806424E+04  0.21878459064E+04  0.50400001928E-02 0. -1.
</event>
<event>
 5   0  0.7570277E-07  0.3660229E+04  0.7818609E-02  0.8076833E-01
        2   -1    0    0  501    0  0.00000000000E+00  0.00000000000E+00  0.14226300589E+04  0.14226300589E+04  0.25500000920E-02 0. -1.
       -2   -1    0    0    0  501  0.00000000000E+00  0.00000000000E+00 -0.23543151768E+04  0.23543151768E+04  0.25500000920E-02 0.  1.
    10030    2    1    2    0    0  0.00000000000E+00  0.00000000000E+00 -0.93168511786E+03  0.37769452357E+04  0.36602292489E+04 0.  0.
        5    1    3    3  502    0 -0.41754799150E+03  0.17433074195E+04 -0.84614650667E+03  0.19822848143E+04  0.46999998093E+01 0.  1.
       -5    1    3    3    0  502  0.41754799150E+03 -0.17433074195E+04 -0.85538611183E+02  0.17946604214E+04  0.46999998093E+01 0. -1.
</event>
<event>
 5   0  0.5161550E-07  0.4043202E+04  0.7818609E-02  0.7995888E-01
       -2   -1    0    0    0  501  0.00000000000E+00  0.00000000000E+00  0.24502295416E+04  0.24502295416E+04  0.25500000920E-02 0.  1.
        2   -1    0    0  501    0  0.00000000000E+00  0.00000000000E+00 -0.16679541126E+04  0.16679541126E+04  0.25500000920E-02 0. -1.
    10030    2    1    2    0    0  0.00000000000E+00  0.00000000000E+00  0.78227542902E+03  0.41181836541E+04  0.40432019196E+04 0.  0.
        2    1    3    3  502    0  0.65218208537E+03  0.16666653537E+04 -0.56637899373E+03  0.18772053799E+04  0.25500000920E-02 0. -1.
       -2    1    3    3    0  502 -0.65218208537E+03 -0.16666653537E+04  0.13486544227E+04  0.22409782743E+04  0.25500000920E-02 0.  1.
</event>
<event>
 5   0  0.7570277E-07  0.2624348E+04  0.7818609E-02  0.8359977E-01
        2   -1    0    0  501    0  0.00000000000E+00  0.00000000000E+00  0.12606185155E+04  0.12606185155E+04  0.25500000920E-02 0. -1.
       -2   -1    0    0    0  501  0.00000000000E+00  0.00000000000E+00 -0.13658381873E+04  0.13658381873E+04  0.25500000920E-02 0.  1.
    10030    2    1    2    0    0  0.00000000000E+00  0.00000000000E+00 -0.10521967172E+03  0.26264567028E+04  0.26243482300E+04 0.  0.
        5    1    3    3  502    0 -0.31701942267E+03  0.71132099175E+03  0.10043162708E+04  0.12708863559E+04  0.46999998093E+01 0. -1.
       -5    1    3    3    0  502  0.31701942267E+03 -0.71132099175E+03 -0.11095359426E+04  0.13555703469E+04  0.46999998093E+01 0.  1.
</event>
<event>
 5   0  0.2401125E-07  0.2892185E+04  0.7818609E-02  0.8275206E-01
        1   -1    0    0  501    0  0.00000000000E+00  0.00000000000E+00  0.82806754013E+03  0.82806754014E+03  0.50400001928E-02 0. -1.
       -1   -1    0    0    0  501  0.00000000000E+00  0.00000000000E+00 -0.25253785575E+04  0.25253785575E+04  0.50400001928E-02 0.  1.
    10030    2    1    2    0    0  0.00000000000E+00  0.00000000000E+00 -0.16973110173E+04  0.33534460976E+04  0.28921853398E+04 0.  0.
        5    1    3    3  502    0  0.56660710930E+03  0.12020245568E+04 -0.18738770238E+03  0.13420293933E+04  0.46999998093E+01 0. -1.
       -5    1    3    3    0  502 -0.56660710930E+03 -0.12020245568E+04 -0.15099233150E+04  0.20114167043E+04  0.46999998093E+01 0.  1.
</event>
<event>
 5   0  0.2713405E-07  0.3976741E+04  0.7818609E-02  0.8009255E-01
       -1   -1    0    0    0  501  0.00000000000E+00  0.00000000000E+00  0.29273785721E+04  0.29273785721E+04  0.50400001928E-02 0.  1.
        1   -1    0    0  501    0  0.00000000000E+00  0.00000000000E+00 -0.13505656722E+04  0.13505656722E+04  0.50400001928E-02 0. -1.
    10030    2    1    2    0    0  0.00000000000E+00  0.00000000000E+00  0.15768128999E+04  0.42779442443E+04  0.39767408812E+04 0.  0.
        1    1    3    3  502    0 -0.15349235371E+04 -0.11514700887E+04  0.22763317022E+03  0.19322759871E+04  0.50400001928E-02 0. -1.
       -1    1    3    3    0  502  0.15349235371E+04  0.11514700887E+04  0.13491797297E+04  0.23456682572E+04  0.50400001928E-02 0.  1.
</event>
<event>
 5   0  0.4449262E-07  0.3886746E+04  0.7818609E-02  0.8027791E-01
        2   -1    0    0  501    0  0.00000000000E+00  0.00000000000E+00  0.22160113167E+04  0.22160113167E+04  0.25500000920E-02 0. -1.
       -2   -1    0    0    0  501  0.00000000000E+00  0.00000000000E+00 -0.17042777011E+04  0.17042777011E+04  0.25500000920E-02 0.  1.
    10030    2    1    2    0    0  0.00000000000E+00  0.00000000000E+00  0.51173361553E+03  0.39202890178E+04  0.38867460285E+04 0.  0.
        1    1    3    3  502    0 -0.82409760485E+03  0.75851729143E+03  0.18577204413E+04  0.21692419371E+04  0.50400001928E-02 0. -1.
       -1    1    3    3    0  502  0.82409760485E+03 -0.75851729143E+03 -0.13459868257E+04  0.17510470807E+04  0.50400001928E-02 0.  1.
</event>
<event>
 5   0  0.7570277E-07  0.4082329E+04  0.7818609E-02  0.7988141E-01
       -2   -1    0    0    0  501  0.00000000000E+00  0.00000000000E+00  0.22346453614E+04  0.22346453614E+04  0.25500000920E-02 0.  1.
        2   -1    0    0  501    0  0.00000000000E+00  0.00000000000E+00 -0.18644359956E+04  0.18644359956E+04  0.25500000920E-02 0. -1.
    10030    2    1    2    0    0  0.00000000000E+00  0.00000000000E+00  0.37020936585E+03  0.40990813570E+04  0.40823293592E+04 0.  0.
        5    1    3    3  502    0  0.86976148425E+03 -0.16014899218E+04 -0.73794785431E+03  0.19661750010E+04  0.46999998093E+01 0. -1.
       -5    1    3    3    0  502 -0.86976148425E+03  0.16014899218E+04  0.11081572202E+04  0.21329063560E+04  0.46999998093E+01 0.  1.
</event>
<event>
 5   0  0.4449262E-07  0.3867069E+04  0.7818609E-02  0.8031913E-01
        2   -1    0    0  501    0  0.00000000000E+00  0.00000000000E+00  0.31149504542E+04  0.31149504542E+04  0.25500000920E-02 0.  1.
       -2   -1    0    0    0  501  0.00000000000E+00  0.00000000000E+00 -0.12001971824E+04  0.12001971824E+04  0.25500000920E-02 0. -1.
    10030    2    1    2    0    0  0.00000000000E+00  0.00000000000E+00  0.19147532717E+04  0.43151476366E+04  0.38670685323E+04 0.  0.
        1    1    3    3  502    0 -0.18402348736E+04  0.58690899052E+03  0.10548363141E+04  0.22008194390E+04  0.50400001928E-02 0. -1.
       -1    1    3    3    0  502  0.18402348736E+04 -0.58690899052E+03  0.85991695761E+03  0.21143281976E+04  0.50400001928E-02 0.  1.
</event>
<event>
 5   0  0.2401125E-07  0.4033991E+04  0.7818609E-02  0.7997724E-01
       -1   -1    0    0    0  501  0.00000000000E+00  0.00000000000E+00  0.14348054017E+04  0.14348054017E+04  0.50400001928E-02 0.  1.
        1   -1    0    0  501    0  0.00000000000E+00  0.00000000000E+00 -0.28354162131E+04  0.28354162132E+04  0.50400001928E-02 0. -1.
    10030    2    1    2    0    0  0.00000000000E+00  0.00000000000E+00 -0.14006108115E+04  0.42702216148E+04  0.40339908273E+04 0.  0.
        5    1    3    3  502    0 -0.94014668318E+03 -0.10695409459E+04  0.81178931195E+03  0.16391514871E+04  0.46999998093E+01 0.  1.
       -5    1    3    3    0  502  0.94014668318E+03  0.10695409459E+04 -0.22124001234E+04  0.26310701277E+04  0.46999998093E+01 0. -1.
</event>
<event>
 5   0  0.4449262E-07  0.2943515E+04  0.7818609E-02  0.8260047E-01
       -2   -1    0    0    0  501  0.00000000000E+00  0.00000000000E+00  0.23544717484E+04  0.23544717484E+04  0.25500000920E-02 0.  1.
        2   -1    0    0  501    0  0.00000000000E+00  0.00000000000E+00 -0.91998123966E+03  0.91998123966E+03  0.25500000920E-02 0. -1.
    10030    2    1    2    0    0  0.00000000000E+00  0.00000000000E+00  0.14344905088E+04  0.32744529881E+04  0.29435147955E+04 0.  0.
        1    1    3    3  502    0 -0.28626115269E+03 -0.22611614475E+03  0.23033825814E+04  0.23320903231E+04  0.50400001928E-02 0.  1.
       -1    1    3    3    0  502  0.28626115269E+03  0.22611614475E+03 -0.86889207267E+03  0.94236266502E+03  0.50400001928E-02 0. -1.
</event>
<event>
 5   0  0.3579559E-07  0.3684384E+04  0.7818609E-02  0.8071431E-01
        1   -1    0    0  501    0  0.00000000000E+00  0.00000000000E+00  0.20499457314E+04  0.20499457314E+04  0.50400001928E-02 0.  1.
       -1   -1    0    0    0  501  0.00000000000E+00  0.00000000000E+00 -0.16554931673E+04  0.16554931673E+04  0.50400001928E-02 0. -1.
    10030    2    1    2    0    0  0.00000000000E+00  0.00000000000E+00  0.39445256404E+03  0.37054388987E+04  0.36843838843E+04 0.  0.
        4    1    3    3  502    0 -0.10621478279E+03  0.15429938917E+04 -0.80927143237E+03  0.17455754335E+04  0.12699999809E+01 0.  1.
       -4    1    3    3    0  502  0.10621478279E+03 -0.15429938917E+04  0.12037239964E+04  0.19598634652E+04  0.12699999809E+01 0. -1.
</event>
<event>
 5   0  0.3579559E-07  0.3874368E+04  0.7818609E-02  0.8030381E-01
       -1   -1    0    0    0  501  0.00000000000E+00  0.00000000000E+00  0.13601216256E+04  0.13601216256E+04  0.50400001928E-02 0.  1.
        1   -1    0    0  501    0  0.00000000000E+00  0.00000000000E+00 -0.27590776365E+04  0.27590776365E+04  0.50400001928E-02 0. -1.
    10030    2    1    2    0    0  0.00000000000E+00  0.00000000000E+00 -0.13989560109E+04  0.41191992621E+04  0.38743676439E+04 0.  0.
        4    1    3    3  502    0  0.88212540463E+03 -0.11906740315E+04  0.62709917246E+03  0.16090695646E+04  0.12699999809E+01 0.  1.
       -4    1    3    3    0  502 -0.88212540463E+03  0.11906740315E+04 -0.20260551834E+04  0.25101296974E+04  0.12699999809E+01 0. -1.
</event>
<event>
 5   0  0.4449262E-07  0.2323242E+04  0.7818609E-02  0.8468813E-01
        2   -1    0    0  501    0  0.00000000000E+00  0.00000000000E+00  0.91483984262E+03  0.91483984262E+03  0.25500000920E-02 0.  1.
       -2   -1    0    0    0  501  0.00000000000E+00  0.00000000000E+00 -0.14749721208E+04  0.14749721208E+04  0.25500000920E-02 0. -1.
    10030    2    1    2    0    0  0.00000000000E+00  0.00000000000E+00 -0.56013227814E+03  0.23898119634E+04  0.23232419270E+04 0.  0.
        1    1    3    3  502    0 -0.53132725835E+03  0.10299062473E+04 -0.36202171167E+03  0.12141150083E+04  0.50400001928E-02 0. -1.
       -1    1    3    3    0  502  0.53132725835E+03 -0.10299062473E+04 -0.19811056647E+03  0.11756969551E+04  0.50400001928E-02 0.  1.
</event>
<event>
 5   0  0.6043512E-07  0.2290021E+04  0.7818609E-02  0.8481866E-01
        2   -1    0    0  501    0  0.00000000000E+00  0.00000000000E+00  0.13730006899E+04  0.13730006899E+04  0.25500000920E-02 0. -1.
       -2   -1    0    0    0  501  0.00000000000E+00  0.00000000000E+00 -0.95487850443E+03  0.95487850443E+03  0.25500000920E-02 0.  1.
    10030    2    1    2    0    0  0.00000000000E+00  0.00000000000E+00  0.41812218547E+03  0.23278791943E+04  0.22900208255E+04 0.  0.
        3    1    3    3  502    0  0.30215130542E+03  0.66309257616E+03  0.11068732319E+04  0.13252001878E+04  0.10100000352E+00 0. -1.
       -3    1    3    3    0  502 -0.30215130542E+03 -0.66309257616E+03 -0.68875104648E+03  0.10026790065E+04  0.10100000352E+00 0.  1.
</event>
<event>
 5   0  0.3579559E-07  0.4028044E+04  0.7818609E-02  0.7998913E-01
       -1   -1    0    0    0  501  0.00000000000E+00  0.00000000000E+00  0.21023238889E+04  0.21023238889E+04  0.50400001928E-02 0. -1.
        1   -1    0    0  501    0  0.00000000000E+00  0.00000000000E+00 -0.19294288908E+04  0.19294288908E+04  0.50400001928E-02 0.  1.
    10030    2    1    2    0    0  0.00000000000E+00  0.00000000000E+00  0.17289499807E+03  0.40317527798E+04  0.40280439169E+04 0.  0.
        4    1    3    3  502    0 -0.62397875901E+03 -0.19143219619E+04  0.38395268080E+02  0.20138157501E+04  0.12699999809E+01 0. -1.
       -4    1    3    3    0  502  0.62397875901E+03  0.19143219619E+04  0.13449972999E+03  0.20179370297E+04  0.12699999809E+01 0.  1.
</event>
<event>
 5   0  0.4449262E-07  0.2825342E+04  0.7818609E-02  0.8295443E-01
       -2   -1    0    0    0  501  0.00000000000E+00  0.00000000000E+00  0.16312664159E+04  0.16312664159E+04  0.25500000920E-02 0. -1.
        2   -1    0    0  501    0  0.00000000000E+00  0.00000000000E+00 -0.12233684746E+04  0.12233684746E+04  0.25500000920E-02 0.  1.
    10030    2    1    2    0    0  0.00000000000E+00  0.00000000000E+00  0.40789794131E+03  0.28546348905E+04  0.28253423912E+04 0.  0.
        1    1    3    3  502    0 -0.47240051810E+03 -0.11279006703E+04  0.91861383819E+03  0.15294356983E+04  0.50400001928E-02 0. -1.
       -1    1    3    3    0  502  0.47240051810E+03  0.11279006703E+04 -0.51071589689E+03  0.13251991922E+04  0.50400001928E-02 0.  1.
</event>
<event>
 5   0  0.2647879E-07  0.3803271E+04  0.7818609E-02  0.8045453E-01
       -1   -1    0    0    0  501  0.00000000000E+00  0.00000000000E+00  0.30012990991E+04  0.30012990991E+04  0.50400001928E-02 0.  1.
        1   -1    0    0  501    0  0.00000000000E+00  0.00000000000E+00 -0.12048840448E+04  0.12048840448E+04  0.50400001928E-02 0. -1.
    10030    2    1    2    0    0  0.00000000000E+00  0.00000000000E+00  0.17964150543E+04  0.42061831439E+04  0.38032709071E+04 0.  0.
        2    1    3    3  502    0 -0.66956838417E+03  0.16631416516E+04  0.15992847126E+04  0.24025140096E+04  0.25500000920E-02 0.  1.
       -2    1    3    3    0  502  0.66956838417E+03 -0.16631416516E+04  0.19713034173E+03  0.18036691343E+04  0.25500000920E-02 0. -1.
</event>
<event>
 5   0  0.2647879E-07  0.3933104E+04  0.7818609E-02  0.8018179E-01
       -1   -1    0    0    0  501  0.00000000000E+00  0.00000000000E+00  0.15994600875E+04  0.15994600875E+04  0.50400001928E-02 0. -1.
        1   -1    0    0  501    0  0.00000000000E+00  0.00000000000E+00 -0.24178953767E+04  0.24178953767E+04  0.50400001928E-02 0.  1.
    10030    2    1    2    0    0  0.00000000000E+00  0.00000000000E+00 -0.81843528928E+03  0.40173554642E+04  0.39331041943E+04 0.  0.
        2    1    3    3  502    0  0.96959813269E+02 -0.14182640272E+03  0.15917801636E+04  0.16010246791E+04  0.25500000920E-02 0. -1.
       -2    1    3    3    0  502 -0.96959813269E+02  0.14182640272E+03 -0.24102154529E+04  0.24163307851E+04  0.25500000920E-02 0.  1.
</event>
<event>
 5   0  0.2647879E-07  0.2224680E+04  0.7818609E-02  0.8508225E-01
        1   -1    0    0  501    0  0.00000000000E+00  0.00000000000E+00  0.13652077762E+04  0.13652077762E+04  0.50400001928E-02 0.  1.
       -1   -1    0    0    0  501  0.00000000000E+00  0.00000000000E+00 -0.90630944196E+03  0.90630944197E+03  0.50400001928E-02 0. -1.
    10030    2    1    2    0    0  0.00000000000E+00  0.00000000000E+00  0.45889833427E+03  0.22715172182E+04  0.22246803796E+04 0.  0.
        2    1    3    3  502    0 -0.19035468710E+03  0.33882856687E+03  0.12936301675E+04  0.13507474652E+04  0.25500000920E-02 0.  1.
       -2    1    3    3    0  502  0.19035468710E+03 -0.33882856687E+03 -0.83473183320E+03  0.92076975298E+03  0.25500000920E-02 0. -1.
</event>
<event>
 5   0  0.5161550E-07  0.3990200E+04  0.7818609E-02  0.8006526E-01
       -2   -1    0    0    0  501  0.00000000000E+00  0.00000000000E+00  0.20049328267E+04  0.20049328267E+04  0.25500000920E-02 0. -1.
        2   -1    0    0  501    0  0.00000000000E+00  0.00000000000E+00 -0.19853153598E+04  0.19853153598E+04  0.25500000920E-02 0.  1.
    10030    2    1    2    0    0  0.00000000000E+00  0.00000000000E+00  0.19617466866E+02  0.39902481865E+04  0.39901999630E+04 0.  0.
        2    1    3    3  502    0  0.14158494357E+03  0.59323269196E+03  0.19094244402E+04  0.20044632738E+04  0.25500000920E-02 0. -1.
       -2    1    3    3    0  502 -0.14158494357E+03 -0.59323269196E+03 -0.18898069734E+04  0.19857849127E+04  0.25500000920E-02 0.  1.
</event>
<event>
 5   0  0.5161550E-07  0.2638811E+04  0.7818609E-02  0.8355136E-01
        2   -1    0    0  501    0  0.00000000000E+00  0.00000000000E+00  0.16811702949E+04  0.16811702949E+04  0.25500000920E-02 0. -1.
       -2   -1    0    0    0  501  0.00000000000E+00  0.00000000000E+00 -0.10354872621E+04  0.10354872621E+04  0.25500000920E-02 0.  1.
    10030    2    1    2    0    0  0.00000000000E+00  0.00000000000E+00  0.64568303276E+03  0.27166575570E+04  0.26388106607E+04 0.  0.
        2    1    3    3  502    0 -0.64267637202E+02  0.77193950752E+03 -0.77675468539E+03  0.10969816652E+04  0.25500000920E-02 0.  1.
       -2    1    3    3    0  502  0.64267637202E+02 -0.77193950752E+03  0.14224377182E+04  0.16196758918E+04  0.25500000920E-02 0. -1.
</event>
<event>
 5   0  0.4449262E-07  0.3715580E+04  0.7818609E-02  0.8064518E-01
       -2   -1    0    0    0  501  0.00000000000E+00  0.00000000000E+00  0.13152940714E+04  0.13152940714E+04  0.25500000920E-02 0.  1.
        2   -1    0    0  501    0  0.00000000000E+00  0.00000000000E+00 -0.26240399227E+04  0.26240399227E+04  0.25500000920E-02 0. -1.
    10030    2    1    2    0    0  0.00000000000E+00  0.00000000000E+00 -0.13087458512E+04  0.39393339941E+04  0.37155802527E+04 0.  0.
        1    1    3    3  502    0  0.11720166476E+04  0.11851222074E+03  0.86870148574E+03  0.14636633629E+04  0.50400001928E-02 0.  1.
       -1    1    3    3    0  502 -0.11720166476E+04 -0.11851222074E+03 -0.21774473370E+04  0.24756706312E+04  0.50400001928E-02 0. -1.
</event>
<event>
 5   0  0.2713405E-07  0.2485581E+04  0.7818609E-02  0.8408140E-01
        1   -1    0    0  501    0  0.00000000000E+00  0.00000000000E+00  0.18521925982E+04  0.18521925982E+04  0.50400001928E-02 0.  1.
       -1   -1    0    0    0  501  0.00000000000E+00  0.00000000000E+00 -0.83389170301E+03  0.83389170302E+03  0.50400001928E-02 0. -1.
    10030    2    1    2    0    0  0.00000000000E+00  0.00000000000E+00  0.10183008952E+04  0.26860843012E+04  0.24855808497E+04 0.  0.
        1    1    3    3  502    0  0.48225960804E+03  0.11375631239E+04  0.65374933593E+03  0.13978599303E+04  0.50400001928E-02 0.  1.
       -1    1    3    3    0  502 -0.48225960804E+03 -0.11375631239E+04  0.36455155927E+03  0.12882243709E+04  0.50400001928E-02 0. -1.
</event>
<event>
 5   0  0.4449262E-07  0.3468334E+04  0.7818609E-02  0.8121336E-01
        2   -1    0    0  501    0  0.00000000000E+00  0.00000000000E+00  0.10606097830E+04  0.10606097830E+04  0.25500000920E-02 0.  1.
       -2   -1    0    0    0  501  0.00000000000E+00  0.00000000000E+00 -0.28354768891E+04  0.28354768891E+04  0.25500000920E-02 0. -1.
    10030    2    1    2    0    0  0.00000000000E+00  0.00000000000E+00 -0.17748671061E+04  0.38960866721E+04  0.34683336219E+04 0.  0.
        1    1    3    3  502    0 -0.15976182331E+04  0.60895047007E+03 -0.12132573203E+04  0.20964727565E+04  0.50400001928E-02 0. -1.
       -1    1    3    3    0  502  0.15976182331E+04 -0.60895047007E+03 -0.56160978579E+03  0.17996139156E+04  0.50400001928E-02 0.  1.
</event>
<event>
 5   0  0.2401125E-07  0.4020613E+04  0.7818609E-02  0.8000401E-01
       -1   -1    0    0    0  501  0.00000000000E+00  0.00000000000E+00  0.17393813559E+04  0.17393813559E+04  0.50400001928E-02 0. -1.
        1   -1    0    0  501    0  0.00000000000E+00  0.00000000000E+00 -0.23234302540E+04  0.23234302540E+04  0.50400001928E-02 0.  1.
    10030    2    1    2    0    0  0.00000000000E+00  0.00000000000E+00 -0.58404889813E+03  0.40628116100E+04  0.40206125233E+04 0.  0.
        5    1    3    3  502    0  0.15958523549E+04  0.39752184881E+03 -0.14602469771E+04  0.21993434663E+04  0.46999998093E+01 0.  1.
       -5    1    3    3    0  502 -0.15958523549E+04 -0.39752184881E+03  0.87619807896E+03  0.18634681436E+04  0.46999998093E+01 0. -1.
</event>
<event>
 5   0  0.2401125E-07  0.4121807E+04  0.7818609E-02  0.7980415E-01
        3   -1    0    0  501    0  0.00000000000E+00  0.00000000000E+00  0.20948388914E+04  0.20948388939E+04  0.10100000352E+00 0.  1.
       -3   -1    0    0    0  501  0.00000000000E+00  0.00000000000E+00 -0.20275173617E+04  0.20275173642E+04  0.10100000352E+00 0. -1.
    10030    2    1    2    0    0  0.00000000000E+00  0.00000000000E+00  0.67321529745E+02  0.41223562581E+04  0.41218065129E+04 0.  0.
        4    1    3    3  502    0 -0.17201222399E+04 -0.10828800503E+04  0.37410430887E+03  0.20667378572E+04  0.12699999809E+01 0. -1.
       -4    1    3    3    0  502  0.17201222399E+04  0.10828800503E+04 -0.30678277912E+03  0.20556184009E+04  0.12699999809E+01 0.  1.
</event>
<event>
 5   0  0.5161550E-07  0.3995332E+04  0.7818609E-02  0.8005489E-01
        2   -1    0    0  501    0  0.00000000000E+00  0.00000000000E+00  0.30080538132E+04  0.30080538132E+04  0.25500000920E-02 0. -1.
       -2   -1    0    0    0  501  0.00000000000E+00  0.00000000000E+00 -0.13266618402E+04  0.13266618402E+04  0.25500000920E-02 0.  1.
    10030    2    1    2    0    0  0.00000000000E+00  0.00000000000E+00  0.16813919730E+04  0.43347156534E+04  0.39953323803E+04 0.  0.
        2    1    3    3  502    0 -0.42021585559E+03  0.95231846018E+03 -0.10091839413E+04  0.14498082778E+04  0.25500000920E-02 0.  1.
       -2    1    3    3    0  502  0.42021585559E+03 -0.95231846018E+03  0.26905759143E+04  0.28849073756E+04  0.25500000920E-02 0. -1.
</event>
<event>
 5   0  0.2713405E-07  0.2430659E+04  0.7818609E-02  0.8428114E-01
       -1   -1    0    0    0  501  0.00000000000E+00  0.00000000000E+00  0.18101274114E+04  0.18101274114E+04  0.50400001928E-02 0. -1.
        1   -1    0    0  501    0  0.00000000000E+00  0.00000000000E+00 -0.81597897782E+03  0.81597897783E+03  0.50400001928E-02 0.  1.
    10030    2    1    2    0    0  0.00000000000E+00  0.00000000000E+00  0.99414843354E+03  0.26261063892E+04  0.24306590998E+04 0.  0.
        1    1    3    3  502    0  0.43949701021E+03 -0.69677321137E+03 -0.46829141266E+03  0.94760085335E+03  0.50400001928E-02 0.  1.
       -1    1    3    3    0  502 -0.43949701021E+03  0.69677321137E+03  0.14624398462E+04  0.16785055358E+04  0.50400001928E-02 0. -1.
</event>
<event>
 5   0  0.8002383E-07  0.2059254E+04  0.7818609E-02  0.8579408E-01
       -2   -1    0    0    0  501  0.00000000000E+00  0.00000000000E+00  0.86911676299E+03  0.86911676299E+03  0.25500000920E-02 0. -1.
        2   -1    0    0  501    0  0.00000000000E+00  0.00000000000E+00 -0.12197800168E+04  0.12197800168E+04  0.25500000920E-02 0.  1.
    10030    2    1    2    0    0  0.00000000000E+00  0.00000000000E+00 -0.35066325378E+03  0.20888967798E+04  0.20592535150E+04 0.  0.
        3    1    3    3  502    0  0.43575157912E+02  0.10209806444E+04 -0.30296406063E+03  0.10658740558E+04  0.10100000352E+00 0.  1.
       -3    1    3    3    0  502 -0.43575157912E+02 -0.10209806444E+04 -0.47699193146E+02  0.10230227240E+04  0.10100000352E+00 0. -1.
</event>
<event>
 5   0  0.2401125E-07  0.3969183E+04  0.7818609E-02  0.8010792E-01
       -1   -1    0    0    0  501  0.00000000000E+00  0.00000000000E+00  0.25184240072E+04  0.25184240072E+04  0.50400001928E-02 0.  1.
        1   -1    0    0  501    0  0.00000000000E+00  0.00000000000E+00 -0.15639161589E+04  0.15639161589E+04  0.50400001928E-02 0. -1.
    10030    2    1    2    0    0  0.00000000000E+00  0.00000000000E+00  0.95450784833E+03  0.40823401660E+04  0.39691832912E+04 0.  0.
        5    1    3    3  502    0 -0.26224988150E+03 -0.47381757733E+02 -0.15454237040E+04  0.15682399517E+04  0.46999998093E+01 0. -1.
       -5    1    3    3    0  502  0.26224988150E+03  0.47381757733E+02  0.24999315523E+04  0.25141002143E+04  0.46999998093E+01 0.  1.
</event>
<event>
 5   0  0.6043512E-07  0.3427546E+04  0.7818609E-02  0.8131179E-01
        2   -1    0    0  501    0  0.00000000000E+00  0.00000000000E+00  0.26487467270E+04  0.26487467270E+04  0.25500000920E-02 0. -1.
       -2   -1    0    0    0  501  0.00000000000E+00  0.00000000000E+00 -0.11088330880E+04  0.11088330880E+04  0.25500000920E-02 0.  1.
    10030    2    1    2    0    0  0.00000000000E+00  0.00000000000E+00  0.15399136391E+04  0.37575798150E+04  0.34275460683E+04 0.  0.
        3    1    3    3  502    0  0.14258357831E+04  0.43510839635E+03  0.16967526509E+04  0.22586050044E+04  0.10100000352E+00 0. -1.
       -3    1    3    3    0  502 -0.14258357831E+04 -0.43510839635E+03 -0.15683901188E+03  0.14989748106E+04  0.10100000352E+00 0.  1.
</event>
<event>
 5   0  0.7256473E-07  0.3356001E+04  0.7818609E-02  0.8148790E-01
       -2   -1    0    0    0  501  0.00000000000E+00  0.00000000000E+00  0.13144496312E+04  0.13144496312E+04  0.25500000920E-02 0. -1.
        2   -1    0    0  501    0  0.00000000000E+00  0.00000000000E+00 -0.21421024658E+04  0.21421024658E+04  0.25500000920E-02 0.  1.
    10030    2    1    2    0    0  0.00000000000E+00  0.00000000000E+00 -0.82765283468E+03  0.34565520970E+04  0.33560010704E+04 0.  0.
        4    1    3    3  502    0 -0.76045672232E+03 -0.12680337010E+04  0.40334296153E+03  0.15326092297E+04  0.12699999809E+01 0. -1.
       -4    1    3    3    0  502  0.76045672232E+03  0.12680337010E+04 -0.12309957962E+04  0.19239428673E+04  0.12699999809E+01 0.  1.
</event>
<event>
 5   0  0.5161550E-07  0.4022050E+04  0.7818609E-02  0.8000113E-01
       -2   -1    0    0    0  501  0.00000000000E+00  0.00000000000E+00  0.28504722241E+04  0.28504722241E+04  0.25500000920E-02 0.  1.
        2   -1    0    0  501    0  0.00000000000E+00  0.00000000000E+00 -0.14187901776E+04  0.14187901776E+04  0.25500000920E-02 0. -1.
    10030    2    1    2    0    0  0.00000000000E+00  0.00000000000E+00  0.14316820466E+04  0.42692624017E+04  0.40220502200E+04 0.  0.
        2    1    3    3  502    0 -0.10699050485E+04  0.13874427534E+04  0.17636991186E+04  0.24860267070E+04  0.25500000920E-02 0.  1.
       -2    1    3    3    0  502  0.10699050485E+04 -0.13874427534E+04 -0.33201707209E+03  0.17832356947E+04  0.25500000920E-02 0. -1.
</event>
<event>
 5   0  0.2713405E-07  0.4042613E+04  0.7818609E-02  0.7996005E-01
       -1   -1    0    0    0  501  0.00000000000E+00  0.00000000000E+00  0.20386549449E+04  0.20386549449E+04  0.50400001928E-02 0. -1.
        1   -1    0    0  501    0  0.00000000000E+00  0.00000000000E+00 -0.20041060524E+04  0.20041060524E+04  0.50400001928E-02 0.  1.
    10030    2    1    2    0    0  0.00000000000E+00  0.00000000000E+00  0.34548892483E+02  0.40427609973E+04  0.40426133695E+04 0.  0.
        1    1    3    3  502    0  0.95438804950E+03 -0.32401502818E+03 -0.17348849753E+04  0.20064067796E+04  0.50400001928E-02 0.  1.
       -1    1    3    3    0  502 -0.95438804950E+03  0.32401502818E+03  0.17694338678E+04  0.20363542177E+04  0.50400001928E-02 0. -1.
</event>
<event>
 5   0  0.2647879E-07  0.3794599E+04  0.7818609E-02  0.8047315E-01
       -1   -1    0    0    0  501  0.00000000000E+00  0.00000000000E+00  0.17449981407E+04  0.17449981408E+04  0.50400001928E-02 0.  1.
        1   -1    0    0  501    0  0.00000000000E+00  0.00000000000E+00 -0.20628933908E+04  0.20628933908E+04  0.50400001928E-02 0. -1.
    10030    2    1    2    0    0  0.00000000000E+00  0.00000000000E+00 -0.31789525006E+03  0.38078915316E+04  0.37945988623E+04 0.  0.
        2    1    3    3  502    0 -0.32929199975E+03  0.95139893399E+03 -0.17727327884E+04  0.20386698339E+04  0.25500000920E-02 0. -1.
       -2    1    3    3    0  502  0.32929199975E+03 -0.95139893399E+03  0.14548375383E+04  0.17692216977E+04  0.25500000920E-02 0.  1.
</event>
<event>
 5   0  0.4449262E-07  0.3035041E+04  0.7818609E-02  0.8233795E-01
        2   -1    0    0  501    0  0.00000000000E+00  0.00000000000E+00  0.16120774147E+04  0.16120774147E+04  0.25500000920E-02 0.  1.
       -2   -1    0    0    0  501  0.00000000000E+00  0.00000000000E+00 -0.14285101805E+04  0.14285101805E+04  0.25500000920E-02 0. -1.
    10030    2    1    2    0    0  0.00000000000E+00  0.00000000000E+00  0.18356723425E+03  0.30405875952E+04  0.30350413497E+04 0.  0.
        1    1    3    3  502    0  0.14835931595E+04  0.31770779327E+03  0.12153795497E+03  0.15220901351E+04  0.50400001928E-02 0.  1.
       -1    1    3    3    0  502 -0.14835931595E+04 -0.31770779327E+03  0.62029279274E+02  0.15184974601E+04  0.50400001928E-02 0. -1.
</event>
<event>
 5   0  0.2647879E-07  0.3994227E+04  0.7818609E-02  0.8005712E-01
       -1   -1    0    0    0  501  0.00000000000E+00  0.00000000000E+00  0.16071385705E+04  0.16071385705E+04  0.50400001928E-02 0. -1.
        1   -1    0    0  501    0  0.00000000000E+00  0.00000000000E+00 -0.24817166951E+04  0.24817166951E+04  0.50400001928E-02 0.  1.
    10030    2    1    2    0    0  0.00000000000E+00  0.00000000000E+00 -0.87457812459E+03  0.40888552657E+04  0.39942271452E+04 0.  0.
        2    1    3    3  502    0 -0.73395539426E+03 -0.10786381369E+04 -0.19851670163E+04  0.23755081212E+04  0.25500000920E-02 0.  1.
       -2    1    3    3    0  502  0.73395539426E+03  0.10786381369E+04  0.11105888917E+04  0.17133471445E+04  0.25500000920E-02 0. -1.
</event>
<event>
 5   0  0.7256473E-07  0.2940628E+04  0.7818609E-02  0.8260891E-01
        2   -1    0    0  501    0  0.00000000000E+00  0.00000000000E+00  0.13707399825E+04  0.13707399825E+04  0.25500000920E-02 0. -1.
       -2   -1    0    0    0  501  0.00000000000E+00  0.00000000000E+00 -0.15771213213E+04  0.15771213213E+04  0.25500000920E-02 0.  1.
    10030    2    1    2    0    0  0.00000000000E+00  0.00000000000E+00 -0.20638133880E+03  0.29478613037E+04  0.29406279957E+04 0.  0.
        4    1    3    3  502    0  0.20849508074E+03  0.10334695958E+04 -0.11305491132E+04  0.15458565633E+04  0.12699999809E+01 0.  1.
       -4    1    3    3    0  502 -0.20849508074E+03 -0.10334695958E+04  0.92416777437E+03  0.14020047404E+04  0.12699999809E+01 0. -1.
</event>
<event>
 5   0  0.4449262E-07  0.3700868E+04  0.7818609E-02  0.8067769E-01
       -2   -1    0    0    0  501  0.00000000000E+00  0.00000000000E+00  0.12508171989E+04  0.12508171989E+04  0.25500000920E-02 0. -1.
        2   -1    0    0  501    0  0.00000000000E+00  0.00000000000E+00 -0.27374957914E+04  0.27374957914E+04  0.25500000920E-02 0.  1.
    10030    2    1    2    0    0  0.00000000000E+00  0.00000000000E+00 -0.14866785925E+04  0.39883129903E+04  0.37008684482E+04 0.  0.
        1    1    3    3  502    0 -0.14606387879E+04 -0.96103937420E+03 -0.90441913068E+02  0.17507832782E+04  0.50400001928E-02 0. -1.
       -1    1    3    3    0  502  0.14606387879E+04  0.96103937420E+03 -0.13962366794E+04  0.22375297121E+04  0.50400001928E-02 0.  1.
</event>
<event>
 5   0  0.6043512E-07  0.4057532E+04  0.7818609E-02  0.7993040E-01
        2   -1    0    0  501    0  0.00000000000E+00  0.00000000000E+00  0.16181911891E+04  0.16181911891E+04  0.25500000920E-02 0. -1.
       -2   -1    0    0    0  501  0.00000000000E+00  0.00000000000E+00 -0.25435139257E+04  0.25435139257E+04  0.25500000920E-02 0.  1.
    10030    2    1    2    0    0  0.00000000000E+00  0.00000000000E+00 -0.92532273664E+03  0.41617051148E+04  0.40575321682E+04 0.  0.
        3    1    3    3  502    0  0.84748205559E+03 -0.17886917909E+04 -0.59799264876E+01  0.19793129937E+04  0.10100000352E+00 0. -1.
       -3    1    3    3    0  502 -0.84748205559E+03  0.17886917909E+04 -0.91934281015E+03  0.21823921211E+04  0.10100000352E+00 0.  1.
</event>
<event>
 5   0  0.7570277E-07  0.2361519E+04  0.7818609E-02  0.8454052E-01
        2   -1    0    0  501    0  0.00000000000E+00  0.00000000000E+00  0.12779409806E+04  0.12779409806E+04  0.25500000920E-02 0. -1.
       -2   -1    0    0    0  501  0.00000000000E+00  0.00000000000E+00 -0.10909685425E+04  0.10909685425E+04  0.25500000920E-02 0.  1.
    10030    2    1    2    0    0  0.00000000000E+00  0.00000000000E+00  0.18697243809E+03  0.23689095232E+04  0.23615193492E+04 0.  0.
        5    1    3    3  502    0  0.34171777149E+03 -0.77468757869E+03  0.91901933371E+03  0.12496121421E+04  0.46999998093E+01 0. -1.
       -5    1    3    3    0  502 -0.34171777149E+03  0.77468757869E+03 -0.73204689562E+03  0.11192973811E+04  0.46999998093E+01 0.  1.
</event>
<event>
 5   0  0.2647879E-07  0.2830811E+04  0.7818609E-02  0.8293766E-01
       -1   -1    0    0    0  501  0.00000000000E+00  0.00000000000E+00  0.23049464380E+04  0.23049464380E+04  0.50400001928E-02 0. -1.
        1   -1    0    0  501    0  0.00000000000E+00  0.00000000000E+00 -0.86916237162E+03  0.86916237164E+03  0.50400001928E-02 0.  1.
    10030    2    1    2    0    0  0.00000000000E+00  0.00000000000E+00  0.14357840663E+04  0.31741088096E+04  0.28308109880E+04 0.  0.
        2    1    3    3  502    0  0.10235108268E+04 -0.22518735811E+03 -0.34884302897E+03  0.11045248833E+04  0.25500000920E-02 0.  1.
       -2    1    3    3    0  502 -0.10235108268E+04  0.22518735811E+03  0.17846270953E+04  0.20695839263E+04  0.25500000920E-02 0. -1.
</event>
<event>
 5   0  0.2401125E-07  0.2286061E+04  0.7818609E-02  0.8483437E-01
        1   -1    0    0  501    0  0.00000000000E+00  0.00000000000E+00  0.11112282581E+04  0.11112282581E+04  0.50400001928E-02 0.  1.
       -1   -1    0    0    0  501  0.00000000000E+00  0.00000000000E+00 -0.11757430635E+04  0.11757430635E+04  0.50400001928E-02 0. -1.
    10030    2    1    2    0    0  0.00000000000E+00  0.00000000000E+00 -0.64514805388E+02  0.22869713217E+04  0.22860611685E+04 0.  0.
        5    1    3    3  502    0 -0.16492173559E+03  0.44535060658E+03  0.10078490271E+04  0.11141445566E+04  0.46999998093E+01 0.  1.
       -5    1    3    3    0  502  0.16492173559E+03 -0.44535060658E+03 -0.10723638325E+04  0.11728267651E+04  0.46999998093E+01 0. -1.
</event>
<event>
 5   0  0.3579559E-07  0.2901237E+04  0.7818609E-02  0.8272509E-01
        1   -1    0    0  501    0  0.00000000000E+00  0.00000000000E+00  0.15301589456E+04  0.15301589456E+04  0.50400001928E-02 0. -1.
       -1   -1    0    0    0  501  0.00000000000E+00  0.00000000000E+00 -0.13752129377E+04  0.13752129377E+04  0.50400001928E-02 0.  1.
    10030    2    1    2    0    0  0.00000000000E+00  0.00000000000E+00  0.15494600790E+03  0.29053718834E+04  0.29012372387E+04 0.  0.
        4    1    3    3  502    0  0.22353818807E+03  0.26202831451E+03  0.14886173290E+04  0.15279434951E+04  0.12699999809E+01 0. -1.
       -4    1    3    3    0  502 -0.22353818807E+03 -0.26202831451E+03 -0.13336713211E+04  0.13774283883E+04  0.12699999809E+01 0.  1.
</event>
<event>
 5   0  0.6043512E-07  0.2253912E+04  0.7818609E-02  0.8496318E-01
       -2   -1    0    0    0  501  0.00000000000E+00  0.00000000000E+00  0.78944025728E+03  0.78944025728E+03  0.25500000920E-02 0.  1.
        2   -1    0    0  501    0  0.00000000000E+00  0.00000000000E+00 -0.16087724456E+04  0.16087724457E+04  0.25500000920E-02 0. -1.
    10030    2    1    2    0    0  0.00000000000E+00  0.00000000000E+00 -0.81933218837E+03  0.23982127029E+04  0.22539119179E+04 0.  0.
        3    1    3    3  502    0 -0.21398612684E+03 -0.58702504327E+03 -0.14076040819E+04  0.15400447154E+04  0.10100000352E+00 0. -1.
       -3    1    3    3    0  502  0.21398612684E+03  0.58702504327E+03  0.58827189352E+03  0.85816798752E+03  0.10100000352E+00 0.  1.
</event>
<event>
 5   0  0.7256473E-07  0.1987646E+04  0.7818609E-02  0.8612418E-01
       -2   -1    0    0    0  501  0.00000000000E+00  0.00000000000E+00  0.16596234093E+04  0.16596234093E+04  0.25500000920E-02 0.  1.
        2   -1    0    0  501    0  0.00000000000E+00  0.00000000000E+00 -0.59512548115E+03  0.59512548116E+03  0.25500000920E-02 0. -1.
    10030    2    1    2    0    0  0.00000000000E+00  0.00000000000E+00  0.10644979282E+04  0.22547488905E+04  0.19876460248E+04 0.  0.
        4    1    3    3  502    0  0.31453841434E+03 -0.26060929050E+03 -0.49549751905E+03  0.64216121081E+03  0.12699999809E+01 0. -1.
       -4    1    3    3    0  502 -0.31453841434E+03  0.26060929050E+03  0.15599954472E+04  0.16125876797E+04  0.12699999809E+01 0.  1.
</event>
<event>
 5   0  0.4449262E-07  0.4054037E+04  0.7818609E-02  0.7993733E-01
       -2   -1    0    0    0  501  0.00000000000E+00  0.00000000000E+00  0.19043142018E+04  0.19043142018E+04  0.25500000920E-02 0.  1.
        2   -1    0    0  501    0  0.00000000000E+00  0.00000000000E+00 -0.21576292930E+04  0.21576292930E+04  0.25500000920E-02 0. -1.
    10030    2    1    2    0    0  0.00000000000E+00  0.00000000000E+00 -0.25331509121E+03  0.40619434948E+04  0.40540370521E+04 0.  0.
        1    1    3    3  502    0 -0.10910422303E+04  0.60152957587E+03 -0.17287108885E+04  0.21308806430E+04  0.50400001928E-02 0. -1.
       -1    1    3    3    0  502  0.10910422303E+04 -0.60152957587E+03  0.14753957972E+04  0.19310628518E+04  0.50400001928E-02 0.  1.
</event>
<event>
 5   0  0.4449262E-07  0.3991484E+04  0.7818609E-02  0.8006267E-01
        2   -1    0    0  501    0  0.00000000000E+00  0.00000000000E+00  0.12686962090E+04  0.12686962090E+04  0.25500000920E-02 0.  1.
       -2   -1    0    0    0  501  0.00000000000E+00  0.00000000000E+00 -0.31394332647E+04  0.31394332647E+04  0.25500000920E-02 0. -1.
    10030    2    1    2    0    0  0.00000000000E+00  0.00000000000E+00 -0.18707370557E+04  0.44081294736E+04  0.39914844763E+04 0.  0.
        1    1    3    3  502    0  0.11062839478E+04  0.57001640624E+03 -0.26584205964E+04  0.29352994641E+04  0.50400001928E-02 0. -1.
       -1    1    3    3    0  502 -0.11062839478E+04 -0.57001640624E+03  0.78768354075E+03  0.14728300095E+04  0.50400001928E-02 0.  1.
</event>
<event>
 5   0  0.7570277E-07  0.3993750E+04  0.7818609E-02  0.8005809E-01
        2   -1    0    0  501    0  0.00000000000E+00  0.00000000000E+00  0.21738860825E+04  0.21738860825E+04  0.25500000920E-02 0. -1.
       -2   -1    0    0    0  501  0.00000000000E+00  0.00000000000E+00 -0.18342770488E+04  0.18342770488E+04  0.25500000920E-02 0.  1.
    10030    2    1    2    0    0  0.00000000000E+00  0.00000000000E+00  0.33960903371E+03  0.40081631313E+04  0.39937497907E+04 0.  0.
        5    1    3    3  502    0 -0.85499036526E+03  0.17869492060E+04  0.42229001308E+03  0.20254744962E+04  0.46999998093E+01 0.  1.
       -5    1    3    3    0  502  0.85499036526E+03 -0.17869492060E+04 -0.82680979372E+02  0.19826886351E+04  0.46999998093E+01 0. -1.
</event>
<event>
 5   0  0.2601252E-07  0.3970694E+04  0.7818609E-02  0.8010485E-01
       -1   -1    0    0    0  501  0.00000000000E+00  0.00000000000E+00  0.14695938995E+04  0.14695938995E+04  0.50400001928E-02 0.  1.
        1   -1    0    0  501    0  0.00000000000E+00  0.00000000000E+00 -0.26821039243E+04  0.26821039243E+04  0.50400001928E-02 0. -1.
    10030    2    1    2    0    0  0.00000000000E+00  0.00000000000E+00 -0.12125100247E+04  0.41516978238E+04  0.39706944304E+04 0.  0.
        3    1    3    3  502    0  0.15643074672E+04  0.49741784079E+03  0.56139745056E+03  0.17348341327E+04  0.10100000352E+00 0.  1.
       -3    1    3    3    0  502 -0.15643074672E+04 -0.49741784079E+03 -0.17739074753E+04  0.24168636911E+04  0.10100000352E+00 0. -1.
</event>
<event>
 5   0  0.6043512E-07  0.2244258E+04  0.7818609E-02  0.8500230E-01
       -2   -1    0    0    0  501  0.00000000000E+00  0.00000000000E+00  0.89408522153E+03  0.89408522153E+03  0.25500000920E-02 0. -1.
        2   -1    0    0  501    0  0.00000000000E+00  0.00000000000E+00 -0.14083368849E+04  0.14083368849E+04  0.25500000920E-02 0.  1.
    10030    2    1    2    0    0  0.00000000000E+00  0.00000000000E+00 -0.51425166337E+03  0.23024221064E+04  0.22442577354E+04 0.  0.
        3    1    3    3  502    0 -0.25459746514E+03 -0.21383684764E+03 -0.13566423253E+04  0.13967907774E+04  0.10100000352E+00 0.  1.
       -3    1    3    3    0  502  0.25459746514E+03  0.21383684764E+03  0.84239066195E+03  0.90563132908E+03  0.10100000352E+00 0. -1.
</event>
<event>
 5   0  0.2647879E-07  0.2346444E+04  0.7818609E-02  0.8459831E-01
        1   -1    0    0  501    0  0.00000000000E+00  0.00000000000E+00  0.13784916045E+04  0.13784916045E+04  0.50400001928E-02 0.  1.
       -1   -1    0    0    0  501  0.00000000000E+00  0.00000000000E+00 -0.99851887591E+03  0.99851887592E+03  0.50400001928E-02 0. -1.
    10030    2    1    2    0    0  0.00000000000E+00  0.00000000000E+00  0.37997272858E+03  0.23770104804E+04  0.23464440222E+04 0.  0.
        2    1    3    3  502    0  0.75314347206E+03 -0.80333729478E+03 -0.22010054955E+03  0.11229515353E+04  0.25500000920E-02 0.  1.
       -2    1    3    3    0  502 -0.75314347206E+03  0.80333729478E+03  0.60007327813E+03  0.12540589451E+04  0.25500000920E-02 0. -1.
</event>
<event>
 5   0  0.5161550E-07  0.3886709E+04  0.7818609E-02  0.8027799E-01
        2   -1    0    0  501    0  0.00000000000E+00  0.00000000000E+00  0.26849267193E+04  0.26849267193E+04  0.25500000920E-02 0.  1.
       -2   -1    0    0    0  501  0.00000000000E+00  0.00000000000E+00 -0.14066033925E+04  0.14066033925E+04  0.25500000920E-02 0. -1.
    10030    2    1    2    0    0  0.00000000000E+00  0.00000000000E+00  0.12783233267E+04  0.40915301118E+04  0.38867091644E+04 0.  0.
        2    1    3    3  502    0  0.16464991927E+04 -0.10247145630E+04  0.77075943325E+03  0.20868803586E+04  0.25500000920E-02 0. -1.
       -2    1    3    3    0  502 -0.16464991927E+04  0.10247145630E+04  0.50756389349E+03  0.20046497532E+04  0.25500000920E-02 0.  1.
</event>
<event>
 5   0  0.3579559E-07  0.3026486E+04  0.7818609E-02  0.8236208E-01
        1   -1    0    0  501    0  0.00000000000E+00  0.00000000000E+00  0.10152556629E+04  0.10152556630E+04  0.50400001928E-02 0. -1.
       -1   -1    0    0    0  501  0.00000000000E+00  0.00000000000E+00 -0.22554956156E+04  0.22554956156E+04  0.50400001928E-02 0.  1.
    10030    2    1    2    0    0  0.00000000000E+00  0.00000000000E+00 -0.12402399527E+04  0.32707512786E+04  0.30264862111E+04 0.  0.
        4    1    3    3  502    0 -0.89569147457E+03 -0.67188621593E+03  0.47998075637E+03  0.12182271726E+04  0.12699999809E+01 0. -1.
       -4    1    3    3    0  502  0.89569147457E+03  0.67188621593E+03 -0.17202207091E+04  0.20525241060E+04  0.12699999809E+01 0.  1.
</event>
<event>
 5   0  0.4449262E-07  0.2531916E+04  0.7818609E-02  0.8391703E-01
       -2   -1    0    0    0  501  0.00000000000E+00  0.00000000000E+00  0.11731494758E+04  0.11731494758E+04  0.25500000920E-02 0.  1.
        2   -1    0    0  501    0  0.00000000000E+00  0.00000000000E+00 -0.13661087644E+04  0.13661087644E+04  0.25500000920E-02 0. -1.
    10030    2    1    2    0    0  0.00000000000E+00  0.00000000000E+00 -0.19295928862E+03  0.25392582402E+04  0.25319160973E+04 0.  0.
        1    1    3    3  502    0 -0.89505353465E+03 -0.57853958365E+02  0.79952134701E+03  0.12015416325E+04  0.50400001928E-02 0.  1.
       -1    1    3    3    0  502  0.89505353465E+03  0.57853958365E+02 -0.99248063563E+03  0.13377166077E+04  0.50400001928E-02 0. -1.
</event>
<event>
 5   0  0.6043512E-07  0.2119028E+04  0.7818609E-02  0.8552907E-01
       -2   -1    0    0    0  501  0.00000000000E+00  0.00000000000E+00  0.10145113478E+04  0.10145113478E+04  0.25500000920E-02 0.  1.
        2   -1    0    0  501    0  0.00000000000E+00  0.00000000000E+00 -0.11065127400E+04  0.11065127400E+04  0.25500000920E-02 0. -1.
    10030    2    1    2    0    0  0.00000000000E+00  0.00000000000E+00 -0.92001392165E+02  0.21210240877E+04  0.21190278254E+04 0.  0.
        3    1    3    3  502    0  0.51781165861E+03  0.39740078311E+03  0.78935932512E+03  0.10242775261E+04  0.10100000352E+00 0.  1.
       -3    1    3    3    0  502 -0.51781165861E+03 -0.39740078311E+03 -0.88136071729E+03  0.10967465616E+04  0.10100000352E+00 0. -1.
</event>
<event>
 5   0  0.3579559E-07  0.2146726E+04  0.7818609E-02  0.8540935E-01
        1   -1    0    0  501    0  0.00000000000E+00  0.00000000000E+00  0.16754078759E+04  0.16754078760E+04  0.50400001928E-02 0.  1.
       -1   -1    0    0    0  501  0.00000000000E+00  0.00000000000E+00 -0.68765821190E+03  0.68765821191E+03  0.50400001928E-02 0. -1.
    10030    2    1    2    0    0  0.00000000000E+00  0.00000000000E+00  0.98774966405E+03  0.23630660879E+04  0.21467258644E+04 0.  0.
        4    1    3    3  502    0  0.45814604224E+03 -0.93754249337E+03  0.21709424813E+03  0.10658401608E+04  0.12699999809E+01 0.  1.
       -4    1    3    3    0  502 -0.45814604224E+03  0.93754249337E+03  0.77065541593E+03  0.12972259271E+04  0.12699999809E+01 0. -1.
</event>
<event>
 5   0  0.2647879E-07  0.3947793E+04  0.7818609E-02  0.8015162E-01
        1   -1    0    0  501    0  0.00000000000E+00  0.00000000000E+00  0.29652578830E+04  0.29652578830E+04  0.50400001928E-02 0. -1.
       -1   -1    0    0    0  501  0.00000000000E+00  0.00000000000E+00 -0.13139724365E+04  0.13139724365E+04  0.50400001928E-02 0.  1.
    10030    2    1    2    0    0  0.00000000000E+00  0.00000000000E+00  0.16512854465E+04  0.42792303194E+04  0.39477928645E+04 0.  0.
        2    1    3    3  502    0 -0.14919696629E+04  0.78471427594E+03  0.19387528374E+04  0.25691462657E+04  0.25500000920E-02 0. -1.
       -2    1    3    3    0  502  0.14919696629E+04 -0.78471427594E+03 -0.28746739096E+03  0.17100840537E+04  0.25500000920E-02 0.  1.
</event>
<event>
 5   0  0.2401125E-07  0.3959603E+04  0.7818609E-02  0.8012746E-01
       -1   -1    0    0    0  501  0.00000000000E+00  0.00000000000E+00  0.18426397424E+04  0.18426397424E+04  0.50400001928E-02 0. -1.
        1   -1    0    0  501    0  0.00000000000E+00  0.00000000000E+00 -0.21271732132E+04  0.21271732132E+04  0.50400001928E-02 0.  1.
    10030    2    1    2    0    0  0.00000000000E+00  0.00000000000E+00 -0.28453347077E+03  0.39698129556E+04  0.39596029607E+04 0.  0.
        5    1    3    3  502    0  0.13707188679E+04  0.12902743575E+04 -0.75696568226E+03  0.20289645800E+04  0.46999998093E+01 0.  1.
       -5    1    3    3    0  502 -0.13707188679E+04 -0.12902743575E+04  0.47243221149E+03  0.19408483756E+04  0.46999998093E+01 0. -1.
</event>
<event>
 5   0  0.2601252E-07  0.3924872E+04  0.7818609E-02  0.8019876E-01
        1   -1    0    0  501    0  0.00000000000E+00  0.00000000000E+00  0.18285661100E+04  0.18285661101E+04  0.50400001928E-02 0.  1.
       -1   -1    0    0    0  501  0.00000000000E+00  0.00000000000E+00 -0.21061061078E+04  0.21061061078E+04  0.50400001928E-02 0. -1.
    10030    2    1    2    0    0  0.00000000000E+00  0.00000000000E+00 -0.27753999777E+03  0.39346722179E+04  0.39248715918E+04 0.  0.
        3    1    3    3  502    0 -0.16529329928E+04 -0.84709131696E+03  0.49637582673E+03  0.19225348240E+04  0.10100000352E+00 0.  1.
       -3    1    3    3    0  502  0.16529329928E+04  0.84709131696E+03 -0.77391582450E+03  0.20121373938E+04  0.10100000352E+00 0. -1.
</event>
<event>
 5   0  0.6043512E-07  0.3848733E+04  0.7818609E-02  0.8035777E-01
        2   -1    0    0  501    0  0.00000000000E+00  0.00000000000E+00  0.20911089793E+04  0.20911089793E+04  0.25500000920E-02 0.  1.
       -2   -1    0    0    0  501  0.00000000000E+00  0.00000000000E+00 -0.17709197775E+04  0.17709197775E+04  0.25500000920E-02 0. -1.
    10030    2    1    2    0    0  0.00000000000E+00  0.00000000000E+00  0.32018920180E+03  0.38620287569E+04  0.38487329076E+04 0.  0.
        3    1    3    3  502    0 -0.14216756144E+04  0.26297238241E+03 -0.11142809784E+04  0.18253597277E+04  0.10100000352E+00 0. -1.
       -3    1    3    3    0  502  0.14216756144E+04 -0.26297238241E+03  0.14344701802E+04  0.20366690292E+04  0.10100000352E+00 0.  1.
</event>
<event>
 5   0  0.6043512E-07  0.2249430E+04  0.7818609E-02  0.8498131E-01
       -2   -1    0    0    0  501  0.00000000000E+00  0.00000000000E+00  0.78784107618E+03  0.78784107618E+03  0.25500000920E-02 0.  1.
        2   -1    0    0  501    0  0.00000000000E+00  0.00000000000E+00 -0.16056331503E+04  0.16056331503E+04  0.25500000920E-02 0. -1.
    10030    2    1    2    0    0  0.00000000000E+00  0.00000000000E+00 -0.81779207415E+03  0.23934742265E+04  0.22494299270E+04 0.  0.
        3    1    3    3  502    0  0.10621768613E+04  0.14519527784E+03 -0.77079713819E+03  0.13203899393E+04  0.10100000352E+00 0. -1.
       -3    1    3    3    0  502 -0.10621768613E+04 -0.14519527784E+03 -0.46994935957E+02  0.10730842872E+04  0.10100000352E+00 0.  1.
</event>
<event>
 5   0  0.4449262E-07  0.3990439E+04  0.7818609E-02  0.8006478E-01
       -2   -1    0    0    0  501  0.00000000000E+00  0.00000000000E+00  0.19443052684E+04  0.19443052684E+04  0.25500000920E-02 0.  1.
        2   -1    0    0  501    0  0.00000000000E+00  0.00000000000E+00 -0.20474670964E+04  0.20474670964E+04  0.25500000920E-02 0. -1.
    10030    2    1    2    0    0  0.00000000000E+00  0.00000000000E+00 -0.10316182803E+03  0.39917723647E+04  0.39904391048E+04 0.  0.
        1    1    3    3  502    0  0.11653386898E+03 -0.19646575393E+04  0.27631156887E+03  0.19874122553E+04  0.50400001928E-02 0.  1.
       -1    1    3    3    0  502 -0.11653386898E+03  0.19646575393E+04 -0.37947339690E+03  0.20043601094E+04  0.50400001928E-02 0. -1.
</event>
<event>
 5   0  0.6043512E-07  0.2106374E+04  0.7818609E-02  0.8558441E-01
        2   -1    0    0  501    0  0.00000000000E+00  0.00000000000E+00  0.10407135384E+04  0.10407135384E+04  0.25500000920E-02 0.  1.
       -2   -1    0    0    0  501  0.00000000000E+00  0.00000000000E+00 -0.10658098921E+04  0.10658098921E+04  0.25500000920E-02 0. -1.
    10030    2    1    2    0    0  0.00000000000E+00  0.00000000000E+00 -0.25096353727E+02  0.21065234305E+04  0.21063739308E+04 0.  0.
        3    1    3    3  502    0  0.70659716467E+03 -0.64311768481E+03  0.43056663131E+03  0.10479826066E+04  0.10100000352E+00 0.  1.
       -3    1    3    3    0  502 -0.70659716467E+03  0.64311768481E+03 -0.45566298504E+03  0.10585408239E+04  0.10100000352E+00 0. -1.
</event>
<event>
 5   0  0.7570277E-07  0.3802200E+04  0.7818609E-02  0.8045683E-01
        2   -1    0    0  501    0  0.00000000000E+00  0.00000000000E+00  0.18588938501E+04  0.18588938501E+04  0.25500000920E-02 0. -1.
       -2   -1    0    0    0  501  0.00000000000E+00  0.00000000000E+00 -0.19442640050E+04  0.19442640050E+04  0.25500000920E-02 0.  1.
    10030    2    1    2    0    0  0.00000000000E+00  0.00000000000E+00 -0.85370154912E+02  0.38031578551E+04  0.38021995750E+04 0.  0.
        5    1    3    3  502    0 -0.29948540885E+03  0.11815594567E+04 -0.15019510004E+04  0.19343353270E+04  0.46999998093E+01 0.  1.
       -5    1    3    3    0  502  0.29948540885E+03 -0.11815594567E+04  0.14165808454E+04  0.18688225281E+04  0.46999998093E+01 0. -1.
</event>
<event>
 5   0  0.4449262E-07  0.3528024E+04  0.7818609E-02  0.8107181E-01
       -2   -1    0    0    0  501  0.00000000000E+00  0.00000000000E+00  0.26280421612E+04  0.26280421612E+04  0.25500000920E-02 0. -1.
        2   -1    0    0  501    0  0.00000000000E+00  0.00000000000E+00 -0.11840517233E+04  0.11840517233E+04  0.25500000920E-02 0.  1.
    10030    2    1    2    0    0  0.00000000000E+00  0.00000000000E+00  0.14439904379E+04  0.38120938846E+04  0.35280237244E+04 0.  0.
        1    1    3    3  502    0 -0.80037137322E+03 -0.99075265746E+03 -0.59674735057E+03  0.14065178860E+04  0.50400001928E-02 0.  1.
       -1    1    3    3    0  502  0.80037137322E+03  0.99075265746E+03  0.20407377885E+04  0.24055759985E+04  0.50400001928E-02 0. -1.
</event>
<event>
 5   0  0.6259814E-07  0.2123945E+04  0.7818609E-02  0.8550768E-01
       -2   -1    0    0    0  501  0.00000000000E+00  0.00000000000E+00  0.83583228112E+03  0.83583228112E+03  0.25500000920E-02 0. -1.
        2   -1    0    0  501    0  0.00000000000E+00  0.00000000000E+00 -0.13492968669E+04  0.13492968670E+04  0.25500000920E-02 0.  1.
    10030    2    1    2    0    0  0.00000000000E+00  0.00000000000E+00 -0.51346458583E+03  0.21851291481E+04  0.21239452707E+04 0.  0.
        2    1    3    3  502    0  0.57100128731E+03  0.89257386509E+03 -0.32988112618E+03  0.11097531852E+04  0.25500000920E-02 0. -1.
       -2    1    3    3    0  502 -0.57100128731E+03 -0.89257386509E+03 -0.18358345965E+03  0.10753759628E+04  0.25500000920E-02 0.  1.
</event>
<event>
 5   0  0.4449262E-07  0.2209288E+04  0.7818609E-02  0.8514572E-01
       -2   -1    0    0    0  501  0.00000000000E+00  0.00000000000E+00  0.71667641717E+03  0.71667641718E+03  0.25500000920E-02 0. -1.
        2   -1    0    0  501    0  0.00000000000E+00  0.00000000000E+00 -0.17026354143E+04  0.17026354143E+04  0.25500000920E-02 0.  1.
    10030    2    1    2    0    0  0.00000000000E+00  0.00000000000E+00 -0.98595899715E+03  0.24193118315E+04  0.22092882551E+04 0.  0.
        1    1    3    3  502    0 -0.98337474364E+03  0.49423213654E+03 -0.59656210976E+03  0.12518696586E+04  0.50400001928E-02 0. -1.
       -1    1    3    3    0  502  0.98337474364E+03 -0.49423213654E+03 -0.38939688739E+03  0.11674421729E+04  0.50400001928E-02 0.  1.
</event>
<event>
 5   0  0.6043512E-07  0.2199048E+04  0.7818609E-02  0.8518825E-01
       -2   -1    0    0    0  501  0.00000000000E+00  0.00000000000E+00  0.68823556652E+03  0.68823556652E+03  0.25500000920E-02 0.  1.
        2   -1    0    0  501    0  0.00000000000E+00  0.00000000000E+00 -0.17565971651E+04  0.17565971651E+04  0.25500000920E-02 0. -1.
    10030    2    1    2    0    0  0.00000000000E+00  0.00000000000E+00 -0.10683615986E+04  0.24448327316E+04  0.21990476530E+04 0.  0.
        3    1    3    3  502    0  0.17081869055E+03  0.19552683703E+03 -0.17220281212E+04  0.17414909214E+04  0.10100000352E+00 0. -1.
       -3    1    3    3    0  502 -0.17081869055E+03 -0.19552683703E+03  0.65366652259E+03  0.70334181022E+03  0.10100000352E+00 0.  1.
</event>
<event>
 5   0  0.5161550E-07  0.3756401E+04  0.7818609E-02  0.8055576E-01
        2   -1    0    0  501    0  0.00000000000E+00  0.00000000000E+00  0.13193121399E+04  0.13193121399E+04  0.25500000920E-02 0. -1.
       -2   -1    0    0    0  501  0.00000000000E+00  0.00000000000E+00 -0.26738451302E+04  0.26738451302E+04  0.25500000920E-02 0.  1.
    10030    2    1    2    0    0  0.00000000000E+00  0.00000000000E+00 -0.13545329903E+04  0.39931572702E+04  0.37564005860E+04 0.  0.
        2    1    3    3  502    0  0.43779791203E+03 -0.17057523536E+04  0.16865447573E+02  0.17611196856E+04  0.25500000920E-02 0.  1.
       -2    1    3    3    0  502 -0.43779791203E+03  0.17057523536E+04 -0.13713984379E+04  0.22320375846E+04  0.25500000920E-02 0. -1.
</event>
<event>
 5   0  0.2401125E-07  0.3036142E+04  0.7818609E-02  0.8233485E-01
        4   -1    0    0  501    0  0.00000000000E+00  0.00000000000E+00  0.18312547730E+04  0.18312552134E+04  0.12699999809E+01 0.  1.
       -4   -1    0    0    0  501  0.00000000000E+00  0.00000000000E+00 -0.12584471480E+04  0.12584477888E+04  0.12699999809E+01 0. -1.
    10030    2    1    2    0    0  0.00000000000E+00  0.00000000000E+00  0.57280762502E+03  0.30897030022E+04  0.30361416414E+04 0.  0.
        4    1    3    3  502    0 -0.90293196084E+03  0.89750100966E+03 -0.55507119495E+03  0.13888483836E+04  0.12699999809E+01 0. -1.
       -4    1    3    3    0  502  0.90293196084E+03 -0.89750100966E+03  0.11278788200E+04  0.17008546186E+04  0.12699999809E+01 0.  1.
</event>
<event>
 5   0  0.7570277E-07  0.3978950E+04  0.7818609E-02  0.8008807E-01
        2   -1    0    0  501    0  0.00000000000E+00  0.00000000000E+00  0.16549458966E+04  0.16549458966E+04  0.25500000920E-02 0. -1.
       -2   -1    0    0    0  501  0.00000000000E+00  0.00000000000E+00 -0.23916250775E+04  0.23916250776E+04  0.25500000920E-02 0.  1.
    10030    2    1    2    0    0  0.00000000000E+00  0.00000000000E+00 -0.73667918094E+03  0.40465709742E+04  0.39789496646E+04 0.  0.
        5    1    3    3  502    0 -0.10432225337E+04  0.16181398162E+04  0.14147644461E+03  0.19304733601E+04  0.46999998093E+01 0. -1.
       -5    1    3    3    0  502  0.10432225337E+04 -0.16181398162E+04 -0.87815562555E+03  0.21160976141E+04  0.46999998093E+01 0.  1.
</event>
<event>
 5   0  0.2401125E-07  0.3966906E+04  0.7818609E-02  0.8011256E-01
        1   -1    0    0  501    0  0.00000000000E+00  0.00000000000E+00  0.20805829234E+04  0.20805829234E+04  0.50400001928E-02 0. -1.
       -1   -1    0    0    0  501  0.00000000000E+00  0.00000000000E+00 -0.18908579010E+04  0.18908579010E+04  0.50400001928E-02 0.  1.
    10030    2    1    2    0    0  0.00000000000E+00  0.00000000000E+00  0.18972502237E+03  0.39714408244E+04  0.39669064317E+04 0.  0.
        5    1    3    3  502    0 -0.44242209528E+03 -0.11035600063E+04  0.16842800038E+04  0.20616506055E+04  0.46999998093E+01 0. -1.
       -5    1    3    3    0  502  0.44242209528E+03  0.11035600063E+04 -0.14945549814E+04  0.19097902189E+04  0.46999998093E+01 0.  1.
</event>
<event>
 5   0  0.7256473E-07  0.3953799E+04  0.7818609E-02  0.8013932E-01
        2   -1    0    0  501    0  0.00000000000E+00  0.00000000000E+00  0.30192241166E+04  0.30192241166E+04  0.25500000920E-02 0. -1.
       -2   -1    0    0    0  501  0.00000000000E+00  0.00000000000E+00 -0.12944161213E+04  0.12944161213E+04  0.25500000920E-02 0.  1.
    10030    2    1    2    0    0  0.00000000000E+00  0.00000000000E+00  0.17248079953E+04  0.43136402378E+04  0.39537993729E+04 0.  0.
        4    1    3    3  502    0  0.18655079294E+04  0.48548500671E+02  0.15742034270E+04  0.24414329468E+04  0.12699999809E+01 0. -1.
       -4    1    3    3    0  502 -0.18655079294E+04 -0.48548500671E+02  0.15060456836E+03  0.18722072910E+04  0.12699999809E+01 0.  1.
</event>
<event>
 5   0  0.2401125E-07  0.3846483E+04  0.7818609E-02  0.8036253E-01
        1   -1    0    0  501    0  0.00000000000E+00  0.00000000000E+00  0.12669880110E+04  0.12669880110E+04  0.50400001928E-02 0.  1.
       -1   -1    0    0    0  501  0.00000000000E+00  0.00000000000E+00 -0.29194105549E+04  0.29194105549E+04  0.50400001928E-02 0. -1.
    10030    2    1    2    0    0  0.00000000000E+00  0.00000000000E+00 -0.16524225439E+04  0.41863985659E+04  0.38464831585E+04 0.  0.
        5    1    3    3  502    0  0.66067645268E+03  0.59868770046E+02  0.11385184813E+04  0.13176965003E+04  0.46999998093E+01 0.  1.
       -5    1    3    3    0  502 -0.66067645268E+03 -0.59868770046E+02 -0.27909410252E+04  0.28687020656E+04  0.46999998093E+01 0. -1.
</event>
<event>
 5   0  0.2601252E-07  0.2687555E+04  0.7818609E-02  0.8339054E-01
       -1   -1    0    0    0  501  0.00000000000E+00  0.00000000000E+00  0.82861622379E+03  0.82861622381E+03  0.50400001928E-02 0.  1.
        1   -1    0    0  501    0  0.00000000000E+00  0.00000000000E+00 -0.21792218848E+04  0.21792218848E+04  0.50400001928E-02 0. -1.
    10030    2    1    2    0    0  0.00000000000E+00  0.00000000000E+00 -0.13506056610E+04  0.30078381087E+04  0.26875554759E+04 0.  0.
        3    1    3    3  502    0  0.96476462596E+03 -0.57430032654E+03  0.15102772716E+03  0.11328729113E+04  0.10100000352E+00 0.  1.
       -3    1    3    3    0  502 -0.96476462596E+03  0.57430032654E+03 -0.15016333882E+04  0.18749651974E+04  0.10100000352E+00 0. -1.
</event>
<event>
 5   0  0.6043512E-07  0.2168420E+04  0.7818609E-02  0.8531689E-01
        2   -1    0    0  501    0  0.00000000000E+00  0.00000000000E+00  0.19154352063E+04  0.19154352063E+04  0.25500000920E-02 0. -1.
       -2   -1    0    0    0  501  0.00000000000E+00  0.00000000000E+00 -0.61370457373E+03  0.61370457374E+03  0.25500000920E-02 0.  1.
    10030    2    1    2    0    0  0.00000000000E+00  0.00000000000E+00  0.13017306325E+04  0.25291397800E+04  0.21684200209E+04 0.  0.
        3    1    3    3  502    0  0.20362373090E+03  0.54630320672E+03  0.17170416411E+04  0.18133234198E+04  0.10100000352E+00 0. -1.
       -3    1    3    3    0  502 -0.20362373090E+03 -0.54630320672E+03 -0.41531100856E+03  0.71581636017E+03  0.10100000352E+00 0.  1.
</event>
<event>
 5   0  0.4449262E-07  0.3346034E+04  0.7818609E-02  0.8151280E-01
        2   -1    0    0  501    0  0.00000000000E+00  0.00000000000E+00  0.14409963110E+04  0.14409963110E+04  0.25500000920E-02 0. -1.
       -2   -1    0    0    0  501  0.00000000000E+00  0.00000000000E+00 -0.19423963162E+04  0.19423963162E+04  0.25500000920E-02 0.  1.
    10030    2    1    2    0    0  0.00000000000E+00  0.00000000000E+00 -0.50140000514E+03  0.33833926272E+04  0.33460340262E+04 0.  0.
        1    1    3    3  502    0  0.14758450202E+04  0.70986435134E+03 -0.59651254016E+03  0.17429438120E+04  0.50400001928E-02 0.  1.
       -1    1    3    3    0  502 -0.14758450202E+04 -0.70986435134E+03  0.95112535016E+02  0.16404488152E+04  0.50400001928E-02 0. -1.
</event>
<event>
 5   0  0.4449262E-07  0.2174227E+04  0.7818609E-02  0.8529232E-01
        2   -1    0    0  501    0  0.00000000000E+00  0.00000000000E+00  0.12377735714E+04  0.12377735714E+04  0.25500000920E-02 0. -1.
       -2   -1    0    0    0  501  0.00000000000E+00  0.00000000000E+00 -0.95479194519E+03  0.95479194519E+03  0.25500000920E-02 0.  1.
    10030    2    1    2    0    0  0.00000000000E+00  0.00000000000E+00  0.28298162625E+03  0.21925655166E+04  0.21742274361E+04 0.  0.
        1    1    3    3  502    0 -0.30649001849E+03  0.60572554694E+03 -0.71477422630E+03  0.98576963042E+03  0.50400001928E-02 0.  1.
       -1    1    3    3    0  502  0.30649001849E+03 -0.60572554694E+03  0.99775585256E+03  0.12067958862E+04  0.50400001928E-02 0. -1.
</event>
<event>
 5   0  0.5161550E-07  0.2125112E+04  0.7818609E-02  0.8550261E-01
        2   -1    0    0  501    0  0.00000000000E+00  0.00000000000E+00  0.81073755584E+03  0.81073755584E+03  0.25500000920E-02 0. -1.
       -2   -1    0    0    0  501  0.00000000000E+00  0.00000000000E+00 -0.13925905384E+04  0.13925905384E+04  0.25500000920E-02 0.  1.
    10030    2    1    2    0    0  0.00000000000E+00  0.00000000000E+00 -0.58185298257E+03  0.22033280943E+04  0.21251121847E+04 0.  0.
        2    1    3    3  502    0 -0.53907991582E+03  0.12868503384E+03  0.64900418676E+03  0.85344796444E+03  0.25500000920E-02 0. -1.
       -2    1    3    3    0  502  0.53907991582E+03 -0.12868503384E+03 -0.12308571693E+04  0.13498801298E+04  0.25500000920E-02 0.  1.
</event>
<event>
 5   0  0.3579559E-07  0.3671754E+04  0.7818609E-02  0.8074250E-01
        1   -1    0    0  501    0  0.00000000000E+00  0.00000000000E+00  0.28708404577E+04  0.28708404577E+04  0.50400001928E-02 0. -1.
       -1   -1    0    0    0  501  0.00000000000E+00  0.00000000000E+00 -0.11740271398E+04  0.11740271398E+04  0.50400001928E-02 0.  1.
    10030    2    1    2    0    0  0.00000000000E+00  0.00000000000E+00  0.16968133179E+04  0.40448675975E+04  0.36717541374E+04 0.  0.
        4    1    3    3  502    0 -0.70658233935E+02 -0.16191128035E+04 -0.10174962220E+03  0.16238452682E+04  0.12699999809E+01 0.  1.
       -4    1    3    3    0  502  0.70658233935E+02  0.16191128035E+04  0.17985629401E+04  0.24210223293E+04  0.12699999809E+01 0. -1.
</event>
<event>
 5   0  0.7256473E-07  0.3931180E+04  0.7818609E-02  0.8018575E-01
       -2   -1    0    0    0  501  0.00000000000E+00  0.00000000000E+00  0.22838275645E+04  0.22838275645E+04  0.25500000920E-02 0.  1.
        2   -1    0    0  501    0  0.00000000000E+00  0.00000000000E+00 -0.16916966876E+04  0.16916966876E+04  0.25500000920E-02 0. -1.
    10030    2    1    2    0    0  0.00000000000E+00  0.00000000000E+00  0.59213087693E+03  0.39755242520E+04  0.39311797343E+04 0.  0.
        4    1    3    3  502    0  0.15186297266E+04  0.10952298719E+04 -0.30882655178E+03  0.18976670337E+04  0.12699999809E+01 0. -1.
       -4    1    3    3    0  502 -0.15186297266E+04 -0.10952298719E+04  0.90095742871E+03  0.20778572184E+04  0.12699999809E+01 0.  1.
</event>
<event>
 5   0  0.2713405E-07  0.2643390E+04  0.7818609E-02  0.8353610E-01
        1   -1    0    0  501    0  0.00000000000E+00  0.00000000000E+00  0.11817001732E+04  0.11817001732E+04  0.50400001928E-02 0. -1.
       -1   -1    0    0    0  501  0.00000000000E+00  0.00000000000E+00 -0.14782749681E+04  0.14782749681E+04  0.50400001928E-02 0.  1.
    10030    2    1    2    0    0  0.00000000000E+00  0.00000000000E+00 -0.29657479487E+03  0.26599751413E+04  0.26433900853E+04 0.  0.
        1    1    3    3  502    0 -0.35696161826E+03 -0.77389536512E+03 -0.11648445374E+04  0.14433289401E+04  0.50400001928E-02 0.  1.
       -1    1    3    3    0  502  0.35696161826E+03  0.77389536512E+03  0.86826974249E+03  0.12166462012E+04  0.50400001928E-02 0. -1.
</event>
<event>
 5   0  0.4449262E-07  0.4000366E+04  0.7818609E-02  0.8004473E-01
       -2   -1    0    0    0  501  0.00000000000E+00  0.00000000000E+00  0.24212595075E+04  0.24212595075E+04  0.25500000920E-02 0.  1.
        2   -1    0    0  501    0  0.00000000000E+00  0.00000000000E+00 -0.16523347910E+04  0.16523347910E+04  0.25500000920E-02 0. -1.
    10030    2    1    2    0    0  0.00000000000E+00  0.00000000000E+00  0.76892471641E+03  0.40735942985E+04  0.40003656444E+04 0.  0.
        1    1    3    3  502    0  0.10106478165E+03  0.77841460280E+03  0.22578643881E+04  0.23904173232E+04  0.50400001928E-02 0.  1.
       -1    1    3    3    0  502 -0.10106478165E+03 -0.77841460280E+03 -0.14889396717E+04  0.16831769753E+04  0.50400001928E-02 0. -1.
</event>
<event>
 5   0  0.4449262E-07  0.3518487E+04  0.7818609E-02  0.8109423E-01
       -2   -1    0    0    0  501  0.00000000000E+00  0.00000000000E+00  0.18818614422E+04  0.18818614422E+04  0.25500000920E-02 0.  1.
        2   -1    0    0  501    0  0.00000000000E+00  0.00000000000E+00 -0.16446151916E+04  0.16446151916E+04  0.25500000920E-02 0. -1.
    10030    2    1    2    0    0  0.00000000000E+00  0.00000000000E+00  0.23724625057E+03  0.35264766338E+04  0.35184871273E+04 0.  0.
        1    1    3    3  502    0 -0.12189003826E+04 -0.55991646157E+03  0.12595019183E+04  0.18399917578E+04  0.50400001928E-02 0.  1.
       -1    1    3    3    0  502  0.12189003826E+04  0.55991646157E+03 -0.10222556677E+04  0.16864848760E+04  0.50400001928E-02 0. -1.
</event>
<event>
 5   0  0.2647879E-07  0.3191227E+04  0.7818609E-02  0.8191138E-01
       -1   -1    0    0    0  501  0.00000000000E+00  0.00000000000E+00  0.16796581591E+04  0.16796581591E+04  0.50400001928E-02 0.  1.
        1   -1    0    0  501    0  0.00000000000E+00  0.00000000000E+00 -0.15157742614E+04  0.15157742614E+04  0.50400001928E-02 0. -1.
    10030    2    1    2    0    0  0.00000000000E+00  0.00000000000E+00  0.16388389774E+03  0.31954324205E+04  0.31912271029E+04 0.  0.
        2    1    3    3  502    0 -0.14934388004E+04  0.55711319233E+03  0.15448081126E+03  0.16014365053E+04  0.25500000920E-02 0. -1.
       -2    1    3    3    0  502  0.14934388004E+04 -0.55711319233E+03  0.94030864839E+01  0.15939959152E+04  0.25500000920E-02 0.  1.
</event>
<event>
 5   0  0.3579559E-07  0.3975939E+04  0.7818609E-02  0.8009418E-01
        1   -1    0    0  501    0  0.00000000000E+00  0.00000000000E+00  0.19990635940E+04  0.19990635940E+04  0.50400001928E-02 0.  1.
       -1   -1    0    0    0  501  0.00000000000E+00  0.00000000000E+00 -0.19769370797E+04  0.19769370797E+04  0.50400001928E-02 0. -1.
    10030    2    1    2    0    0  0.00000000000E+00  0.00000000000E+00  0.22126514357E+02  0.39760006737E+04  0.39759391060E+04 0.  0.
        4    1    3    3  502    0  0.63979139075E+03  0.11476384710E+02  0.18932604610E+04  0.19984747977E+04  0.12699999809E+01 0.  1.
       -4    1    3    3    0  502 -0.63979139075E+03 -0.11476384710E+02 -0.18711339466E+04  0.19775258760E+04  0.12699999809E+01 0. -1.
</event>
<event>
 5   0  0.4449262E-07  0.2634171E+04  0.7818609E-02  0.8356686E-01
       -2   -1    0    0    0  501  0.00000000000E+00  0.00000000000E+00  0.89077058587E+03  0.89077058587E+03  0.25500000920E-02 0. -1.
        2   -1    0    0  501    0  0.00000000000E+00  0.00000000000E+00 -0.19474304850E+04  0.19474304851E+04  0.25500000920E-02 0.  1.
    10030    2    1    2    0    0  0.00000000000E+00  0.00000000000E+00 -0.10566598992E+04  0.28382010709E+04  0.26341706810E+04 0.  0.
        1    1    3    3  502    0 -0.19195577326E+03 -0.45609561292E+03 -0.18434626696E+04  0.19087233538E+04  0.50400001928E-02 0.  1.
       -1    1    3    3    0  502  0.19195577326E+03  0.45609561292E+03  0.78680277045E+03  0.92947771712E+03  0.50400001928E-02 0. -1.
</event>
<event>
 5   0  0.7570277E-07  0.2570720E+04  0.7818609E-02  0.8378216E-01
       -2   -1    0    0    0  501  0.00000000000E+00  0.00000000000E+00  0.10131121365E+04  0.10131121365E+04  0.25500000920E-02 0.  1.
        2   -1    0    0  501    0  0.00000000000E+00  0.00000000000E+00 -0.16307673425E+04  0.16307673425E+04  0.25500000920E-02 0. -1.
    10030    2    1    2    0    0  0.00000000000E+00  0.00000000000E+00 -0.61765520595E+03  0.26438794790E+04  0.25707198887E+04 0.  0.
        5    1    3    3  502    0  0.84094037365E+03 -0.29789357908E+03 -0.12604753698E+04  0.15442608408E+04  0.46999998093E+01 0. -1.
       -5    1    3    3    0  502 -0.84094037365E+03  0.29789357908E+03  0.64282016382E+03  0.10996186382E+04  0.46999998093E+01 0.  1.
</event>
<event>
 5   0  0.6043512E-07  0.4114153E+04  0.7818609E-02  0.7981906E-01
       -2   -1    0    0    0  501  0.00000000000E+00  0.00000000000E+00  0.22726273009E+04  0.22726273009E+04  0.25500000920E-02 0. -1.
        2   -1    0    0  501    0  0.00000000000E+00  0.00000000000E+00 -0.18619701005E+04  0.18619701005E+04  0.25500000920E-02 0.  1.
    10030    2    1    2    0    0  0.00000000000E+00  0.00000000000E+00  0.41065720040E+03  0.41345974014E+04  0.41141531736E+04 0.  0.
        3    1    3    3  502    0  0.44951719544E+03 -0.69917676688E+03  0.20963405907E+04  0.22551181217E+04  0.10100000352E+00 0. -1.
       -3    1    3    3    0  502 -0.44951719544E+03  0.69917676688E+03 -0.16856833903E+04  0.18794792797E+04  0.10100000352E+00 0.  1.
</event>
<event>
 5   0  0.7570277E-07  0.3686030E+04  0.7818609E-02  0.8071065E-01
       -2   -1    0    0    0  501  0.00000000000E+00  0.00000000000E+00  0.15821449398E+04  0.15821449398E+04  0.25500000920E-02 0.  1.
        2   -1    0    0  501    0  0.00000000000E+00  0.00000000000E+00 -0.21468982295E+04  0.21468982295E+04  0.25500000920E-02 0. -1.
    10030    2    1    2    0    0  0.00000000000E+00  0.00000000000E+00 -0.56475328975E+03  0.37290431693E+04  0.36860299348E+04 0.  0.
        5    1    3    3  502    0  0.77992464909E+03 -0.15932225086E+04  0.22350012846E+03  0.17879079444E+04  0.46999998093E+01 0. -1.
       -5    1    3    3    0  502 -0.77992464909E+03  0.15932225086E+04 -0.78825341821E+03  0.19411352249E+04  0.46999998093E+01 0.  1.
</event>
<event>
 5   0  0.2601252E-07  0.4035529E+04  0.7818609E-02  0.7997417E-01
        1   -1    0    0  501    0  0.00000000000E+00  0.00000000000E+00  0.18743794199E+04  0.18743794199E+04  0.50400001928E-02 0. -1.
       -1   -1    0    0    0  501  0.00000000000E+00  0.00000000000E+00 -0.21721182670E+04  0.21721182670E+04  0.50400001928E-02 0.  1.
    10030    2    1    2    0    0  0.00000000000E+00  0.00000000000E+00 -0.29773884709E+03  0.40464976869E+04  0.40355290990E+04 0.  0.
        3    1    3    3  502    0 -0.44450920988E+03 -0.81698798975E+03  0.16466163619E+04  0.18911380877E+04  0.10100000352E+00 0. -1.
       -3    1    3    3    0  502  0.44450920988E+03  0.81698798975E+03 -0.19443552090E+04  0.21553595992E+04  0.10100000352E+00 0.  1.
</event>
<event>
 5   0  0.2713405E-07  0.1973588E+04  0.7818609E-02  0.8619070E-01
       -1   -1    0    0    0  501  0.00000000000E+00  0.00000000000E+00  0.49204051566E+03  0.49204051568E+03  0.50400001928E-02 0. -1.
        1   -1    0    0  501    0  0.00000000000E+00  0.00000000000E+00 -0.19790278995E+04  0.19790278995E+04  0.50400001928E-02 0.  1.
    10030    2    1    2    0    0  0.00000000000E+00  0.00000000000E+00 -0.14869873839E+04  0.24710684152E+04  0.19735875032E+04 0.  0.
        1    1    3    3  502    0 -0.85042066762E+03 -0.32900982998E+03 -0.12158062605E+04  0.15197524941E+04  0.50400001928E-02 0.  1.
       -1    1    3    3    0  502  0.85042066762E+03  0.32900982998E+03 -0.27118112338E+03  0.95131592115E+03  0.50400001928E-02 0. -1.
</event>
<event>
 5   0  0.6043512E-07  0.4031220E+04  0.7818609E-02  0.7998278E-01
        2   -1    0    0  501    0  0.00000000000E+00  0.00000000000E+00  0.20463841902E+04  0.20463841902E+04  0.25500000920E-02 0. -1.
       -2   -1    0    0    0  501  0.00000000000E+00  0.00000000000E+00 -0.19852988640E+04  0.19852988640E+04  0.25500000920E-02 0.  1.
    10030    2    1    2    0    0  0.00000000000E+00  0.00000000000E+00  0.61085326172E+02  0.40316830542E+04  0.40312202659E+04 0.  0.
        3    1    3    3  502    0  0.14999940191E+04 -0.24172563140E+03 -0.12940982947E+04  0.19957714661E+04  0.10100000352E+00 0.  1.
       -3    1    3    3    0  502 -0.14999940191E+04  0.24172563140E+03  0.13551836208E+04  0.20359115881E+04  0.10100000352E+00 0. -1.
</event>
<event>
 5   0  0.7570277E-07  0.2576093E+04  0.7818609E-02  0.8376367E-01
       -2   -1    0    0    0  501  0.00000000000E+00  0.00000000000E+00  0.64099649207E+03  0.64099649208E+03  0.25500000920E-02 0.  1.
        2   -1    0    0  501    0  0.00000000000E+00  0.00000000000E+00 -0.25882572779E+04  0.25882572779E+04  0.25500000920E-02 0. -1.
    10030    2    1    2    0    0  0.00000000000E+00  0.00000000000E+00 -0.19472607858E+04  0.32292537700E+04  0.25760930385E+04 0.  0.
        5    1    3    3  502    0 -0.21043018078E+03  0.85523544001E+03  0.20452592009E+03  0.90419105328E+03  0.46999998093E+01 0.  1.
       -5    1    3    3    0  502  0.21043018078E+03 -0.85523544001E+03 -0.21517867059E+04  0.23250627167E+04  0.46999998093E+01 0. -1.
</event>
<event>
 5   0  0.2713405E-07  0.2011122E+04  0.7818609E-02  0.8601438E-01
        1   -1    0    0  501    0  0.00000000000E+00  0.00000000000E+00  0.99710333499E+03  0.99710333501E+03  0.50400001928E-02 0.  1.
       -1   -1    0    0    0  501  0.00000000000E+00  0.00000000000E+00 -0.10140904585E+04  0.10140904585E+04  0.50400001928E-02 0. -1.
    10030    2    1    2    0    0  0.00000000000E+00  0.00000000000E+00 -0.16987123519E+02  0.20111937935E+04  0.20111220532E+04 0.  0.
        1    1    3    3  502    0  0.98725826295E+03  0.10597535318E+03 -0.16738071007E+03  0.10069389035E+04  0.50400001928E-02 0. -1.
       -1    1    3    3    0  502 -0.98725826295E+03 -0.10597535318E+03  0.15039358655E+03  0.10042548900E+04  0.50400001928E-02 0.  1.
</event>
<event>
 5   0  0.4449262E-07  0.3720065E+04  0.7818609E-02  0.8063530E-01
        2   -1    0    0  501    0  0.00000000000E+00  0.00000000000E+00  0.25275078078E+04  0.25275078078E+04  0.25500000920E-02 0.  1.
       -2   -1    0    0    0  501  0.00000000000E+00  0.00000000000E+00 -0.13688267280E+04  0.13688267280E+04  0.25500000920E-02 0. -1.
    10030    2    1    2    0    0  0.00000000000E+00  0.00000000000E+00  0.11586810799E+04  0.38963345358E+04  0.37200646459E+04 0.  0.
        1    1    3    3  502    0  0.99672381607E+01 -0.50259506179E+03  0.24550109373E+04  0.25059488910E+04  0.50400001928E-02 0.  1.
       -1    1    3    3    0  502 -0.99672381607E+01  0.50259506179E+03 -0.12963298574E+04  0.13903856448E+04  0.50400001928E-02 0. -1.
</event>
<event>
 5   0  0.6043512E-07  0.3927557E+04  0.7818609E-02  0.8019322E-01
       -2   -1    0    0    0  501  0.00000000000E+00  0.00000000000E+00  0.25916996556E+04  0.25916996556E+04  0.25500000920E-02 0.  1.
        2   -1    0    0  501    0  0.00000000000E+00  0.00000000000E+00 -0.14879908760E+04  0.14879908760E+04  0.25500000920E-02 0. -1.
    10030    2    1    2    0    0  0.00000000000E+00  0.00000000000E+00  0.11037087796E+04  0.40796905316E+04  0.39275567168E+04 0.  0.
        3    1    3    3  502    0 -0.93035589911E+03  0.12772357811E+04  0.17630087220E+04  0.23675077832E+04  0.10100000352E+00 0.  1.
       -3    1    3    3    0  502  0.93035589911E+03 -0.12772357811E+04 -0.65929994240E+03  0.17121827484E+04  0.10100000352E+00 0. -1.
</event>
<event>
 5   0  0.4449262E-07  0.4022624E+04  0.7818609E-02  0.7999998E-01
       -2   -1    0    0    0  501  0.00000000000E+00  0.00000000000E+00  0.26670709234E+04  0.26670709234E+04  0.25500000920E-02 0. -1.
        2   -1    0    0  501    0  0.00000000000E+00  0.00000000000E+00 -0.15167863640E+04  0.15167863640E+04  0.25500000920E-02 0.  1.
    10030    2    1    2    0    0  0.00000000000E+00  0.00000000000E+00  0.11502845593E+04  0.41838572874E+04  0.40226244212E+04 0.  0.
        1    1    3    3  502    0  0.82687075366E+03 -0.50524714002E+03 -0.12579956725E+04  0.15879367203E+04  0.50400001928E-02 0.  1.
       -1    1    3    3    0  502 -0.82687075366E+03  0.50524714002E+03  0.24082802318E+04  0.25959205671E+04  0.50400001928E-02 0. -1.
</event>
<event>
 5   0  0.2647879E-07  0.3872531E+04  0.7818609E-02  0.8030767E-01
       -1   -1    0    0    0  501  0.00000000000E+00  0.00000000000E+00  0.15511513090E+04  0.15511513090E+04  0.50400001928E-02 0.  1.
        1   -1    0    0  501    0  0.00000000000E+00  0.00000000000E+00 -0.24169945020E+04  0.24169945020E+04  0.50400001928E-02 0. -1.
    10030    2    1    2    0    0  0.00000000000E+00  0.00000000000E+00 -0.86584319299E+03  0.39681458111E+04  0.38725310513E+04 0.  0.
        2    1    3    3  502    0  0.17435946071E+04  0.46781231804E+03  0.28447422254E+03  0.18275382629E+04  0.25500000920E-02 0.  1.
       -2    1    3    3    0  502 -0.17435946071E+04 -0.46781231804E+03 -0.11503174155E+04  0.21406075482E+04  0.25500000920E-02 0. -1.
</event>
<event>
 5   0  0.2601252E-07  0.3975480E+04  0.7818609E-02  0.8009511E-01
        1   -1    0    0  501    0  0.00000000000E+00  0.00000000000E+00  0.22624346655E+04  0.22624346655E+04  0.50400001928E-02 0. -1.
       -1   -1    0    0    0  501  0.00000000000E+00  0.00000000000E+00 -0.17463977232E+04  0.17463977232E+04  0.50400001928E-02 0.  1.
    10030    2    1    2    0    0  0.00000000000E+00  0.00000000000E+00  0.51603694232E+03  0.40088323886E+04  0.39754802219E+04 0.  0.
        3    1    3    3  502    0 -0.58158538172E+03 -0.18566879509E+04 -0.15230936027E+03  0.19515967449E+04  0.10100000352E+00 0.  1.
       -3    1    3    3    0  502  0.58158538172E+03  0.18566879509E+04  0.66834630258E+03  0.20572356437E+04  0.10100000352E+00 0. -1.
</event>
<event>
 5   0  0.2713405E-07  0.4173343E+04  0.7818609E-02  0.7970462E-01
        1   -1    0    0  501    0  0.00000000000E+00  0.00000000000E+00  0.20890020878E+04  0.20890020878E+04  0.50400001928E-02 0.  1.
       -1   -1    0    0    0  501  0.00000000000E+00  0.00000000000E+00 -0.20843436127E+04  0.20843436127E+04  0.50400001928E-02 0. -1.
    10030    2    1    2    0    0  0.00000000000E+00  0.00000000000E+00  0.46584750764E+01  0.41733457005E+04  0.41733431005E+04 0.  0.
        1    1    3    3  502    0 -0.10258005521E+04  0.16735772242E+04 -0.70553465104E+03  0.20858827009E+04  0.50400001928E-02 0. -1.
       -1    1    3    3    0  502  0.10258005521E+04 -0.16735772242E+04  0.71019312612E+03  0.20874629996E+04  0.50400001928E-02 0.  1.
</event>
<event>
 5   0  0.5161550E-07  0.4081722E+04  0.7818609E-02  0.7988260E-01
        2   -1    0    0  501    0  0.00000000000E+00  0.00000000000E+00  0.20920847363E+04  0.20920847363E+04  0.25500000920E-02 0.  1.
       -2   -1    0    0    0  501  0.00000000000E+00  0.00000000000E+00 -0.19908919381E+04  0.19908919381E+04  0.25500000920E-02 0. -1.
    10030    2    1    2    0    0  0.00000000000E+00  0.00000000000E+00  0.10119279821E+03  0.40829766743E+04  0.40817224968E+04 0.  0.
        2    1    3    3  502    0 -0.10799613323E+03  0.14993409570E+04  0.14313930149E+04  0.20757101034E+04  0.25500000920E-02 0.  1.
       -2    1    3    3    0  502  0.10799613323E+03 -0.14993409570E+04 -0.13302002167E+04  0.20072665709E+04  0.25500000920E-02 0. -1.
</event>
<event>
 5   0  0.2713405E-07  0.3393451E+04  0.7818609E-02  0.8139516E-01
       -1   -1    0    0    0  501  0.00000000000E+00  0.00000000000E+00  0.12236336860E+04  0.12236336861E+04  0.50400001928E-02 0. -1.
        1   -1    0    0  501    0  0.00000000000E+00  0.00000000000E+00 -0.23527275256E+04  0.23527275256E+04  0.50400001928E-02 0.  1.
    10030    2    1    2    0    0  0.00000000000E+00  0.00000000000E+00 -0.11290938395E+04  0.35763612116E+04  0.33934505474E+04 0.  0.
        1    1    3    3  502    0 -0.10116991892E+04 -0.78832036852E+03 -0.17352277213E+04  0.21577765171E+04  0.50400001928E-02 0. -1.
       -1    1    3    3    0  502  0.10116991892E+04  0.78832036852E+03  0.60613388180E+03  0.14185846945E+04  0.50400001928E-02 0.  1.
</event>
<event>
 5   0  0.6043512E-07  0.3878398E+04  0.7818609E-02  0.8029537E-01
        2   -1    0    0  501    0  0.00000000000E+00  0.00000000000E+00  0.19733313006E+04  0.19733313007E+04  0.25500000920E-02 0.  1.
       -2   -1    0    0    0  501  0.00000000000E+00  0.00000000000E+00 -0.19056575636E+04  0.19056575636E+04  0.25500000920E-02 0. -1.
    10030    2    1    2    0    0  0.00000000000E+00  0.00000000000E+00  0.67673737068E+02  0.38789888642E+04  0.38783984935E+04 0.  0.
        3    1    3    3  502    0 -0.61397444273E+03  0.25275056880E+01  0.18735522985E+04  0.19715905331E+04  0.10100000352E+00 0.  1.
       -3    1    3    3    0  502  0.61397444273E+03 -0.25275056880E+01 -0.18058785615E+04  0.19073983311E+04  0.10100000352E+00 0. -1.
</event>
<event>
 5   0  0.2647879E-07  0.4043901E+04  0.7818609E-02  0.7995748E-01
       -1   -1    0    0    0  501  0.00000000000E+00  0.00000000000E+00  0.15020152978E+04  0.15020152978E+04  0.50400001928E-02 0. -1.
        1   -1    0    0  501    0  0.00000000000E+00  0.00000000000E+00 -0.27218657902E+04  0.27218657902E+04  0.50400001928E-02 0.  1.
    10030    2    1    2    0    0  0.00000000000E+00  0.00000000000E+00 -0.12198504924E+04  0.42238810881E+04  0.40439011143E+04 0.  0.
        2    1    3    3  502    0  0.18328276255E+04  0.50964441579E+03 -0.13254614030E+04  0.23185863077E+04  0.25500000920E-02 0. -1.
       -2    1    3    3    0  502 -0.18328276255E+04 -0.50964441579E+03  0.10561091063E+03  0.19052947803E+04  0.25500000920E-02 0.  1.
</event>
<event>
 5   0  0.4449262E-07  0.2845691E+04  0.7818609E-02  0.8289222E-01
       -2   -1    0    0    0  501  0.00000000000E+00  0.00000000000E+00  0.12087698715E+04  0.12087698715E+04  0.25500000920E-02 0. -1.
        2   -1    0    0  501    0  0.00000000000E+00  0.00000000000E+00 -0.16748344909E+04  0.16748344909E+04  0.25500000920E-02 0.  1.
    10030    2    1    2    0    0  0.00000000000E+00  0.00000000000E+00 -0.46606461942E+03  0.28836043624E+04  0.28456911093E+04 0.  0.
        1    1    3    3  502    0 -0.24484231201E+03 -0.13290103437E+03  0.11808634775E+04  0.12132802624E+04  0.50400001928E-02 0. -1.
       -1    1    3    3    0  502  0.24484231201E+03  0.13290103437E+03 -0.16469280969E+04  0.16703241000E+04  0.50400001928E-02 0.  1.
</event>
<event>
 5   0  0.4449262E-07  0.2580592E+04  0.7818609E-02  0.8374824E-01
        2   -1    0    0  501    0  0.00000000000E+00  0.00000000000E+00  0.15639600888E+04  0.15639600888E+04  0.25500000920E-02 0. -1.
       -2   -1    0    0    0  501  0.00000000000E+00  0.00000000000E+00 -0.10645177308E+04  0.10645177308E+04  0.25500000920E-02 0.  1.
    10030    2    1    2    0    0  0.00000000000E+00  0.00000000000E+00  0.49944235802E+03  0.26284778197E+04  0.25805915949E+04 0.  0.
        1    1    3    3  502    0  0.24386108088E+03 -0.75446576988E+03  0.12865376568E+04  0.15112464945E+04  0.50400001928E-02 0. -1.
       -1    1    3    3    0  502 -0.24386108088E+03  0.75446576988E+03 -0.78709529876E+03  0.11172313252E+04  0.50400001928E-02 0.  1.
</event>
<event>
 5   0  0.7570277E-07  0.3764853E+04  0.7818609E-02  0.8053740E-01
        2   -1    0    0  501    0  0.00000000000E+00  0.00000000000E+00  0.18076381871E+04  0.18076381871E+04  0.25500000920E-02 0. -1.
       -2   -1    0    0    0  501  0.00000000000E+00  0.00000000000E+00 -0.19603088897E+04  0.19603088897E+04  0.25500000920E-02 0.  1.
    10030    2    1    2    0    0  0.00000000000E+00  0.00000000000E+00 -0.15267070258E+03  0.37679470767E+04  0.37648528297E+04 0.  0.
        5    1    3    3  502    0  0.41721091143E+03 -0.44736902519E+02 -0.19129023398E+04  0.19583880582E+04  0.46999998093E+01 0.  1.
       -5    1    3    3    0  502 -0.41721091143E+03  0.44736902519E+02  0.17602316372E+04  0.18095590185E+04  0.46999998093E+01 0. -1.
</event>
<event>
 5   0  0.2401125E-07  0.3922053E+04  0.7818609E-02  0.8020458E-01
        1   -1    0    0  501    0  0.00000000000E+00  0.00000000000E+00  0.28485148770E+04  0.28485148771E+04  0.50400001928E-02 0.  1.
       -1   -1    0    0    0  501  0.00000000000E+00  0.00000000000E+00 -0.13500459185E+04  0.13500459185E+04  0.50400001928E-02 0. -1.
    10030    2    1    2    0    0  0.00000000000E+00  0.00000000000E+00  0.14984689585E+04  0.41985607956E+04  0.39220534844E+04 0.  0.
        5    1    3    3  502    0 -0.12656810162E+04  0.95040443256E+03  0.19886073951E+04  0.25416133621E+04  0.46999998093E+01 0.  1.
       -5    1    3    3    0  502  0.12656810162E+04 -0.95040443256E+03 -0.49013843662E+03  0.16569474335E+04  0.46999998093E+01 0. -1.
</event>
<event>
 5   0  0.2601252E-07  0.3073728E+04  0.7818609E-02  0.8222985E-01
       -1   -1    0    0    0  501  0.00000000000E+00  0.00000000000E+00  0.85115092957E+03  0.85115092958E+03  0.50400001928E-02 0. -1.
        1   -1    0    0  501    0  0.00000000000E+00  0.00000000000E+00 -0.27750076638E+04  0.27750076638E+04  0.50400001928E-02 0.  1.
    10030    2    1    2    0    0  0.00000000000E+00  0.00000000000E+00 -0.19238567343E+04  0.36261585934E+04  0.30737276084E+04 0.  0.
        3    1    3    3  502    0 -0.76245778616E+03  0.86848120594E+03  0.23323952921E+03  0.11789835321E+04  0.10100000352E+00 0. -1.
       -3    1    3    3    0  502  0.76245778616E+03 -0.86848120594E+03 -0.21570962635E+04  0.24471750613E+04  0.10100000352E+00 0.  1.
</event>
<event>
 5   0  0.6043512E-07  0.3548904E+04  0.7818609E-02  0.8102297E-01
       -2   -1    0    0    0  501  0.00000000000E+00  0.00000000000E+00  0.14288643236E+04  0.14288643236E+04  0.25500000920E-02 0.  1.
        2   -1    0    0  501    0  0.00000000000E+00  0.00000000000E+00 -0.22036246708E+04  0.22036246708E+04  0.25500000920E-02 0. -1.
    10030    2    1    2    0    0  0.00000000000E+00  0.00000000000E+00 -0.77476034720E+03  0.36324889943E+04  0.35489044364E+04 0.  0.
        3    1    3    3  502    0 -0.69158694565E+02  0.91325719304E+03 -0.19429973899E+04  0.21480364273E+04  0.10100000352E+00 0. -1.
       -3    1    3    3    0  502  0.69158694565E+02 -0.91325719304E+03  0.11682370427E+04  0.14844525670E+04  0.10100000352E+00 0.  1.
</event>
<event>
 5   0  0.4449262E-07  0.3994366E+04  0.7818609E-02  0.8005684E-01
       -2   -1    0    0    0  501  0.00000000000E+00  0.00000000000E+00  0.16118076690E+04  0.16118076690E+04  0.25500000920E-02 0.  1.
        2   -1    0    0  501    0  0.00000000000E+00  0.00000000000E+00 -0.24746997022E+04  0.24746997022E+04  0.25500000920E-02 0. -1.
    10030    2    1    2    0    0  0.00000000000E+00  0.00000000000E+00 -0.86289203315E+03  0.40865073712E+04  0.39943660115E+04 0.  0.
        1    1    3    3  502    0  0.19511493281E+03 -0.42255266650E+02 -0.24644660161E+04  0.24725387942E+04  0.50400001928E-02 0. -1.
       -1    1    3    3    0  502 -0.19511493281E+03  0.42255266650E+02  0.16015739829E+04  0.16139685769E+04  0.50400001928E-02 0.  1.
</event>
<event>
 5   0  0.2401125E-07  0.2639250E+04  0.7818609E-02  0.8354990E-01
       -1   -1    0    0    0  501  0.00000000000E+00  0.00000000000E+00  0.15480874271E+04  0.15480874271E+04  0.50400001928E-02 0.  1.
        1   -1    0    0  501    0  0.00000000000E+00  0.00000000000E+00 -0.11248780639E+04  0.11248780639E+04  0.50400001928E-02 0. -1.
    10030    2    1    2    0    0  0.00000000000E+00  0.00000000000E+00  0.42320936316E+03  0.26729654911E+04  0.26392495811E+04 0.  0.
        5    1    3    3  502    0  0.79504907175E+03  0.42162103800E+03 -0.76587788951E+03  0.11817183919E+04  0.46999998093E+01 0. -1.
       -5    1    3    3    0  502 -0.79504907175E+03 -0.42162103800E+03  0.11890872527E+04  0.14912470991E+04  0.46999998093E+01 0.  1.
</event>
<event>
 5   0  0.7570277E-07  0.2175207E+04  0.7818609E-02  0.8528819E-01
       -2   -1    0    0    0  501  0.00000000000E+00  0.00000000000E+00  0.58248302111E+03  0.58248302112E+03  0.25500000920E-02 0. -1.
        2   -1    0    0  501    0  0.00000000000E+00  0.00000000000E+00 -0.20307562379E+04  0.20307562379E+04  0.25500000920E-02 0.  1.
    10030    2    1    2    0    0  0.00000000000E+00  0.00000000000E+00 -0.14482732168E+04  0.26132392590E+04  0.21752066832E+04 0.  0.
        5    1    3    3  502    0  0.23240392180E+03  0.95957434212E+03 -0.12721328421E+04  0.16103225015E+04  0.46999998093E+01 0.  1.
       -5    1    3    3    0  502 -0.23240392180E+03 -0.95957434212E+03 -0.17614037470E+03  0.10029167575E+04  0.46999998093E+01 0. -1.
</event>
<event>
 5   0  0.5161550E-07  0.3028039E+04  0.7818609E-02  0.8235769E-01
        2   -1    0    0  501    0  0.00000000000E+00  0.00000000000E+00  0.25044507878E+04  0.25044507878E+04  0.25500000920E-02 0.  1.
       -2   -1    0    0    0  501  0.00000000000E+00  0.00000000000E+00 -0.91527228978E+03  0.91527228979E+03  0.25500000920E-02 0. -1.
    10030    2    1    2    0    0  0.00000000000E+00  0.00000000000E+00  0.15891784980E+04  0.34197230776E+04  0.30280385778E+04 0.  0.
        2    1    3    3  502    0  0.95195292197E+03 -0.87240402507E+03  0.16873860158E+04  0.21247528597E+04  0.25500000920E-02 0.  1.
       -2    1    3    3    0  502 -0.95195292197E+03  0.87240402507E+03 -0.98207517766E+02  0.12949702179E+04  0.25500000920E-02 0. -1.
</event>
<event>
 5   0  0.4449262E-07  0.4013733E+04  0.7818609E-02  0.8001782E-01
       -2   -1    0    0    0  501  0.00000000000E+00  0.00000000000E+00  0.22554200219E+04  0.22554200219E+04  0.25500000920E-02 0.  1.
        2   -1    0    0  501    0  0.00000000000E+00  0.00000000000E+00 -0.17857044208E+04  0.17857044208E+04  0.25500000920E-02 0. -1.
    10030    2    1    2    0    0  0.00000000000E+00  0.00000000000E+00  0.46971560110E+03  0.40411244427E+04  0.40137331769E+04 0.  0.
        1    1    3    3  502    0 -0.21383375263E+03  0.11302340209E+04  0.18905742095E+04  0.22130125750E+04  0.50400001928E-02 0.  1.
       -1    1    3    3    0  502  0.21383375263E+03 -0.11302340209E+04 -0.14208586083E+04  0.18281118677E+04  0.50400001928E-02 0. -1.
</event>
<event>
 5   0  0.6043512E-07  0.2849803E+04  0.7818609E-02  0.8287971E-01
       -2   -1    0    0    0  501  0.00000000000E+00  0.00000000000E+00  0.70455174861E+03  0.70455174862E+03  0.25500000920E-02 0. -1.
        2   -1    0    0  501    0  0.00000000000E+00  0.00000000000E+00 -0.28817542316E+04  0.28817542316E+04  0.25500000920E-02 0.  1.
    10030    2    1    2    0    0  0.00000000000E+00  0.00000000000E+00 -0.21772024830E+04  0.35863059802E+04  0.28498034900E+04 0.  0.
        3    1    3    3  502    0 -0.15886058700E+02  0.10467371657E+04  0.12788365712E+03  0.10546398916E+04  0.10100000352E+00 0. -1.
       -3    1    3    3    0  502  0.15886058700E+02 -0.10467371657E+04 -0.23050861401E+04  0.25316660887E+04  0.10100000352E+00 0.  1.
</event>
<event>
 5   0  0.6043512E-07  0.3853073E+04  0.7818609E-02  0.8034860E-01
       -2   -1    0    0    0  501  0.00000000000E+00  0.00000000000E+00  0.33580240556E+04  0.33580240556E+04  0.25500000920E-02 0.  1.
        2   -1    0    0  501    0  0.00000000000E+00  0.00000000000E+00 -0.11052759952E+04  0.11052759952E+04  0.25500000920E-02 0. -1.
    10030    2    1    2    0    0  0.00000000000E+00  0.00000000000E+00  0.22527480604E+04  0.44633000508E+04  0.38530732565E+04 0.  0.
        3    1    3    3  502    0 -0.12799290690E+04  0.99649716557E+03 -0.77620998077E+02  0.16239612225E+04  0.10100000352E+00 0. -1.
       -3    1    3    3    0  502  0.12799290690E+04 -0.99649716557E+03  0.23303690585E+04  0.28393388282E+04  0.10100000352E+00 0.  1.
</event>
<event>
 5   0  0.6043512E-07  0.3977490E+04  0.7818609E-02  0.8009103E-01
        2   -1    0    0  501    0  0.00000000000E+00  0.00000000000E+00  0.18519522779E+04  0.18519522779E+04  0.25500000920E-02 0.  1.
       -2   -1    0    0    0  501  0.00000000000E+00  0.00000000000E+00 -0.21356418025E+04  0.21356418025E+04  0.25500000920E-02 0. -1.
    10030    2    1    2    0    0  0.00000000000E+00  0.00000000000E+00 -0.28368952461E+03  0.39875940805E+04  0.39774900131E+04 0.  0.
        3    1    3    3  502    0  0.15267855303E+04  0.11983150197E+04  0.29293161092E+03  0.19628657317E+04  0.10100000352E+00 0. -1.
       -3    1    3    3    0  502 -0.15267855303E+04 -0.11983150197E+04 -0.57662113553E+03  0.20247283487E+04  0.10100000352E+00 0.  1.
</event>
<event>
 5   0  0.2601252E-07  0.2439670E+04  0.7818609E-02  0.8424799E-01
        1   -1    0    0  501    0  0.00000000000E+00  0.00000000000E+00  0.98513672397E+03  0.98513672398E+03  0.50400001928E-02 0. -1.
       -1   -1    0    0    0  501  0.00000000000E+00  0.00000000000E+00 -0.15104480541E+04  0.15104480541E+04  0.50400001928E-02 0.  1.
    10030    2    1    2    0    0  0.00000000000E+00  0.00000000000E+00 -0.52531133017E+03  0.24955847781E+04  0.24396703448E+04 0.  0.
        3    1    3    3  502    0 -0.74129254974E+03  0.31095385833E+03 -0.12011751462E+04  0.14453472553E+04  0.10100000352E+00 0.  1.
       -3    1    3    3    0  502  0.74129254974E+03 -0.31095385833E+03  0.67586381605E+03  0.10502375228E+04  0.10100000352E+00 0. -1.
</event>
<event>
 5   0  0.7256473E-07  0.2146789E+04  0.7818609E-02  0.8540908E-01
        2   -1    0    0  501    0  0.00000000000E+00  0.00000000000E+00  0.25827010508E+04  0.25827010508E+04  0.25500000920E-02 0. -1.
       -2   -1    0    0    0  501  0.00000000000E+00  0.00000000000E+00 -0.44611270523E+03  0.44611270523E+03  0.25500000920E-02 0.  1.
    10030    2    1    2    0    0  0.00000000000E+00  0.00000000000E+00  0.21365883455E+04  0.30288137560E+04  0.21467889999E+04 0.  0.
        4    1    3    3  502    0 -0.52755334027E+03  0.22948568382E+03  0.23468130117E+04  0.24163007120E+04  0.12699999809E+01 0. -1.
       -4    1    3    3    0  502  0.52755334027E+03 -0.22948568382E+03 -0.21022466618E+03  0.61251304401E+03  0.12699999809E+01 0.  1.
</event>
<event>
 5   0  0.8982474E-07  0.2004025E+04  0.7818609E-02  0.8604741E-01
       -2   -1    0    0    0  501  0.00000000000E+00  0.00000000000E+00  0.74219345301E+03  0.74219345302E+03  0.25500000920E-02 0.  1.
        2   -1    0    0  501    0  0.00000000000E+00  0.00000000000E+00 -0.13527867558E+04  0.13527867558E+04  0.25500000920E-02 0. -1.
    10030    2    1    2    0    0  0.00000000000E+00  0.00000000000E+00 -0.61059330278E+03  0.20949802088E+04  0.20040254225E+04 0.  0.
        5    1    3    3  502    0 -0.91543035332E+03 -0.23969090556E+03  0.39114695624E+02  0.94710955618E+03  0.46999998093E+01 0.  1.
       -5    1    3    3    0  502  0.91543035332E+03  0.23969090556E+03 -0.64970799841E+03  0.11478706526E+04  0.46999998093E+01 0. -1.
</event>
<event>
 5   0  0.7570277E-07  0.2148999E+04  0.7818609E-02  0.8539961E-01
       -2   -1    0    0    0  501  0.00000000000E+00  0.00000000000E+00  0.79971988102E+03  0.79971988103E+03  0.25500000920E-02 0.  1.
        2   -1    0    0  501    0  0.00000000000E+00  0.00000000000E+00 -0.14436926253E+04  0.14436926253E+04  0.25500000920E-02 0. -1.
    10030    2    1    2    0    0  0.00000000000E+00  0.00000000000E+00 -0.64397274425E+03  0.22434125063E+04  0.21489994830E+04 0.  0.
        5    1    3    3  502    0  0.44286472802E+03 -0.93080512022E+03 -0.53452137621E+01  0.10308142415E+04  0.46999998093E+01 0.  1.
       -5    1    3    3    0  502 -0.44286472802E+03  0.93080512022E+03 -0.63862753049E+03  0.12125982648E+04  0.46999998093E+01 0. -1.
</event>
<event>
 5   0  0.2713405E-07  0.3167963E+04  0.7818609E-02  0.8197330E-01
        1   -1    0    0  501    0  0.00000000000E+00  0.00000000000E+00  0.25793293660E+04  0.25793293660E+04  0.50400001928E-02 0.  1.
       -1   -1    0    0    0  501  0.00000000000E+00  0.00000000000E+00 -0.97273238054E+03  0.97273238055E+03  0.50400001928E-02 0. -1.
    10030    2    1    2    0    0  0.00000000000E+00  0.00000000000E+00  0.16065969855E+04  0.35520617466E+04  0.31679628751E+04 0.  0.
        1    1    3    3  502    0 -0.10526791357E+04 -0.63733949572E+03 -0.31494976398E+03  0.12702473576E+04  0.50400001928E-02 0. -1.
       -1    1    3    3    0  502  0.10526791357E+04  0.63733949572E+03  0.19215467495E+04  0.22818143890E+04  0.50400001928E-02 0.  1.
</event>
<event>
 5   0  0.4449262E-07  0.3592373E+04  0.7818609E-02  0.8092241E-01
       -2   -1    0    0    0  501  0.00000000000E+00  0.00000000000E+00  0.12149336820E+04  0.12149336820E+04  0.25500000920E-02 0.  1.
        2   -1    0    0  501    0  0.00000000000E+00  0.00000000000E+00 -0.26555240247E+04  0.26555240247E+04  0.25500000920E-02 0. -1.
    10030    2    1    2    0    0  0.00000000000E+00  0.00000000000E+00 -0.14405903426E+04  0.38704577067E+04  0.35923727986E+04 0.  0.
        1    1    3    3  502    0 -0.45800378022E+03  0.13928910947E+04 -0.18380903371E+04  0.23512739423E+04  0.50400001928E-02 0. -1.
       -1    1    3    3    0  502  0.45800378022E+03 -0.13928910947E+04  0.39749999443E+03  0.15191837644E+04  0.50400001928E-02 0.  1.
</event>
<event>
 5   0  0.2647879E-07  0.3414573E+04  0.7818609E-02  0.8134339E-01
       -1   -1    0    0    0  501  0.00000000000E+00  0.00000000000E+00  0.19613707880E+04  0.19613707880E+04  0.50400001928E-02 0.  1.
        1   -1    0    0  501    0  0.00000000000E+00  0.00000000000E+00 -0.14861172026E+04  0.14861172026E+04  0.50400001928E-02 0. -1.
    10030    2    1    2    0    0  0.00000000000E+00  0.00000000000E+00  0.47525358533E+03  0.34474879906E+04  0.34145728100E+04 0.  0.
        2    1    3    3  502    0  0.75172706958E+03 -0.13312090767E+04  0.10049633153E+04  0.18295252002E+04  0.25500000920E-02 0.  1.
       -2    1    3    3    0  502 -0.75172706958E+03  0.13312090767E+04 -0.52970972995E+03  0.16179627904E+04  0.25500000920E-02 0. -1.
</event>
<event>
 5   0  0.2647879E-07  0.3992760E+04  0.7818609E-02  0.8006009E-01
        1   -1    0    0  501    0  0.00000000000E+00  0.00000000000E+00  0.27697491687E+04  0.27697491687E+04  0.50400001928E-02 0.  1.
       -1   -1    0    0    0  501  0.00000000000E+00  0.00000000000E+00 -0.14389510492E+04  0.14389510492E+04  0.50400001928E-02 0. -1.
    10030    2    1    2    0    0  0.00000000000E+00  0.00000000000E+00  0.13307981195E+04  0.42087002180E+04  0.39927601844E+04 0.  0.
        2    1    3    3  502    0 -0.75176540523E+03  0.14949717084E+04  0.18130634114E+04  0.24672435159E+04  0.25500000920E-02 0.  1.
       -2    1    3    3    0  502  0.75176540523E+03 -0.14949717084E+04 -0.48226529188E+03  0.17414567020E+04  0.25500000920E-02 0. -1.
</event>
<event>
 5   0  0.2601252E-07  0.3951474E+04  0.7818609E-02  0.8014408E-01
        1   -1    0    0  501    0  0.00000000000E+00  0.00000000000E+00  0.10627328312E+04  0.10627328312E+04  0.50400001928E-02 0.  1.
       -1   -1    0    0    0  501  0.00000000000E+00  0.00000000000E+00 -0.36731126159E+04  0.36731126159E+04  0.50400001928E-02 0. -1.
    10030    2    1    2    0    0  0.00000000000E+00  0.00000000000E+00 -0.26103797846E+04  0.47358454471E+04  0.39514743424E+04 0.  0.
        3    1    3    3  502    0  0.13663476121E+03 -0.81950494163E+03 -0.34535774908E+04  0.35521056998E+04  0.10100000352E+00 0. -1.
       -3    1    3    3    0  502 -0.13663476121E+03  0.81950494163E+03  0.84319770620E+03  0.11837397473E+04  0.10100000352E+00 0.  1.
</event>
<event>
 5   0  0.5161550E-07  0.2493817E+04  0.7818609E-02  0.8405191E-01
        2   -1    0    0  501    0  0.00000000000E+00  0.00000000000E+00  0.73668174456E+03  0.73668174457E+03  0.25500000920E-02 0. -1.
       -2   -1    0    0    0  501  0.00000000000E+00  0.00000000000E+00 -0.21105195060E+04  0.21105195060E+04  0.25500000920E-02 0.  1.
    10030    2    1    2    0    0  0.00000000000E+00  0.00000000000E+00 -0.13738377615E+04  0.28472012506E+04  0.24938173082E+04 0.  0.
        2    1    3    3  502    0 -0.10364669251E+04 -0.16726274909E+02 -0.14781104897E+04  0.18053681272E+04  0.25500000920E-02 0.  1.
       -2    1    3    3    0  502  0.10364669251E+04  0.16726274909E+02  0.10427272826E+03  0.10418331233E+04  0.25500000920E-02 0. -1.
</event>
<event>
 5   0  0.5161550E-07  0.4041330E+04  0.7818609E-02  0.7996260E-01
        2   -1    0    0  501    0  0.00000000000E+00  0.00000000000E+00  0.20441895783E+04  0.20441895783E+04  0.25500000920E-02 0.  1.
       -2   -1    0    0    0  501  0.00000000000E+00  0.00000000000E+00 -0.19974115973E+04  0.19974115973E+04  0.25500000920E-02 0. -1.
    10030    2    1    2    0    0  0.00000000000E+00  0.00000000000E+00  0.46777981009E+02  0.40416011757E+04  0.40413304596E+04 0.  0.
        2    1    3    3  502    0  0.18785076854E+04  0.69060444514E+03 -0.25477051743E+03  0.20175811360E+04  0.25500000920E-02 0. -1.
       -2    1    3    3    0  502 -0.18785076854E+04 -0.69060444514E+03  0.30154849844E+03  0.20240200396E+04  0.25500000920E-02 0.  1.
</event>
<event>
 5   0  0.6043512E-07  0.2776375E+04  0.7818609E-02  0.8310641E-01
        2   -1    0    0  501    0  0.00000000000E+00  0.00000000000E+00  0.18034017258E+04  0.18034017258E+04  0.25500000920E-02 0. -1.
       -2   -1    0    0    0  501  0.00000000000E+00  0.00000000000E+00 -0.10685718039E+04  0.10685718039E+04  0.25500000920E-02 0.  1.
    10030    2    1    2    0    0  0.00000000000E+00  0.00000000000E+00  0.73482992186E+03  0.28719735297E+04  0.27763747840E+04 0.  0.
        3    1    3    3  502    0  0.17669229627E+03  0.68501135800E+03 -0.86811699803E+03  0.11198606434E+04  0.10100000352E+00 0.  1.
       -3    1    3    3    0  502 -0.17669229627E+03 -0.68501135800E+03  0.16029469199E+04  0.17521128863E+04  0.10100000352E+00 0. -1.
</event>
<event>
 5   0  0.4449262E-07  0.3963210E+04  0.7818609E-02  0.8012010E-01
       -2   -1    0    0    0  501  0.00000000000E+00  0.00000000000E+00  0.13737243254E+04  0.13737243254E+04  0.25500000920E-02 0.  1.
        2   -1    0    0  501    0  0.00000000000E+00  0.00000000000E+00 -0.28584765479E+04  0.28584765479E+04  0.25500000920E-02 0. -1.
    10030    2    1    2    0    0  0.00000000000E+00  0.00000000000E+00 -0.14847522226E+04  0.42322008733E+04  0.39632101975E+04 0.  0.
        1    1    3    3  502    0  0.17763890706E+03 -0.24603758945E+03 -0.28335160155E+04  0.28497198261E+04  0.50400001928E-02 0. -1.
       -1    1    3    3    0  502 -0.17763890706E+03  0.24603758945E+03  0.13487637930E+04  0.13824810472E+04  0.50400001928E-02 0.  1.
</event>
<event>
 5   0  0.6043512E-07  0.2430396E+04  0.7818609E-02  0.8428211E-01
       -2   -1    0    0    0  501  0.00000000000E+00  0.00000000000E+00  0.12438117430E+04  0.12438117430E+04  0.25500000920E-02 0.  1.
        2   -1    0    0  501    0  0.00000000000E+00  0.00000000000E+00 -0.11872427485E+04  0.11872427485E+04  0.25500000920E-02 0. -1.
    10030    2    1    2    0    0  0.00000000000E+00  0.00000000000E+00  0.56568994516E+02  0.24310544915E+04  0.24303962413E+04 0.  0.
        3    1    3    3  502    0  0.11492925037E+04 -0.38996718501E+03  0.89610137553E+02  0.12169542520E+04  0.10100000352E+00 0.  1.
       -3    1    3    3    0  502 -0.11492925037E+04  0.38996718501E+03 -0.33041143037E+02  0.12141002396E+04  0.10100000352E+00 0. -1.
</event>
<event>
 5   0  0.5161550E-07  0.4083507E+04  0.7818609E-02  0.7987909E-01
        2   -1    0    0  501    0  0.00000000000E+00  0.00000000000E+00  0.16682846974E+04  0.16682846974E+04  0.25500000920E-02 0. -1.
       -2   -1    0    0    0  501  0.00000000000E+00  0.00000000000E+00 -0.24988284031E+04  0.24988284031E+04  0.25500000920E-02 0.  1.
    10030    2    1    2    0    0  0.00000000000E+00  0.00000000000E+00 -0.83054370567E+03  0.41671131005E+04  0.40835069176E+04 0.  0.
        2    1    3    3  502    0 -0.13507993487E+04 -0.12853888647E+04 -0.12640915054E+04  0.22527340606E+04  0.25500000920E-02 0.  1.
       -2    1    3    3    0  502  0.13507993487E+04  0.12853888647E+04  0.43354779974E+03  0.19143790399E+04  0.25500000920E-02 0. -1.
</event>
<event>
 5   0  0.3579559E-07  0.2174218E+04  0.7818609E-02  0.8529236E-01
       -1   -1    0    0    0  501  0.00000000000E+00  0.00000000000E+00  0.29698229360E+04  0.29698229360E+04  0.50400001928E-02 0.  1.
        1   -1    0    0  501    0  0.00000000000E+00  0.00000000000E+00 -0.39793822774E+03  0.39793822777E+03  0.50400001928E-02 0. -1.
    10030    2    1    2    0    0  0.00000000000E+00  0.00000000000E+00  0.25718847083E+04  0.33677611638E+04  0.21742180902E+04 0.  0.
        4    1    3    3  502    0  0.23447609653E+03  0.80481497240E+03  0.21380485310E+03  0.86511288729E+03  0.12699999809E+01 0. -1.
       -4    1    3    3    0  502 -0.23447609653E+03 -0.80481497240E+03  0.23580798552E+04  0.25026482765E+04  0.12699999809E+01 0.  1.
</event>
<event>
 5   0  0.2647879E-07  0.2981675E+04  0.7818609E-02  0.8248983E-01
       -1   -1    0    0    0  501  0.00000000000E+00  0.00000000000E+00  0.19303170469E+04  0.19303170469E+04  0.50400001928E-02 0. -1.
        1   -1    0    0  501    0  0.00000000000E+00  0.00000000000E+00 -0.11514152573E+04  0.11514152573E+04  0.50400001928E-02 0.  1.
    10030    2    1    2    0    0  0.00000000000E+00  0.00000000000E+00  0.77890178969E+03  0.30817323042E+04  0.29816750321E+04 0.  0.
        2    1    3    3  502    0  0.42675918735E+03 -0.30604785792E+03  0.18315534338E+04  0.19053547376E+04  0.25500000920E-02 0. -1.
       -2    1    3    3    0  502 -0.42675918735E+03  0.30604785792E+03 -0.10526516441E+04  0.11763775666E+04  0.25500000920E-02 0.  1.
</event>
<event>
 5   0  0.7256473E-07  0.3864189E+04  0.7818609E-02  0.8032519E-01
        2   -1    0    0  501    0  0.00000000000E+00  0.00000000000E+00  0.24900396411E+04  0.24900396411E+04  0.25500000920E-02 0. -1.
       -2   -1    0    0    0  501  0.00000000000E+00  0.00000000000E+00 -0.14991687777E+04  0.14991687777E+04  0.25500000920E-02 0.  1.
    10030    2    1    2    0    0  0.00000000000E+00  0.00000000000E+00  0.99087086335E+03  0.39892084188E+04  0.38641892734E+04 0.  0.
        4    1    3    3  502    0  0.43053728177E+03 -0.98231067831E+03 -0.11636341428E+04  0.15825115010E+04  0.12699999809E+01 0.  1.
       -4    1    3    3    0  502 -0.43053728177E+03  0.98231067831E+03  0.21545050062E+04  0.24066969178E+04  0.12699999809E+01 0. -1.
</event>
<event>
 5   0  0.7256473E-07  0.3967614E+04  0.7818609E-02  0.8011112E-01
        2   -1    0    0  501    0  0.00000000000E+00  0.00000000000E+00  0.28461332108E+04  0.28461332108E+04  0.25500000920E-02 0.  1.
       -2   -1    0    0    0  501  0.00000000000E+00  0.00000000000E+00 -0.13827500972E+04  0.13827500972E+04  0.25500000920E-02 0. -1.
    10030    2    1    2    0    0  0.00000000000E+00  0.00000000000E+00  0.14633831137E+04  0.42288833080E+04  0.39676143834E+04 0.  0.
        4    1    3    3  502    0 -0.28468678498E+03  0.31884873656E+03  0.27964663918E+04  0.28289462660E+04  0.12699999809E+01 0.  1.
       -4    1    3    3    0  502  0.28468678498E+03 -0.31884873656E+03 -0.13330832782E+04  0.13999370421E+04  0.12699999809E+01 0. -1.
</event>
<event>
 5   0  0.7570277E-07  0.4076939E+04  0.7818609E-02  0.7989203E-01
       -2   -1    0    0    0  501  0.00000000000E+00  0.00000000000E+00  0.22907273949E+04  0.22907273949E+04  0.25500000920E-02 0. -1.
        2   -1    0    0  501    0  0.00000000000E+00  0.00000000000E+00 -0.18139902334E+04  0.18139902334E+04  0.25500000920E-02 0.  1.
    10030    2    1    2    0    0  0.00000000000E+00  0.00000000000E+00  0.47673716149E+03  0.41047176284E+04  0.40769386171E+04 0.  0.
        5    1    3    3  502    0  0.44958854370E+03 -0.59281625698E+03  0.21491338848E+04  0.22742821984E+04  0.46999998093E+01 0. -1.
       -5    1    3    3    0  502 -0.44958854370E+03  0.59281625698E+03 -0.16723967233E+04  0.18304354300E+04  0.46999998093E+01 0.  1.
</event>
<event>
 5   0  0.6043512E-07  0.4024765E+04  0.7818609E-02  0.7999569E-01
        2   -1    0    0  501    0  0.00000000000E+00  0.00000000000E+00  0.18107216746E+04  0.18107216746E+04  0.25500000920E-02 0.  1.
       -2   -1    0    0    0  501  0.00000000000E+00  0.00000000000E+00 -0.22365022973E+04  0.22365022973E+04  0.25500000920E-02 0. -1.
    10030    2    1    2    0    0  0.00000000000E+00  0.00000000000E+00 -0.42578062277E+03  0.40472239719E+04  0.40247649298E+04 0.  0.
        3    1    3    3  502    0  0.45926639218E+03  0.35769923358E+03  0.17242050825E+04  0.18198234907E+04  0.10100000352E+00 0.  1.
       -3    1    3    3    0  502 -0.45926639218E+03 -0.35769923358E+03 -0.21499857052E+04  0.22274004812E+04  0.10100000352E+00 0. -1.
</event>
<event>
 5   0  0.5161550E-07  0.3893506E+04  0.7818609E-02  0.8026381E-01
       -2   -1    0    0    0  501  0.00000000000E+00  0.00000000000E+00  0.16557249240E+04  0.16557249240E+04  0.25500000920E-02 0.  1.
        2   -1    0    0  501    0  0.00000000000E+00  0.00000000000E+00 -0.22889351698E+04  0.22889351698E+04  0.25500000920E-02 0. -1.
    10030    2    1    2    0    0  0.00000000000E+00  0.00000000000E+00 -0.63321024578E+03  0.39446600938E+04  0.38935058803E+04 0.  0.
        2    1    3    3  502    0  0.85567520583E+03  0.23434332300E+03 -0.20722163559E+04  0.22541467292E+04  0.25500000920E-02 0. -1.
       -2    1    3    3    0  502 -0.85567520583E+03 -0.23434332300E+03  0.14390061101E+04  0.16905133646E+04  0.25500000920E-02 0.  1.
</event>
<event>
 5   0  0.4449262E-07  0.2727363E+04  0.7818609E-02  0.8326181E-01
       -2   -1    0    0    0  501  0.00000000000E+00  0.00000000000E+00  0.79897775419E+03  0.79897775419E+03  0.25500000920E-02 0.  1.
        2   -1    0    0  501    0  0.00000000000E+00  0.00000000000E+00 -0.23275073267E+04  0.23275073267E+04  0.25500000920E-02 0. -1.
    10030    2    1    2    0    0  0.00000000000E+00  0.00000000000E+00 -0.15285295725E+04  0.31264850809E+04  0.27273625184E+04 0.  0.
        1    1    3    3  502    0  0.12394599069E+04 -0.36331655882E+02 -0.14148021766E+04  0.18812884014E+04  0.50400001928E-02 0. -1.
       -1    1    3    3    0  502 -0.12394599069E+04  0.36331655882E+02 -0.11372739588E+03  0.12451966795E+04  0.50400001928E-02 0.  1.
</event>
<event>
 5   0  0.2401125E-07  0.2423772E+04  0.7818609E-02  0.8430657E-01
       -1   -1    0    0    0  501  0.00000000000E+00  0.00000000000E+00  0.92522088541E+03  0.92522088542E+03  0.50400001928E-02 0.  1.
        1   -1    0    0  501    0  0.00000000000E+00  0.00000000000E+00 -0.15873703170E+04  0.15873703170E+04  0.50400001928E-02 0. -1.
    10030    2    1    2    0    0  0.00000000000E+00  0.00000000000E+00 -0.66214943159E+03  0.25125912024E+04  0.24237724070E+04 0.  0.
        5    1    3    3  502    0 -0.31469081237E+03  0.11695429627E+04 -0.37487257853E+03  0.12678377613E+04  0.46999998093E+01 0. -1.
       -5    1    3    3    0  502  0.31469081237E+03 -0.11695429627E+04 -0.28727685306E+03  0.12447534411E+04  0.46999998093E+01 0.  1.
</event>
<event>
 5   0  0.2401125E-07  0.3967843E+04  0.7818609E-02  0.8011065E-01
        1   -1    0    0  501    0  0.00000000000E+00  0.00000000000E+00  0.17331878256E+04  0.17331878257E+04  0.50400001928E-02 0. -1.
       -1   -1    0    0    0  501  0.00000000000E+00  0.00000000000E+00 -0.22709277554E+04  0.22709277554E+04  0.50400001928E-02 0.  1.
    10030    2    1    2    0    0  0.00000000000E+00  0.00000000000E+00 -0.53773992974E+03  0.40041155810E+04  0.39678429095E+04 0.  0.
        5    1    3    3  502    0 -0.16938703082E+04  0.73523018391E+03 -0.10008714455E+04  0.21003632507E+04  0.46999998093E+01 0.  1.
       -5    1    3    3    0  502  0.16938703082E+04 -0.73523018391E+03  0.46313151577E+03  0.19037523303E+04  0.46999998093E+01 0. -1.
</event>
<event>
 5   0  0.5161550E-07  0.2319528E+04  0.7818609E-02  0.8470261E-01
       -2   -1    0    0    0  501  0.00000000000E+00  0.00000000000E+00  0.15718704994E+04  0.15718704994E+04  0.25500000920E-02 0.  1.
        2   -1    0    0  501    0  0.00000000000E+00  0.00000000000E+00 -0.85570219312E+03  0.85570219312E+03  0.25500000920E-02 0. -1.
    10030    2    1    2    0    0  0.00000000000E+00  0.00000000000E+00  0.71616830625E+03  0.24275726925E+04  0.23195284293E+04 0.  0.
        2    1    3    3  502    0  0.10010013900E+04  0.54806872191E+03  0.57427310373E+03  0.12775651468E+04  0.25500000920E-02 0.  1.
       -2    1    3    3    0  502 -0.10010013900E+04 -0.54806872191E+03  0.14189520251E+03  0.11500075457E+04  0.25500000920E-02 0. -1.
</event>
<event>
 5   0  0.4449262E-07  0.4087916E+04  0.7818609E-02  0.7987042E-01
       -2   -1    0    0    0  501  0.00000000000E+00  0.00000000000E+00  0.16706802896E+04  0.16706802896E+04  0.25500000920E-02 0.  1.
        2   -1    0    0  501    0  0.00000000000E+00  0.00000000000E+00 -0.25006360357E+04  0.25006360357E+04  0.25500000920E-02 0. -1.
    10030    2    1    2    0    0  0.00000000000E+00  0.00000000000E+00 -0.82995574615E+03  0.41713163253E+04  0.40879155257E+04 0.  0.
        1    1    3    3  502    0 -0.13784888019E+04 -0.55515440831E+03 -0.18469384837E+04  0.23705715675E+04  0.50400001928E-02 0. -1.
       -1    1    3    3    0  502  0.13784888019E+04  0.55515440831E+03  0.10169827376E+04  0.18007447578E+04  0.50400001928E-02 0.  1.
</event>
<event>
 5   0  0.2601252E-07  0.2101855E+04  0.7818609E-02  0.8560426E-01
        1   -1    0    0  501    0  0.00000000000E+00  0.00000000000E+00  0.16162159027E+04  0.16162159027E+04  0.50400001928E-02 0.  1.
       -1   -1    0    0    0  501  0.00000000000E+00  0.00000000000E+00 -0.68335490032E+03  0.68335490033E+03  0.50400001928E-02 0. -1.
    10030    2    1    2    0    0  0.00000000000E+00  0.00000000000E+00  0.93286100242E+03  0.22995708031E+04  0.21018554252E+04 0.  0.
        3    1    3    3  502    0  0.31267963598E+03  0.10011358652E+04  0.39379671080E+03  0.11203202377E+04  0.10100000352E+00 0. -1.
       -3    1    3    3    0  502 -0.31267963598E+03 -0.10011358652E+04  0.53906429162E+03  0.11792505654E+04  0.10100000352E+00 0.  1.
</event>
<event>
 5   0  0.6043512E-07  0.4021923E+04  0.7818609E-02  0.8000138E-01
       -2   -1    0    0    0  501  0.00000000000E+00  0.00000000000E+00  0.15664113135E+04  0.15664113135E+04  0.25500000920E-02 0.  1.
        2   -1    0    0  501    0  0.00000000000E+00  0.00000000000E+00 -0.25816763041E+04  0.25816763041E+04  0.25500000920E-02 0. -1.
    10030    2    1    2    0    0  0.00000000000E+00  0.00000000000E+00 -0.10152649906E+04  0.41480876176E+04  0.40219234058E+04 0.  0.
        3    1    3    3  502    0  0.84661289282E+03  0.13770023677E+04 -0.17414353926E+04  0.23760231792E+04  0.10100000352E+00 0.  1.
       -3    1    3    3    0  502 -0.84661289282E+03 -0.13770023677E+04  0.72617040207E+03  0.17720644385E+04  0.10100000352E+00 0. -1.
</event>
<event>
 5   0  0.5161550E-07  0.3703853E+04  0.7818609E-02  0.8067108E-01
       -2   -1    0    0    0  501  0.00000000000E+00  0.00000000000E+00  0.14278664145E+04  0.14278664145E+04  0.25500000920E-02 0.  1.
        2   -1    0    0  501    0  0.00000000000E+00  0.00000000000E+00 -0.24019276914E+04  0.24019276914E+04  0.25500000920E-02 0. -1.
    10030    2    1    2    0    0  0.00000000000E+00  0.00000000000E+00 -0.97406127694E+03  0.38297941059E+04  0.37038530644E+04 0.  0.
        2    1    3    3  502    0 -0.45595830189E+03 -0.17286374702E+04 -0.98672939590E+03  0.20419893186E+04  0.25500000920E-02 0. -1.
       -2    1    3    3    0  502  0.45595830189E+03  0.17286374702E+04  0.12668118962E+02  0.17878047873E+04  0.25500000920E-02 0.  1.
</event>
<event>
 5   0  0.5161550E-07  0.3352098E+04  0.7818609E-02  0.8149764E-01
        2   -1    0    0  501    0  0.00000000000E+00  0.00000000000E+00  0.14460547735E+04  0.14460547735E+04  0.25500000920E-02 0.  1.
       -2   -1    0    0    0  501  0.00000000000E+00  0.00000000000E+00 -0.19426238943E+04  0.19426238943E+04  0.25500000920E-02 0. -1.
    10030    2    1    2    0    0  0.00000000000E+00  0.00000000000E+00 -0.49656912084E+03  0.33886786679E+04  0.33520981821E+04 0.  0.
        2    1    3    3  502    0 -0.57538527814E+03  0.15002714794E+04 -0.73020248686E+03  0.17649584703E+04  0.25500000920E-02 0. -1.
       -2    1    3    3    0  502  0.57538527814E+03 -0.15002714794E+04  0.23363336602E+03  0.16237201975E+04  0.25500000920E-02 0.  1.
</event>
<event>
 5   0  0.2601252E-07  0.2657826E+04  0.7818609E-02  0.8348820E-01
       -1   -1    0    0    0  501  0.00000000000E+00  0.00000000000E+00  0.14982502729E+04  0.14982502729E+04  0.50400001928E-02 0.  1.
        1   -1    0    0  501    0  0.00000000000E+00  0.00000000000E+00 -0.11787152290E+04  0.11787152290E+04  0.50400001928E-02 0. -1.
    10030    2    1    2    0    0  0.00000000000E+00  0.00000000000E+00  0.31953504398E+03  0.26769655019E+04  0.26578264906E+04 0.  0.
        3    1    3    3  502    0  0.24246798128E+03  0.27471698791E+03 -0.11268308388E+04  0.11849083909E+04  0.10100000352E+00 0. -1.
       -3    1    3    3    0  502 -0.24246798128E+03 -0.27471698791E+03  0.14463658828E+04  0.14920571110E+04  0.10100000352E+00 0.  1.
</event>
<event>
 5   0  0.2601252E-07  0.3953145E+04  0.7818609E-02  0.8014066E-01
        1   -1    0    0  501    0  0.00000000000E+00  0.00000000000E+00  0.28540546651E+04  0.28540546651E+04  0.50400001928E-02 0.  1.
       -1   -1    0    0    0  501  0.00000000000E+00  0.00000000000E+00 -0.13688733121E+04  0.13688733121E+04  0.50400001928E-02 0. -1.
    10030    2    1    2    0    0  0.00000000000E+00  0.00000000000E+00  0.14851813530E+04  0.42229279772E+04  0.39531452097E+04 0.  0.
        3    1    3    3  502    0 -0.92671347271E+03  0.21993842112E+03 -0.11075618669E+04  0.14607751602E+04  0.10100000352E+00 0. -1.
       -3    1    3    3    0  502  0.92671347271E+03 -0.21993842112E+03  0.25927432199E+04  0.27621528169E+04  0.10100000352E+00 0.  1.
</event>
<event>
 5   0  0.7256473E-07  0.3915408E+04  0.7818609E-02  0.8021832E-01
       -2   -1    0    0    0  501  0.00000000000E+00  0.00000000000E+00  0.24598476610E+04  0.24598476610E+04  0.25500000920E-02 0. -1.
        2   -1    0    0  501    0  0.00000000000E+00  0.00000000000E+00 -0.15580661143E+04  0.15580661143E+04  0.25500000920E-02 0.  1.
    10030    2    1    2    0    0  0.00000000000E+00  0.00000000000E+00  0.90178154674E+03  0.40179137753E+04  0.39154081712E+04 0.  0.
        4    1    3    3  502    0 -0.89003623803E+03  0.68526863690E+03  0.20962533159E+04  0.23782424576E+04  0.12699999809E+01 0. -1.
       -4    1    3    3    0  502  0.89003623803E+03 -0.68526863690E+03 -0.11944717692E+04  0.16396713177E+04  0.12699999809E+01 0.  1.
</event>
<event>
 5   0  0.6043512E-07  0.3434723E+04  0.7818609E-02  0.8129436E-01
        2   -1    0    0  501    0  0.00000000000E+00  0.00000000000E+00  0.28383590328E+04  0.28383590328E+04  0.25500000920E-02 0. -1.
       -2   -1    0    0    0  501  0.00000000000E+00  0.00000000000E+00 -0.10390968924E+04  0.10390968924E+04  0.25500000920E-02 0.  1.
    10030    2    1    2    0    0  0.00000000000E+00  0.00000000000E+00  0.17992621404E+04  0.38774559252E+04  0.34347227257E+04 0.  0.
        3    1    3    3  502    0 -0.16660855233E+04 -0.25902323348E+03  0.53140214004E+03  0.17678580970E+04  0.10100000352E+00 0.  1.
       -3    1    3    3    0  502  0.16660855233E+04  0.25902323348E+03  0.12678600003E+04  0.21095978283E+04  0.10100000352E+00 0. -1.
</event>
<event>
 5   0  0.6043512E-07  0.2124246E+04  0.7818609E-02  0.8550638E-01
       -2   -1    0    0    0  501  0.00000000000E+00  0.00000000000E+00  0.13778357337E+04  0.13778357337E+04  0.25500000920E-02 0.  1.
        2   -1    0    0  501    0  0.00000000000E+00  0.00000000000E+00 -0.81875129698E+03  0.81875129698E+03  0.25500000920E-02 0. -1.
    10030    2    1    2    0    0  0.00000000000E+00  0.00000000000E+00  0.55908443669E+03  0.21965870307E+04  0.21242455545E+04 0.  0.
        3    1    3    3  502    0 -0.78038384327E+02  0.50547165899E+03 -0.68302548866E+03  0.85329679235E+03  0.10100000352E+00 0. -1.
       -3    1    3    3    0  502  0.78038384327E+02 -0.50547165899E+03  0.12421099253E+04  0.13432902383E+04  0.10100000352E+00 0.  1.
</event>
<event>
 5   0  0.2647879E-07  0.4078163E+04  0.7818609E-02  0.7988962E-01
        1   -1    0    0  501    0  0.00000000000E+00  0.00000000000E+00  0.22639602724E+04  0.22639602724E+04  0.50400001928E-02 0.  1.
       -1   -1    0    0    0  501  0.00000000000E+00  0.00000000000E+00 -0.18365396120E+04  0.18365396120E+04  0.50400001928E-02 0. -1.
    10030    2    1    2    0    0  0.00000000000E+00  0.00000000000E+00  0.42742066041E+03  0.41004998844E+04  0.40781626845E+04 0.  0.
        2    1    3    3  502    0 -0.38296534768E+03  0.18177883179E+04  0.10590505943E+04  0.21383650268E+04  0.25500000920E-02 0. -1.
       -2    1    3    3    0  502  0.38296534768E+03 -0.18177883179E+04 -0.63162993391E+03  0.19621348577E+04  0.25500000920E-02 0.  1.
</event>
<event>
 5   0  0.2647879E-07  0.2302434E+04  0.7818609E-02  0.8476962E-01
       -1   -1    0    0    0  501  0.00000000000E+00  0.00000000000E+00  0.11603728514E+04  0.11603728514E+04  0.50400001928E-02 0.  1.
        1   -1    0    0  501    0  0.00000000000E+00  0.00000000000E+00 -0.11421337174E+04  0.11421337175E+04  0.50400001928E-02 0. -1.
    10030    2    1    2    0    0  0.00000000000E+00  0.00000000000E+00  0.18239133964E+02  0.23025065689E+04  0.23024343278E+04 0.  0.
        2    1    3    3  502    0 -0.51720412863E+03 -0.10177809943E+04  0.15718735937E+03  0.11524261924E+04  0.25500000920E-02 0.  1.
       -2    1    3    3    0  502  0.51720412863E+03  0.10177809943E+04 -0.13894822541E+03  0.11500803765E+04  0.25500000920E-02 0. -1.
</event>
<event>
 5   0  0.7570277E-07  0.2334810E+04  0.7818609E-02  0.8464321E-01
       -2   -1    0    0    0  501  0.00000000000E+00  0.00000000000E+00  0.11303459209E+04  0.11303459209E+04  0.25500000920E-02 0. -1.
        2   -1    0    0  501    0  0.00000000000E+00  0.00000000000E+00 -0.12056789962E+04  0.12056789962E+04  0.25500000920E-02 0.  1.
    10030    2    1    2    0    0  0.00000000000E+00  0.00000000000E+00 -0.75333075276E+02  0.23360249172E+04  0.23348099155E+04 0.  0.
        5    1    3    3  502    0  0.82568009718E+03  0.55857608830E+02 -0.86146889191E+03  0.11945787697E+04  0.46999998093E+01 0.  1.
       -5    1    3    3    0  502 -0.82568009718E+03 -0.55857608830E+02  0.78613581663E+03  0.11414461475E+04  0.46999998093E+01 0. -1.
</event>
<event>
 5   0  0.7256473E-07  0.3439908E+04  0.7818609E-02  0.8128180E-01
        2   -1    0    0  501    0  0.00000000000E+00  0.00000000000E+00  0.21348861350E+04  0.21348861350E+04  0.25500000920E-02 0. -1.
       -2   -1    0    0    0  501  0.00000000000E+00  0.00000000000E+00 -0.13856672189E+04  0.13856672189E+04  0.25500000920E-02 0.  1.
    10030    2    1    2    0    0  0.00000000000E+00  0.00000000000E+00  0.74921891611E+03  0.35205533539E+04  0.34399079833E+04 0.  0.
        4    1    3    3  502    0 -0.15468715423E+04 -0.74361281027E+03  0.26032901439E+03  0.17359563325E+04  0.12699999809E+01 0.  1.
       -4    1    3    3    0  502  0.15468715423E+04  0.74361281027E+03  0.48888990171E+03  0.17845970214E+04  0.12699999809E+01 0. -1.
</event>
<event>
 5   0  0.6043512E-07  0.4000500E+04  0.7818609E-02  0.8004446E-01
       -2   -1    0    0    0  501  0.00000000000E+00  0.00000000000E+00  0.12505126306E+04  0.12505126306E+04  0.25500000920E-02 0. -1.
        2   -1    0    0  501    0  0.00000000000E+00  0.00000000000E+00 -0.31994883507E+04  0.31994883507E+04  0.25500000920E-02 0.  1.
    10030    2    1    2    0    0  0.00000000000E+00  0.00000000000E+00 -0.19489757201E+04  0.44500009814E+04  0.40005002658E+04 0.  0.
        3    1    3    3  502    0 -0.83919058092E+03  0.11386402076E+04 -0.25477056044E+04  0.29140257738E+04  0.10100000352E+00 0.  1.
       -3    1    3    3    0  502  0.83919058092E+03 -0.11386402076E+04  0.59872988433E+03  0.15359752075E+04  0.10100000352E+00 0. -1.
</event>
<event>
 5   0  0.4449262E-07  0.3780680E+04  0.7818609E-02  0.8050314E-01
       -2   -1    0    0    0  501  0.00000000000E+00  0.00000000000E+00  0.18414299684E+04  0.18414299684E+04  0.25500000920E-02 0.  1.
        2   -1    0    0  501    0  0.00000000000E+00  0.00000000000E+00 -0.19405487757E+04  0.19405487757E+04  0.25500000920E-02 0. -1.
    10030    2    1    2    0    0  0.00000000000E+00  0.00000000000E+00 -0.99118807328E+02  0.37819787441E+04  0.37806796588E+04 0.  0.
        1    1    3    3  502    0  0.39359273601E+03 -0.85940625253E+03 -0.16871589643E+04  0.19339078881E+04  0.50400001928E-02 0. -1.
       -1    1    3    3    0  502 -0.39359273601E+03  0.85940625253E+03  0.15880401570E+04  0.18480708560E+04  0.50400001928E-02 0.  1.
</event>
<event>
 5   0  0.2647879E-07  0.3166022E+04  0.7818609E-02  0.8197849E-01
        1   -1    0    0  501    0  0.00000000000E+00  0.00000000000E+00  0.14924650392E+04  0.14924650392E+04  0.50400001928E-02 0.  1.
       -1   -1    0    0    0  501  0.00000000000E+00  0.00000000000E+00 -0.16790503291E+04  0.16790503291E+04  0.50400001928E-02 0. -1.
    10030    2    1    2    0    0  0.00000000000E+00  0.00000000000E+00 -0.18658528994E+03  0.31715153683E+04  0.31660220563E+04 0.  0.
        2    1    3    3  502    0  0.95402682985E+03  0.90910542111E+02  0.11688506264E+04  0.15115037894E+04  0.25500000920E-02 0.  1.
       -2    1    3    3    0  502 -0.95402682985E+03 -0.90910542111E+02 -0.13554359163E+04  0.16600115789E+04  0.25500000920E-02 0. -1.
</event>
<event>
 5   0  0.7256473E-07  0.3934206E+04  0.7818609E-02  0.8017952E-01
       -2   -1    0    0    0  501  0.00000000000E+00  0.00000000000E+00  0.28742861116E+04  0.28742861116E+04  0.25500000920E-02 0.  1.
        2   -1    0    0  501    0  0.00000000000E+00  0.00000000000E+00 -0.13462451899E+04  0.13462451899E+04  0.25500000920E-02 0. -1.
    10030    2    1    2    0    0  0.00000000000E+00  0.00000000000E+00  0.15280409217E+04  0.42205313015E+04  0.39342058167E+04 0.  0.
        4    1    3    3  502    0 -0.14626024903E+02 -0.11686129672E+04 -0.93341954458E+03  0.14957084765E+04  0.12699999809E+01 0. -1.
       -4    1    3    3    0  502  0.14626024903E+02  0.11686129672E+04  0.24614604662E+04  0.27248228250E+04  0.12699999809E+01 0.  1.
</event>
<event>
 5   0  0.2647879E-07  0.4050090E+04  0.7818609E-02  0.7994517E-01
       -1   -1    0    0    0  501  0.00000000000E+00  0.00000000000E+00  0.15805515657E+04  0.15805515657E+04  0.50400001928E-02 0. -1.
        1   -1    0    0  501    0  0.00000000000E+00  0.00000000000E+00 -0.25945423612E+04  0.25945423613E+04  0.50400001928E-02 0.  1.
    10030    2    1    2    0    0  0.00000000000E+00  0.00000000000E+00 -0.10139907956E+04  0.41750939270E+04  0.40500903651E+04 0.  0.
        2    1    3    3  502    0  0.19796545375E+04 -0.41076425264E+02 -0.69529015265E+02  0.19813009980E+04  0.25500000920E-02 0. -1.
       -2    1    3    3    0  502 -0.19796545375E+04  0.41076425264E+02 -0.94446178029E+03  0.21937929290E+04  0.25500000920E-02 0.  1.
</event>
<event>
 5   0  0.4449262E-07  0.3989655E+04  0.7818609E-02  0.8006637E-01
        2   -1    0    0  501    0  0.00000000000E+00  0.00000000000E+00  0.21640270154E+04  0.21640270155E+04  0.25500000920E-02 0. -1.
       -2   -1    0    0    0  501  0.00000000000E+00  0.00000000000E+00 -0.18388576571E+04  0.18388576571E+04  0.25500000920E-02 0.  1.
    10030    2    1    2    0    0  0.00000000000E+00  0.00000000000E+00  0.32516935834E+03  0.40028846726E+04  0.39896554476E+04 0.  0.
        1    1    3    3  502    0  0.66580701186E+03  0.13940103443E+04  0.14288209296E+04  0.21043034634E+04  0.50400001928E-02 0. -1.
       -1    1    3    3    0  502 -0.66580701186E+03 -0.13940103443E+04 -0.11036515713E+04  0.18985812092E+04  0.50400001928E-02 0.  1.
</event>
<event>
 5   0  0.5161550E-07  0.3991332E+04  0.7818609E-02  0.8006298E-01
       -2   -1    0    0    0  501  0.00000000000E+00  0.00000000000E+00  0.30607174265E+04  0.30607174265E+04  0.25500000920E-02 0.  1.
        2   -1    0    0  501    0  0.00000000000E+00  0.00000000000E+00 -0.13012249263E+04  0.13012249263E+04  0.25500000920E-02 0. -1.
    10030    2    1    2    0    0  0.00000000000E+00  0.00000000000E+00  0.17594925002E+04  0.43619423528E+04  0.39913315110E+04 0.  0.
        2    1    3    3  502    0 -0.14169566787E+04  0.12699903895E+04  0.15373138291E+04  0.24462165946E+04  0.25500000920E-02 0. -1.
       -2    1    3    3    0  502  0.14169566787E+04 -0.12699903895E+04  0.22217867113E+03  0.19157257582E+04  0.25500000920E-02 0.  1.
</event>
<event>
 5   0  0.3579559E-07  0.3994277E+04  0.7818609E-02  0.8005702E-01
        1   -1    0    0  501    0  0.00000000000E+00  0.00000000000E+00  0.20840595419E+04  0.20840595419E+04  0.50400001928E-02 0.  1.
       -1   -1    0    0    0  501  0.00000000000E+00  0.00000000000E+00 -0.19138425594E+04  0.19138425594E+04  0.50400001928E-02 0. -1.
    10030    2    1    2    0    0  0.00000000000E+00  0.00000000000E+00  0.17021698246E+03  0.39979021013E+04  0.39942768294E+04 0.  0.
        4    1    3    3  502    0  0.41362381927E+03  0.22462358578E+03  0.20277512628E+04  0.20816621281E+04  0.12699999809E+01 0.  1.
       -4    1    3    3    0  502 -0.41362381927E+03 -0.22462358578E+03 -0.18575342803E+04  0.19162399731E+04  0.12699999809E+01 0. -1.
</event>
<event>
 5   0  0.4449262E-07  0.4196376E+04  0.7818609E-02  0.7966062E-01
        2   -1    0    0  501    0  0.00000000000E+00  0.00000000000E+00  0.21252653567E+04  0.21252653567E+04  0.25500000920E-02 0.  1.
       -2   -1    0    0    0  501  0.00000000000E+00  0.00000000000E+00 -0.20714558768E+04  0.20714558768E+04  0.25500000920E-02 0. -1.
    10030    2    1    2    0    0  0.00000000000E+00  0.00000000000E+00  0.53809479915E+02  0.41967212334E+04  0.41963762523E+04 0.  0.
        1    1    3    3  502    0 -0.87398326234E+03  0.16686692917E+04  0.95115032358E+03  0.21102110998E+04  0.50400001928E-02 0.  1.
       -1    1    3    3    0  502  0.87398326234E+03 -0.16686692917E+04 -0.89734084367E+03  0.20865101336E+04  0.50400001928E-02 0. -1.
</event>
<event>
 5   0  0.2601252E-07  0.2225698E+04  0.7818609E-02  0.8507808E-01
        1   -1    0    0  501    0  0.00000000000E+00  0.00000000000E+00  0.10793673130E+04  0.10793673130E+04  0.50400001928E-02 0.  1.
       -1   -1    0    0    0  501  0.00000000000E+00  0.00000000000E+00 -0.11473689332E+04  0.11473689332E+04  0.50400001928E-02 0. -1.
    10030    2    1    2    0    0  0.00000000000E+00  0.00000000000E+00 -0.68001620173E+02  0.22267362462E+04  0.22256976636E+04 0.  0.
        3    1    3    3  502    0  0.57385173894E+02 -0.10810490267E+04  0.22394202626E+03  0.11054908854E+04  0.10100000352E+00 0.  1.
       -3    1    3    3    0  502 -0.57385173894E+02  0.10810490267E+04 -0.29194364643E+03  0.11212453608E+04  0.10100000352E+00 0. -1.
</event>
<event>
 5   0  0.2601252E-07  0.4081605E+04  0.7818609E-02  0.7988284E-01
       -1   -1    0    0    0  501  0.00000000000E+00  0.00000000000E+00  0.11899494802E+04  0.11899494802E+04  0.50400001928E-02 0.  1.
        1   -1    0    0  501    0  0.00000000000E+00  0.00000000000E+00 -0.35000431827E+04  0.35000431827E+04  0.50400001928E-02 0. -1.
    10030    2    1    2    0    0  0.00000000000E+00  0.00000000000E+00 -0.23100937025E+04  0.46899926629E+04  0.40816048638E+04 0.  0.
        3    1    3    3  502    0  0.14207304032E+04 -0.60226696854E+03  0.37956648072E+03  0.15891101609E+04  0.10100000352E+00 0.  1.
       -3    1    3    3    0  502 -0.14207304032E+04  0.60226696854E+03 -0.26896601832E+04  0.31008825020E+04  0.10100000352E+00 0. -1.
</event>
<event>
 5   0  0.2647879E-07  0.2335416E+04  0.7818609E-02  0.8464086E-01
       -1   -1    0    0    0  501  0.00000000000E+00  0.00000000000E+00  0.48544300627E+03  0.48544300630E+03  0.50400001928E-02 0. -1.
        1   -1    0    0  501    0  0.00000000000E+00  0.00000000000E+00 -0.28088622537E+04  0.28088622537E+04  0.50400001928E-02 0.  1.
    10030    2    1    2    0    0  0.00000000000E+00  0.00000000000E+00 -0.23234192475E+04  0.32943052600E+04  0.23354164825E+04 0.  0.
        2    1    3    3  502    0 -0.54412373647E+03 -0.75323668402E+03 -0.21592505034E+04  0.23507017844E+04  0.25500000920E-02 0.  1.
       -2    1    3    3    0  502  0.54412373647E+03  0.75323668402E+03 -0.16416874410E+03  0.94360347567E+03  0.25500000920E-02 0. -1.
</event>
<event>
 5   0  0.2713405E-07  0.3654224E+04  0.7818609E-02  0.8078183E-01
        1   -1    0    0  501    0  0.00000000000E+00  0.00000000000E+00  0.19502228131E+04  0.19502228131E+04  0.50400001928E-02 0. -1.
       -1   -1    0    0    0  501  0.00000000000E+00  0.00000000000E+00 -0.17117725170E+04  0.17117725170E+04  0.50400001928E-02 0.  1.
    10030    2    1    2    0    0  0.00000000000E+00  0.00000000000E+00  0.23845029607E+03  0.36619953301E+04  0.36542237554E+04 0.  0.
        1    1    3    3  502    0 -0.98119315405E+03  0.69544496282E+03  0.14976336682E+04  0.19207525364E+04  0.50400001928E-02 0. -1.
       -1    1    3    3    0  502  0.98119315405E+03 -0.69544496282E+03 -0.12591833722E+04  0.17412427937E+04  0.50400001928E-02 0.  1.
</event>
<event>
 5   0  0.2713405E-07  0.2317843E+04  0.7818609E-02  0.8470919E-01
        1   -1    0    0  501    0  0.00000000000E+00  0.00000000000E+00  0.17476168200E+04  0.17476168200E+04  0.50400001928E-02 0. -1.
       -1   -1    0    0    0  501  0.00000000000E+00  0.00000000000E+00 -0.76853208380E+03  0.76853208382E+03  0.50400001928E-02 0.  1.
    10030    2    1    2    0    0  0.00000000000E+00  0.00000000000E+00  0.97908473619E+03  0.25161489038E+04  0.23178434774E+04 0.  0.
        1    1    3    3  502    0 -0.41402417644E+03 -0.92124074745E+02 -0.68124713646E+03  0.80249643288E+03  0.50400001928E-02 0.  1.
       -1    1    3    3    0  502  0.41402417644E+03  0.92124074745E+02  0.16603318726E+04  0.17136524709E+04  0.50400001928E-02 0. -1.
</event>
<event>
 5   0  0.3448886E-07  0.2043318E+04  0.7818609E-02  0.8586632E-01
        1   -1    0    0  501    0  0.00000000000E+00  0.00000000000E+00  0.13113430119E+04  0.13113430119E+04  0.50400001928E-02 0.  1.
       -1   -1    0    0    0  501  0.00000000000E+00  0.00000000000E+00 -0.79596824671E+03  0.79596824673E+03  0.50400001928E-02 0. -1.
    10030    2    1    2    0    0  0.00000000000E+00  0.00000000000E+00  0.51537476519E+03  0.21073112586E+04  0.20433182797E+04 0.  0.
        2    1    3    3  502    0  0.86542634644E+03  0.27470094502E+03 -0.22534402799E+03  0.93552300948E+03  0.25500000920E-02 0.  1.
       -2    1    3    3    0  502 -0.86542634644E+03 -0.27470094502E+03  0.74071879318E+03  0.11717882492E+04  0.25500000920E-02 0. -1.
</event>
<event>
 5   0  0.2713405E-07  0.3975834E+04  0.7818609E-02  0.8009439E-01
       -1   -1    0    0    0  501  0.00000000000E+00  0.00000000000E+00  0.22206175765E+04  0.22206175765E+04  0.50400001928E-02 0. -1.
        1   -1    0    0  501    0  0.00000000000E+00  0.00000000000E+00 -0.17796015522E+04  0.17796015522E+04  0.50400001928E-02 0.  1.
    10030    2    1    2    0    0  0.00000000000E+00  0.00000000000E+00  0.44101602427E+03  0.40002191287E+04  0.39758342451E+04 0.  0.
        1    1    3    3  502    0  0.12543333966E+04  0.13491622005E+04 -0.53121803417E+03  0.19172332964E+04  0.50400001928E-02 0.  1.
       -1    1    3    3    0  502 -0.12543333966E+04 -0.13491622005E+04  0.97223405844E+03  0.20829858323E+04  0.50400001928E-02 0. -1.
</event>
<event>
 5   0  0.3579559E-07  0.3592751E+04  0.7818609E-02  0.8092154E-01
       -1   -1    0    0    0  501  0.00000000000E+00  0.00000000000E+00  0.24714237807E+04  0.24714237807E+04  0.50400001928E-02 0.  1.
        1   -1    0    0  501    0  0.00000000000E+00  0.00000000000E+00 -0.13057111365E+04  0.13057111365E+04  0.50400001928E-02 0. -1.
    10030    2    1    2    0    0  0.00000000000E+00  0.00000000000E+00  0.11657126442E+04  0.37771349173E+04  0.35927513432E+04 0.  0.
        4    1    3    3  502    0 -0.30324702087E+03 -0.16095859743E+04 -0.19272945945E+03  0.16492034507E+04  0.12699999809E+01 0. -1.
       -4    1    3    3    0  502  0.30324702087E+03  0.16095859743E+04  0.13584421036E+04  0.21279314665E+04  0.12699999809E+01 0.  1.
</event>
<event>
 5   0  0.2601252E-07  0.3999683E+04  0.7818609E-02  0.8004611E-01
        1   -1    0    0  501    0  0.00000000000E+00  0.00000000000E+00  0.13910747832E+04  0.13910747833E+04  0.50400001928E-02 0.  1.
       -1   -1    0    0    0  501  0.00000000000E+00  0.00000000000E+00 -0.28750183986E+04  0.28750183986E+04  0.50400001928E-02 0. -1.
    10030    2    1    2    0    0  0.00000000000E+00  0.00000000000E+00 -0.14839436153E+04  0.42660931818E+04  0.39996827853E+04 0.  0.
        3    1    3    3  502    0  0.18529927792E+04 -0.59872920185E+03 -0.12276084476E+04  0.23019733725E+04  0.10100000352E+00 0.  1.
       -3    1    3    3    0  502 -0.18529927792E+04  0.59872920185E+03 -0.25633516770E+03  0.19641198093E+04  0.10100000352E+00 0. -1.
</event>
<event>
 5   0  0.4449262E-07  0.2608776E+04  0.7818609E-02  0.8365226E-01
        2   -1    0    0  501    0  0.00000000000E+00  0.00000000000E+00  0.21472525096E+04  0.21472525096E+04  0.25500000920E-02 0.  1.
       -2   -1    0    0    0  501  0.00000000000E+00  0.00000000000E+00 -0.79237416140E+03  0.79237416140E+03  0.25500000920E-02 0. -1.
    10030    2    1    2    0    0  0.00000000000E+00  0.00000000000E+00  0.13548783482E+04  0.29396266710E+04  0.26087755033E+04 0.  0.
        1    1    3    3  502    0  0.28517513245E+03  0.22071739037E+03  0.20899668447E+04  0.21208494606E+04  0.50400001928E-02 0.  1.
       -1    1    3    3    0  502 -0.28517513245E+03 -0.22071739037E+03 -0.73508849649E+03  0.81877721041E+03  0.50400001928E-02 0. -1.
</event>
<event>
 5   0  0.5161550E-07  0.2254978E+04  0.7818609E-02  0.8495887E-01
        2   -1    0    0  501    0  0.00000000000E+00  0.00000000000E+00  0.13471108758E+04  0.13471108758E+04  0.25500000920E-02 0.  1.
       -2   -1    0    0    0  501  0.00000000000E+00  0.00000000000E+00 -0.94367205238E+03  0.94367205238E+03  0.25500000920E-02 0. -1.
    10030    2    1    2    0    0  0.00000000000E+00  0.00000000000E+00  0.40343882343E+03  0.22907829282E+04  0.22549775032E+04 0.  0.
        2    1    3    3  502    0  0.26185521422E+03  0.37286273585E+03  0.12494225899E+04  0.13299066062E+04  0.25500000920E-02 0.  1.
       -2    1    3    3    0  502 -0.26185521422E+03 -0.37286273585E+03 -0.84598376649E+03  0.96087632199E+03  0.25500000920E-02 0. -1.
</event>
<event>
 5   0  0.2601252E-07  0.4239725E+04  0.7818609E-02  0.7957859E-01
       -1   -1    0    0    0  501  0.00000000000E+00  0.00000000000E+00  0.18024596407E+04  0.18024596408E+04  0.50400001928E-02 0. -1.
        1   -1    0    0  501    0  0.00000000000E+00  0.00000000000E+00 -0.24931578911E+04  0.24931578911E+04  0.50400001928E-02 0.  1.
    10030    2    1    2    0    0  0.00000000000E+00  0.00000000000E+00 -0.69069825033E+03  0.42956175318E+04  0.42397247442E+04 0.  0.
        3    1    3    3  502    0  0.50316049944E+03  0.40717153268E+03 -0.23905885125E+04  0.24766656196E+04  0.10100000352E+00 0.  1.
       -3    1    3    3    0  502 -0.50316049944E+03 -0.40717153268E+03  0.16998902622E+04  0.18189519122E+04  0.10100000352E+00 0. -1.
</event>
<event>
 5   0  0.4449262E-07  0.2949847E+04  0.7818609E-02  0.8258199E-01
       -2   -1    0    0    0  501  0.00000000000E+00  0.00000000000E+00  0.20468887247E+04  0.20468887247E+04  0.25500000920E-02 0.  1.
        2   -1    0    0  501    0  0.00000000000E+00  0.00000000000E+00 -0.10627832471E+04  0.10627832471E+04  0.25500000920E-02 0. -1.
    10030    2    1    2    0    0  0.00000000000E+00  0.00000000000E+00  0.98410547768E+03  0.31096719718E+04  0.29498468064E+04 0.  0.
        1    1    3    3  502    0  0.88556024357E+02  0.14092095411E+04  0.94139272300E+03  0.16970368173E+04  0.50400001928E-02 0.  1.
       -1    1    3    3    0  502 -0.88556024357E+02 -0.14092095411E+04  0.42712754680E+02  0.14126351545E+04  0.50400001928E-02 0. -1.
</event>
<event>
 5   0  0.4449262E-07  0.3176140E+04  0.7818609E-02  0.8195147E-01
        2   -1    0    0  501    0  0.00000000000E+00  0.00000000000E+00  0.17257770996E+04  0.17257770996E+04  0.25500000920E-02 0. -1.
       -2   -1    0    0    0  501  0.00000000000E+00  0.00000000000E+00 -0.14613515744E+04  0.14613515744E+04  0.25500000920E-02 0.  1.
    10030    2    1    2    0    0  0.00000000000E+00  0.00000000000E+00  0.26442552515E+03  0.31871286740E+04  0.31761404765E+04 0.  0.
        1    1    3    3  502    0 -0.39551579446E+03 -0.12185590677E+03 -0.14062860208E+04  0.14659201813E+04  0.50400001928E-02 0.  1.
       -1    1    3    3    0  502  0.39551579446E+03  0.12185590677E+03  0.16707115459E+04  0.17212084927E+04  0.50400001928E-02 0. -1.
</event>
<event>
 5   0  0.5161550E-07  0.2470624E+04  0.7818609E-02  0.8413526E-01
        2   -1    0    0  501    0  0.00000000000E+00  0.00000000000E+00  0.10066069324E+04  0.10066069324E+04  0.25500000920E-02 0.  1.
       -2   -1    0    0    0  501  0.00000000000E+00  0.00000000000E+00 -0.15159793021E+04  0.15159793021E+04  0.25500000920E-02 0. -1.
    10030    2    1    2    0    0  0.00000000000E+00  0.00000000000E+00 -0.50937236974E+03  0.25225862345E+04  0.24706236256E+04 0.  0.
        2    1    3    3  502    0 -0.91074773916E+03 -0.76875739694E+03  0.77024991951E+02  0.11943124504E+04  0.25500000920E-02 0. -1.
       -2    1    3    3    0  502  0.91074773916E+03  0.76875739694E+03 -0.58639736169E+03  0.13282737841E+04  0.25500000920E-02 0.  1.
</event>
<event>
 5   0  0.5161550E-07  0.4391747E+04  0.7818609E-02  0.7929868E-01
        2   -1    0    0  501    0  0.00000000000E+00  0.00000000000E+00  0.21680458807E+04  0.21680458807E+04  0.25500000920E-02 0. -1.
       -2   -1    0    0    0  501  0.00000000000E+00  0.00000000000E+00 -0.22240578222E+04  0.22240578222E+04  0.25500000920E-02 0.  1.
    10030    2    1    2    0    0  0.00000000000E+00  0.00000000000E+00 -0.56011941467E+02  0.43921037030E+04  0.43917465318E+04 0.  0.
        2    1    3    3  502    0  0.10834598672E+04  0.18874327319E+04 -0.32055633940E+03  0.21997827092E+04  0.25500000920E-02 0.  1.
       -2    1    3    3    0  502 -0.10834598672E+04 -0.18874327319E+04  0.26454439794E+03  0.21923209937E+04  0.25500000920E-02 0. -1.
</event>
<event>
 5   0  0.2601252E-07  0.4035013E+04  0.7818609E-02  0.7997520E-01
        1   -1    0    0  501    0  0.00000000000E+00  0.00000000000E+00  0.31714898362E+04  0.31714898362E+04  0.50400001928E-02 0.  1.
       -1   -1    0    0    0  501  0.00000000000E+00  0.00000000000E+00 -0.12834134657E+04  0.12834134657E+04  0.50400001928E-02 0. -1.
    10030    2    1    2    0    0  0.00000000000E+00  0.00000000000E+00  0.18880763706E+04  0.44549033019E+04  0.40350131411E+04 0.  0.
        3    1    3    3  502    0  0.24564285097E+03 -0.20012409751E+04  0.86575950251E+03  0.21942755928E+04  0.10100000352E+00 0.  1.
       -3    1    3    3    0  502 -0.24564285097E+03  0.20012409751E+04  0.10223168680E+04  0.22606277092E+04  0.10100000352E+00 0. -1.
</event>
<event>
 5   0  0.5161550E-07  0.3486292E+04  0.7818609E-02  0.8117046E-01
       -2   -1    0    0    0  501  0.00000000000E+00  0.00000000000E+00  0.16909630995E+04  0.16909630995E+04  0.25500000920E-02 0.  1.
        2   -1    0    0  501    0  0.00000000000E+00  0.00000000000E+00 -0.17969397730E+04  0.17969397730E+04  0.25500000920E-02 0. -1.
    10030    2    1    2    0    0  0.00000000000E+00  0.00000000000E+00 -0.10597667356E+03  0.34879028725E+04  0.34862924996E+04 0.  0.
        2    1    3    3  502    0 -0.13731774710E+04 -0.88870070492E+03  0.54991224252E+03  0.17256328648E+04  0.25500000920E-02 0.  1.
       -2    1    3    3    0  502  0.13731774710E+04  0.88870070492E+03 -0.65588891608E+03  0.17622700077E+04  0.25500000920E-02 0. -1.
</event>
<event>
 5   0  0.2601252E-07  0.3856242E+04  0.7818609E-02  0.8034192E-01
       -1   -1    0    0    0  501  0.00000000000E+00  0.00000000000E+00  0.19589456961E+04  0.19589456961E+04  0.50400001928E-02 0.  1.
        1   -1    0    0  501    0  0.00000000000E+00  0.00000000000E+00 -0.18977816304E+04  0.18977816304E+04  0.50400001928E-02 0. -1.
    10030    2    1    2    0    0  0.00000000000E+00  0.00000000000E+00  0.61164065709E+02  0.38567273265E+04  0.38562422937E+04 0.  0.
        3    1    3    3  502    0 -0.18833402752E+04 -0.14770192486E+03 -0.35529637566E+03  0.19222439948E+04  0.10100000352E+00 0. -1.
       -3    1    3    3    0  502  0.18833402752E+04  0.14770192486E+03  0.41646044137E+03  0.19344833316E+04  0.10100000352E+00 0.  1.
</event>
<event>
 5   0  0.7570277E-07  0.2658221E+04  0.7818609E-02  0.8348689E-01
       -2   -1    0    0    0  501  0.00000000000E+00  0.00000000000E+00  0.13311383953E+04  0.13311383953E+04  0.25500000920E-02 0. -1.
        2   -1    0    0  501    0  0.00000000000E+00  0.00000000000E+00 -0.13270860562E+04  0.13270860562E+04  0.25500000920E-02 0.  1.
    10030    2    1    2    0    0  0.00000000000E+00  0.00000000000E+00  0.40523391022E+01  0.26582244514E+04  0.26582213626E+04 0.  0.
        5    1    3    3  502    0 -0.30808195282E+03 -0.12580323240E+04  0.30027690647E+03  0.13295668950E+04  0.46999998093E+01 0. -1.
       -5    1    3    3    0  502  0.30808195282E+03  0.12580323240E+04 -0.29622456736E+03  0.13286575564E+04  0.46999998093E+01 0.  1.
</event>
<event>
 5   0  0.7570277E-07  0.4027336E+04  0.7818609E-02  0.7999055E-01
        2   -1    0    0  501    0  0.00000000000E+00  0.00000000000E+00  0.28737873222E+04  0.28737873222E+04  0.25500000920E-02 0. -1.
       -2   -1    0    0    0  501  0.00000000000E+00  0.00000000000E+00 -0.14109810314E+04  0.14109810314E+04  0.25500000920E-02 0.  1.
    10030    2    1    2    0    0  0.00000000000E+00  0.00000000000E+00  0.14628062907E+04  0.42847683536E+04  0.40273362908E+04 0.  0.
        5    1    3    3  502    0 -0.11202379297E+04  0.91196516710E+03 -0.76120804877E+03  0.16328114615E+04  0.46999998093E+01 0.  1.
       -5    1    3    3    0  502  0.11202379297E+04 -0.91196516710E+03  0.22240143395E+04  0.26519568921E+04  0.46999998093E+01 0. -1.
</event>
<event>
 5   0  0.7570277E-07  0.4321787E+04  0.7818609E-02  0.7942602E-01
       -2   -1    0    0    0  501  0.00000000000E+00  0.00000000000E+00  0.21819346539E+04  0.21819346539E+04  0.25500000920E-02 0.  1.
        2   -1    0    0  501    0  0.00000000000E+00  0.00000000000E+00 -0.21400554268E+04  0.21400554268E+04  0.25500000920E-02 0. -1.
    10030    2    1    2    0    0  0.00000000000E+00  0.00000000000E+00  0.41879227067E+02  0.43219900808E+04  0.43217871753E+04 0.  0.
        5    1    3    3  502    0 -0.18237223463E+04 -0.66637160631E+03  0.96936417564E+03  0.21701850864E+04  0.46999998093E+01 0. -1.
       -5    1    3    3    0  502  0.18237223463E+04  0.66637160631E+03 -0.92748494857E+03  0.21518049944E+04  0.46999998093E+01 0.  1.
</event>
<event>
 5   0  0.4449262E-07  0.2271359E+04  0.7818609E-02  0.8489300E-01
        2   -1    0    0  501    0  0.00000000000E+00  0.00000000000E+00  0.15983114535E+04  0.15983114535E+04  0.25500000920E-02 0.  1.
       -2   -1    0    0    0  501  0.00000000000E+00  0.00000000000E+00 -0.80695627639E+03  0.80695627639E+03  0.25500000920E-02 0. -1.
    10030    2    1    2    0    0  0.00000000000E+00  0.00000000000E+00  0.79135517708E+03  0.24052677299E+04  0.22713585882E+04 0.  0.
        1    1    3    3  502    0  0.62628497435E+03  0.30425205174E+03 -0.55441579852E+03  0.89004441336E+03  0.50400001928E-02 0. -1.
       -1    1    3    3    0  502 -0.62628497435E+03 -0.30425205174E+03  0.13457709756E+04  0.15152233165E+04  0.50400001928E-02 0.  1.
</event>
<event>
 5   0  0.5161550E-07  0.4129424E+04  0.7818609E-02  0.7978935E-01
       -2   -1    0    0    0  501  0.00000000000E+00  0.00000000000E+00  0.13084765893E+04  0.13084765893E+04  0.25500000920E-02 0.  1.
        2   -1    0    0  501    0  0.00000000000E+00  0.00000000000E+00 -0.32580148188E+04  0.32580148188E+04  0.25500000920E-02 0. -1.
    10030    2    1    2    0    0  0.00000000000E+00  0.00000000000E+00 -0.19495382294E+04  0.45664914081E+04  0.41294242301E+04 0.  0.
        2    1    3    3  502    0  0.95074853228E+03  0.16965709744E+04 -0.20801267769E+03  0.19559000785E+04  0.25500000920E-02 0.  1.
       -2    1    3    3    0  502 -0.95074853228E+03 -0.16965709744E+04 -0.17415255518E+04  0.26105913296E+04  0.25500000920E-02 0. -1.
</event>
<event>
 5   0  0.2401125E-07  0.2131187E+04  0.7818609E-02  0.8547628E-01
        1   -1    0    0  501    0  0.00000000000E+00  0.00000000000E+00  0.10752404226E+04  0.10752404226E+04  0.50400001928E-02 0. -1.
       -1   -1    0    0    0  501  0.00000000000E+00  0.00000000000E+00 -0.10560332497E+04  0.10560332497E+04  0.50400001928E-02 0.  1.
    10030    2    1    2    0    0  0.00000000000E+00  0.00000000000E+00  0.19207172962E+02  0.21312736723E+04  0.21311871224E+04 0.  0.
        5    1    3    3  502    0  0.10011870942E+04 -0.18922621980E+03 -0.30231513636E+03  0.10628258049E+04  0.46999998093E+01 0.  1.
       -5    1    3    3    0  502 -0.10011870942E+04  0.18922621980E+03  0.32152230932E+03  0.10684478674E+04  0.46999998093E+01 0. -1.
</event>
<event>
 5   0  0.2713405E-07  0.2441752E+04  0.7818609E-02  0.8424036E-01
       -1   -1    0    0    0  501  0.00000000000E+00  0.00000000000E+00  0.58364052175E+03  0.58364052177E+03  0.50400001928E-02 0. -1.
        1   -1    0    0  501    0  0.00000000000E+00  0.00000000000E+00 -0.25538633488E+04  0.25538633488E+04  0.50400001928E-02 0.  1.
    10030    2    1    2    0    0  0.00000000000E+00  0.00000000000E+00 -0.19702228271E+04  0.31375038706E+04  0.24417519427E+04 0.  0.
        1    1    3    3  502    0 -0.11221864934E+04 -0.45141147307E+03 -0.11980522901E+04  0.17024700097E+04  0.50400001928E-02 0.  1.
       -1    1    3    3    0  502  0.11221864934E+04  0.45141147307E+03 -0.77217053698E+03  0.14350338610E+04  0.50400001928E-02 0. -1.
</event>
<event>
 5   0  0.4449262E-07  0.2422186E+04  0.7818609E-02  0.8431244E-01
       -2   -1    0    0    0  501  0.00000000000E+00  0.00000000000E+00  0.74849615356E+03  0.74849615357E+03  0.25500000920E-02 0.  1.
        2   -1    0    0  501    0  0.00000000000E+00  0.00000000000E+00 -0.19595903592E+04  0.19595903592E+04  0.25500000920E-02 0. -1.
    10030    2    1    2    0    0  0.00000000000E+00  0.00000000000E+00 -0.12110942056E+04  0.27080865127E+04  0.24221856629E+04 0.  0.
        1    1    3    3  502    0  0.34547281670E+03  0.12156531164E+03 -0.18961946433E+04  0.19312389074E+04  0.50400001928E-02 0. -1.
       -1    1    3    3    0  502 -0.34547281670E+03 -0.12156531164E+03  0.68510043774E+03  0.77684760532E+03  0.50400001928E-02 0.  1.
</event>
<event>
 5   0  0.2713405E-07  0.3994310E+04  0.7818609E-02  0.8005695E-01
       -1   -1    0    0    0  501  0.00000000000E+00  0.00000000000E+00  0.17619484491E+04  0.17619484491E+04  0.50400001928E-02 0.  1.
        1   -1    0    0  501    0  0.00000000000E+00  0.00000000000E+00 -0.22637593927E+04  0.22637593927E+04  0.50400001928E-02 0. -1.
    10030    2    1    2    0    0  0.00000000000E+00  0.00000000000E+00 -0.50181094355E+03  0.40257078418E+04  0.39943096280E+04 0.  0.
        1    1    3    3  502    0  0.14142092894E+04 -0.73908736076E+03  0.95953036720E+03  0.18619711509E+04  0.50400001928E-02 0.  1.
       -1    1    3    3    0  502 -0.14142092894E+04  0.73908736076E+03 -0.14613413107E+04  0.21637366909E+04  0.50400001928E-02 0. -1.
</event>
<event>
 5   0  0.7570277E-07  0.2946137E+04  0.7818609E-02  0.8259281E-01
       -2   -1    0    0    0  501  0.00000000000E+00  0.00000000000E+00  0.11085917540E+04  0.11085917540E+04  0.25500000920E-02 0. -1.
        2   -1    0    0  501    0  0.00000000000E+00  0.00000000000E+00 -0.19573755997E+04  0.19573755997E+04  0.25500000920E-02 0.  1.
    10030    2    1    2    0    0  0.00000000000E+00  0.00000000000E+00 -0.84878384565E+03  0.30659673537E+04  0.29461367581E+04 0.  0.
        5    1    3    3  502    0 -0.70626595804E+03 -0.51086229665E+03 -0.16601746367E+04  0.18750983452E+04  0.46999998093E+01 0.  1.
       -5    1    3    3    0  502  0.70626595804E+03  0.51086229665E+03  0.81139079110E+03  0.11908690085E+04  0.46999998093E+01 0. -1.
</event>
<event>
 5   0  0.5161550E-07  0.2961755E+04  0.7818609E-02  0.8254737E-01
        2   -1    0    0  501    0  0.00000000000E+00  0.00000000000E+00  0.16535552485E+04  0.16535552485E+04  0.25500000920E-02 0. -1.
       -2   -1    0    0    0  501  0.00000000000E+00  0.00000000000E+00 -0.13262318015E+04  0.13262318015E+04  0.25500000920E-02 0.  1.
    10030    2    1    2    0    0  0.00000000000E+00  0.00000000000E+00  0.32732344709E+03  0.29797870500E+04  0.29617545854E+04 0.  0.
        2    1    3    3  502    0  0.18164529287E+03 -0.10311477680E+04  0.12172898892E+04  0.16056324008E+04  0.25500000920E-02 0. -1.
       -2    1    3    3    0  502 -0.18164529287E+03  0.10311477680E+04 -0.88996644215E+03  0.13741546492E+04  0.25500000920E-02 0.  1.
</event>
<event>
 5   0  0.2401125E-07  0.4024770E+04  0.7818609E-02  0.7999568E-01
       -1   -1    0    0    0  501  0.00000000000E+00  0.00000000000E+00  0.24362206532E+04  0.24362206532E+04  0.50400001928E-02 0. -1.
        1   -1    0    0  501    0  0.00000000000E+00  0.00000000000E+00 -0.16622852425E+04  0.16622852425E+04  0.50400001928E-02 0.  1.
    10030    2    1    2    0    0  0.00000000000E+00  0.00000000000E+00  0.77393541071E+03  0.40985058957E+04  0.40247701247E+04 0.  0.
        5    1    3    3  502    0  0.18653722547E+04 -0.67800861053E+03  0.48673384467E+02  0.19853716309E+04  0.46999998093E+01 0.  1.
       -5    1    3    3    0  502 -0.18653722547E+04  0.67800861053E+03  0.72526202624E+03  0.21131342648E+04  0.46999998093E+01 0. -1.
</event>
<event>
 5   0  0.3579559E-07  0.2185004E+04  0.7818609E-02  0.8524696E-01
       -1   -1    0    0    0  501  0.00000000000E+00  0.00000000000E+00  0.19677508441E+04  0.19677508441E+04  0.50400001928E-02 0. -1.
        1   -1    0    0  501    0  0.00000000000E+00  0.00000000000E+00 -0.60656072692E+03  0.60656072694E+03  0.50400001928E-02 0.  1.
    10030    2    1    2    0    0  0.00000000000E+00  0.00000000000E+00  0.13611901172E+04  0.25743115711E+04  0.21850037825E+04 0.  0.
        4    1    3    3  502    0 -0.14037138870E+03 -0.36754755165E+03  0.18813855593E+04  0.19220844324E+04  0.12699999809E+01 0. -1.
       -4    1    3    3    0  502  0.14037138870E+03  0.36754755165E+03 -0.52019544214E+03  0.65222713867E+03  0.12699999809E+01 0.  1.
</event>
<event>
 5   0  0.7256473E-07  0.3994537E+04  0.7818609E-02  0.8005649E-01
        2   -1    0    0  501    0  0.00000000000E+00  0.00000000000E+00  0.15357893493E+04  0.15357893493E+04  0.25500000920E-02 0.  1.
       -2   -1    0    0    0  501  0.00000000000E+00  0.00000000000E+00 -0.25974148127E+04  0.25974148127E+04  0.25500000920E-02 0. -1.
    10030    2    1    2    0    0  0.00000000000E+00  0.00000000000E+00 -0.10616254634E+04  0.41332041620E+04  0.39945372724E+04 0.  0.
        4    1    3    3  502    0 -0.18961680593E+04  0.23673809066E+03 -0.11320004833E+04  0.22210188967E+04  0.12699999809E+01 0. -1.
       -4    1    3    3    0  502  0.18961680593E+04 -0.23673809066E+03  0.70375019868E+02  0.19121852653E+04  0.12699999809E+01 0.  1.
</event>
<event>
 5   0  0.3579559E-07  0.3984511E+04  0.7818609E-02  0.8007678E-01
       -1   -1    0    0    0  501  0.00000000000E+00  0.00000000000E+00  0.16775262504E+04  0.16775262505E+04  0.50400001928E-02 0.  1.
        1   -1    0    0  501    0  0.00000000000E+00  0.00000000000E+00 -0.23660330518E+04  0.23660330518E+04  0.50400001928E-02 0. -1.
    10030    2    1    2    0    0  0.00000000000E+00  0.00000000000E+00 -0.68850680137E+03  0.40435593023E+04  0.39845112894E+04 0.  0.
        4    1    3    3  502    0  0.18501817620E+04 -0.63459439923E+03  0.39770047049E+02  0.19563910329E+04  0.12699999809E+01 0.  1.
       -4    1    3    3    0  502 -0.18501817620E+04  0.63459439923E+03 -0.72827684842E+03  0.20871682694E+04  0.12699999809E+01 0. -1.
</event>
<event>
 5   0  0.7256473E-07  0.4007427E+04  0.7818609E-02  0.8003050E-01
        2   -1    0    0  501    0  0.00000000000E+00  0.00000000000E+00  0.21489424197E+04  0.21489424197E+04  0.25500000920E-02 0.  1.
       -2   -1    0    0    0  501  0.00000000000E+00  0.00000000000E+00 -0.18682993107E+04  0.18682993107E+04  0.25500000920E-02 0. -1.
    10030    2    1    2    0    0  0.00000000000E+00  0.00000000000E+00  0.28064310908E+03  0.40172417304E+04  0.40074269258E+04 0.  0.
        4    1    3    3  502    0  0.56774892488E+03  0.17857369407E+04  0.85175737094E+03  0.20583215237E+04  0.12699999809E+01 0.  1.
       -4    1    3    3    0  502 -0.56774892488E+03 -0.17857369407E+04 -0.57111426186E+03  0.19589202067E+04  0.12699999809E+01 0. -1.
</event>
<event>
 5   0  0.6043512E-07  0.3438607E+04  0.7818609E-02  0.8128495E-01
        2   -1    0    0  501    0  0.00000000000E+00  0.00000000000E+00  0.28323960346E+04  0.28323960346E+04  0.25500000920E-02 0. -1.
       -2   -1    0    0    0  501  0.00000000000E+00  0.00000000000E+00 -0.10436407093E+04  0.10436407093E+04  0.25500000920E-02 0.  1.
    10030    2    1    2    0    0  0.00000000000E+00  0.00000000000E+00  0.17887553253E+04  0.38760367439E+04  0.34386065821E+04 0.  0.
        3    1    3    3  502    0 -0.13744875310E+03 -0.95960321300E+03 -0.70621232513E+03  0.11993608066E+04  0.10100000352E+00 0.  1.
       -3    1    3    3    0  502  0.13744875310E+03  0.95960321300E+03  0.24949676505E+04  0.26766759373E+04  0.10100000352E+00 0. -1.
</event>
<event>
 5   0  0.2647879E-07  0.4000014E+04  0.7818609E-02  0.8004544E-01
        1   -1    0    0  501    0  0.00000000000E+00  0.00000000000E+00  0.15761284023E+04  0.15761284023E+04  0.50400001928E-02 0.  1.
       -1   -1    0    0    0  501  0.00000000000E+00  0.00000000000E+00 -0.25378824926E+04  0.25378824926E+04  0.50400001928E-02 0. -1.
    10030    2    1    2    0    0  0.00000000000E+00  0.00000000000E+00 -0.96175409031E+03  0.41140108948E+04  0.40000143391E+04 0.  0.
        2    1    3    3  502    0  0.77882516503E+03  0.18256804826E+04 -0.73354226385E+03  0.21160723322E+04  0.25500000920E-02 0.  1.
       -2    1    3    3    0  502 -0.77882516503E+03 -0.18256804826E+04 -0.22821182646E+03  0.19979385626E+04  0.25500000920E-02 0. -1.
</event>
<event>
 5   0  0.6043512E-07  0.4065555E+04  0.7818609E-02  0.7991451E-01
       -2   -1    0    0    0  501  0.00000000000E+00  0.00000000000E+00  0.14487130925E+04  0.14487130925E+04  0.25500000920E-02 0.  1.
        2   -1    0    0  501    0  0.00000000000E+00  0.00000000000E+00 -0.28523133311E+04  0.28523133311E+04  0.25500000920E-02 0. -1.
    10030    2    1    2    0    0  0.00000000000E+00  0.00000000000E+00 -0.14036002387E+04  0.43010264236E+04  0.40655546567E+04 0.  0.
        3    1    3    3  502    0 -0.40023296383E+03  0.41899355125E+03  0.13594973518E+04  0.14778278252E+04  0.10100000352E+00 0.  1.
       -3    1    3    3    0  502  0.40023296383E+03 -0.41899355125E+03 -0.27630975904E+04  0.28231985984E+04  0.10100000352E+00 0. -1.
</event>
<event>
 5   0  0.6043512E-07  0.2112862E+04  0.7818609E-02  0.8555599E-01
       -2   -1    0    0    0  501  0.00000000000E+00  0.00000000000E+00  0.14856319204E+04  0.14856319204E+04  0.25500000920E-02 0.  1.
        2   -1    0    0  501    0  0.00000000000E+00  0.00000000000E+00 -0.75122649814E+03  0.75122649814E+03  0.25500000920E-02 0. -1.
    10030    2    1    2    0    0  0.00000000000E+00  0.00000000000E+00  0.73440542221E+03  0.22368584185E+04  0.21128616283E+04 0.  0.
        3    1    3    3  502    0 -0.20332281595E+03 -0.67878339962E+03 -0.46233688280E+03  0.84607474521E+03  0.10100000352E+00 0. -1.
       -3    1    3    3    0  502  0.20332281595E+03  0.67878339962E+03  0.11967423050E+04  0.13907836733E+04  0.10100000352E+00 0.  1.
</event>
<event>
 5   0  0.2401125E-07  0.2380801E+04  0.7818609E-02  0.8446726E-01
        1   -1    0    0  501    0  0.00000000000E+00  0.00000000000E+00  0.10020030651E+04  0.10020030651E+04  0.50400001928E-02 0.  1.
       -1   -1    0    0    0  501  0.00000000000E+00  0.00000000000E+00 -0.14142206804E+04  0.14142206804E+04  0.50400001928E-02 0. -1.
    10030    2    1    2    0    0  0.00000000000E+00  0.00000000000E+00 -0.41221761529E+03  0.24162237455E+04  0.23808010891E+04 0.  0.
        5    1    3    3  502    0  0.33083479895E+03 -0.11214120253E+04 -0.43307605025E+03  0.12468334091E+04  0.46999998093E+01 0. -1.
       -5    1    3    3    0  502 -0.33083479895E+03  0.11214120253E+04  0.20858434957E+02  0.11693903364E+04  0.46999998093E+01 0.  1.
</event>
<event>
 5   0  0.5161550E-07  0.3975878E+04  0.7818609E-02  0.8009431E-01
       -2   -1    0    0    0  501  0.00000000000E+00  0.00000000000E+00  0.20796003243E+04  0.20796003243E+04  0.25500000920E-02 0.  1.
        2   -1    0    0  501    0  0.00000000000E+00  0.00000000000E+00 -0.19003175594E+04  0.19003175594E+04  0.25500000920E-02 0. -1.
    10030    2    1    2    0    0  0.00000000000E+00  0.00000000000E+00  0.17928276483E+03  0.39799178837E+04  0.39758777712E+04 0.  0.
        2    1    3    3  502    0 -0.37612225643E+03 -0.19520065690E+04  0.99821063296E+02  0.19904175044E+04  0.25500000920E-02 0.  1.
       -2    1    3    3    0  502  0.37612225643E+03  0.19520065690E+04  0.79461701537E+02  0.19895003793E+04  0.25500000920E-02 0. -1.
</event>
<event>
 5   0  0.2601252E-07  0.3399507E+04  0.7818609E-02  0.8138027E-01
        1   -1    0    0  501    0  0.00000000000E+00  0.00000000000E+00  0.15689935831E+04  0.15689935831E+04  0.50400001928E-02 0.  1.
       -1   -1    0    0    0  501  0.00000000000E+00  0.00000000000E+00 -0.18414113220E+04  0.18414113220E+04  0.50400001928E-02 0. -1.
    10030    2    1    2    0    0  0.00000000000E+00  0.00000000000E+00 -0.27241773883E+03  0.34104049051E+04  0.33995073455E+04 0.  0.
        3    1    3    3  502    0 -0.93390641755E+03 -0.63339769759E+03 -0.14114204363E+04  0.18070643315E+04  0.10100000352E+00 0. -1.
       -3    1    3    3    0  502  0.93390641755E+03  0.63339769759E+03  0.11390026974E+04  0.16033405736E+04  0.10100000352E+00 0.  1.
</event>
</LesHouchesEvents>
